Generated by trjconv : CNT in water t= 289.00000
33518
    1C        C    1   2.842   2.766   4.746
    1C        C    2   2.899   2.720   4.867
    1C        C    3   2.837   2.766   4.984
    1C        C    4   2.853   2.774   4.261
    1C        C    5   2.904   2.728   4.385
    1C        C    6   2.846   2.773   4.505
    1C        C    7   3.013   2.638   4.628
    1C        C    8   2.897   2.719   4.625
    1C        C    9   3.079   2.605   4.749
    1C        C   10   3.008   2.631   4.868
    1C        C   11   3.186   2.497   4.981
    1C        C   12   3.064   2.566   4.979
    1C        C   13   2.849   2.770   3.773
    1C        C   14   2.901   2.721   3.895
    1C        C   15   2.851   2.773   4.016
    1C        C   16   3.020   2.646   4.139
    1C        C   17   2.903   2.725   4.138
    1C        C   18   3.082   2.612   4.262
    1C        C   19   3.020   2.647   4.384
    1C        C   20   3.208   2.556   4.503
    1C        C   21   3.077   2.607   4.507
    1C        C   22   3.274   2.530   4.626
    1C        C   23   3.208   2.545   4.749
    1C        C   24   3.417   2.490   4.867
    1C        C   25   3.274   2.507   4.869
    1C        C   26   3.490   2.487   4.986
    1C        C   27   2.855   2.773   3.286
    1C        C   28   2.908   2.729   3.409
    1C        C   29   2.853   2.777   3.530
    1C        C   30   3.017   2.640   3.651
    1C        C   31   2.904   2.725   3.651
    1C        C   32   3.078   2.602   3.773
    1C        C   33   3.015   2.637   3.894
    1C        C   34   3.207   2.548   4.018
    1C        C   35   3.077   2.603   4.017
    1C        C   36   3.276   2.527   4.139
    1C        C   37   3.210   2.552   4.261
    1C        C   38   3.419   2.510   4.383
    1C        C   39   3.279   2.533   4.383
    1C        C   40   3.486   2.503   4.507
    1C        C   41   3.413   2.505   4.628
    1C        C   42   3.632   2.484   4.743
    1C        C   43   3.490   2.486   4.745
    1C        C   44   3.703   2.496   4.865
    1C        C   45   3.629   2.479   4.983
    1C        C   46   2.840   2.754   2.798
    1C        C   47   2.896   2.713   2.921
    1C        C   48   2.848   2.768   3.042
    1C        C   49   3.018   2.637   3.163
    1C        C   50   2.907   2.726   3.163
    1C        C   51   3.080   2.604   3.286
    1C        C   52   3.021   2.643   3.408
    1C        C   53   3.209   2.545   3.530
    1C        C   54   3.080   2.602   3.530
    1C        C   55   3.275   2.522   3.653
    1C        C   56   3.208   2.547   3.775
    1C        C   57   3.416   2.506   3.893
    1C        C   58   3.277   2.530   3.896
    1C        C   59   3.487   2.496   4.015
    1C        C   60   3.415   2.504   4.137
    1C        C   61   3.628   2.506   4.259
    1C        C   62   3.486   2.502   4.259
    1C        C   63   3.700   2.506   4.380
    1C        C   64   3.627   2.500   4.501
    1C        C   65   3.836   2.542   4.621
    1C        C   66   3.701   2.502   4.621
    1C        C   67   3.903   2.567   4.743
    1C        C   68   3.838   2.535   4.864
    1C        C   69   4.054   2.586   4.978
    1C        C   70   3.924   2.534   4.974
    1C        C   71   2.827   2.739   2.311
    1C        C   72   2.888   2.697   2.432
    1C        C   73   2.841   2.752   2.553
    1C        C   74   3.010   2.628   2.676
    1C        C   75   2.894   2.708   2.676
    1C        C   76   3.074   2.594   2.797
    1C        C   77   3.017   2.640   2.918
    1C        C   78   3.209   2.549   3.040
    1C        C   79   3.080   2.608   3.040
    1C        C   80   3.277   2.527   3.162
    1C        C   81   3.207   2.543   3.284
    1C        C   82   3.413   2.498   3.405
    1C        C   83   3.272   2.517   3.407
    1C        C   84   3.484   2.491   3.526
    1C        C   85   3.414   2.496   3.649
    1C        C   86   3.627   2.497   3.772
    1C        C   87   3.486   2.491   3.771
    1C        C   88   3.698   2.512   3.893
    1C        C   89   3.628   2.508   4.015
    1C        C   90   3.833   2.561   4.136
    1C        C   91   3.698   2.518   4.137
    1C        C   92   3.901   2.582   4.258
    1C        C   93   3.836   2.545   4.378
    1C        C   94   4.028   2.636   4.498
    1C        C   95   3.901   2.573   4.500
    1C        C   96   4.086   2.677   4.620
    1C        C   97   4.028   2.636   4.742
    1C        C   98   4.195   2.766   4.860
    1C        C   99   4.101   2.657   4.863
    1C        C  100   4.222   2.843   4.974
    1C        C  101   2.821   2.730   2.072
    1C        C  102   2.989   2.593   2.192
    1C        C  103   2.876   2.681   2.191
    1C        C  104   3.061   2.569   2.313
    1C        C  105   3.001   2.612   2.433
    1C        C  106   3.202   2.536   2.551
    1C        C  107   3.071   2.588   2.554
    1C        C  108   3.272   2.520   2.673
    1C        C  109   3.204   2.539   2.796
    1C        C  110   3.413   2.497   2.918
    1C        C  111   3.274   2.523   2.917
    1C        C  112   3.486   2.494   3.039
    1C        C  113   3.415   2.502   3.161
    1C        C  114   3.627   2.494   3.284
    1C        C  115   3.486   2.494   3.284
    1C        C  116   3.696   2.507   3.406
    1C        C  117   3.625   2.501   3.528
    1C        C  118   3.832   2.554   3.645
    1C        C  119   3.696   2.516   3.650
    1C        C  120   3.899   2.574   3.768
    1C        C  121   3.835   2.548   3.891
    1C        C  122   4.027   2.639   4.010
    1C        C  123   3.899   2.579   4.013
    1C        C  124   4.090   2.672   4.133
    1C        C  125   4.030   2.638   4.256
    1C        C  126   4.201   2.764   4.378
    1C        C  127   4.090   2.677   4.378
    1C        C  128   4.247   2.819   4.499
    1C        C  129   4.193   2.769   4.620
    1C        C  130   4.329   2.936   4.740
    1C        C  131   4.247   2.820   4.740
    1C        C  132   4.361   3.006   4.858
    1C        C  133   4.289   2.965   4.970
    1C        C  134   3.176   2.473   2.082
    1C        C  135   3.041   2.510   2.087
    1C        C  136   3.260   2.479   2.193
    1C        C  137   3.195   2.523   2.311
    1C        C  138   3.407   2.480   2.431
    1C        C  139   3.267   2.502   2.431
    1C        C  140   3.480   2.474   2.551
    1C        C  141   3.410   2.493   2.673
    1C        C  142   3.623   2.494   2.790
    1C        C  143   3.482   2.493   2.794
    1C        C  144   3.692   2.504   2.913
    1C        C  145   3.627   2.496   3.038
    1C        C  146   3.833   2.536   3.158
    1C        C  147   3.697   2.497   3.161
    1C        C  148   3.898   2.568   3.279
    1C        C  149   3.832   2.544   3.402
    1C        C  150   4.029   2.629   3.521
    1C        C  151   3.900   2.570   3.523
    1C        C  152   4.086   2.670   3.644
    1C        C  153   4.023   2.641   3.767
    1C        C  154   4.197   2.766   3.890
    1C        C  155   4.083   2.683   3.888
    1C        C  156   4.247   2.815   4.013
    1C        C  157   4.198   2.763   4.135
    1C        C  158   4.340   2.924   4.254
    1C        C  159   4.253   2.813   4.255
    1C        C  160   4.374   2.989   4.374
    1C        C  161   4.331   2.933   4.497
    1C        C  162   4.445   3.114   4.615
    1C        C  163   4.373   2.993   4.618
    1C        C  164   4.469   3.184   4.735
    1C        C  165   4.440   3.123   4.859
    1C        C  166   4.522   3.321   4.974
    1C        C  167   4.478   3.189   4.977
    1C        C  168   3.476   2.438   2.074
    1C        C  169   3.400   2.460   2.190
    1C        C  170   3.618   2.467   2.308
    1C        C  171   3.476   2.466   2.309
    1C        C  172   3.693   2.485   2.427
    1C        C  173   3.621   2.484   2.548
    1C        C  174   3.831   2.534   2.669
    1C        C  175   3.694   2.500   2.668
    1C        C  176   3.898   2.557   2.791
    1C        C  177   3.830   2.537   2.913
    1C        C  178   4.018   2.636   3.031
    1C        C  179   3.895   2.566   3.035
    1C        C  180   4.080   2.673   3.153
    1C        C  181   4.024   2.631   3.276
    1C        C  182   4.196   2.754   3.401
    1C        C  183   4.088   2.663   3.398
    1C        C  184   4.248   2.807   3.522
    1C        C  185   4.197   2.757   3.644
    1C        C  186   4.338   2.917   3.766
    1C        C  187   4.249   2.808   3.765
    1C        C  188   4.378   2.977   3.887
    1C        C  189   4.336   2.924   4.011
    1C        C  190   4.449   3.105   4.129
    1C        C  191   4.384   2.980   4.132
    1C        C  192   4.476   3.173   4.249
    1C        C  193   4.445   3.111   4.372
    1C        C  194   4.510   3.315   4.492
    1C        C  195   4.478   3.178   4.493
    1C        C  196   4.528   3.386   4.613
    1C        C  197   4.519   3.318   4.736
    1C        C  198   4.560   3.534   4.852
    1C        C  199   4.542   3.392   4.855
    1C        C  200   4.576   3.620   4.966
    1C        C  201   3.616   2.423   2.073
    1C        C  202   3.826   2.517   2.182
    1C        C  203   3.692   2.465   2.187
    1C        C  204   3.896   2.546   2.302
    1C        C  205   3.830   2.520   2.425
    1C        C  206   4.022   2.616   2.543
    1C        C  207   3.897   2.552   2.545
    1C        C  208   4.082   2.657   2.665
    1C        C  209   4.024   2.621   2.788
    1C        C  210   4.193   2.754   2.908
    1C        C  211   4.082   2.667   2.909
    1C        C  212   4.247   2.801   3.030
    1C        C  213   4.194   2.756   3.154
    1C        C  214   4.335   2.910   3.274
    1C        C  215   4.243   2.803   3.278
    1C        C  216   4.378   2.971   3.394
    1C        C  217   4.338   2.916   3.518
    1C        C  218   4.437   3.101   3.640
    1C        C  219   4.373   2.975   3.641
    1C        C  220   4.468   3.167   3.761
    1C        C  221   4.445   3.102   3.884
    1C        C  222   4.506   3.307   4.003
    1C        C  223   4.472   3.170   4.005
    1C        C  224   4.523   3.379   4.123
    1C        C  225   4.513   3.310   4.246
    1C        C  226   4.519   3.522   4.366
    1C        C  227   4.521   3.381   4.368
    1C        C  228   4.515   3.595   4.487
    1C        C  229   4.535   3.527   4.609
    1C        C  230   4.507   3.741   4.727
    1C        C  231   4.538   3.602   4.729
    1C        C  232   4.497   3.818   4.845
    1C        C  233   4.548   3.757   4.960
    1C        C  234   4.020   2.609   2.064
    1C        C  235   3.895   2.549   2.064
    1C        C  236   4.085   2.653   2.180
    1C        C  237   4.019   2.616   2.299
    1C        C  238   4.196   2.736   2.423
    1C        C  239   4.084   2.649   2.420
    1C        C  240   4.251   2.787   2.543
    1C        C  241   4.192   2.746   2.665
    1C        C  242   4.336   2.906   2.785
    1C        C  243   4.245   2.798   2.785
    1C        C  244   4.379   2.964   2.906
    1C        C  245   4.339   2.908   3.029
    1C        C  246   4.438   3.094   3.150
    1C        C  247   4.379   2.966   3.151
    1C        C  248   4.469   3.159   3.272
    1C        C  249   4.441   3.097   3.396
    1C        C  250   4.501   3.303   3.513
    1C        C  251   4.466   3.166   3.517
    1C        C  252   4.516   3.372   3.635
    1C        C  253   4.503   3.304   3.759
    1C        C  254   4.521   3.517   3.879
    1C        C  255   4.510   3.376   3.880
    1C        C  256   4.520   3.590   4.000
    1C        C  257   4.526   3.520   4.123
    1C        C  258   4.493   3.732   4.243
    1C        C  259   4.518   3.593   4.244
    1C        C  260   4.467   3.801   4.363
    1C        C  261   4.485   3.734   4.486
    1C        C  262   4.425   3.938   4.604
    1C        C  263   4.478   3.807   4.606
    1C        C  264   4.398   4.007   4.725
    1C        C  265   4.436   3.945   4.846
    1C        C  266   4.315   4.130   4.960
    1C        C  267   4.392   4.014   4.960
    1C        C  268   4.265   2.774   2.062
    1C        C  269   4.199   2.736   2.180
    1C        C  270   4.344   2.891   2.300
    1C        C  271   4.253   2.783   2.302
    1C        C  272   4.387   2.953   2.420
    1C        C  273   4.344   2.893   2.541
    1C        C  274   4.449   3.080   2.661
    1C        C  275   4.386   2.954   2.661
    1C        C  276   4.473   3.152   2.780
    1C        C  277   4.448   3.088   2.903
    1C        C  278   4.506   3.290   3.025
    1C        C  279   4.471   3.153   3.026
    1C        C  280   4.516   3.362   3.146
    1C        C  281   4.507   3.295   3.270
    1C        C  282   4.520   3.511   3.389
    1C        C  283   4.514   3.370   3.390
    1C        C  284   4.521   3.583   3.511
    1C        C  285   4.525   3.513   3.634
    1C        C  286   4.495   3.724   3.752
    1C        C  287   4.518   3.585   3.755
    1C        C  288   4.471   3.792   3.874
    1C        C  289   4.488   3.727   3.998
    1C        C  290   4.427   3.931   4.118
    1C        C  291   4.474   3.798   4.119
    1C        C  292   4.399   4.000   4.238
    1C        C  293   4.420   3.934   4.362
    1C        C  294   4.315   4.121   4.481
    1C        C  295   4.389   4.001   4.483
    1C        C  296   4.276   4.181   4.603
    1C        C  297   4.323   4.128   4.725
    1C        C  298   4.201   4.316   4.838
    1C        C  299   4.279   4.196   4.842
    1C        C  300   4.170   4.405   4.946
    1C        C  301   4.357   2.879   2.066
    1C        C  302   4.475   3.068   2.178
    1C        C  303   4.398   2.947   2.181
    1C        C  304   4.485   3.142   2.299
    1C        C  305   4.454   3.077   2.420
    1C        C  306   4.519   3.283   2.537
    1C        C  307   4.480   3.147   2.540
    1C        C  308   4.525   3.358   2.656
    1C        C  309   4.509   3.289   2.779
    1C        C  310   4.523   3.499   2.900
    1C        C  311   4.518   3.358   2.902
    1C        C  312   4.520   3.573   3.020
    1C        C  313   4.524   3.503   3.143
    1C        C  314   4.489   3.715   3.264
    1C        C  315   4.510   3.575   3.264
    1C        C  316   4.472   3.785   3.385
    1C        C  317   4.498   3.722   3.509
    1C        C  318   4.422   3.923   3.628
    1C        C  319   4.478   3.793   3.630
    1C        C  320   4.383   3.983   3.750
    1C        C  321   4.419   3.924   3.873
    1C        C  322   4.318   4.110   3.992
    1C        C  323   4.396   3.992   3.994
    1C        C  324   4.277   4.168   4.115
    1C        C  325   4.326   4.121   4.238
    1C        C  326   4.185   4.285   4.354
    1C        C  327   4.280   4.181   4.358
    1C        C  328   4.139   4.344   4.474
    1C        C  329   4.188   4.291   4.596
    1C        C  330   4.031   4.442   4.713
    1C        C  331   4.140   4.351   4.714
    1C        C  332   3.975   4.502   4.828
    1C        C  333   4.054   4.483   4.942
    1C        C  334   4.558   3.266   2.064
    1C        C  335   4.543   3.127   2.067
    1C        C  336   4.543   3.350   2.175
    1C        C  337   4.518   3.281   2.295
    1C        C  338   4.531   3.495   2.412
    1C        C  339   4.531   3.354   2.415
    1C        C  340   4.524   3.569   2.532
    1C        C  341   4.524   3.499   2.655
    1C        C  342   4.499   3.710   2.776
    1C        C  343   4.515   3.569   2.777
    1C        C  344   4.476   3.781   2.896
    1C        C  345   4.488   3.711   3.018
    1C        C  346   4.423   3.913   3.141
    1C        C  347   4.471   3.780   3.140
    1C        C  348   4.391   3.981   3.260
    1C        C  349   4.421   3.916   3.382
    1C        C  350   4.312   4.100   3.502
    1C        C  351   4.391   3.982   3.504
    1C        C  352   4.270   4.159   3.623
    1C        C  353   4.315   4.107   3.746
    1C        C  354   4.180   4.269   3.864
    1C        C  355   4.277   4.166   3.869
    1C        C  356   4.125   4.315   3.986
    1C        C  357   4.180   4.270   4.108
    1C        C  358   4.013   4.402   4.230
    1C        C  359   4.127   4.319   4.230
    1C        C  360   3.955   4.448   4.350
    1C        C  361   4.019   4.418   4.472
    1C        C  362   3.831   4.520   4.591
    1C        C  363   3.960   4.464   4.592
    1C        C  364   3.762   4.552   4.710
    1C        C  365   3.842   4.548   4.827
    1C        C  366   3.630   4.599   4.946
    1C        C  367   3.768   4.577   4.943
    1C        C  368   4.517   3.566   2.055
    1C        C  369   4.528   3.491   2.173
    1C        C  370   4.500   3.708   2.290
    1C        C  371   4.521   3.568   2.291
    1C        C  372   4.478   3.775   2.412
    1C        C  373   4.498   3.708   2.534
    1C        C  374   4.423   3.908   2.649
    1C        C  375   4.482   3.779   2.655
    1C        C  376   4.388   3.971   2.770
    1C        C  377   4.423   3.912   2.893
    1C        C  378   4.319   4.093   3.012
    1C        C  379   4.397   3.976   3.017
    1C        C  380   4.272   4.151   3.132
    1C        C  381   4.314   4.099   3.257
    1C        C  382   4.171   4.253   3.375
    1C        C  383   4.276   4.159   3.379
    1C        C  384   4.120   4.306   3.496
    1C        C  385   4.174   4.263   3.620
    1C        C  386   4.006   4.391   3.744
    1C        C  387   4.122   4.310   3.742
    1C        C  388   3.947   4.433   3.865
    1C        C  389   4.008   4.395   3.987
    1C        C  390   3.820   4.493   4.106
    1C        C  391   3.949   4.436   4.108
    1C        C  392   3.754   4.517   4.229
    1C        C  393   3.824   4.503   4.351
    1C        C  394   3.616   4.546   4.472
    1C        C  395   3.757   4.533   4.471
    1C        C  396   3.546   4.551   4.594
    1C        C  397   3.621   4.562   4.713
    1C        C  398   3.410   4.554   4.838
    1C        C  399   3.550   4.575   4.834
    1C        C  400   3.343   4.515   4.955
    1C        C  401   4.500   3.704   2.050
    1C        C  402   4.442   3.911   2.167
    1C        C  403   4.492   3.779   2.168
    1C        C  404   4.409   3.977   2.287
    1C        C  405   4.435   3.910   2.408
    1C        C  406   4.326   4.097   2.527
    1C        C  407   4.400   3.977   2.527
    1C        C  408   4.273   4.150   2.647
    1C        C  409   4.311   4.090   2.769
    1C        C  410   4.168   4.246   2.892
    1C        C  411   4.269   4.147   2.891
    1C        C  412   4.117   4.299   3.013
    1C        C  413   4.174   4.252   3.134
    1C        C  414   4.002   4.383   3.255
    1C        C  415   4.118   4.301   3.254
    1C        C  416   3.940   4.419   3.377
    1C        C  417   4.003   4.386   3.499
    1C        C  418   3.815   4.480   3.620
    1C        C  419   3.945   4.426   3.621
    1C        C  420   3.749   4.510   3.742
    1C        C  421   3.817   4.488   3.864
    1C        C  422   3.610   4.533   3.989
    1C        C  423   3.749   4.511   3.986
    1C        C  424   3.539   4.536   4.112
    1C        C  425   3.615   4.542   4.231
    1C        C  426   3.401   4.547   4.354
    1C        C  427   3.542   4.549   4.351
    1C        C  428   3.334   4.537   4.478
    1C        C  429   3.405   4.546   4.600
    1C        C  430   3.194   4.516   4.725
    1C        C  431   3.332   4.550   4.721
    1C        C  432   3.125   4.490   4.846
    1C        C  433   3.206   4.496   4.961
    1C        C  434   4.382   4.125   2.053
    1C        C  435   4.439   3.997   2.056
    1C        C  436   4.303   4.163   2.166
    1C        C  437   4.332   4.096   2.288
    1C        C  438   4.179   4.252   2.404
    1C        C  439   4.278   4.152   2.406
    1C        C  440   4.122   4.297   2.525
    1C        C  441   4.174   4.251   2.649
    1C        C  442   4.004   4.380   2.767
    1C        C  443   4.118   4.296   2.770
    1C        C  444   3.948   4.426   2.888
    1C        C  445   4.004   4.383   3.010
    1C        C  446   3.813   4.476   3.134
    1C        C  447   3.941   4.415   3.132
    1C        C  448   3.745   4.501   3.255
    1C        C  449   3.810   4.474   3.377
    1C        C  450   3.607   4.535   3.498
    1C        C  451   3.744   4.499   3.499
    1C        C  452   3.539   4.547   3.621
    1C        C  453   3.611   4.539   3.743
    1C        C  454   3.400   4.547   3.865
    1C        C  455   3.542   4.544   3.866
    1C        C  456   3.331   4.539   3.988
    1C        C  457   3.398   4.535   4.112
    1C        C  458   3.190   4.503   4.238
    1C        C  459   3.328   4.535   4.234
    1C        C  460   3.126   4.482   4.362
    1C        C  461   3.196   4.506   4.483
    1C        C  462   2.996   4.433   4.602
    1C        C  463   3.127   4.487   4.604
    1C        C  464   2.928   4.406   4.723
    1C        C  465   2.989   4.443   4.846
    1C        C  466   2.798   4.340   4.962
    1C        C  467   2.909   4.426   4.963
    1C        C  468   4.128   4.296   2.042
    1C        C  469   4.188   4.248   2.160
    1C        C  470   4.012   4.377   2.278
    1C        C  471   4.129   4.297   2.280
    1C        C  472   3.946   4.413   2.398
    1C        C  473   4.006   4.378   2.521
    1C        C  474   3.812   4.465   2.641
    1C        C  475   3.942   4.409   2.643
    1C        C  476   3.749   4.492   2.764
    1C        C  477   3.816   4.477   2.888
    1C        C  478   3.609   4.524   3.009
    1C        C  479   3.748   4.496   3.010
    1C        C  480   3.535   4.527   3.129
    1C        C  481   3.606   4.528   3.251
    1C        C  482   3.397   4.539   3.377
    1C        C  483   3.539   4.543   3.375
    1C        C  484   3.327   4.530   3.499
    1C        C  485   3.398   4.542   3.620
    1C        C  486   3.193   4.497   3.744
    1C        C  487   3.329   4.536   3.744
    1C        C  488   3.128   4.474   3.868
    1C        C  489   3.195   4.501   3.989
    1C        C  490   3.003   4.417   4.115
    1C        C  491   3.129   4.481   4.112
    1C        C  492   2.943   4.379   4.237
    1C        C  493   2.999   4.421   4.360
    1C        C  494   2.830   4.296   4.484
    1C        C  495   2.936   4.389   4.482
    1C        C  496   2.777   4.251   4.607
    1C        C  497   2.822   4.311   4.727
    1C        C  498   2.666   4.166   4.847
    1C        C  499   2.755   4.275   4.846
    1C        C  500   2.599   4.117   4.960
    1C        C  501   3.999   4.348   2.043
    1C        C  502   3.817   4.467   2.153
    1C        C  503   3.943   4.404   2.158
    1C        C  504   3.745   4.483   2.274
    1C        C  505   3.815   4.465   2.396
    1C        C  506   3.608   4.513   2.522
    1C        C  507   3.747   4.488   2.518
    1C        C  508   3.538   4.518   2.644
    1C        C  509   3.610   4.516   2.765
    1C        C  510   3.398   4.523   2.887
    1C        C  511   3.539   4.530   2.887
    1C        C  512   3.324   4.521   3.008
    1C        C  513   3.394   4.529   3.131
    1C        C  514   3.191   4.493   3.256
    1C        C  515   3.327   4.532   3.255
    1C        C  516   3.124   4.467   3.378
    1C        C  517   3.190   4.495   3.500
    1C        C  518   2.999   4.407   3.625
    1C        C  519   3.126   4.469   3.623
    1C        C  520   2.939   4.375   3.749
    1C        C  521   3.002   4.412   3.870
    1C        C  522   2.838   4.281   3.995
    1C        C  523   2.946   4.371   3.994
    1C        C  524   2.782   4.239   4.119
    1C        C  525   2.835   4.288   4.240
    1C        C  526   2.692   4.133   4.364
    1C        C  527   2.784   4.240   4.363
    1C        C  528   2.654   4.075   4.487
    1C        C  529   2.688   4.142   4.606
    1C        C  530   2.579   3.964   4.732
    1C        C  531   2.637   4.094   4.729
    1C        C  532   2.541   3.902   4.854
    1C        C  533   2.531   3.995   4.962
    1C        C  534   3.614   4.559   2.037
    1C        C  535   3.746   4.515   2.042
    1C        C  536   3.537   4.536   2.156
    1C        C  537   3.606   4.510   2.278
    1C        C  538   3.396   4.517   2.401
    1C        C  539   3.537   4.524   2.400
    1C        C  540   3.324   4.510   2.522
    1C        C  541   3.396   4.517   2.643
    1C        C  542   3.188   4.482   2.767
    1C        C  543   3.326   4.510   2.766
    1C        C  544   3.118   4.465   2.889
    1C        C  545   3.188   4.485   3.010
    1C        C  546   2.999   4.399   3.134
    1C        C  547   3.124   4.464   3.135
    1C        C  548   2.941   4.362   3.258
    1C        C  549   2.999   4.401   3.381
    1C        C  550   2.827   4.281   3.504
    1C        C  551   2.936   4.370   3.504
    1C        C  552   2.778   4.234   3.628
    1C        C  553   2.832   4.283   3.749
    1C        C  554   2.699   4.122   3.877
    1C        C  555   2.786   4.233   3.873
    1C        C  556   2.654   4.068   3.999
    1C        C  557   2.691   4.132   4.120
    1C        C  558   2.596   3.944   4.247
    1C        C  559   2.649   4.075   4.242
    1C        C  560   2.567   3.881   4.369
    1C        C  561   2.584   3.952   4.490
    1C        C  562   2.527   3.752   4.616
    1C        C  563   2.556   3.890   4.614
    1C        C  564   2.521   3.684   4.740
    1C        C  565   2.522   3.761   4.860
    1C        C  566   2.528   3.551   4.976
    1C        C  567   2.524   3.690   4.981
    1C        C  568   3.330   4.476   2.043
    1C        C  569   3.396   4.517   2.160
    1C        C  570   3.184   4.476   2.281
    1C        C  571   3.322   4.509   2.281
    1C        C  572   3.117   4.459   2.404
    1C        C  573   3.186   4.479   2.525
    1C        C  574   2.990   4.396   2.648
    1C        C  575   3.117   4.457   2.647
    1C        C  576   2.933   4.358   2.771
    1C        C  577   2.993   4.400   2.892
    1C        C  578   2.824   4.274   3.014
    1C        C  579   2.933   4.363   3.014
    1C        C  580   2.776   4.228   3.139
    1C        C  581   2.829   4.277   3.260
    1C        C  582   2.687   4.119   3.384
    1C        C  583   2.778   4.228   3.382
    1C        C  584   2.653   4.062   3.508
    1C        C  585   2.694   4.120   3.631
    1C        C  586   2.592   3.938   3.757
    1C        C  587   2.661   4.061   3.755
    1C        C  588   2.565   3.874   3.880
    1C        C  589   2.595   3.939   4.002
    1C        C  590   2.534   3.740   4.127
    1C        C  591   2.568   3.877   4.126
    1C        C  592   2.519   3.674   4.251
    1C        C  593   2.522   3.747   4.372
    1C        C  594   2.508   3.538   4.497
    1C        C  595   2.513   3.679   4.496
    1C        C  596   2.514   3.468   4.620
    1C        C  597   2.524   3.542   4.740
    1C        C  598   2.537   3.330   4.861
    1C        C  599   2.529   3.471   4.862
    1C        C  600   2.535   3.252   4.977
    1C        C  601   3.199   4.436   2.045
    1C        C  602   2.983   4.393   2.162
    1C        C  603   3.119   4.438   2.160
    1C        C  604   2.927   4.355   2.287
    1C        C  605   2.994   4.390   2.406
    1C        C  606   2.816   4.272   2.527
    1C        C  607   2.927   4.359   2.527
    1C        C  608   2.768   4.221   2.650
    1C        C  609   2.822   4.270   2.771
    1C        C  610   2.681   4.114   2.896
    1C        C  611   2.771   4.222   2.894
    1C        C  612   2.647   4.055   3.020
    1C        C  613   2.690   4.115   3.141
    1C        C  614   2.590   3.928   3.265
    1C        C  615   2.650   4.056   3.263
    1C        C  616   2.566   3.868   3.391
    1C        C  617   2.592   3.935   3.512
    1C        C  618   2.537   3.732   3.637
    1C        C  619   2.570   3.870   3.636
    1C        C  620   2.523   3.665   3.761
    1C        C  621   2.528   3.738   3.882
    1C        C  622   2.513   3.528   4.007
    1C        C  623   2.519   3.670   4.005
    1C        C  624   2.521   3.461   4.131
    1C        C  625   2.520   3.533   4.252
    1C        C  626   2.539   3.326   4.379
    1C        C  627   2.520   3.465   4.376
    1C        C  628   2.559   3.258   4.501
    1C        C  629   2.541   3.329   4.621
    1C        C  630   2.601   3.123   4.741
    1C        C  631   2.552   3.256   4.741
    1C        C  632   2.620   3.052   4.863
    1C        C  633   2.570   3.116   4.980
    1C        C  634   2.791   4.297   2.051
    1C        C  635   2.894   4.392   2.050
    1C        C  636   2.752   4.229   2.167
    1C        C  637   2.809   4.275   2.287
    1C        C  638   2.675   4.108   2.409
    1C        C  639   2.758   4.222   2.408
    1C        C  640   2.635   4.053   2.533
    1C        C  641   2.680   4.110   2.653
    1C        C  642   2.576   3.926   2.776
    1C        C  643   2.641   4.052   2.776
    1C        C  644   2.548   3.864   2.900
    1C        C  645   2.586   3.928   3.020
    1C        C  646   2.526   3.726   3.148
    1C        C  647   2.563   3.863   3.143
    1C        C  648   2.514   3.658   3.271
    1C        C  649   2.531   3.731   3.391
    1C        C  650   2.518   3.522   3.517
    1C        C  651   2.523   3.663   3.515
    1C        C  652   2.522   3.454   3.641
    1C        C  653   2.514   3.524   3.763
    1C        C  654   2.539   3.315   3.888
    1C        C  655   2.519   3.455   3.886
    1C        C  656   2.560   3.251   4.012
    1C        C  657   2.540   3.321   4.134
    1C        C  658   2.611   3.124   4.259
    1C        C  659   2.557   3.255   4.258
    1C        C  660   2.645   3.062   4.381
    1C        C  661   2.604   3.124   4.501
    1C        C  662   2.707   2.935   4.626
    1C        C  663   2.632   3.054   4.621
    1C        C  664   2.753   2.877   4.747
    1C        C  665   2.698   2.932   4.866
    1C        C  666   2.738   2.865   4.983
    1C        C  667   2.680   4.021   2.056
    1C        C  668   2.685   4.105   2.169
    1C        C  669   2.587   3.912   2.291
    1C        C  670   2.644   4.042   2.288
    1C        C  671   2.556   3.852   2.415
    1C        C  672   2.575   3.925   2.534
    1C        C  673   2.514   3.720   2.661
    1C        C  674   2.554   3.856   2.656
    1C        C  675   2.504   3.651   2.784
    1C        C  676   2.516   3.726   2.903
    1C        C  677   2.502   3.516   3.030
    1C        C  678   2.512   3.656   3.026
    1C        C  679   2.506   3.445   3.152
    1C        C  680   2.508   3.517   3.274
    1C        C  681   2.532   3.307   3.401
    1C        C  682   2.515   3.447   3.397
    1C        C  683   2.557   3.242   3.524
    1C        C  684   2.541   3.314   3.645
    1C        C  685   2.600   3.110   3.769
    1C        C  686   2.555   3.244   3.767
    1C        C  687   2.634   3.052   3.894
    1C        C  688   2.607   3.118   4.016
    1C        C  689   2.716   2.937   4.139
    1C        C  690   2.645   3.059   4.138
    1C        C  691   2.758   2.879   4.261
    1C        C  692   2.719   2.942   4.381
    1C        C  693   2.758   2.884   4.504
    1C        C  694   2.629   3.891   2.055
    1C        C  695   2.529   3.702   2.175
    1C        C  696   2.581   3.833   2.173
    1C        C  697   2.509   3.638   2.300
    1C        C  698   2.528   3.713   2.418
    1C        C  699   2.499   3.506   2.544
    1C        C  700   2.506   3.647   2.540
    1C        C  701   2.498   3.438   2.668
    1C        C  702   2.492   3.510   2.790
    1C        C  703   2.517   3.300   2.912
    1C        C  704   2.493   3.439   2.912
    1C        C  705   2.535   3.232   3.035
    1C        C  706   2.519   3.304   3.156
    1C        C  707   2.579   3.101   3.277
    1C        C  708   2.540   3.237   3.278
    1C        C  709   2.626   3.044   3.398
    1C        C  710   2.608   3.111   3.521
    1C        C  711   2.718   2.937   3.651
    1C        C  712   2.636   3.051   3.646
    1C        C  713   2.759   2.879   3.773
    1C        C  714   2.714   2.935   3.895
    1C        C  715   2.756   2.878   4.017
    1C        C  716   2.453   3.498   2.064
    1C        C  717   2.490   3.633   2.059
    1C        C  718   2.464   3.423   2.184
    1C        C  719   2.487   3.498   2.303
    1C        C  720   2.517   3.290   2.427
    1C        C  721   2.494   3.429   2.426
    1C        C  722   2.532   3.222   2.551
    1C        C  723   2.516   3.298   2.668
    1C        C  724   2.595   3.101   2.791
    1C        C  725   2.539   3.231   2.790
    1C        C  726   2.625   3.039   2.914
    1C        C  727   2.589   3.102   3.036
    1C        C  728   2.704   2.924   3.160
    1C        C  729   2.620   3.037   3.158
    1C        C  730   2.757   2.875   3.282
    1C        C  731   2.710   2.930   3.403
    1C        C  732   2.755   2.879   3.527
    1C        C  733   2.489   3.198   2.074
    1C        C  734   2.483   3.281   2.187
    1C        C  735   2.584   3.087   2.306
    1C        C  736   2.525   3.216   2.307
    1C        C  737   2.617   3.027   2.429
    1C        C  738   2.590   3.093   2.551
    1C        C  739   2.702   2.911   2.673
    1C        C  740   2.628   3.031   2.672
    1C        C  741   2.748   2.861   2.797
    1C        C  742   2.708   2.925   2.917
    1C        C  743   2.745   2.865   3.039
    1C        C  744   2.549   3.073   2.073
    1C        C  745   2.696   2.906   2.187
    1C        C  746   2.615   3.021   2.185
    1C        C  747   2.734   2.846   2.309
    1C        C  748   2.693   2.908   2.430
    1C        C  749   2.742   2.853   2.551
    1C        C  750   2.740   2.843   2.070
    1C        C  751   3.669   2.320   1.982
    1C        O  752   3.688   2.201   2.020
    1C        O  753   3.665   2.337   1.843
    1C        C  754   4.657   3.055   2.005
    1C        O  755   4.636   3.013   1.888
    1C        O  756   4.788   3.098   2.026
    1C        C  757   4.444   4.224   1.963
    1C        O  758   4.470   4.344   1.993
    1C        O  759   4.420   4.208   1.826
    1C        C  760   3.597   4.685   1.962
    1C        O  761   3.644   4.797   1.998
    1C        O  762   3.522   4.679   1.844
    1C        C  763   2.896   4.491   1.940
    1C        O  764   2.928   4.448   1.825
    1C        O  765   2.798   4.590   1.942
    1C        C  766   2.326   3.475   1.990
    1C        O  767   2.322   3.417   1.879
    1C        O  768   2.213   3.553   2.017
    1C        C  769   4.664   3.585   5.079
    1C        O  770   4.612   3.574   5.193
    1C        O  771   4.804   3.594   5.072
    1C        C  772   4.264   4.452   5.050
    1C        O  773   4.235   4.439   5.172
    1C        O  774   4.378   4.530   5.028
    1C        C  775   4.135   2.511   5.076
    1C        O  776   4.254   2.480   5.049
    1C        O  777   4.118   2.527   5.215
    1C        C  778   2.892   4.538   5.059
    1C        O  779   2.849   4.649   5.019
    1C        O  780   2.916   4.526   5.196
    1C        C  781   2.484   3.037   5.072
    1C        O  782   2.368   3.011   5.033
    1C        O  783   2.499   3.030   5.211
    1C        C  784   2.411   3.990   5.049
    1C        O  785   2.300   4.027   5.004
    1C        O  786   2.413   4.004   5.189
    1C        C  787   2.948   2.427   2.008
    1C        O  788   2.954   2.436   1.882
    1C        O  789   2.909   2.296   2.037
    1C        C  790   3.160   2.366   5.044
    1C        O  791   3.100   2.275   4.981
    1C        O  792   3.170   2.354   5.184
    1C        H  793   4.295   3.022   5.060
    1C        H  794   4.211   2.797   5.070
    1C        H  795   4.537   3.124   5.038
    1C        H  796   4.523   3.368   5.070
    1C        H  797   4.600   3.820   5.030
    1C        H  798   4.405   3.973   5.058
    1C        H  799   4.275   4.157   5.055
    1C        H  800   4.022   4.537   5.029
    1C        H  801   3.813   4.555   5.037
    1C        H  802   3.594   4.681   5.004
    1C        H  803   3.394   4.487   5.045
    1C        H  804   3.164   4.532   5.053
    1C        H  805   3.917   2.440   5.026
    1C        H  806   3.670   2.407   5.051
    1C        H  807   3.028   2.586   5.078
    1C        H  808   3.440   2.475   5.080
    1C        H  809   2.826   2.698   5.066
    1C        H  810   2.683   2.879   5.073
    1C        H  811   2.543   3.303   5.071
    1C        H  812   2.535   3.504   5.073
    1C        H  813   2.558   3.738   5.071
    1C        H  814   2.615   4.163   5.056
    1C        H  815   2.749   4.321   5.056
    1C        H  816   2.708   2.885   1.977
    1C        H  817   2.801   2.657   1.996
    1C        H  818   3.206   2.436   1.986
    1C        H  819   3.426   2.471   1.985
    1C        H  820   3.866   2.497   1.975
    1C        H  821   4.084   2.590   1.980
    1C        H  822   4.259   2.722   1.969
    1C        H  823   4.419   2.881   1.979
    1C        H  824   4.533   3.313   1.971
    1C        H  825   4.529   3.524   1.958
    1C        H  826   4.500   3.750   1.953
    1C        H  827   3.802   4.548   1.957
    1C        H  828   3.931   4.329   1.962
    1C        H  829   4.190   4.328   1.961
    1C        H  830   4.514   3.976   1.982
    1C        H  831   2.651   3.834   1.967
    1C        H  832   2.722   4.049   1.962
    1C        H  833   2.702   4.317   1.994
    1C        H  834   3.372   4.498   1.946
    1C        H  835   3.156   4.402   1.953
    1C        H  836   2.517   3.009   1.993
    1C        H  837   2.448   3.236   1.982
    1C        H  838   2.523   3.666   1.963
    2V3OU   H29  839   2.814   3.555   2.780
    2V3OU   C27  840   2.794   3.499   2.875
    2V3OU   H27  841   2.735   3.567   2.942
    2V3OU   H28  842   2.738   3.407   2.846
    2V3OU   O11  843   2.913   3.474   2.951
    2V3OU   C15  844   2.930   3.400   3.066
    2V3OU   C13  845   3.055   3.372   3.125
    2V3OU   C14  846   3.080   3.270   3.218
    2V3OU   C16  847   2.976   3.185   3.255
    2V3OU    H6  848   2.994   3.100   3.322
    2V3OU   C12  849   3.213   3.226   3.264
    2V3OU    O2  850   3.234   3.117   3.322
    2V3OU   C10  851   3.327   3.309   3.223
    2V3OU    C8  852   3.459   3.272   3.250
    2V3OU   O10  853   3.492   3.153   3.307
    2V3OU   H26  854   3.405   3.112   3.323
    2V3OU    C6  855   3.567   3.350   3.199
    2V3OU    C5  856   3.539   3.469   3.133
    2V3OU    C4  857   3.704   3.294   3.210
    2V3OU    H4  858   3.717   3.223   3.298
    2V3OU    H5  859   3.713   3.228   3.119
    2V3OU    C2  860   3.816   3.398   3.213
    2V3OU    O6  861   3.801   3.469   3.336
    2V3OU   H21  862   3.768   3.556   3.307
    2V3OU    C3  863   3.785   3.495   3.099
    2V3OU    H2  864   3.870   3.567   3.094
    2V3OU    H3  865   3.785   3.438   3.002
    2V3OU   C25  866   3.948   3.322   3.197
    2V3OU    O7  867   4.000   3.294   3.089
    2V3OU   C26  868   4.036   3.291   3.318
    2V3OU   H22  869   4.064   3.385   3.373
    2V3OU   H23  870   4.122   3.227   3.287
    2V3OU    O8  871   3.966   3.205   3.404
    2V3OU   H24  872   3.924   3.264   3.470
    2V3OU    C1  873   3.650   3.566   3.106
    2V3OU    H1  874   3.630   3.622   3.010
    2V3OU    O3  875   3.656   3.655   3.218
    2V3OU   C19  876   3.618   3.793   3.216
    2V3OU    H9  877   3.519   3.807   3.164
    2V3OU    O4  878   3.711   3.853   3.129
    2V3OU   C20  879   3.843   3.877   3.180
    2V3OU   H10  880   3.890   3.774   3.187
    2V3OU   C24  881   3.611   3.855   3.356
    2V3OU   H16  882   3.554   3.792   3.429
    2V3OU   H17  883   3.563   3.956   3.353
    2V3OU   C23  884   3.751   3.874   3.415
    2V3OU   H15  885   3.789   3.769   3.437
    2V3OU    N1  886   3.737   3.949   3.539
    2V3OU   H19  887   3.803   3.914   3.606
    2V3OU   H20  888   3.651   3.931   3.585
    2V3OU   C21  889   3.849   3.945   3.317
    2V3OU   H11  890   3.957   3.936   3.348
    2V3OU    O5  891   3.821   4.084   3.323
    2V3OU   H18  892   3.784   4.100   3.412
    2V3OU   C22  893   3.919   3.947   3.069
    2V3OU   H12  894   3.871   4.047   3.050
    2V3OU   H13  895   3.904   3.895   2.971
    2V3OU   H14  896   4.025   3.961   3.103
    2V3OU   C11  897   3.162   3.473   3.115
    2V3OU    O1  898   3.134   3.586   3.069
    2V3OU    C9  899   3.298   3.425   3.147
    2V3OU    C7  900   3.404   3.502   3.099
    2V3OU    O9  901   3.390   3.620   3.028
    2V3OU   H25  902   3.296   3.635   3.008
    2V3OU   C17  903   2.828   3.319   3.120
    2V3OU    H7  904   2.732   3.348   3.078
    2V3OU   C18  905   2.848   3.215   3.210
    2V3OU    H8  906   2.782   3.175   3.288
    3SOL     OW  907   2.809   5.312   6.465
    3SOL    HW1  908   2.831   5.295   6.561
    3SOL    HW2  909   2.890   5.295   6.409
    4SOL     OW  910   6.799   0.558   1.125
    4SOL    HW1  911   6.853   0.642   1.127
    4SOL    HW2  912   6.727   0.562   1.194
    5SOL     OW  913   4.559   2.419   2.041
    5SOL    HW1  914   4.475   2.455   2.001
    5SOL    HW2  915   4.608   2.492   2.088
    6SOL     OW  916   4.436   1.564   1.544
    6SOL    HW1  917   4.376   1.643   1.530
    6SOL    HW2  918   4.434   1.505   1.464
    7SOL     OW  919   0.497   3.975   3.651
    7SOL    HW1  920   0.517   3.946   3.557
    7SOL    HW2  921   0.540   4.064   3.668
    8SOL     OW  922   3.061   1.912   5.783
    8SOL    HW1  923   3.048   1.841   5.714
    8SOL    HW2  924   3.084   1.998   5.737
    9SOL     OW  925   4.722   1.542   5.729
    9SOL    HW1  926   4.683   1.630   5.703
    9SOL    HW2  927   4.783   1.554   5.807
   10SOL     OW  928   2.146   5.295   4.818
   10SOL    HW1  929   2.136   5.246   4.905
   10SOL    HW2  930   2.055   5.324   4.786
   11SOL     OW  931   2.374   0.811   5.609
   11SOL    HW1  932   2.343   0.894   5.654
   11SOL    HW2  933   2.467   0.824   5.574
   12SOL     OW  934   2.860   4.971   3.780
   12SOL    HW1  935   2.820   4.963   3.689
   12SOL    HW2  936   2.924   5.048   3.781
   13SOL     OW  937   3.423   6.450   4.264
   13SOL    HW1  938   3.405   6.397   4.181
   13SOL    HW2  939   3.421   6.390   4.343
   14SOL     OW  940   3.919   5.194   5.829
   14SOL    HW1  941   3.822   5.218   5.836
   14SOL    HW2  942   3.929   5.095   5.828
   15SOL     OW  943   0.808   6.701   1.021
   15SOL    HW1  944   0.713   6.719   1.046
   15SOL    HW2  945   0.855   6.787   1.001
   16SOL     OW  946   5.418   3.155   6.243
   16SOL    HW1  947   5.432   3.137   6.341
   16SOL    HW2  948   5.400   3.069   6.196
   17SOL     OW  949   6.099   5.795   6.785
   17SOL    HW1  950   6.069   5.835   6.871
   17SOL    HW2  951   6.048   5.836   6.709
   18SOL     OW  952   2.826   1.117   5.562
   18SOL    HW1  953   2.853   1.090   5.470
   18SOL    HW2  954   2.808   1.215   5.564
   19SOL     OW  955   0.588   2.121   2.840
   19SOL    HW1  956   0.651   2.192   2.871
   19SOL    HW2  957   0.528   2.159   2.769
   20SOL     OW  958   4.991   1.291   4.431
   20SOL    HW1  959   4.945   1.335   4.508
   20SOL    HW2  960   5.082   1.261   4.459
   21SOL     OW  961   2.759   1.431   2.240
   21SOL    HW1  962   2.787   1.503   2.303
   21SOL    HW2  963   2.801   1.344   2.267
   22SOL     OW  964   1.138   6.467   0.124
   22SOL    HW1  965   1.208   6.506   0.064
   22SOL    HW2  966   1.181   6.408   0.193
   23SOL     OW  967   4.603   5.470   2.516
   23SOL    HW1  968   4.553   5.436   2.596
   23SOL    HW2  969   4.691   5.422   2.509
   24SOL     OW  970   3.283   0.276   2.644
   24SOL    HW1  971   3.208   0.294   2.581
   24SOL    HW2  972   3.310   0.179   2.637
   25SOL     OW  973   3.295   0.209   3.408
   25SOL    HW1  974   3.381   0.200   3.357
   25SOL    HW2  975   3.261   0.119   3.433
   26SOL     OW  976   6.574   1.565   0.516
   26SOL    HW1  977   6.540   1.538   0.605
   26SOL    HW2  978   6.611   1.658   0.521
   27SOL     OW  979   1.735   1.222   2.373
   27SOL    HW1  980   1.756   1.319   2.385
   27SOL    HW2  981   1.694   1.209   2.282
   28SOL     OW  982   1.855   6.915   5.034
   28SOL    HW1  983   1.922   6.919   5.107
   28SOL    HW2  984   1.840   6.821   5.006
   29SOL     OW  985   6.109   1.752   1.539
   29SOL    HW1  986   6.156   1.672   1.502
   29SOL    HW2  987   6.062   1.727   1.624
   30SOL     OW  988   4.359   0.501   3.641
   30SOL    HW1  989   4.381   0.499   3.739
   30SOL    HW2  990   4.404   0.425   3.595
   31SOL     OW  991   0.412   2.575   6.531
   31SOL    HW1  992   0.319   2.608   6.548
   31SOL    HW2  993   0.467   2.649   6.494
   32SOL     OW  994   0.806   1.868   2.822
   32SOL    HW1  995   0.789   1.780   2.777
   32SOL    HW2  996   0.780   1.863   2.918
   33SOL     OW  997   1.474   4.497   5.113
   33SOL    HW1  998   1.435   4.471   5.202
   33SOL    HW2  999   1.402   4.533   5.054
   34SOL     OW 1000   2.557   6.761   4.914
   34SOL    HW1 1001   2.628   6.820   4.953
   34SOL    HW2 1002   2.467   6.799   4.936
   35SOL     OW 1003   4.819   2.583   6.036
   35SOL    HW1 1004   4.735   2.558   5.989
   35SOL    HW2 1005   4.799   2.646   6.110
   36SOL     OW 1006   5.106   2.062   4.226
   36SOL    HW1 1007   5.070   1.969   4.222
   36SOL    HW2 1008   5.205   2.061   4.210
   37SOL     OW 1009   1.746   1.585   5.859
   37SOL    HW1 1010   1.650   1.611   5.864
   37SOL    HW2 1011   1.793   1.644   5.794
   38SOL     OW 1012   1.120   5.365   2.214
   38SOL    HW1 1013   1.189   5.298   2.185
   38SOL    HW2 1014   1.081   5.337   2.301
   39SOL     OW 1015   6.315   4.231   6.366
   39SOL    HW1 1016   6.317   4.293   6.287
   39SOL    HW2 1017   6.242   4.164   6.354
   40SOL     OW 1018   4.574   1.719   0.618
   40SOL    HW1 1019   4.601   1.752   0.708
   40SOL    HW2 1020   4.625   1.636   0.596
   41SOL     OW 1021   6.339   3.383   3.665
   41SOL    HW1 1022   6.414   3.401   3.601
   41SOL    HW2 1023   6.266   3.451   3.651
   42SOL     OW 1024   3.533   5.709   4.196
   42SOL    HW1 1025   3.495   5.617   4.207
   42SOL    HW2 1026   3.567   5.742   4.283
   43SOL     OW 1027   4.525   6.856   5.309
   43SOL    HW1 1028   4.591   6.855   5.383
   43SOL    HW2 1029   4.485   6.948   5.301
   44SOL     OW 1030   4.752   2.226   5.489
   44SOL    HW1 1031   4.772   2.255   5.582
   44SOL    HW2 1032   4.659   2.191   5.484
   45SOL     OW 1033   4.601   4.509   1.281
   45SOL    HW1 1034   4.640   4.454   1.207
   45SOL    HW2 1035   4.669   4.524   1.352
   46SOL     OW 1036   0.641   3.024   3.781
   46SOL    HW1 1037   0.546   3.005   3.804
   46SOL    HW2 1038   0.677   3.096   3.840
   47SOL     OW 1039   4.276   3.853   0.697
   47SOL    HW1 1040   4.223   3.928   0.737
   47SOL    HW2 1041   4.234   3.766   0.720
   48SOL     OW 1042   6.362   2.613   5.855
   48SOL    HW1 1043   6.461   2.621   5.873
   48SOL    HW2 1044   6.312   2.631   5.940
   49SOL     OW 1045   5.896   3.093   2.145
   49SOL    HW1 1046   5.956   3.090   2.224
   49SOL    HW2 1047   5.837   3.012   2.145
   50SOL     OW 1048   5.945   1.018   5.029
   50SOL    HW1 1049   6.002   1.081   5.082
   50SOL    HW2 1050   5.849   1.043   5.040
   51SOL     OW 1051   2.340   6.598   3.078
   51SOL    HW1 1052   2.243   6.581   3.098
   51SOL    HW2 1053   2.354   6.597   2.979
   52SOL     OW 1054   5.562   3.088   1.772
   52SOL    HW1 1055   5.633   3.156   1.755
   52SOL    HW2 1056   5.563   3.061   1.868
   53SOL     OW 1057   5.047   1.593   3.597
   53SOL    HW1 1058   4.981   1.619   3.667
   53SOL    HW2 1059   5.058   1.494   3.596
   54SOL     OW 1060   5.525   6.119   1.103
   54SOL    HW1 1061   5.624   6.120   1.089
   54SOL    HW2 1062   5.478   6.120   1.015
   55SOL     OW 1063   2.571   2.493   5.077
   55SOL    HW1 1064   2.601   2.406   5.037
   55SOL    HW2 1065   2.489   2.525   5.029
   56SOL     OW 1066   0.439   0.527   1.145
   56SOL    HW1 1067   0.524   0.580   1.149
   56SOL    HW2 1068   0.362   0.589   1.129
   57SOL     OW 1069   4.253   1.073   1.635
   57SOL    HW1 1070   4.214   1.155   1.593
   57SOL    HW2 1071   4.338   1.049   1.587
   58SOL     OW 1072   0.728   7.017   5.474
   58SOL    HW1 1073   0.695   6.932   5.516
   58SOL    HW2 1074   0.691   0.001   5.382
   59SOL     OW 1075   0.005   3.023   6.687
   59SOL    HW1 1076   0.055   3.084   6.748
   59SOL    HW2 1077   6.996   3.075   6.608
   60SOL     OW 1078   5.131   2.740   4.554
   60SOL    HW1 1079   5.104   2.836   4.564
   60SOL    HW2 1080   5.169   2.725   4.463
   61SOL     OW 1081   6.537   1.604   4.089
   61SOL    HW1 1082   6.447   1.573   4.117
   61SOL    HW2 1083   6.600   1.526   4.084
   62SOL     OW 1084   2.131   1.054   1.748
   62SOL    HW1 1085   2.042   1.036   1.790
   62SOL    HW2 1086   2.144   0.994   1.669
   63SOL     OW 1087   4.061   0.368   4.358
   63SOL    HW1 1088   4.127   0.294   4.344
   63SOL    HW2 1089   4.012   0.385   4.273
   64SOL     OW 1090   6.702   2.773   6.282
   64SOL    HW1 1091   6.666   2.824   6.203
   64SOL    HW2 1092   6.680   2.823   6.366
   65SOL     OW 1093   0.470   4.610   6.601
   65SOL    HW1 1094   0.381   4.610   6.646
   65SOL    HW2 1095   0.542   4.615   6.670
   66SOL     OW 1096   3.063   0.707   3.681
   66SOL    HW1 1097   3.130   0.638   3.655
   66SOL    HW2 1098   3.021   0.745   3.599
   67SOL     OW 1099   6.634   2.636   5.915
   67SOL    HW1 1100   6.643   2.721   5.967
   67SOL    HW2 1101   6.686   2.564   5.959
   68SOL     OW 1102   0.483   1.486   6.982
   68SOL    HW1 1103   0.556   1.417   6.991
   68SOL    HW2 1104   0.429   1.488   0.042
   69SOL     OW 1105   1.372   2.748   5.318
   69SOL    HW1 1106   1.459   2.706   5.342
   69SOL    HW2 1107   1.338   2.800   5.396
   70SOL     OW 1108   5.315   4.839   3.903
   70SOL    HW1 1109   5.255   4.856   3.826
   70SOL    HW2 1110   5.307   4.744   3.932
   71SOL     OW 1111   4.197   2.327   3.804
   71SOL    HW1 1112   4.161   2.392   3.737
   71SOL    HW2 1113   4.283   2.361   3.841
   72SOL     OW 1114   1.045   1.565   3.460
   72SOL    HW1 1115   1.067   1.632   3.389
   72SOL    HW2 1116   1.123   1.554   3.522
   73SOL     OW 1117   3.359   0.171   0.721
   73SOL    HW1 1118   3.270   0.204   0.690
   73SOL    HW2 1119   3.400   0.238   0.782
   74SOL     OW 1120   4.253   0.413   0.198
   74SOL    HW1 1121   4.179   0.390   0.261
   74SOL    HW2 1122   4.317   0.476   0.243
   75SOL     OW 1123   4.134   0.393   1.336
   75SOL    HW1 1124   4.218   0.338   1.337
   75SOL    HW2 1125   4.147   0.472   1.276
   76SOL     OW 1126   3.209   3.799   0.078
   76SOL    HW1 1127   3.192   3.847   0.164
   76SOL    HW2 1128   3.280   3.729   0.092
   77SOL     OW 1129   0.967   0.180   3.582
   77SOL    HW1 1130   1.016   0.095   3.563
   77SOL    HW2 1131   0.956   0.191   3.681
   78SOL     OW 1132   5.189   1.423   0.558
   78SOL    HW1 1133   5.274   1.446   0.606
   78SOL    HW2 1134   5.115   1.411   0.625
   79SOL     OW 1135   3.013   5.774   1.450
   79SOL    HW1 1136   3.036   5.744   1.542
   79SOL    HW2 1137   2.920   5.811   1.449
   80SOL     OW 1138   4.482   1.205   4.108
   80SOL    HW1 1139   4.408   1.140   4.092
   80SOL    HW2 1140   4.455   1.296   4.076
   81SOL     OW 1141   1.694   0.403   2.363
   81SOL    HW1 1142   1.642   0.428   2.282
   81SOL    HW2 1143   1.719   0.306   2.359
   82SOL     OW 1144   5.661   5.130   0.956
   82SOL    HW1 1145   5.613   5.051   0.919
   82SOL    HW2 1146   5.701   5.107   1.044
   83SOL     OW 1147   0.308   0.713   6.996
   83SOL    HW1 1148   0.259   0.784   6.945
   83SOL    HW2 1149   0.279   0.716   0.067
   84SOL     OW 1150   6.226   3.510   3.008
   84SOL    HW1 1151   6.287   3.577   3.051
   84SOL    HW2 1152   6.170   3.466   3.078
   85SOL     OW 1153   1.989   1.543   2.699
   85SOL    HW1 1154   1.987   1.499   2.788
   85SOL    HW2 1155   2.083   1.548   2.666
   86SOL     OW 1156   6.820   1.614   6.856
   86SOL    HW1 1157   6.852   1.575   6.942
   86SOL    HW2 1158   6.772   1.700   6.874
   87SOL     OW 1159   4.474   4.164   1.298
   87SOL    HW1 1160   4.571   4.149   1.316
   87SOL    HW2 1161   4.447   4.112   1.217
   88SOL     OW 1162   2.985   2.274   6.043
   88SOL    HW1 1163   2.887   2.283   6.057
   88SOL    HW2 1164   3.032   2.349   6.091
   89SOL     OW 1165   2.908   2.974   0.109
   89SOL    HW1 1166   2.917   3.001   0.013
   89SOL    HW2 1167   2.859   2.887   0.115
   90SOL     OW 1168   4.070   5.301   2.254
   90SOL    HW1 1169   4.041   5.352   2.335
   90SOL    HW2 1170   4.007   5.225   2.238
   91SOL     OW 1171   6.855   4.177   6.147
   91SOL    HW1 1172   6.811   4.088   6.158
   91SOL    HW2 1173   6.785   4.248   6.139
   92SOL     OW 1174   4.182   3.914   1.499
   92SOL    HW1 1175   4.207   3.990   1.560
   92SOL    HW2 1176   4.085   3.893   1.511
   93SOL     OW 1177   3.381   3.610   0.184
   93SOL    HW1 1178   3.354   3.591   0.279
   93SOL    HW2 1179   3.421   3.528   0.144
   94SOL     OW 1180   2.999   5.783   6.429
   94SOL    HW1 1181   2.943   5.863   6.406
   94SOL    HW2 1182   2.938   5.706   6.450
   95SOL     OW 1183   1.838   1.264   2.903
   95SOL    HW1 1184   1.799   1.186   2.952
   95SOL    HW2 1185   1.875   1.233   2.816
   96SOL     OW 1186   4.078   5.955   5.435
   96SOL    HW1 1187   4.015   5.972   5.359
   96SOL    HW2 1188   4.095   5.857   5.443
   97SOL     OW 1189   2.524   3.738   6.138
   97SOL    HW1 1190   2.434   3.780   6.147
   97SOL    HW2 1191   2.594   3.804   6.166
   98SOL     OW 1192   1.357   2.413   0.151
   98SOL    HW1 1193   1.432   2.385   0.211
   98SOL    HW2 1194   1.373   2.377   0.059
   99SOL     OW 1195   4.487   3.379   1.399
   99SOL    HW1 1196   4.409   3.438   1.418
   99SOL    HW2 1197   4.558   3.430   1.352
  100SOL     OW 1198   0.622   6.853   4.153
  100SOL    HW1 1199   0.718   6.825   4.164
  100SOL    HW2 1200   0.579   6.796   4.083
  101SOL     OW 1201   0.844   4.584   2.168
  101SOL    HW1 1202   0.775   4.527   2.212
  101SOL    HW2 1203   0.906   4.620   2.238
  102SOL     OW 1204   3.752   5.398   2.223
  102SOL    HW1 1205   3.672   5.369   2.275
  102SOL    HW2 1206   3.795   5.319   2.180
  103SOL     OW 1207   2.129   2.380   1.851
  103SOL    HW1 1208   2.205   2.426   1.805
  103SOL    HW2 1209   2.043   2.422   1.823
  104SOL     OW 1210   1.012   6.482   2.689
  104SOL    HW1 1211   1.060   6.568   2.672
  104SOL    HW2 1212   1.029   6.418   2.614
  105SOL     OW 1213   5.895   1.055   6.116
  105SOL    HW1 1214   5.939   0.986   6.173
  105SOL    HW2 1215   5.802   1.071   6.148
  106SOL     OW 1216   3.531   6.398   3.517
  106SOL    HW1 1217   3.614   6.453   3.505
  106SOL    HW2 1218   3.554   6.313   3.563
  107SOL     OW 1219   0.479   1.087   0.103
  107SOL    HW1 1220   0.492   1.060   0.198
  107SOL    HW2 1221   0.512   1.014   0.043
  108SOL     OW 1222   3.932   6.556   6.446
  108SOL    HW1 1223   4.024   6.551   6.484
  108SOL    HW2 1224   3.877   6.481   6.484
  109SOL     OW 1225   2.957   1.837   2.772
  109SOL    HW1 1226   3.051   1.869   2.784
  109SOL    HW2 1227   2.938   1.825   2.674
  110SOL     OW 1228   3.236   5.277   4.426
  110SOL    HW1 1229   3.162   5.265   4.492
  110SOL    HW2 1230   3.261   5.188   4.387
  111SOL     OW 1231   2.197   1.740   4.366
  111SOL    HW1 1232   2.166   1.727   4.271
  111SOL    HW2 1233   2.295   1.724   4.371
  112SOL     OW 1234   3.699   6.001   0.418
  112SOL    HW1 1235   3.634   5.941   0.371
  112SOL    HW2 1236   3.778   6.016   0.359
  113SOL     OW 1237   0.522   6.495   3.148
  113SOL    HW1 1238   0.595   6.436   3.115
  113SOL    HW2 1239   0.525   6.500   3.248
  114SOL     OW 1240   0.845   6.037   1.835
  114SOL    HW1 1241   0.827   6.029   1.737
  114SOL    HW2 1242   0.943   6.036   1.851
  115SOL     OW 1243   5.274   0.601   2.873
  115SOL    HW1 1244   5.192   0.607   2.816
  115SOL    HW2 1245   5.355   0.594   2.815
  116SOL     OW 1246   6.806   6.092   1.482
  116SOL    HW1 1247   6.749   6.122   1.558
  116SOL    HW2 1248   6.750   6.080   1.400
  117SOL     OW 1249   0.258   1.150   0.669
  117SOL    HW1 1250   0.172   1.177   0.713
  117SOL    HW2 1251   0.239   1.079   0.600
  118SOL     OW 1252   1.211   1.323   2.133
  118SOL    HW1 1253   1.261   1.316   2.219
  118SOL    HW2 1254   1.144   1.249   2.128
  119SOL     OW 1255   0.621   0.363   0.326
  119SOL    HW1 1256   0.572   0.330   0.245
  119SOL    HW2 1257   0.554   0.395   0.394
  120SOL     OW 1258   5.292   0.829   5.192
  120SOL    HW1 1259   5.195   0.816   5.170
  120SOL    HW2 1260   5.321   0.760   5.259
  121SOL     OW 1261   0.909   3.237   0.588
  121SOL    HW1 1262   0.957   3.170   0.645
  121SOL    HW2 1263   0.893   3.199   0.497
  122SOL     OW 1264   1.563   3.687   0.461
  122SOL    HW1 1265   1.555   3.682   0.362
  122SOL    HW2 1266   1.498   3.623   0.503
  123SOL     OW 1267   1.299   1.522   2.398
  123SOL    HW1 1268   1.340   1.464   2.468
  123SOL    HW2 1269   1.333   1.616   2.408
  124SOL     OW 1270   3.291   2.935   1.101
  124SOL    HW1 1271   3.223   2.879   1.054
  124SOL    HW2 1272   3.367   2.878   1.132
  125SOL     OW 1273   4.248   2.442   0.598
  125SOL    HW1 1274   4.310   2.512   0.564
  125SOL    HW2 1275   4.300   2.375   0.651
  126SOL     OW 1276   3.525   3.425   2.286
  126SOL    HW1 1277   3.598   3.381   2.340
  126SOL    HW2 1278   3.509   3.372   2.203
  127SOL     OW 1279   0.564   4.960   6.400
  127SOL    HW1 1280   0.578   4.861   6.398
  127SOL    HW2 1281   0.466   4.980   6.394
  128SOL     OW 1282   4.976   3.220   1.387
  128SOL    HW1 1283   4.955   3.298   1.447
  128SOL    HW2 1284   4.899   3.204   1.326
  129SOL     OW 1285   2.979   3.480   0.198
  129SOL    HW1 1286   3.029   3.533   0.267
  129SOL    HW2 1287   3.023   3.491   0.109
  130SOL     OW 1288   0.275   0.457   4.503
  130SOL    HW1 1289   0.220   0.387   4.458
  130SOL    HW2 1290   0.296   0.427   4.596
  131SOL     OW 1291   5.033   0.545   3.829
  131SOL    HW1 1292   5.091   0.600   3.768
  131SOL    HW2 1293   5.065   0.555   3.923
  132SOL     OW 1294   3.130   2.608   1.740
  132SOL    HW1 1295   3.188   2.536   1.703
  132SOL    HW2 1296   3.057   2.566   1.794
  133SOL     OW 1297   5.351   0.494   4.222
  133SOL    HW1 1298   5.324   0.528   4.313
  133SOL    HW2 1299   5.431   0.435   4.232
  134SOL     OW 1300   0.560   0.706   2.380
  134SOL    HW1 1301   0.468   0.716   2.419
  134SOL    HW2 1302   0.625   0.692   2.455
  135SOL     OW 1303   5.576   3.612   4.528
  135SOL    HW1 1304   5.664   3.627   4.481
  135SOL    HW2 1305   5.591   3.612   4.627
  136SOL     OW 1306   1.507   5.040   5.181
  136SOL    HW1 1307   1.520   4.953   5.229
  136SOL    HW2 1308   1.586   5.099   5.197
  137SOL     OW 1309   4.572   1.550   3.864
  137SOL    HW1 1310   4.619   1.618   3.808
  137SOL    HW2 1311   4.477   1.541   3.835
  138SOL     OW 1312   1.344   3.608   2.954
  138SOL    HW1 1313   1.415   3.677   2.949
  138SOL    HW2 1314   1.281   3.629   3.029
  139SOL     OW 1315   2.309   6.131   5.102
  139SOL    HW1 1316   2.402   6.095   5.099
  139SOL    HW2 1317   2.284   6.152   5.196
  140SOL     OW 1318   1.584   6.518   3.592
  140SOL    HW1 1319   1.589   6.468   3.678
  140SOL    HW2 1320   1.676   6.529   3.554
  141SOL     OW 1321   0.295   2.642   5.164
  141SOL    HW1 1322   0.268   2.561   5.216
  141SOL    HW2 1323   0.214   2.690   5.133
  142SOL     OW 1324   2.087   3.519   2.288
  142SOL    HW1 1325   2.135   3.522   2.200
  142SOL    HW2 1326   2.109   3.434   2.335
  143SOL     OW 1327   5.247   4.990   0.812
  143SOL    HW1 1328   5.309   5.069   0.812
  143SOL    HW2 1329   5.210   4.977   0.720
  144SOL     OW 1330   2.161   4.915   5.604
  144SOL    HW1 1331   2.155   4.866   5.691
  144SOL    HW2 1332   2.256   4.920   5.575
  145SOL     OW 1333   2.627   5.385   1.191
  145SOL    HW1 1334   2.567   5.433   1.127
  145SOL    HW2 1335   2.585   5.298   1.218
  146SOL     OW 1336   5.163   0.364   6.354
  146SOL    HW1 1337   5.217   0.310   6.419
  146SOL    HW2 1338   5.209   0.366   6.266
  147SOL     OW 1339   5.391   1.415   5.739
  147SOL    HW1 1340   5.305   1.365   5.754
  147SOL    HW2 1341   5.455   1.355   5.690
  148SOL     OW 1342   6.947   5.261   1.308
  148SOL    HW1 1343   6.958   5.162   1.308
  148SOL    HW2 1344   7.008   5.301   1.240
  149SOL     OW 1345   3.693   2.046   5.094
  149SOL    HW1 1346   3.726   2.080   5.182
  149SOL    HW2 1347   3.758   2.070   5.022
  150SOL     OW 1348   5.680   0.067   6.617
  150SOL    HW1 1349   5.718   0.144   6.567
  150SOL    HW2 1350   5.701   0.077   6.714
  151SOL     OW 1351   3.369   0.816   1.578
  151SOL    HW1 1352   3.384   0.915   1.584
  151SOL    HW2 1353   3.454   0.770   1.554
  152SOL     OW 1354   0.159   1.683   0.716
  152SOL    HW1 1355   0.239   1.669   0.659
  152SOL    HW2 1356   0.103   1.600   0.717
  153SOL     OW 1357   2.614   6.980   3.058
  153SOL    HW1 1358   2.703   6.962   3.018
  153SOL    HW2 1359   2.577   0.041   3.021
  154SOL     OW 1360   0.314   3.180   0.739
  154SOL    HW1 1361   0.414   3.175   0.739
  154SOL    HW2 1362   0.283   3.225   0.822
  155SOL     OW 1363   0.836   1.267   3.836
  155SOL    HW1 1364   0.929   1.238   3.857
  155SOL    HW2 1365   0.838   1.341   3.769
  156SOL     OW 1366   6.574   0.594   7.003
  156SOL    HW1 1367   6.553   0.535   0.056
  156SOL    HW2 1368   6.642   0.549   6.945
  157SOL     OW 1369   5.617   3.861   0.324
  157SOL    HW1 1370   5.594   3.956   0.301
  157SOL    HW2 1371   5.620   3.806   0.240
  158SOL     OW 1372   1.864   2.717   1.441
  158SOL    HW1 1373   1.774   2.687   1.473
  158SOL    HW2 1374   1.864   2.816   1.428
  159SOL     OW 1375   4.109   5.078   1.701
  159SOL    HW1 1376   4.114   5.073   1.601
  159SOL    HW2 1377   4.159   5.159   1.733
  160SOL     OW 1378   5.951   0.061   0.524
  160SOL    HW1 1379   5.925   6.990   0.538
  160SOL    HW2 1380   5.870   0.114   0.499
  161SOL     OW 1381   1.250   0.773   2.938
  161SOL    HW1 1382   1.338   0.727   2.947
  161SOL    HW2 1383   1.182   0.710   2.901
  162SOL     OW 1384   3.823   6.350   6.572
  162SOL    HW1 1385   3.759   6.299   6.515
  162SOL    HW2 1386   3.801   6.335   6.669
  163SOL     OW 1387   6.869   6.108   2.307
  163SOL    HW1 1388   6.823   6.019   2.306
  163SOL    HW2 1389   6.934   6.114   2.231
  164SOL     OW 1390   0.792   3.539   2.876
  164SOL    HW1 1391   0.702   3.496   2.867
  164SOL    HW2 1392   0.827   3.524   2.969
  165SOL     OW 1393   4.813   4.538   6.588
  165SOL    HW1 1394   4.795   4.583   6.501
  165SOL    HW2 1395   4.908   4.506   6.590
  166SOL     OW 1396   0.134   3.460   2.278
  166SOL    HW1 1397   0.047   3.443   2.324
  166SOL    HW2 1398   0.133   3.417   2.188
  167SOL     OW 1399   6.111   1.711   6.795
  167SOL    HW1 1400   6.174   1.704   6.718
  167SOL    HW2 1401   6.023   1.672   6.770
  168SOL     OW 1402   4.196   1.617   0.553
  168SOL    HW1 1403   4.179   1.596   0.650
  168SOL    HW2 1404   4.148   1.701   0.529
  169SOL     OW 1405   6.110   2.885   0.625
  169SOL    HW1 1406   6.054   2.825   0.682
  169SOL    HW2 1407   6.201   2.844   0.614
  170SOL     OW 1408   6.805   5.825   2.284
  170SOL    HW1 1409   6.783   5.788   2.374
  170SOL    HW2 1410   6.810   5.750   2.218
  171SOL     OW 1411   2.364   4.664   0.411
  171SOL    HW1 1412   2.401   4.697   0.498
  171SOL    HW2 1413   2.304   4.586   0.428
  172SOL     OW 1414   6.391   1.858   3.329
  172SOL    HW1 1415   6.439   1.881   3.414
  172SOL    HW2 1416   6.295   1.885   3.337
  173SOL     OW 1417   5.409   1.006   4.376
  173SOL    HW1 1418   5.494   0.983   4.329
  173SOL    HW2 1419   5.431   1.054   4.461
  174SOL     OW 1420   4.805   5.458   3.938
  174SOL    HW1 1421   4.758   5.374   3.964
  174SOL    HW2 1422   4.865   5.487   4.012
  175SOL     OW 1423   3.738   0.812   1.233
  175SOL    HW1 1424   3.805   0.881   1.262
  175SOL    HW2 1425   3.784   0.744   1.176
  176SOL     OW 1426   5.979   4.909   1.866
  176SOL    HW1 1427   5.997   4.811   1.869
  176SOL    HW2 1428   6.006   4.951   1.952
  177SOL     OW 1429   5.359   3.500   4.766
  177SOL    HW1 1430   5.330   3.460   4.853
  177SOL    HW2 1431   5.361   3.429   4.695
  178SOL     OW 1432   3.063   4.328   5.651
  178SOL    HW1 1433   3.055   4.426   5.636
  178SOL    HW2 1434   3.151   4.295   5.616
  179SOL     OW 1435   3.543   0.632   6.647
  179SOL    HW1 1436   3.623   0.669   6.694
  179SOL    HW2 1437   3.470   0.615   6.712
  180SOL     OW 1438   2.227   0.831   1.018
  180SOL    HW1 1439   2.211   0.910   1.077
  180SOL    HW2 1440   2.324   0.807   1.020
  181SOL     OW 1441   2.930   3.653   5.552
  181SOL    HW1 1442   2.988   3.688   5.625
  181SOL    HW2 1443   2.962   3.562   5.525
  182SOL     OW 1444   4.252   1.828   6.080
  182SOL    HW1 1445   4.331   1.773   6.055
  182SOL    HW2 1446   4.282   1.921   6.105
  183SOL     OW 1447   3.501   2.074   4.028
  183SOL    HW1 1448   3.590   2.099   4.068
  183SOL    HW2 1449   3.503   2.094   3.930
  184SOL     OW 1450   0.162   6.956   3.586
  184SOL    HW1 1451   0.144   6.865   3.551
  184SOL    HW2 1452   0.195   7.015   3.511
  185SOL     OW 1453   1.245   1.808   4.908
  185SOL    HW1 1454   1.286   1.742   4.845
  185SOL    HW2 1455   1.265   1.781   5.002
  186SOL     OW 1456   6.713   1.373   4.066
  186SOL    HW1 1457   6.787   1.426   4.108
  186SOL    HW2 1458   6.744   1.336   3.978
  187SOL     OW 1459   5.128   0.033   2.611
  187SOL    HW1 1460   5.177   0.120   2.622
  187SOL    HW2 1461   5.031   0.046   2.630
  188SOL     OW 1462   0.938   3.468   3.750
  188SOL    HW1 1463   0.982   3.398   3.807
  188SOL    HW2 1464   0.846   3.436   3.725
  189SOL     OW 1465   1.400   5.539   0.220
  189SOL    HW1 1466   1.351   5.479   0.157
  189SOL    HW2 1467   1.445   5.612   0.168
  190SOL     OW 1468   6.137   4.175   6.067
  190SOL    HW1 1469   6.119   4.091   6.117
  190SOL    HW2 1470   6.215   4.162   6.006
  191SOL     OW 1471   6.086   1.469   6.938
  191SOL    HW1 1472   6.120   1.411   6.864
  191SOL    HW2 1473   6.131   1.558   6.933
  192SOL     OW 1474   0.212   5.127   1.757
  192SOL    HW1 1475   0.218   5.205   1.820
  192SOL    HW2 1476   0.255   5.047   1.799
  193SOL     OW 1477   4.935   3.668   5.296
  193SOL    HW1 1478   4.986   3.584   5.315
  193SOL    HW2 1479   4.882   3.656   5.211
  194SOL     OW 1480   3.906   6.672   3.718
  194SOL    HW1 1481   3.962   6.754   3.704
  194SOL    HW2 1482   3.809   6.698   3.718
  195SOL     OW 1483   1.526   0.962   4.447
  195SOL    HW1 1484   1.485   1.042   4.403
  195SOL    HW2 1485   1.624   0.961   4.428
  196SOL     OW 1486   2.761   6.852   6.606
  196SOL    HW1 1487   2.663   6.870   6.616
  196SOL    HW2 1488   2.813   6.933   6.635
  197SOL     OW 1489   2.256   0.421   1.256
  197SOL    HW1 1490   2.262   0.434   1.157
  197SOL    HW2 1491   2.318   0.348   1.285
  198SOL     OW 1492   4.415   6.926   2.436
  198SOL    HW1 1493   4.327   6.949   2.394
  198SOL    HW2 1494   4.418   6.963   2.529
  199SOL     OW 1495   0.062   0.993   3.782
  199SOL    HW1 1496   0.010   1.029   3.860
  199SOL    HW2 1497   0.160   1.002   3.800
  200SOL     OW 1498   1.152   3.914   1.756
  200SOL    HW1 1499   1.143   4.006   1.720
  200SOL    HW2 1500   1.063   3.868   1.754
  201SOL     OW 1501   5.557   6.767   6.253
  201SOL    HW1 1502   5.470   6.765   6.204
  201SOL    HW2 1503   5.588   6.674   6.271
  202SOL     OW 1504   4.910   0.201   5.478
  202SOL    HW1 1505   5.001   0.190   5.519
  202SOL    HW2 1506   4.851   0.250   5.542
  203SOL     OW 1507   5.151   2.129   5.081
  203SOL    HW1 1508   5.193   2.217   5.063
  203SOL    HW2 1509   5.053   2.133   5.059
  204SOL     OW 1510   6.286   0.752   6.297
  204SOL    HW1 1511   6.338   0.680   6.343
  204SOL    HW2 1512   6.328   0.841   6.316
  205SOL     OW 1513   0.697   0.711   2.632
  205SOL    HW1 1514   0.639   0.712   2.714
  205SOL    HW2 1515   0.762   0.787   2.636
  206SOL     OW 1516   0.524   4.834   2.398
  206SOL    HW1 1517   0.494   4.825   2.303
  206SOL    HW2 1518   0.532   4.743   2.440
  207SOL     OW 1519   4.955   0.327   3.677
  207SOL    HW1 1520   4.998   0.389   3.743
  207SOL    HW2 1521   4.982   0.233   3.698
  208SOL     OW 1522   5.342   3.859   5.398
  208SOL    HW1 1523   5.412   3.873   5.467
  208SOL    HW2 1524   5.264   3.920   5.416
  209SOL     OW 1525   1.051   5.068   4.137
  209SOL    HW1 1526   1.020   5.163   4.144
  209SOL    HW2 1527   1.139   5.059   4.184
  210SOL     OW 1528   4.364   2.195   1.620
  210SOL    HW1 1529   4.404   2.212   1.710
  210SOL    HW2 1530   4.430   2.218   1.549
  211SOL     OW 1531   1.393   6.363   3.443
  211SOL    HW1 1532   1.451   6.442   3.464
  211SOL    HW2 1533   1.359   6.371   3.350
  212SOL     OW 1534   1.910   4.988   1.851
  212SOL    HW1 1535   1.919   4.927   1.773
  212SOL    HW2 1536   1.907   4.935   1.936
  213SOL     OW 1537   3.408   0.663   5.888
  213SOL    HW1 1538   3.314   0.660   5.852
  213SOL    HW2 1539   3.457   0.740   5.848
  214SOL     OW 1540   4.033   5.690   2.003
  214SOL    HW1 1541   4.093   5.617   2.035
  214SOL    HW2 1542   4.088   5.770   1.980
  215SOL     OW 1543   2.421   3.886   1.642
  215SOL    HW1 1544   2.347   3.846   1.696
  215SOL    HW2 1545   2.501   3.826   1.645
  216SOL     OW 1546   1.607   5.940   4.752
  216SOL    HW1 1547   1.642   5.849   4.774
  216SOL    HW2 1548   1.515   5.933   4.715
  217SOL     OW 1549   2.384   2.771   3.535
  217SOL    HW1 1550   2.417   2.701   3.473
  217SOL    HW2 1551   2.368   2.856   3.485
  218SOL     OW 1552   0.764   3.000   4.416
  218SOL    HW1 1553   0.732   3.050   4.496
  218SOL    HW2 1554   0.688   2.983   4.354
  219SOL     OW 1555   3.690   6.236   5.895
  219SOL    HW1 1556   3.597   6.246   5.930
  219SOL    HW2 1557   3.727   6.148   5.924
  220SOL     OW 1558   3.381   6.697   6.942
  220SOL    HW1 1559   3.446   6.742   7.004
  220SOL    HW2 1560   3.415   6.703   6.848
  221SOL     OW 1561   6.722   4.144   2.808
  221SOL    HW1 1562   6.692   4.069   2.866
  221SOL    HW2 1563   6.725   4.113   2.713
  222SOL     OW 1564   2.441   4.925   5.589
  222SOL    HW1 1565   2.481   4.844   5.545
  222SOL    HW2 1566   2.483   5.007   5.552
  223SOL     OW 1567   5.515   3.465   0.956
  223SOL    HW1 1568   5.575   3.425   0.886
  223SOL    HW2 1569   5.452   3.530   0.914
  224SOL     OW 1570   2.727   1.919   4.119
  224SOL    HW1 1571   2.803   1.948   4.062
  224SOL    HW2 1572   2.685   1.999   4.163
  225SOL     OW 1573   5.753   1.792   5.262
  225SOL    HW1 1574   5.841   1.817   5.302
  225SOL    HW2 1575   5.692   1.871   5.264
  226SOL     OW 1576   1.562   0.197   6.282
  226SOL    HW1 1577   1.504   0.218   6.203
  226SOL    HW2 1578   1.514   0.220   6.366
  227SOL     OW 1579   1.787   3.940   2.294
  227SOL    HW1 1580   1.754   3.911   2.204
  227SOL    HW2 1581   1.851   3.871   2.329
  228SOL     OW 1582   3.339   6.307   4.040
  228SOL    HW1 1583   3.245   6.329   4.015
  228SOL    HW2 1584   3.368   6.223   3.994
  229SOL     OW 1585   5.107   6.551   0.216
  229SOL    HW1 1586   5.017   6.519   0.245
  229SOL    HW2 1587   5.123   6.643   0.250
  230SOL     OW 1588   2.568   4.591   2.871
  230SOL    HW1 1589   2.557   4.516   2.806
  230SOL    HW2 1590   2.541   4.561   2.962
  231SOL     OW 1591   6.518   1.836   6.931
  231SOL    HW1 1592   6.475   1.817   6.842
  231SOL    HW2 1593   6.532   1.750   6.980
  232SOL     OW 1594   1.245   3.932   6.142
  232SOL    HW1 1595   1.212   3.908   6.233
  232SOL    HW2 1596   1.179   3.994   6.099
  233SOL     OW 1597   2.368   1.362   4.382
  233SOL    HW1 1598   2.441   1.364   4.449
  233SOL    HW2 1599   2.407   1.371   4.290
  234SOL     OW 1600   3.407   6.224   5.708
  234SOL    HW1 1601   3.382   6.284   5.633
  234SOL    HW2 1602   3.451   6.142   5.673
  235SOL     OW 1603   3.093   3.088   2.080
  235SOL    HW1 1604   3.090   3.006   2.023
  235SOL    HW2 1605   3.007   3.139   2.069
  236SOL     OW 1606   5.857   2.948   6.245
  236SOL    HW1 1607   5.820   3.012   6.313
  236SOL    HW2 1608   5.832   2.979   6.153
  237SOL     OW 1609   6.190   6.045   1.276
  237SOL    HW1 1610   6.243   5.963   1.254
  237SOL    HW2 1611   6.248   6.126   1.266
  238SOL     OW 1612   5.990   2.143   0.343
  238SOL    HW1 1613   6.023   2.235   0.321
  238SOL    HW2 1614   6.061   2.094   0.394
  239SOL     OW 1615   0.290   5.602   6.664
  239SOL    HW1 1616   0.203   5.553   6.670
  239SOL    HW2 1617   0.305   5.631   6.569
  240SOL     OW 1618   0.174   2.519   5.877
  240SOL    HW1 1619   0.108   2.450   5.848
  240SOL    HW2 1620   0.131   2.583   5.940
  241SOL     OW 1621   1.950   6.580   4.463
  241SOL    HW1 1622   2.049   6.567   4.459
  241SOL    HW2 1623   1.916   6.603   4.371
  242SOL     OW 1624   2.673   2.953   5.962
  242SOL    HW1 1625   2.711   2.861   5.952
  242SOL    HW2 1626   2.744   3.020   5.943
  243SOL     OW 1627   5.249   0.438   6.082
  243SOL    HW1 1628   5.214   0.427   5.988
  243SOL    HW2 1629   5.348   0.451   6.079
  244SOL     OW 1630   5.151   2.868   4.846
  244SOL    HW1 1631   5.066   2.831   4.885
  244SOL    HW2 1632   5.142   2.878   4.747
  245SOL     OW 1633   7.023   2.570   5.556
  245SOL    HW1 1634   6.944   2.581   5.616
  245SOL    HW2 1635   7.002   2.606   5.465
  246SOL     OW 1636   4.789   2.947   2.528
  246SOL    HW1 1637   4.809   2.997   2.443
  246SOL    HW2 1638   4.762   3.012   2.599
  247SOL     OW 1639   2.743   1.208   1.843
  247SOL    HW1 1640   2.721   1.156   1.761
  247SOL    HW2 1641   2.710   1.160   1.924
  248SOL     OW 1642   4.788   1.994   4.820
  248SOL    HW1 1643   4.776   2.043   4.733
  248SOL    HW2 1644   4.709   1.934   4.835
  249SOL     OW 1645   5.068   6.960   5.712
  249SOL    HW1 1646   5.060   6.865   5.740
  249SOL    HW2 1647   4.981   7.007   5.729
  250SOL     OW 1648   5.020   1.602   6.389
  250SOL    HW1 1649   4.929   1.600   6.347
  250SOL    HW2 1650   5.029   1.526   6.453
  251SOL     OW 1651   4.278   4.779   6.652
  251SOL    HW1 1652   4.287   4.801   6.555
  251SOL    HW2 1653   4.368   4.779   6.695
  252SOL     OW 1654   6.444   0.588   6.443
  252SOL    HW1 1655   6.445   0.630   6.534
  252SOL    HW2 1656   6.497   0.504   6.444
  253SOL     OW 1657   1.589   4.226   6.999
  253SOL    HW1 1658   1.588   4.296   0.046
  253SOL    HW2 1659   1.676   4.230   6.950
  254SOL     OW 1660   5.735   3.231   3.584
  254SOL    HW1 1661   5.737   3.220   3.684
  254SOL    HW2 1662   5.828   3.238   3.549
  255SOL     OW 1663   1.537   3.189   4.330
  255SOL    HW1 1664   1.538   3.264   4.395
  255SOL    HW2 1665   1.568   3.105   4.376
  256SOL     OW 1666   6.254   4.212   6.684
  256SOL    HW1 1667   6.308   4.134   6.653
  256SOL    HW2 1668   6.163   4.208   6.643
  257SOL     OW 1669   4.142   6.304   4.317
  257SOL    HW1 1670   4.109   6.349   4.400
  257SOL    HW2 1671   4.119   6.207   4.321
  258SOL     OW 1672   5.704   4.784   4.762
  258SOL    HW1 1673   5.666   4.692   4.761
  258SOL    HW2 1674   5.668   4.835   4.840
  259SOL     OW 1675   1.855   2.999   2.263
  259SOL    HW1 1676   1.873   3.014   2.166
  259SOL    HW2 1677   1.937   3.018   2.317
  260SOL     OW 1678   4.319   0.948   1.031
  260SOL    HW1 1679   4.336   1.033   0.980
  260SOL    HW2 1680   4.331   0.965   1.129
  261SOL     OW 1681   6.349   3.805   1.325
  261SOL    HW1 1682   6.334   3.765   1.234
  261SOL    HW2 1683   6.316   3.899   1.325
  262SOL     OW 1684   0.619   3.670   1.391
  262SOL    HW1 1685   0.641   3.714   1.478
  262SOL    HW2 1686   0.700   3.622   1.357
  263SOL     OW 1687   0.506   1.634   3.920
  263SOL    HW1 1688   0.583   1.639   3.857
  263SOL    HW2 1689   0.470   1.540   3.920
  264SOL     OW 1690   5.050   3.856   5.447
  264SOL    HW1 1691   4.986   3.787   5.412
  264SOL    HW2 1692   5.022   3.883   5.539
  265SOL     OW 1693   4.233   4.771   3.145
  265SOL    HW1 1694   4.299   4.839   3.174
  265SOL    HW2 1695   4.207   4.787   3.050
  266SOL     OW 1696   3.536   3.686   5.837
  266SOL    HW1 1697   3.626   3.650   5.812
  266SOL    HW2 1698   3.504   3.748   5.766
  267SOL     OW 1699   6.091   2.817   5.884
  267SOL    HW1 1700   6.109   2.720   5.872
  267SOL    HW2 1701   6.177   2.867   5.883
  268SOL     OW 1702   4.767   6.075   5.558
  268SOL    HW1 1703   4.806   6.126   5.482
  268SOL    HW2 1704   4.834   6.008   5.592
  269SOL     OW 1705   1.911   2.885   0.660
  269SOL    HW1 1706   1.943   2.791   0.646
  269SOL    HW2 1707   1.812   2.886   0.665
  270SOL     OW 1708   6.676   0.091   1.905
  270SOL    HW1 1709   6.700   0.007   1.954
  270SOL    HW2 1710   6.595   0.132   1.946
  271SOL     OW 1711   2.867   2.645   0.965
  271SOL    HW1 1712   2.788   2.605   0.918
  271SOL    HW2 1713   2.837   2.690   1.049
  272SOL     OW 1714   3.418   5.448   4.177
  272SOL    HW1 1715   3.368   5.461   4.262
  272SOL    HW2 1716   3.423   5.350   4.156
  273SOL     OW 1717   1.916   4.974   5.015
  273SOL    HW1 1718   1.840   4.910   5.027
  273SOL    HW2 1719   1.899   5.031   4.934
  274SOL     OW 1720   4.695   2.353   3.679
  274SOL    HW1 1721   4.742   2.329   3.594
  274SOL    HW2 1722   4.623   2.419   3.659
  275SOL     OW 1723   6.554   5.982   6.631
  275SOL    HW1 1724   6.645   5.943   6.614
  275SOL    HW2 1725   6.495   5.964   6.552
  276SOL     OW 1726   0.055   5.476   3.395
  276SOL    HW1 1727   0.084   5.399   3.338
  276SOL    HW2 1728   0.094   5.561   3.360
  277SOL     OW 1729   2.831   2.502   0.503
  277SOL    HW1 1730   2.857   2.508   0.406
  277SOL    HW2 1731   2.780   2.418   0.519
  278SOL     OW 1732   6.722   3.771   1.800
  278SOL    HW1 1733   6.821   3.754   1.807
  278SOL    HW2 1734   6.699   3.792   1.705
  279SOL     OW 1735   6.463   2.545   4.724
  279SOL    HW1 1736   6.524   2.517   4.649
  279SOL    HW2 1737   6.473   2.481   4.800
  280SOL     OW 1738   3.553   6.579   2.738
  280SOL    HW1 1739   3.473   6.606   2.685
  280SOL    HW2 1740   3.546   6.482   2.764
  281SOL     OW 1741   2.852   4.760   2.303
  281SOL    HW1 1742   2.797   4.830   2.257
  281SOL    HW2 1743   2.940   4.750   2.256
  282SOL     OW 1744   4.208   2.265   5.404
  282SOL    HW1 1745   4.185   2.168   5.401
  282SOL    HW2 1746   4.124   2.319   5.399
  283SOL     OW 1747   6.681   1.454   5.663
  283SOL    HW1 1748   6.723   1.379   5.612
  283SOL    HW2 1749   6.712   1.452   5.758
  284SOL     OW 1750   0.553   4.312   5.223
  284SOL    HW1 1751   0.480   4.361   5.175
  284SOL    HW2 1752   0.610   4.377   5.272
  285SOL     OW 1753   5.446   5.610   6.983
  285SOL    HW1 1754   5.376   5.543   7.008
  285SOL    HW2 1755   5.476   5.594   6.889
  286SOL     OW 1756   3.691   5.018   5.150
  286SOL    HW1 1757   3.745   5.094   5.116
  286SOL    HW2 1758   3.622   5.052   5.214
  287SOL     OW 1759   0.692   5.184   6.613
  287SOL    HW1 1760   0.656   5.167   6.522
  287SOL    HW2 1761   0.737   5.273   6.615
  288SOL     OW 1762   3.966   1.389   0.536
  288SOL    HW1 1763   4.056   1.420   0.506
  288SOL    HW2 1764   3.914   1.355   0.457
  289SOL     OW 1765   0.405   5.249   4.836
  289SOL    HW1 1766   0.305   5.251   4.829
  289SOL    HW2 1767   0.436   5.325   4.892
  290SOL     OW 1768   5.058   2.286   3.598
  290SOL    HW1 1769   5.108   2.366   3.632
  290SOL    HW2 1770   5.116   2.204   3.606
  291SOL     OW 1771   3.816   0.793   4.322
  291SOL    HW1 1772   3.823   0.774   4.224
  291SOL    HW2 1773   3.907   0.790   4.364
  292SOL     OW 1774   4.051   1.666   3.124
  292SOL    HW1 1775   4.091   1.757   3.116
  292SOL    HW2 1776   3.960   1.673   3.166
  293SOL     OW 1777   3.874   5.654   2.224
  293SOL    HW1 1778   3.818   5.572   2.214
  293SOL    HW2 1779   3.914   5.679   2.136
  294SOL     OW 1780   6.982   5.462   6.826
  294SOL    HW1 1781   7.018   5.441   6.917
  294SOL    HW2 1782   6.887   5.433   6.821
  295SOL     OW 1783   3.070   1.653   4.827
  295SOL    HW1 1784   3.020   1.684   4.746
  295SOL    HW2 1785   3.147   1.714   4.844
  296SOL     OW 1786   6.524   2.279   1.934
  296SOL    HW1 1787   6.607   2.305   1.983
  296SOL    HW2 1788   6.539   2.194   1.884
  297SOL     OW 1789   2.811   4.738   2.813
  297SOL    HW1 1790   2.818   4.773   2.719
  297SOL    HW2 1791   2.719   4.702   2.828
  298SOL     OW 1792   3.786   0.065   0.066
  298SOL    HW1 1793   3.703   0.067   0.012
  298SOL    HW2 1794   3.841   7.010   0.040
  299SOL     OW 1795   5.174   1.952   6.767
  299SOL    HW1 1796   5.215   2.043   6.760
  299SOL    HW2 1797   5.137   1.926   6.678
  300SOL     OW 1798   4.373   0.885   2.108
  300SOL    HW1 1799   4.407   0.790   2.105
  300SOL    HW2 1800   4.426   0.936   2.176
  301SOL     OW 1801   5.033   2.131   0.366
  301SOL    HW1 1802   5.087   2.150   0.284
  301SOL    HW2 1803   5.004   2.217   0.407
  302SOL     OW 1804   6.664   0.889   3.194
  302SOL    HW1 1805   6.640   0.896   3.097
  302SOL    HW2 1806   6.757   0.925   3.208
  303SOL     OW 1807   5.918   6.692   2.331
  303SOL    HW1 1808   5.932   6.730   2.422
  303SOL    HW2 1809   5.977   6.740   2.265
  304SOL     OW 1810   1.781   6.183   5.946
  304SOL    HW1 1811   1.878   6.210   5.943
  304SOL    HW2 1812   1.768   6.112   6.015
  305SOL     OW 1813   1.441   2.743   0.367
  305SOL    HW1 1814   1.492   2.829   0.372
  305SOL    HW2 1815   1.418   2.724   0.272
  306SOL     OW 1816   1.245   0.992   3.396
  306SOL    HW1 1817   1.179   0.980   3.470
  306SOL    HW2 1818   1.200   0.977   3.308
  307SOL     OW 1819   4.827   4.474   0.771
  307SOL    HW1 1820   4.913   4.523   0.765
  307SOL    HW2 1821   4.833   4.388   0.720
  308SOL     OW 1822   6.331   3.790   4.762
  308SOL    HW1 1823   6.298   3.701   4.794
  308SOL    HW2 1824   6.401   3.824   4.825
  309SOL     OW 1825   1.964   5.855   0.402
  309SOL    HW1 1826   1.898   5.822   0.334
  309SOL    HW2 1827   1.921   5.858   0.492
  310SOL     OW 1828   5.155   5.720   5.707
  310SOL    HW1 1829   5.164   5.632   5.753
  310SOL    HW2 1830   5.061   5.753   5.716
  311SOL     OW 1831   3.197   5.077   2.875
  311SOL    HW1 1832   3.154   5.056   2.962
  311SOL    HW2 1833   3.166   5.012   2.805
  312SOL     OW 1834   4.305   1.441   4.066
  312SOL    HW1 1835   4.311   1.478   3.973
  312SOL    HW2 1836   4.330   1.513   4.131
  313SOL     OW 1837   3.212   3.324   1.831
  313SOL    HW1 1838   3.264   3.241   1.811
  313SOL    HW2 1839   3.253   3.371   1.909
  314SOL     OW 1840   2.963   4.708   0.055
  314SOL    HW1 1841   2.936   4.784   7.021
  314SOL    HW2 1842   2.954   4.735   0.151
  315SOL     OW 1843   1.213   3.275   3.870
  315SOL    HW1 1844   1.258   3.299   3.956
  315SOL    HW2 1845   1.116   3.260   3.887
  316SOL     OW 1846   3.201   1.069   4.771
  316SOL    HW1 1847   3.114   1.117   4.782
  316SOL    HW2 1848   3.252   1.110   4.695
  317SOL     OW 1849   0.527   1.860   1.459
  317SOL    HW1 1850   0.583   1.844   1.378
  317SOL    HW2 1851   0.557   1.945   1.504
  318SOL     OW 1852   0.033   5.778   0.107
  318SOL    HW1 1853   6.971   5.826   0.091
  318SOL    HW2 1854   0.081   5.766   0.020
  319SOL     OW 1855   6.434   1.307   4.015
  319SOL    HW1 1856   6.406   1.214   3.994
  319SOL    HW2 1857   6.532   1.311   4.032
  320SOL     OW 1858   5.634   2.588   6.876
  320SOL    HW1 1859   5.695   2.560   6.803
  320SOL    HW2 1860   5.674   2.666   6.925
  321SOL     OW 1861   3.420   1.546   6.453
  321SOL    HW1 1862   3.352   1.575   6.385
  321SOL    HW2 1863   3.510   1.582   6.426
  322SOL     OW 1864   3.176   3.691   3.407
  322SOL    HW1 1865   3.264   3.653   3.435
  322SOL    HW2 1866   3.123   3.717   3.487
  323SOL     OW 1867   1.520   3.087   6.089
  323SOL    HW1 1868   1.438   3.100   6.033
  323SOL    HW2 1869   1.601   3.103   6.034
  324SOL     OW 1870   3.093   0.945   3.104
  324SOL    HW1 1871   3.131   0.861   3.066
  324SOL    HW2 1872   3.004   0.925   3.145
  325SOL     OW 1873   0.324   2.658   2.403
  325SOL    HW1 1874   0.333   2.568   2.445
  325SOL    HW2 1875   0.339   2.729   2.472
  326SOL     OW 1876   1.772   5.174   6.527
  326SOL    HW1 1877   1.730   5.253   6.482
  326SOL    HW2 1878   1.871   5.189   6.535
  327SOL     OW 1879   1.854   4.562   2.188
  327SOL    HW1 1880   1.931   4.525   2.136
  327SOL    HW2 1881   1.770   4.515   2.161
  328SOL     OW 1882   1.107   6.004   1.881
  328SOL    HW1 1883   1.125   5.910   1.910
  328SOL    HW2 1884   1.169   6.028   1.807
  329SOL     OW 1885   3.083   3.205   4.645
  329SOL    HW1 1886   3.058   3.175   4.553
  329SOL    HW2 1887   3.114   3.127   4.698
  330SOL     OW 1888   3.447   6.402   1.468
  330SOL    HW1 1889   3.473   6.365   1.557
  330SOL    HW2 1890   3.389   6.336   1.420
  331SOL     OW 1891   3.885   5.726   0.734
  331SOL    HW1 1892   3.849   5.803   0.681
  331SOL    HW2 1893   3.929   5.661   0.673
  332SOL     OW 1894   4.976   2.062   5.720
  332SOL    HW1 1895   5.023   2.039   5.634
  332SOL    HW2 1896   4.881   2.031   5.715
  333SOL     OW 1897   4.383   0.485   6.071
  333SOL    HW1 1898   4.374   0.387   6.053
  333SOL    HW2 1899   4.450   0.524   6.008
  334SOL     OW 1900   3.440   1.168   0.316
  334SOL    HW1 1901   3.516   1.108   0.292
  334SOL    HW2 1902   3.365   1.114   0.355
  335SOL     OW 1903   4.571   6.545   5.907
  335SOL    HW1 1904   4.483   6.546   5.860
  335SOL    HW2 1905   4.556   6.541   6.006
  336SOL     OW 1906   2.672   1.007   3.512
  336SOL    HW1 1907   2.602   0.991   3.442
  336SOL    HW2 1908   2.700   1.103   3.510
  337SOL     OW 1909   0.054   2.829   6.308
  337SOL    HW1 1910   0.025   2.924   6.294
  337SOL    HW2 1911   0.019   2.772   6.233
  338SOL     OW 1912   2.988   2.547   1.387
  338SOL    HW1 1913   2.997   2.556   1.486
  338SOL    HW2 1914   2.978   2.451   1.362
  339SOL     OW 1915   4.587   5.943   4.778
  339SOL    HW1 1916   4.663   5.941   4.714
  339SOL    HW2 1917   4.518   5.875   4.751
  340SOL     OW 1918   4.810   4.066   5.027
  340SOL    HW1 1919   4.866   3.983   5.022
  340SOL    HW2 1920   4.841   4.132   4.958
  341SOL     OW 1921   6.382   6.845   4.414
  341SOL    HW1 1922   6.471   6.836   4.459
  341SOL    HW2 1923   6.393   6.901   4.332
  342SOL     OW 1924   5.529   3.778   0.572
  342SOL    HW1 1925   5.562   3.803   0.480
  342SOL    HW2 1926   5.436   3.812   0.583
  343SOL     OW 1927   1.593   6.331   1.682
  343SOL    HW1 1928   1.509   6.277   1.692
  343SOL    HW2 1929   1.632   6.315   1.592
  344SOL     OW 1930   1.181   3.070   2.114
  344SOL    HW1 1931   1.213   3.154   2.157
  344SOL    HW2 1932   1.232   2.992   2.151
  345SOL     OW 1933   4.768   2.353   3.936
  345SOL    HW1 1934   4.860   2.316   3.953
  345SOL    HW2 1935   4.748   2.347   3.839
  346SOL     OW 1936   1.924   0.950   3.256
  346SOL    HW1 1937   1.987   0.936   3.180
  346SOL    HW2 1938   1.862   1.026   3.234
  347SOL     OW 1939   2.557   5.379   6.591
  347SOL    HW1 1940   2.493   5.306   6.569
  347SOL    HW2 1941   2.647   5.358   6.553
  348SOL     OW 1942   4.765   4.094   2.384
  348SOL    HW1 1943   4.734   4.022   2.322
  348SOL    HW2 1944   4.863   4.082   2.402
  349SOL     OW 1945   6.746   5.474   1.131
  349SOL    HW1 1946   6.735   5.425   1.045
  349SOL    HW2 1947   6.826   5.438   1.179
  350SOL     OW 1948   3.040   3.046   1.095
  350SOL    HW1 1949   2.980   3.089   1.162
  350SOL    HW2 1950   3.130   3.031   1.136
  351SOL     OW 1951   2.409   3.548   0.885
  351SOL    HW1 1952   2.352   3.566   0.805
  351SOL    HW2 1953   2.438   3.635   0.926
  352SOL     OW 1954   3.242   6.661   4.232
  352SOL    HW1 1955   3.205   6.677   4.141
  352SOL    HW2 1956   3.297   6.577   4.231
  353SOL     OW 1957   2.944   0.133   0.185
  353SOL    HW1 1958   2.904   0.146   0.276
  353SOL    HW2 1959   2.870   0.129   0.117
  354SOL     OW 1960   3.918   2.896   0.681
  354SOL    HW1 1961   3.828   2.856   0.694
  354SOL    HW2 1962   3.941   2.897   0.584
  355SOL     OW 1963   1.240   3.480   2.743
  355SOL    HW1 1964   1.297   3.433   2.676
  355SOL    HW2 1965   1.297   3.530   2.807
  356SOL     OW 1966   2.342   0.056   5.843
  356SOL    HW1 1967   2.427   0.003   5.851
  356SOL    HW2 1968   2.292   0.026   5.762
  357SOL     OW 1969   6.983   5.768   5.371
  357SOL    HW1 1970   6.922   5.833   5.328
  357SOL    HW2 1971   6.990   5.787   5.468
  358SOL     OW 1972   4.813   6.086   0.805
  358SOL    HW1 1973   4.790   6.054   0.897
  358SOL    HW2 1974   4.857   6.013   0.754
  359SOL     OW 1975   3.043   2.201   1.778
  359SOL    HW1 1976   3.101   2.137   1.828
  359SOL    HW2 1977   2.981   2.247   1.841
  360SOL     OW 1978   1.371   4.824   6.161
  360SOL    HW1 1979   1.438   4.855   6.093
  360SOL    HW2 1980   1.372   4.724   6.167
  361SOL     OW 1981   6.204   6.894   2.515
  361SOL    HW1 1982   6.119   6.856   2.551
  361SOL    HW2 1983   6.237   6.838   2.439
  362SOL     OW 1984   3.844   3.044   1.063
  362SOL    HW1 1985   3.897   3.054   1.148
  362SOL    HW2 1986   3.905   3.055   0.985
  363SOL     OW 1987   5.551   4.208   2.923
  363SOL    HW1 1988   5.517   4.130   2.871
  363SOL    HW2 1989   5.639   4.238   2.886
  364SOL     OW 1990   6.423   5.028   6.973
  364SOL    HW1 1991   6.348   4.966   6.994
  364SOL    HW2 1992   6.393   5.095   6.905
  365SOL     OW 1993   5.742   6.523   1.628
  365SOL    HW1 1994   5.810   6.458   1.596
  365SOL    HW2 1995   5.699   6.488   1.712
  366SOL     OW 1996   5.517   0.404   6.321
  366SOL    HW1 1997   5.518   0.439   6.227
  366SOL    HW2 1998   5.600   0.350   6.337
  367SOL     OW 1999   5.218   2.902   1.750
  367SOL    HW1 2000   5.195   2.952   1.667
  367SOL    HW2 2001   5.152   2.924   1.822
  368SOL     OW 2002   0.660   2.855   5.351
  368SOL    HW1 2003   0.673   2.761   5.321
  368SOL    HW2 2004   0.652   2.859   5.450
  369SOL     OW 2005   5.957   4.973   2.193
  369SOL    HW1 2006   5.930   5.046   2.255
  369SOL    HW2 2007   6.022   4.913   2.239
  370SOL     OW 2008   2.139   1.316   5.083
  370SOL    HW1 2009   2.129   1.377   5.161
  370SOL    HW2 2010   2.078   1.237   5.094
  371SOL     OW 2011   1.962   4.183   5.866
  371SOL    HW1 2012   1.900   4.235   5.807
  371SOL    HW2 2013   1.985   4.096   5.821
  372SOL     OW 2014   0.817   6.702   6.678
  372SOL    HW1 2015   0.905   6.734   6.713
  372SOL    HW2 2016   0.830   6.663   6.587
  373SOL     OW 2017   5.851   6.325   4.243
  373SOL    HW1 2018   5.834   6.312   4.145
  373SOL    HW2 2019   5.948   6.339   4.258
  374SOL     OW 2020   3.034   1.956   4.038
  374SOL    HW1 2021   3.079   2.042   4.063
  374SOL    HW2 2022   3.102   1.885   4.024
  375SOL     OW 2023   1.263   4.748   4.071
  375SOL    HW1 2024   1.282   4.761   4.168
  375SOL    HW2 2025   1.346   4.721   4.023
  376SOL     OW 2026   2.478   0.971   5.187
  376SOL    HW1 2027   2.389   0.976   5.233
  376SOL    HW2 2028   2.482   1.039   5.114
  377SOL     OW 2029   1.079   2.043   1.040
  377SOL    HW1 2030   1.137   2.053   1.121
  377SOL    HW2 2031   0.992   2.089   1.055
  378SOL     OW 2032   4.756   2.775   6.227
  378SOL    HW1 2033   4.676   2.805   6.279
  378SOL    HW2 2034   4.830   2.751   6.290
  379SOL     OW 2035   5.840   3.024   1.622
  379SOL    HW1 2036   5.838   2.995   1.718
  379SOL    HW2 2037   5.831   2.944   1.563
  380SOL     OW 2038   2.268   1.226   0.784
  380SOL    HW1 2039   2.287   1.305   0.725
  380SOL    HW2 2040   2.256   1.145   0.727
  381SOL     OW 2041   0.883   3.970   2.452
  381SOL    HW1 2042   0.969   3.934   2.486
  381SOL    HW2 2043   0.809   3.907   2.475
  382SOL     OW 2044   5.649   0.344   6.806
  382SOL    HW1 2045   5.721   0.412   6.818
  382SOL    HW2 2046   5.608   0.353   6.715
  383SOL     OW 2047   3.953   3.834   6.375
  383SOL    HW1 2048   3.986   3.762   6.436
  383SOL    HW2 2049   4.030   3.877   6.328
  384SOL     OW 2050   0.332   5.695   4.049
  384SOL    HW1 2051   0.304   5.600   4.066
  384SOL    HW2 2052   0.271   5.756   4.100
  385SOL     OW 2053   3.188   4.687   5.477
  385SOL    HW1 2054   3.120   4.682   5.404
  385SOL    HW2 2055   3.195   4.598   5.522
  386SOL     OW 2056   2.525   0.140   5.221
  386SOL    HW1 2057   2.550   0.236   5.219
  386SOL    HW2 2058   2.457   0.125   5.293
  387SOL     OW 2059   1.227   7.006   2.709
  387SOL    HW1 2060   1.195   6.991   2.802
  387SOL    HW2 2061   1.158   6.973   2.644
  388SOL     OW 2062   1.619   1.515   5.010
  388SOL    HW1 2063   1.690   1.511   5.081
  388SOL    HW2 2064   1.626   1.602   4.962
  389SOL     OW 2065   3.848   3.839   1.460
  389SOL    HW1 2066   3.850   3.889   1.373
  389SOL    HW2 2067   3.826   3.743   1.442
  390SOL     OW 2068   3.412   1.528   1.032
  390SOL    HW1 2069   3.482   1.599   1.030
  390SOL    HW2 2070   3.392   1.504   1.127
  391SOL     OW 2071   2.053   3.159   6.842
  391SOL    HW1 2072   2.036   3.132   6.937
  391SOL    HW2 2073   2.137   3.115   6.810
  392SOL     OW 2074   1.374   4.328   0.785
  392SOL    HW1 2075   1.423   4.241   0.784
  392SOL    HW2 2076   1.286   4.317   0.738
  393SOL     OW 2077   1.608   4.330   6.522
  393SOL    HW1 2078   1.685   4.266   6.531
  393SOL    HW2 2079   1.571   4.350   6.612
  394SOL     OW 2080   6.906   2.026   0.433
  394SOL    HW1 2081   6.982   2.091   0.431
  394SOL    HW2 2082   6.917   1.964   0.511
  395SOL     OW 2083   5.293   4.024   3.101
  395SOL    HW1 2084   5.304   4.121   3.077
  395SOL    HW2 2085   5.200   3.995   3.078
  396SOL     OW 2086   3.268   3.565   1.240
  396SOL    HW1 2087   3.288   3.621   1.320
  396SOL    HW2 2088   3.202   3.494   1.265
  397SOL     OW 2089   6.298   1.241   5.382
  397SOL    HW1 2090   6.363   1.307   5.421
  397SOL    HW2 2091   6.221   1.229   5.445
  398SOL     OW 2092   1.228   0.255   2.345
  398SOL    HW1 2093   1.214   0.229   2.440
  398SOL    HW2 2094   1.201   0.179   2.286
  399SOL     OW 2095   5.630   5.905   2.296
  399SOL    HW1 2096   5.618   5.807   2.279
  399SOL    HW2 2097   5.609   5.925   2.391
  400SOL     OW 2098   6.896   6.213   5.368
  400SOL    HW1 2099   6.900   6.252   5.460
  400SOL    HW2 2100   6.985   6.224   5.323
  401SOL     OW 2101   5.866   0.239   6.471
  401SOL    HW1 2102   5.838   0.314   6.412
  401SOL    HW2 2103   5.926   0.275   6.543
  402SOL     OW 2104   6.150   0.334   3.626
  402SOL    HW1 2105   6.092   0.345   3.545
  402SOL    HW2 2106   6.219   0.407   3.628
  403SOL     OW 2107   3.917   1.776   4.416
  403SOL    HW1 2108   3.958   1.692   4.382
  403SOL    HW2 2109   3.989   1.837   4.449
  404SOL     OW 2110   1.782   4.935   3.706
  404SOL    HW1 2111   1.800   4.846   3.749
  404SOL    HW2 2112   1.866   4.968   3.663
  405SOL     OW 2113   1.979   3.059   2.591
  405SOL    HW1 2114   2.048   3.014   2.534
  405SOL    HW2 2115   1.983   3.023   2.684
  406SOL     OW 2116   1.168   4.154   4.627
  406SOL    HW1 2117   1.180   4.056   4.611
  406SOL    HW2 2118   1.110   4.192   4.555
  407SOL     OW 2119   1.160   0.941   4.643
  407SOL    HW1 2120   1.241   0.884   4.628
  407SOL    HW2 2121   1.108   0.904   4.719
  408SOL     OW 2122   1.479   2.355   2.864
  408SOL    HW1 2123   1.535   2.272   2.867
  408SOL    HW2 2124   1.512   2.420   2.933
  409SOL     OW 2125   6.689   2.781   2.626
  409SOL    HW1 2126   6.746   2.861   2.645
  409SOL    HW2 2127   6.737   2.699   2.654
  410SOL     OW 2128   1.901   1.599   0.838
  410SOL    HW1 2129   1.820   1.634   0.885
  410SOL    HW2 2130   1.922   1.656   0.759
  411SOL     OW 2131   6.423   0.765   1.726
  411SOL    HW1 2132   6.357   0.691   1.739
  411SOL    HW2 2133   6.469   0.754   1.638
  412SOL     OW 2134   2.858   5.836   3.635
  412SOL    HW1 2135   2.953   5.818   3.609
  412SOL    HW2 2136   2.824   5.761   3.691
  413SOL     OW 2137   5.507   3.783   1.657
  413SOL    HW1 2138   5.531   3.880   1.670
  413SOL    HW2 2139   5.431   3.776   1.593
  414SOL     OW 2140   3.150   5.043   3.475
  414SOL    HW1 2141   3.146   5.111   3.548
  414SOL    HW2 2142   3.175   5.088   3.389
  415SOL     OW 2143   1.054   6.262   6.896
  415SOL    HW1 2144   1.030   6.341   6.840
  415SOL    HW2 2145   1.084   6.293   6.986
  416SOL     OW 2146   4.733   6.505   4.987
  416SOL    HW1 2147   4.728   6.568   5.065
  416SOL    HW2 2148   4.644   6.500   4.942
  417SOL     OW 2149   1.828   5.990   6.110
  417SOL    HW1 2150   1.903   6.016   6.172
  417SOL    HW2 2151   1.754   5.949   6.163
  418SOL     OW 2152   3.893   6.769   6.633
  418SOL    HW1 2153   3.913   6.709   6.556
  418SOL    HW2 2154   3.904   6.718   6.719
  419SOL     OW 2155   1.952   6.555   1.214
  419SOL    HW1 2156   1.995   6.467   1.195
  419SOL    HW2 2157   1.856   6.553   1.184
  420SOL     OW 2158   6.005   1.189   0.205
  420SOL    HW1 2159   5.975   1.264   0.147
  420SOL    HW2 2160   6.092   1.214   0.249
  421SOL     OW 2161   0.256   4.072   5.185
  421SOL    HW1 2162   0.294   4.018   5.110
  421SOL    HW2 2163   0.200   4.013   5.243
  422SOL     OW 2164   5.243   3.553   1.289
  422SOL    HW1 2165   5.176   3.517   1.354
  422SOL    HW2 2166   5.270   3.481   1.226
  423SOL     OW 2167   0.437   2.078   5.890
  423SOL    HW1 2168   0.518   2.063   5.947
  423SOL    HW2 2169   0.443   2.019   5.809
  424SOL     OW 2170   1.340   5.770   0.975
  424SOL    HW1 2171   1.302   5.836   0.911
  424SOL    HW2 2172   1.433   5.797   1.001
  425SOL     OW 2173   4.767   1.984   3.533
  425SOL    HW1 2174   4.848   1.926   3.522
  425SOL    HW2 2175   4.706   1.971   3.455
  426SOL     OW 2176   3.640   1.863   4.455
  426SOL    HW1 2177   3.598   1.944   4.414
  426SOL    HW2 2178   3.735   1.884   4.478
  427SOL     OW 2179   5.656   6.182   3.776
  427SOL    HW1 2180   5.558   6.186   3.795
  427SOL    HW2 2181   5.684   6.087   3.765
  428SOL     OW 2182   4.581   0.113   3.586
  428SOL    HW1 2183   4.615   0.205   3.607
  428SOL    HW2 2184   4.535   0.114   3.498
  429SOL     OW 2185   1.179   4.619   1.840
  429SOL    HW1 2186   1.207   4.621   1.744
  429SOL    HW2 2187   1.113   4.691   1.857
  430SOL     OW 2188   0.523   0.115   4.543
  430SOL    HW1 2189   0.567   0.029   4.515
  430SOL    HW2 2190   0.544   0.133   4.639
  431SOL     OW 2191   2.855   0.630   1.258
  431SOL    HW1 2192   2.916   0.708   1.248
  431SOL    HW2 2193   2.896   0.564   1.321
  432SOL     OW 2194   6.382   1.606   1.016
  432SOL    HW1 2195   6.413   1.574   1.105
  432SOL    HW2 2196   6.452   1.666   0.976
  433SOL     OW 2197   1.849   6.671   4.950
  433SOL    HW1 2198   1.841   6.607   4.874
  433SOL    HW2 2199   1.854   6.621   5.036
  434SOL     OW 2200   3.822   5.485   3.759
  434SOL    HW1 2201   3.860   5.396   3.737
  434SOL    HW2 2202   3.754   5.476   3.831
  435SOL     OW 2203   4.664   2.318   6.837
  435SOL    HW1 2204   4.632   2.373   6.914
  435SOL    HW2 2205   4.616   2.231   6.835
  436SOL     OW 2206   3.213   5.641   2.331
  436SOL    HW1 2207   3.159   5.562   2.305
  436SOL    HW2 2208   3.308   5.628   2.302
  437SOL     OW 2209   0.712   1.249   6.784
  437SOL    HW1 2210   0.691   1.231   6.880
  437SOL    HW2 2211   0.741   1.164   6.740
  438SOL     OW 2212   2.234   4.082   3.652
  438SOL    HW1 2213   2.239   3.983   3.668
  438SOL    HW2 2214   2.244   4.101   3.554
  439SOL     OW 2215   6.075   5.532   2.390
  439SOL    HW1 2216   6.158   5.534   2.334
  439SOL    HW2 2217   5.994   5.527   2.331
  440SOL     OW 2218   2.669   1.799   5.196
  440SOL    HW1 2219   2.572   1.824   5.186
  440SOL    HW2 2220   2.720   1.832   5.117
  441SOL     OW 2221   0.956   3.237   3.947
  441SOL    HW1 2222   0.992   3.202   4.033
  441SOL    HW2 2223   0.858   3.253   3.955
  442SOL     OW 2224   3.548   6.068   5.499
  442SOL    HW1 2225   3.583   6.123   5.423
  442SOL    HW2 2226   3.536   5.973   5.468
  443SOL     OW 2227   5.946   4.172   3.813
  443SOL    HW1 2228   5.917   4.126   3.728
  443SOL    HW2 2229   5.983   4.262   3.790
  444SOL     OW 2230   5.306   0.693   6.631
  444SOL    HW1 2231   5.265   0.769   6.681
  444SOL    HW2 2232   5.234   0.629   6.602
  445SOL     OW 2233   1.328   5.900   2.904
  445SOL    HW1 2234   1.403   5.936   2.959
  445SOL    HW2 2235   1.317   5.802   2.922
  446SOL     OW 2236   3.416   4.949   3.538
  446SOL    HW1 2237   3.391   5.013   3.466
  446SOL    HW2 2238   3.334   4.918   3.586
  447SOL     OW 2239   0.384   2.957   6.534
  447SOL    HW1 2240   0.299   2.910   6.513
  447SOL    HW2 2241   0.405   3.023   6.462
  448SOL     OW 2242   2.365   0.935   3.103
  448SOL    HW1 2243   2.419   1.019   3.113
  448SOL    HW2 2244   2.358   0.911   3.006
  449SOL     OW 2245   2.863   1.467   4.102
  449SOL    HW1 2246   2.946   1.522   4.110
  449SOL    HW2 2247   2.881   1.374   4.133
  450SOL     OW 2248   1.338   5.101   3.138
  450SOL    HW1 2249   1.435   5.093   3.117
  450SOL    HW2 2250   1.284   5.096   3.054
  451SOL     OW 2251   1.427   2.356   4.424
  451SOL    HW1 2252   1.343   2.392   4.463
  451SOL    HW2 2253   1.485   2.432   4.393
  452SOL     OW 2254   5.317   6.387   0.511
  452SOL    HW1 2255   5.414   6.407   0.522
  452SOL    HW2 2256   5.292   6.391   0.414
  453SOL     OW 2257   4.048   0.301   6.463
  453SOL    HW1 2258   3.980   0.356   6.415
  453SOL    HW2 2259   4.005   0.257   6.542
  454SOL     OW 2260   0.322   4.126   6.630
  454SOL    HW1 2261   0.319   4.221   6.596
  454SOL    HW2 2262   0.400   4.116   6.692
  455SOL     OW 2263   5.470   2.244   4.881
  455SOL    HW1 2264   5.389   2.302   4.874
  455SOL    HW2 2265   5.521   2.267   4.964
  456SOL     OW 2266   0.590   0.078   3.991
  456SOL    HW1 2267   0.616   0.174   3.978
  456SOL    HW2 2268   0.664   0.030   4.039
  457SOL     OW 2269   1.801   3.401   4.769
  457SOL    HW1 2270   1.863   3.333   4.730
  457SOL    HW2 2271   1.783   3.378   4.865
  458SOL     OW 2272   3.203   6.052   2.555
  458SOL    HW1 2273   3.119   6.003   2.580
  458SOL    HW2 2274   3.265   6.053   2.633
  459SOL     OW 2275   1.927   7.000   5.997
  459SOL    HW1 2276   1.833   0.009   5.990
  459SOL    HW2 2277   1.937   6.946   6.080
  460SOL     OW 2278   2.401   6.807   4.692
  460SOL    HW1 2279   2.308   6.781   4.664
  460SOL    HW2 2280   2.437   6.737   4.754
  461SOL     OW 2281   6.910   5.303   5.658
  461SOL    HW1 2282   6.977   5.229   5.657
  461SOL    HW2 2283   6.919   5.357   5.574
  462SOL     OW 2284   3.611   3.314   7.001
  462SOL    HW1 2285   3.642   3.406   6.978
  462SOL    HW2 2286   3.661   3.247   6.945
  463SOL     OW 2287   5.864   6.251   3.940
  463SOL    HW1 2288   5.824   6.245   3.848
  463SOL    HW2 2289   5.957   6.214   3.937
  464SOL     OW 2290   3.220   1.143   5.249
  464SOL    HW1 2291   3.207   1.198   5.332
  464SOL    HW2 2292   3.256   1.053   5.275
  465SOL     OW 2293   0.937   2.324   0.173
  465SOL    HW1 2294   1.002   2.346   0.246
  465SOL    HW2 2295   0.873   2.400   0.160
  466SOL     OW 2296   1.717   6.485   4.029
  466SOL    HW1 2297   1.689   6.416   4.097
  466SOL    HW2 2298   1.791   6.540   4.067
  467SOL     OW 2299   1.830   1.184   1.113
  467SOL    HW1 2300   1.920   1.221   1.136
  467SOL    HW2 2301   1.829   1.156   1.016
  468SOL     OW 2302   3.725   6.239   5.632
  468SOL    HW1 2303   3.695   6.261   5.724
  468SOL    HW2 2304   3.688   6.150   5.604
  469SOL     OW 2305   2.912   3.432   6.102
  469SOL    HW1 2306   2.921   3.353   6.162
  469SOL    HW2 2307   2.996   3.486   6.105
  470SOL     OW 2308   5.038   6.519   1.222
  470SOL    HW1 2309   5.137   6.525   1.209
  470SOL    HW2 2310   5.000   6.610   1.233
  471SOL     OW 2311   2.424   2.704   4.070
  471SOL    HW1 2312   2.424   2.774   3.998
  471SOL    HW2 2313   2.419   2.748   4.159
  472SOL     OW 2314   4.962   4.375   6.305
  472SOL    HW1 2315   4.867   4.347   6.289
  472SOL    HW2 2316   4.987   4.353   6.399
  473SOL     OW 2317   1.423   2.512   2.392
  473SOL    HW1 2318   1.376   2.470   2.471
  473SOL    HW2 2319   1.409   2.611   2.394
  474SOL     OW 2320   5.272   6.172   4.757
  474SOL    HW1 2321   5.283   6.089   4.702
  474SOL    HW2 2322   5.187   6.166   4.810
  475SOL     OW 2323   5.956   2.063   6.841
  475SOL    HW1 2324   5.997   2.055   6.749
  475SOL    HW2 2325   5.860   2.089   6.832
  476SOL     OW 2326   6.980   3.682   2.209
  476SOL    HW1 2327   6.930   3.621   2.147
  476SOL    HW2 2328   0.041   3.638   2.237
  477SOL     OW 2329   2.720   6.132   2.997
  477SOL    HW1 2330   2.625   6.103   2.985
  477SOL    HW2 2331   2.731   6.225   2.961
  478SOL     OW 2332   3.259   6.393   2.157
  478SOL    HW1 2333   3.249   6.315   2.218
  478SOL    HW2 2334   3.177   6.401   2.100
  479SOL     OW 2335   3.782   3.014   5.670
  479SOL    HW1 2336   3.812   3.103   5.635
  479SOL    HW2 2337   3.687   2.997   5.644
  480SOL     OW 2338   2.265   1.032   0.579
  480SOL    HW1 2339   2.217   0.980   0.650
  480SOL    HW2 2340   2.242   0.995   0.489
  481SOL     OW 2341   1.290   6.331   1.182
  481SOL    HW1 2342   1.217   6.365   1.123
  481SOL    HW2 2343   1.338   6.409   1.223
  482SOL     OW 2344   4.014   4.797   2.163
  482SOL    HW1 2345   4.096   4.852   2.148
  482SOL    HW2 2346   3.957   4.799   2.081
  483SOL     OW 2347   6.473   2.322   3.136
  483SOL    HW1 2348   6.395   2.297   3.193
  483SOL    HW2 2349   6.547   2.357   3.193
  484SOL     OW 2350   2.168   3.216   5.501
  484SOL    HW1 2351   2.235   3.243   5.432
  484SOL    HW2 2352   2.110   3.295   5.523
  485SOL     OW 2353   3.961   4.805   2.670
  485SOL    HW1 2354   3.924   4.878   2.728
  485SOL    HW2 2355   3.917   4.808   2.581
  486SOL     OW 2356   6.587   0.884   0.233
  486SOL    HW1 2357   6.592   0.982   0.254
  486SOL    HW2 2358   6.504   0.867   0.179
  487SOL     OW 2359   0.816   0.672   3.512
  487SOL    HW1 2360   0.732   0.686   3.564
  487SOL    HW2 2361   0.876   0.611   3.563
  488SOL     OW 2362   1.169   0.937   2.719
  488SOL    HW1 2363   1.223   0.920   2.802
  488SOL    HW2 2364   1.230   0.960   2.644
  489SOL     OW 2365   5.404   5.742   5.544
  489SOL    HW1 2366   5.314   5.711   5.575
  489SOL    HW2 2367   5.468   5.744   5.621
  490SOL     OW 2368   0.925   6.453   3.263
  490SOL    HW1 2369   0.901   6.488   3.172
  490SOL    HW2 2370   0.934   6.354   3.259
  491SOL     OW 2371   1.326   3.310   1.899
  491SOL    HW1 2372   1.270   3.369   1.841
  491SOL    HW2 2373   1.277   3.224   1.916
  492SOL     OW 2374   1.623   0.593   5.619
  492SOL    HW1 2375   1.646   0.598   5.522
  492SOL    HW2 2376   1.706   0.597   5.674
  493SOL     OW 2377   3.922   6.414   5.539
  493SOL    HW1 2378   4.006   6.364   5.561
  493SOL    HW2 2379   3.845   6.350   5.534
  494SOL     OW 2380   0.834   6.956   6.544
  494SOL    HW1 2381   0.798   6.882   6.600
  494SOL    HW2 2382   0.894   6.919   6.473
  495SOL     OW 2383   3.999   5.883   3.558
  495SOL    HW1 2384   4.063   5.960   3.563
  495SOL    HW2 2385   4.012   5.835   3.472
  496SOL     OW 2386   5.442   3.013   1.433
  496SOL    HW1 2387   5.413   3.080   1.501
  496SOL    HW2 2388   5.474   3.060   1.350
  497SOL     OW 2389   3.380   1.752   4.527
  497SOL    HW1 2390   3.470   1.796   4.520
  497SOL    HW2 2391   3.368   1.716   4.620
  498SOL     OW 2392   1.027   4.826   1.917
  498SOL    HW1 2393   1.052   4.901   1.857
  498SOL    HW2 2394   0.963   4.859   1.987
  499SOL     OW 2395   1.784   5.337   4.432
  499SOL    HW1 2396   1.749   5.425   4.401
  499SOL    HW2 2397   1.767   5.268   4.362
  500SOL     OW 2398   0.071   2.224   6.074
  500SOL    HW1 2399   0.023   2.292   6.017
  500SOL    HW2 2400   0.004   2.173   6.127
  501SOL     OW 2401   4.131   0.259   0.821
  501SOL    HW1 2402   4.143   0.233   0.725
  501SOL    HW2 2403   4.165   0.186   0.880
  502SOL     OW 2404   0.619   4.269   5.807
  502SOL    HW1 2405   0.639   4.248   5.711
  502SOL    HW2 2406   0.529   4.312   5.813
  503SOL     OW 2407   0.024   4.822   6.524
  503SOL    HW1 2408   7.020   4.914   6.501
  503SOL    HW2 2409   0.045   4.771   6.441
  504SOL     OW 2410   0.803   5.160   2.153
  504SOL    HW1 2411   0.754   5.083   2.195
  504SOL    HW2 2412   0.895   5.166   2.192
  505SOL     OW 2413   3.241   6.091   4.470
  505SOL    HW1 2414   3.173   6.062   4.538
  505SOL    HW2 2415   3.214   6.179   4.431
  506SOL     OW 2416   3.177   5.475   3.220
  506SOL    HW1 2417   3.230   5.522   3.150
  506SOL    HW2 2418   3.114   5.410   3.177
  507SOL     OW 2419   3.508   0.331   3.239
  507SOL    HW1 2420   3.578   0.383   3.288
  507SOL    HW2 2421   3.467   0.389   3.168
  508SOL     OW 2422   0.009   3.548   2.900
  508SOL    HW1 2423   0.062   3.631   2.886
  508SOL    HW2 2424   6.971   3.534   2.823
  509SOL     OW 2425   2.961   1.602   1.385
  509SOL    HW1 2426   2.879   1.619   1.441
  509SOL    HW2 2427   3.027   1.549   1.438
  510SOL     OW 2428   6.295   4.257   0.111
  510SOL    HW1 2429   6.357   4.228   0.038
  510SOL    HW2 2430   6.200   4.243   0.082
  511SOL     OW 2431   1.043   2.444   5.975
  511SOL    HW1 2432   0.972   2.482   5.916
  511SOL    HW2 2433   1.129   2.492   5.959
  512SOL     OW 2434   0.155   2.302   6.772
  512SOL    HW1 2435   0.166   2.331   6.867
  512SOL    HW2 2436   0.237   2.254   6.742
  513SOL     OW 2437   5.640   6.697   3.442
  513SOL    HW1 2438   5.614   6.631   3.512
  513SOL    HW2 2439   5.604   6.787   3.466
  514SOL     OW 2440   6.196   0.300   4.499
  514SOL    HW1 2441   6.201   0.214   4.550
  514SOL    HW2 2442   6.238   0.373   4.553
  515SOL     OW 2443   1.060   0.040   1.183
  515SOL    HW1 2444   1.125   7.020   1.244
  515SOL    HW2 2445   1.010   0.111   1.233
  516SOL     OW 2446   2.902   4.848   1.884
  516SOL    HW1 2447   2.877   4.758   1.847
  516SOL    HW2 2448   2.832   4.915   1.860
  517SOL     OW 2449   3.756   5.316   1.751
  517SOL    HW1 2450   3.778   5.268   1.666
  517SOL    HW2 2451   3.657   5.324   1.760
  518SOL     OW 2452   2.104   2.017   4.112
  518SOL    HW1 2453   2.187   2.072   4.118
  518SOL    HW2 2454   2.030   2.073   4.075
  519SOL     OW 2455   0.814   6.393   3.747
  519SOL    HW1 2456   0.724   6.385   3.705
  519SOL    HW2 2457   0.803   6.415   3.844
  520SOL     OW 2458   5.777   3.822   6.979
  520SOL    HW1 2459   5.788   3.726   6.952
  520SOL    HW2 2460   5.692   3.832   0.007
  521SOL     OW 2461   5.992   5.900   5.157
  521SOL    HW1 2462   5.995   5.828   5.088
  521SOL    HW2 2463   5.930   5.972   5.127
  522SOL     OW 2464   3.603   3.337   3.542
  522SOL    HW1 2465   3.643   3.291   3.621
  522SOL    HW2 2466   3.598   3.272   3.465
  523SOL     OW 2467   0.275   6.209   1.825
  523SOL    HW1 2468   0.299   6.297   1.866
  523SOL    HW2 2469   0.358   6.158   1.805
  524SOL     OW 2470   0.707   1.782   2.492
  524SOL    HW1 2471   0.706   1.869   2.542
  524SOL    HW2 2472   0.740   1.798   2.399
  525SOL     OW 2473   2.007   4.447   6.133
  525SOL    HW1 2474   1.970   4.356   6.154
  525SOL    HW2 2475   2.099   4.437   6.095
  526SOL     OW 2476   3.512   6.103   4.357
  526SOL    HW1 2477   3.467   6.061   4.279
  526SOL    HW2 2478   3.460   6.084   4.440
  527SOL     OW 2479   6.907   2.969   0.889
  527SOL    HW1 2480   6.953   3.041   0.836
  527SOL    HW2 2481   6.870   3.008   0.973
  528SOL     OW 2482   1.560   2.849   3.906
  528SOL    HW1 2483   1.628   2.832   3.978
  528SOL    HW2 2484   1.543   2.947   3.899
  529SOL     OW 2485   1.342   5.459   5.091
  529SOL    HW1 2486   1.339   5.558   5.077
  529SOL    HW2 2487   1.338   5.439   5.189
  530SOL     OW 2488   4.087   3.401   3.706
  530SOL    HW1 2489   4.110   3.434   3.798
  530SOL    HW2 2490   4.037   3.472   3.657
  531SOL     OW 2491   0.851   2.058   2.626
  531SOL    HW1 2492   0.858   2.140   2.682
  531SOL    HW2 2493   0.809   1.984   2.680
  532SOL     OW 2494   0.838   3.099   0.302
  532SOL    HW1 2495   0.916   3.140   0.253
  532SOL    HW2 2496   0.773   3.062   0.235
  533SOL     OW 2497   4.247   0.163   3.784
  533SOL    HW1 2498   4.201   0.130   3.702
  533SOL    HW2 2499   4.320   0.099   3.809
  534SOL     OW 2500   5.322   6.272   2.727
  534SOL    HW1 2501   5.271   6.202   2.777
  534SOL    HW2 2502   5.284   6.362   2.747
  535SOL     OW 2503   6.886   3.750   4.595
  535SOL    HW1 2504   6.938   3.775   4.513
  535SOL    HW2 2505   6.788   3.752   4.574
  536SOL     OW 2506   5.992   4.978   2.799
  536SOL    HW1 2507   6.055   4.915   2.845
  536SOL    HW2 2508   5.916   5.000   2.860
  537SOL     OW 2509   2.519   6.315   4.814
  537SOL    HW1 2510   2.580   6.236   4.817
  537SOL    HW2 2511   2.531   6.364   4.728
  538SOL     OW 2512   1.142   4.340   3.881
  538SOL    HW1 2513   1.203   4.384   3.815
  538SOL    HW2 2514   1.094   4.411   3.933
  539SOL     OW 2515   1.648   5.146   1.319
  539SOL    HW1 2516   1.737   5.100   1.306
  539SOL    HW2 2517   1.663   5.244   1.327
  540SOL     OW 2518   1.226   1.610   2.750
  540SOL    HW1 2519   1.305   1.628   2.809
  540SOL    HW2 2520   1.219   1.682   2.681
  541SOL     OW 2521   5.237   5.538   3.580
  541SOL    HW1 2522   5.336   5.551   3.582
  541SOL    HW2 2523   5.213   5.459   3.636
  542SOL     OW 2524   5.896   6.573   6.497
  542SOL    HW1 2525   5.853   6.640   6.558
  542SOL    HW2 2526   5.934   6.498   6.551
  543SOL     OW 2527   0.360   3.375   4.953
  543SOL    HW1 2528   0.304   3.448   4.992
  543SOL    HW2 2529   0.420   3.338   5.024
  544SOL     OW 2530   1.522   4.882   0.127
  544SOL    HW1 2531   1.456   4.886   0.052
  544SOL    HW2 2532   1.600   4.941   0.105
  545SOL     OW 2533   3.134   1.567   1.033
  545SOL    HW1 2534   3.232   1.586   1.038
  545SOL    HW2 2535   3.085   1.630   1.094
  546SOL     OW 2536   2.169   3.354   0.550
  546SOL    HW1 2537   2.090   3.414   0.538
  546SOL    HW2 2538   2.138   3.268   0.591
  547SOL     OW 2539   3.692   1.532   0.156
  547SOL    HW1 2540   3.621   1.472   0.193
  547SOL    HW2 2541   3.650   1.602   0.098
  548SOL     OW 2542   3.346   3.245   2.077
  548SOL    HW1 2543   3.263   3.191   2.064
  548SOL    HW2 2544   3.425   3.192   2.046
  549SOL     OW 2545   6.091   2.965   1.073
  549SOL    HW1 2546   6.058   3.034   1.138
  549SOL    HW2 2547   6.101   3.006   0.983
  550SOL     OW 2548   1.301   5.779   3.979
  550SOL    HW1 2549   1.270   5.838   3.904
  550SOL    HW2 2550   1.264   5.687   3.967
  551SOL     OW 2551   1.181   0.059   2.183
  551SOL    HW1 2552   1.224   6.994   2.183
  551SOL    HW2 2553   1.100   0.058   2.124
  552SOL     OW 2554   6.781   4.525   6.852
  552SOL    HW1 2555   6.688   4.555   6.831
  552SOL    HW2 2556   6.845   4.598   6.830
  553SOL     OW 2557   2.703   6.190   3.270
  553SOL    HW1 2558   2.717   6.288   3.289
  553SOL    HW2 2559   2.736   6.169   3.178
  554SOL     OW 2560   6.675   6.537   6.583
  554SOL    HW1 2561   6.689   6.453   6.530
  554SOL    HW2 2562   6.690   6.518   6.680
  555SOL     OW 2563   2.484   4.444   4.641
  555SOL    HW1 2564   2.411   4.380   4.617
  555SOL    HW2 2565   2.531   4.411   4.723
  556SOL     OW 2566   4.363   1.903   3.930
  556SOL    HW1 2567   4.313   1.978   3.974
  556SOL    HW2 2568   4.418   1.940   3.855
  557SOL     OW 2569   0.044   5.596   1.128
  557SOL    HW1 2570   0.032   5.684   1.173
  557SOL    HW2 2571   0.142   5.581   1.109
  558SOL     OW 2572   2.925   3.422   3.565
  558SOL    HW1 2573   2.914   3.463   3.474
  558SOL    HW2 2574   3.015   3.445   3.602
  559SOL     OW 2575   0.122   5.449   0.024
  559SOL    HW1 2576   0.064   5.496   0.091
  559SOL    HW2 2577   0.144   5.511   6.974
  560SOL     OW 2578   5.419   4.826   5.359
  560SOL    HW1 2579   5.420   4.888   5.281
  560SOL    HW2 2580   5.335   4.840   5.411
  561SOL     OW 2581   0.973   2.023   1.375
  561SOL    HW1 2582   1.068   2.006   1.403
  561SOL    HW2 2583   0.931   1.937   1.346
  562SOL     OW 2584   4.445   7.024   6.120
  562SOL    HW1 2585   4.426   0.065   6.193
  562SOL    HW2 2586   4.414   6.933   6.147
  563SOL     OW 2587   2.857   0.044   3.460
  563SOL    HW1 2588   2.788   7.002   3.430
  563SOL    HW2 2589   2.865   0.117   3.393
  564SOL     OW 2590   1.426   2.561   6.783
  564SOL    HW1 2591   1.350   2.553   6.718
  564SOL    HW2 2592   1.509   2.526   6.741
  565SOL     OW 2593   3.253   3.053   4.992
  565SOL    HW1 2594   3.317   2.980   5.019
  565SOL    HW2 2595   3.304   3.136   4.972
  566SOL     OW 2596   0.102   4.856   3.394
  566SOL    HW1 2597   0.008   4.838   3.368
  566SOL    HW2 2598   0.111   4.951   3.424
  567SOL     OW 2599   2.973   3.052   1.507
  567SOL    HW1 2600   2.993   2.966   1.555
  567SOL    HW2 2601   2.877   3.052   1.478
  568SOL     OW 2602   5.082   0.664   6.929
  568SOL    HW1 2603   5.041   0.574   6.943
  568SOL    HW2 2604   5.101   0.678   6.832
  569SOL     OW 2605   1.793   3.212   6.705
  569SOL    HW1 2606   1.722   3.176   6.765
  569SOL    HW2 2607   1.879   3.165   6.723
  570SOL     OW 2608   4.051   5.708   6.598
  570SOL    HW1 2609   4.046   5.796   6.644
  570SOL    HW2 2610   4.141   5.696   6.556
  571SOL     OW 2611   3.372   6.845   2.237
  571SOL    HW1 2612   3.343   6.935   2.272
  571SOL    HW2 2613   3.392   6.852   2.139
  572SOL     OW 2614   2.589   4.745   5.465
  572SOL    HW1 2615   2.618   4.666   5.519
  572SOL    HW2 2616   2.649   4.755   5.386
  573SOL     OW 2617   5.353   1.118   5.200
  573SOL    HW1 2618   5.359   1.145   5.296
  573SOL    HW2 2619   5.322   1.023   5.194
  574SOL     OW 2620   4.055   1.556   4.366
  574SOL    HW1 2621   4.023   1.478   4.419
  574SOL    HW2 2622   4.041   1.539   4.268
  575SOL     OW 2623   4.897   4.003   6.815
  575SOL    HW1 2624   4.945   3.923   6.778
  575SOL    HW2 2625   4.811   3.974   6.857
  576SOL     OW 2626   0.841   1.803   3.490
  576SOL    HW1 2627   0.931   1.807   3.446
  576SOL    HW2 2628   0.800   1.713   3.472
  577SOL     OW 2629   1.537   1.420   2.803
  577SOL    HW1 2630   1.624   1.386   2.839
  577SOL    HW2 2631   1.525   1.516   2.830
  578SOL     OW 2632   5.684   5.660   4.117
  578SOL    HW1 2633   5.598   5.706   4.139
  578SOL    HW2 2634   5.667   5.563   4.098
  579SOL     OW 2635   1.803   3.558   3.212
  579SOL    HW1 2636   1.897   3.525   3.217
  579SOL    HW2 2637   1.756   3.539   3.298
  580SOL     OW 2638   4.884   5.882   6.661
  580SOL    HW1 2639   4.954   5.815   6.685
  580SOL    HW2 2640   4.925   5.953   6.602
  581SOL     OW 2641   2.104   3.725   1.538
  581SOL    HW1 2642   2.133   3.718   1.633
  581SOL    HW2 2643   2.018   3.777   1.532
  582SOL     OW 2644   4.181   6.443   1.885
  582SOL    HW1 2645   4.170   6.539   1.860
  582SOL    HW2 2646   4.277   6.425   1.907
  583SOL     OW 2647   3.367   6.383   5.483
  583SOL    HW1 2648   3.402   6.471   5.515
  583SOL    HW2 2649   3.272   6.393   5.456
  584SOL     OW 2650   2.948   4.912   6.909
  584SOL    HW1 2651   2.953   4.964   6.824
  584SOL    HW2 2652   3.015   4.947   6.974
  585SOL     OW 2653   5.325   2.400   6.292
  585SOL    HW1 2654   5.253   2.465   6.269
  585SOL    HW2 2655   5.392   2.444   6.352
  586SOL     OW 2656   3.363   0.778   6.146
  586SOL    HW1 2657   3.347   0.721   6.227
  586SOL    HW2 2658   3.362   0.720   6.065
  587SOL     OW 2659   4.592   1.813   4.908
  587SOL    HW1 2660   4.551   1.892   4.954
  587SOL    HW2 2661   4.522   1.743   4.894
  588SOL     OW 2662   1.540   4.807   2.371
  588SOL    HW1 2663   1.635   4.778   2.382
  588SOL    HW2 2664   1.483   4.726   2.356
  589SOL     OW 2665   3.263   4.683   1.418
  589SOL    HW1 2666   3.267   4.768   1.470
  589SOL    HW2 2667   3.324   4.690   1.339
  590SOL     OW 2668   4.904   3.088   2.981
  590SOL    HW1 2669   4.894   3.052   3.074
  590SOL    HW2 2670   4.960   3.024   2.928
  591SOL     OW 2671   3.180   5.196   3.972
  591SOL    HW1 2672   3.081   5.204   3.983
  591SOL    HW2 2673   3.212   5.111   4.014
  592SOL     OW 2674   4.052   1.310   1.284
  592SOL    HW1 2675   4.019   1.233   1.229
  592SOL    HW2 2676   3.979   1.377   1.295
  593SOL     OW 2677   4.683   2.533   4.489
  593SOL    HW1 2678   4.619   2.542   4.412
  593SOL    HW2 2679   4.773   2.509   4.454
  594SOL     OW 2680   6.576   2.037   0.426
  594SOL    HW1 2681   6.676   2.036   0.415
  594SOL    HW2 2682   6.545   2.129   0.448
  595SOL     OW 2683   5.815   0.324   3.219
  595SOL    HW1 2684   5.850   0.313   3.126
  595SOL    HW2 2685   5.730   0.376   3.217
  596SOL     OW 2686   0.527   5.405   3.314
  596SOL    HW1 2687   0.508   5.456   3.398
  596SOL    HW2 2688   0.495   5.457   3.235
  597SOL     OW 2689   2.839   0.368   6.926
  597SOL    HW1 2690   2.789   0.446   6.965
  597SOL    HW2 2691   2.817   0.285   6.977
  598SOL     OW 2692   4.158   4.762   5.794
  598SOL    HW1 2693   4.209   4.831   5.743
  598SOL    HW2 2694   4.152   4.678   5.739
  599SOL     OW 2695   2.207   6.369   1.771
  599SOL    HW1 2696   2.131   6.404   1.826
  599SOL    HW2 2697   2.172   6.331   1.685
  600SOL     OW 2698   6.910   1.107   6.417
  600SOL    HW1 2699   6.869   1.193   6.447
  600SOL    HW2 2700   6.853   1.031   6.448
  601SOL     OW 2701   1.582   0.341   4.510
  601SOL    HW1 2702   1.598   0.273   4.581
  601SOL    HW2 2703   1.659   0.342   4.447
  602SOL     OW 2704   2.286   2.289   6.604
  602SOL    HW1 2705   2.276   2.361   6.536
  602SOL    HW2 2706   2.218   2.301   6.676
  603SOL     OW 2707   2.610   2.208   5.156
  603SOL    HW1 2708   2.657   2.141   5.215
  603SOL    HW2 2709   2.584   2.287   5.211
  604SOL     OW 2710   1.350   2.753   1.772
  604SOL    HW1 2711   1.293   2.825   1.812
  604SOL    HW2 2712   1.299   2.705   1.702
  605SOL     OW 2713   6.574   6.596   1.126
  605SOL    HW1 2714   6.635   6.671   1.148
  605SOL    HW2 2715   6.480   6.621   1.150
  606SOL     OW 2716   4.336   6.724   6.744
  606SOL    HW1 2717   4.386   6.797   6.697
  606SOL    HW2 2718   4.401   6.667   6.794
  607SOL     OW 2719   6.936   6.113   6.005
  607SOL    HW1 2720   6.981   6.119   5.917
  607SOL    HW2 2721   6.864   6.182   6.011
  608SOL     OW 2722   3.613   5.879   6.783
  608SOL    HW1 2723   3.579   5.952   6.843
  608SOL    HW2 2724   3.590   5.790   6.822
  609SOL     OW 2725   3.921   3.047   3.015
  609SOL    HW1 2726   3.861   2.999   3.079
  609SOL    HW2 2727   3.949   3.134   3.055
  610SOL     OW 2728   5.433   4.068   1.772
  610SOL    HW1 2729   5.397   4.122   1.848
  610SOL    HW2 2730   5.520   4.107   1.742
  611SOL     OW 2731   3.849   6.989   0.834
  611SOL    HW1 2732   3.782   6.915   0.833
  611SOL    HW2 2733   3.940   6.953   0.814
  612SOL     OW 2734   4.026   6.661   5.630
  612SOL    HW1 2735   3.997   6.566   5.617
  612SOL    HW2 2736   4.106   6.680   5.573
  613SOL     OW 2737   4.229   6.022   5.646
  613SOL    HW1 2738   4.308   6.076   5.616
  613SOL    HW2 2739   4.170   6.004   5.567
  614SOL     OW 2740   5.013   5.419   0.965
  614SOL    HW1 2741   4.983   5.416   1.060
  614SOL    HW2 2742   4.975   5.500   0.920
  615SOL     OW 2743   6.428   2.259   1.574
  615SOL    HW1 2744   6.520   2.298   1.575
  615SOL    HW2 2745   6.382   2.284   1.489
  616SOL     OW 2746   0.186   2.755   4.152
  616SOL    HW1 2747   0.122   2.827   4.181
  616SOL    HW2 2748   0.263   2.752   4.215
  617SOL     OW 2749   6.322   4.499   6.607
  617SOL    HW1 2750   6.416   4.474   6.585
  617SOL    HW2 2751   6.268   4.417   6.622
  618SOL     OW 2752   6.851   2.346   6.848
  618SOL    HW1 2753   6.859   2.248   6.830
  618SOL    HW2 2754   6.922   2.395   6.797
  619SOL     OW 2755   4.606   1.152   7.008
  619SOL    HW1 2756   4.699   1.181   0.007
  619SOL    HW2 2757   4.580   1.074   0.040
  620SOL     OW 2758   4.557   2.938   1.128
  620SOL    HW1 2759   4.495   3.012   1.154
  620SOL    HW2 2760   4.548   2.862   1.192
  621SOL     OW 2761   2.814   6.522   6.856
  621SOL    HW1 2762   2.835   6.523   6.759
  621SOL    HW2 2763   2.723   6.561   6.872
  622SOL     OW 2764   1.811   0.388   4.931
  622SOL    HW1 2765   1.854   0.331   4.860
  622SOL    HW2 2766   1.739   0.443   4.890
  623SOL     OW 2767   0.555   5.223   5.824
  623SOL    HW1 2768   0.636   5.212   5.883
  623SOL    HW2 2769   0.536   5.137   5.777
  624SOL     OW 2770   7.002   2.390   1.414
  624SOL    HW1 2771   0.062   2.399   1.361
  624SOL    HW2 2772   6.928   2.438   1.365
  625SOL     OW 2773   1.687   1.480   2.246
  625SOL    HW1 2774   1.645   1.546   2.183
  625SOL    HW2 2775   1.780   1.510   2.268
  626SOL     OW 2776   2.173   5.750   3.112
  626SOL    HW1 2777   2.233   5.830   3.109
  626SOL    HW2 2778   2.117   5.748   3.029
  627SOL     OW 2779   6.041   6.618   0.040
  627SOL    HW1 2780   6.006   6.548   0.101
  627SOL    HW2 2781   5.985   6.701   0.047
  628SOL     OW 2782   6.318   5.404   5.833
  628SOL    HW1 2783   6.392   5.421   5.768
  628SOL    HW2 2784   6.248   5.474   5.824
  629SOL     OW 2785   0.002   0.275   6.667
  629SOL    HW1 2786   6.938   0.321   6.677
  629SOL    HW2 2787   0.013   0.243   6.573
  630SOL     OW 2788   0.605   1.548   1.123
  630SOL    HW1 2789   0.676   1.479   1.127
  630SOL    HW2 2790   0.524   1.510   1.078
  631SOL     OW 2791   3.557   6.927   5.154
  631SOL    HW1 2792   3.495   6.850   5.168
  631SOL    HW2 2793   3.633   6.921   5.219
  632SOL     OW 2794   3.371   1.350   0.811
  632SOL    HW1 2795   3.281   1.352   0.768
  632SOL    HW2 2796   3.377   1.423   0.879
  633SOL     OW 2797   3.282   3.772   6.826
  633SOL    HW1 2798   3.239   3.759   6.916
  633SOL    HW2 2799   3.300   3.870   6.812
  634SOL     OW 2800   3.749   3.528   1.429
  634SOL    HW1 2801   3.693   3.482   1.499
  634SOL    HW2 2802   3.824   3.468   1.401
  635SOL     OW 2803   4.360   5.537   1.729
  635SOL    HW1 2804   4.340   5.632   1.704
  635SOL    HW2 2805   4.301   5.509   1.805
  636SOL     OW 2806   2.902   5.927   0.145
  636SOL    HW1 2807   2.888   5.830   0.122
  636SOL    HW2 2808   2.837   5.954   0.216
  637SOL     OW 2809   6.983   3.197   3.174
  637SOL    HW1 2810   6.964   3.138   3.252
  637SOL    HW2 2811   0.057   3.208   3.164
  638SOL     OW 2812   5.322   2.410   4.238
  638SOL    HW1 2813   5.258   2.344   4.200
  638SOL    HW2 2814   5.416   2.378   4.222
  639SOL     OW 2815   5.142   3.797   2.825
  639SOL    HW1 2816   5.241   3.802   2.819
  639SOL    HW2 2817   5.101   3.854   2.754
  640SOL     OW 2818   0.470   5.533   3.766
  640SOL    HW1 2819   0.418   5.537   3.680
  640SOL    HW2 2820   0.411   5.501   3.840
  641SOL     OW 2821   6.834   5.039   4.624
  641SOL    HW1 2822   6.882   5.054   4.538
  641SOL    HW2 2823   6.801   5.127   4.659
  642SOL     OW 2824   6.690   3.240   4.621
  642SOL    HW1 2825   6.774   3.290   4.602
  642SOL    HW2 2826   6.612   3.302   4.618
  643SOL     OW 2827   6.045   5.508   5.709
  643SOL    HW1 2828   6.031   5.409   5.704
  643SOL    HW2 2829   6.101   5.538   5.632
  644SOL     OW 2830   1.386   6.420   4.466
  644SOL    HW1 2831   1.428   6.330   4.475
  644SOL    HW2 2832   1.457   6.488   4.446
  645SOL     OW 2833   3.612   0.966   3.952
  645SOL    HW1 2834   3.628   1.003   4.043
  645SOL    HW2 2835   3.528   0.912   3.952
  646SOL     OW 2836   3.373   1.437   4.448
  646SOL    HW1 2837   3.353   1.496   4.370
  646SOL    HW2 2838   3.434   1.484   4.511
  647SOL     OW 2839   5.131   1.436   4.760
  647SOL    HW1 2840   5.216   1.424   4.812
  647SOL    HW2 2841   5.054   1.403   4.814
  648SOL     OW 2842   0.713   3.704   4.179
  648SOL    HW1 2843   0.677   3.654   4.257
  648SOL    HW2 2844   0.655   3.783   4.160
  649SOL     OW 2845   2.890   4.116   0.857
  649SOL    HW1 2846   2.809   4.079   0.811
  649SOL    HW2 2847   2.897   4.077   0.948
  650SOL     OW 2848   5.998   4.048   0.350
  650SOL    HW1 2849   6.075   3.990   0.374
  650SOL    HW2 2850   6.005   4.135   0.400
  651SOL     OW 2851   7.021   5.624   5.845
  651SOL    HW1 2852   0.007   5.629   5.945
  651SOL    HW2 2853   0.066   5.561   5.808
  652SOL     OW 2854   4.481   6.791   3.532
  652SOL    HW1 2855   4.492   6.772   3.630
  652SOL    HW2 2856   4.405   6.735   3.496
  653SOL     OW 2857   1.306   5.635   5.477
  653SOL    HW1 2858   1.264   5.699   5.413
  653SOL    HW2 2859   1.288   5.541   5.446
  654SOL     OW 2860   0.554   4.150   6.435
  654SOL    HW1 2861   0.517   4.131   6.526
  654SOL    HW2 2862   0.512   4.233   6.399
  655SOL     OW 2863   0.347   5.649   2.212
  655SOL    HW1 2864   0.285   5.727   2.212
  655SOL    HW2 2865   0.386   5.637   2.121
  656SOL     OW 2866   1.207   6.047   1.590
  656SOL    HW1 2867   1.272   6.031   1.515
  656SOL    HW2 2868   1.132   5.981   1.583
  657SOL     OW 2869   2.152   3.227   1.777
  657SOL    HW1 2870   2.211   3.153   1.745
  657SOL    HW2 2871   2.208   3.298   1.820
  658SOL     OW 2872   2.561   4.152   6.660
  658SOL    HW1 2873   2.594   4.073   6.608
  658SOL    HW2 2874   2.610   4.234   6.630
  659SOL     OW 2875   1.957   5.844   5.630
  659SOL    HW1 2876   1.959   5.749   5.596
  659SOL    HW2 2877   2.003   5.848   5.718
  660SOL     OW 2878   5.512   4.489   2.376
  660SOL    HW1 2879   5.605   4.528   2.378
  660SOL    HW2 2880   5.514   4.400   2.331
  661SOL     OW 2881   5.036   5.118   3.706
  661SOL    HW1 2882   5.094   5.101   3.626
  661SOL    HW2 2883   4.941   5.121   3.677
  662SOL     OW 2884   3.562   0.627   4.910
  662SOL    HW1 2885   3.479   0.633   4.966
  662SOL    HW2 2886   3.642   0.635   4.969
  663SOL     OW 2887   1.969   3.854   6.880
  663SOL    HW1 2888   2.008   3.772   6.923
  663SOL    HW2 2889   2.029   3.932   6.895
  664SOL     OW 2890   0.286   4.969   6.359
  664SOL    HW1 2891   0.237   4.882   6.362
  664SOL    HW2 2892   0.269   5.014   6.271
  665SOL     OW 2893   4.737   4.855   1.546
  665SOL    HW1 2894   4.690   4.777   1.587
  665SOL    HW2 2895   4.780   4.909   1.618
  666SOL     OW 2896   5.110   1.889   2.583
  666SOL    HW1 2897   5.027   1.933   2.550
  666SOL    HW2 2898   5.163   1.954   2.638
  667SOL     OW 2899   6.628   4.484   3.589
  667SOL    HW1 2900   6.642   4.417   3.661
  667SOL    HW2 2901   6.716   4.508   3.548
  668SOL     OW 2902   5.100   6.334   6.330
  668SOL    HW1 2903   5.179   6.341   6.390
  668SOL    HW2 2904   5.121   6.274   6.253
  669SOL     OW 2905   3.998   0.294   4.102
  669SOL    HW1 2906   3.947   0.311   4.018
  669SOL    HW2 2907   4.014   0.196   4.114
  670SOL     OW 2908   2.756   3.149   0.762
  670SOL    HW1 2909   2.781   3.094   0.842
  670SOL    HW2 2910   2.823   3.223   0.750
  671SOL     OW 2911   1.945   6.192   1.135
  671SOL    HW1 2912   1.883   6.201   1.057
  671SOL    HW2 2913   2.021   6.256   1.124
  672SOL     OW 2914   1.424   5.139   1.728
  672SOL    HW1 2915   1.515   5.158   1.764
  672SOL    HW2 2916   1.357   5.197   1.776
  673SOL     OW 2917   0.390   0.352   1.631
  673SOL    HW1 2918   0.443   0.436   1.623
  673SOL    HW2 2919   0.444   0.282   1.678
  674SOL     OW 2920   0.595   2.586   5.184
  674SOL    HW1 2921   0.641   2.649   5.121
  674SOL    HW2 2922   0.498   2.607   5.187
  675SOL     OW 2923   0.375   0.783   4.045
  675SOL    HW1 2924   0.299   0.805   3.984
  675SOL    HW2 2925   0.340   0.766   4.137
  676SOL     OW 2926   3.782   6.316   2.910
  676SOL    HW1 2927   3.841   6.368   2.850
  676SOL    HW2 2928   3.837   6.254   2.966
  677SOL     OW 2929   6.782   1.625   0.299
  677SOL    HW1 2930   6.798   1.713   0.345
  677SOL    HW2 2931   6.734   1.563   0.361
  678SOL     OW 2932   2.239   0.992   5.295
  678SOL    HW1 2933   2.166   1.009   5.229
  678SOL    HW2 2934   2.231   1.057   5.371
  679SOL     OW 2935   4.426   1.903   4.258
  679SOL    HW1 2936   4.493   1.976   4.275
  679SOL    HW2 2937   4.469   1.831   4.204
  680SOL     OW 2938   5.531   5.090   5.467
  680SOL    HW1 2939   5.523   5.004   5.416
  680SOL    HW2 2940   5.459   5.095   5.537
  681SOL     OW 2941   5.328   5.360   1.323
  681SOL    HW1 2942   5.330   5.390   1.228
  681SOL    HW2 2943   5.303   5.436   1.382
  682SOL     OW 2944   0.983   0.641   0.338
  682SOL    HW1 2945   0.925   0.597   0.268
  682SOL    HW2 2946   0.965   0.739   0.338
  683SOL     OW 2947   3.930   3.846   0.648
  683SOL    HW1 2948   3.943   3.939   0.681
  683SOL    HW2 2949   3.995   3.827   0.575
  684SOL     OW 2950   0.256   0.857   6.743
  684SOL    HW1 2951   0.279   0.951   6.769
  684SOL    HW2 2952   0.176   0.858   6.683
  685SOL     OW 2953   4.661   1.073   4.264
  685SOL    HW1 2954   4.760   1.062   4.256
  685SOL    HW2 2955   4.631   1.149   4.207
  686SOL     OW 2956   5.350   2.514   3.906
  686SOL    HW1 2957   5.319   2.526   4.000
  686SOL    HW2 2958   5.424   2.579   3.886
  687SOL     OW 2959   0.660   2.719   4.540
  687SOL    HW1 2960   0.756   2.720   4.512
  687SOL    HW2 2961   0.602   2.716   4.459
  688SOL     OW 2962   1.245   2.139   0.377
  688SOL    HW1 2963   1.268   2.085   0.457
  688SOL    HW2 2964   1.214   2.079   0.303
  689SOL     OW 2965   6.569   3.842   6.414
  689SOL    HW1 2966   6.661   3.805   6.414
  689SOL    HW2 2967   6.503   3.767   6.424
  690SOL     OW 2968   0.556   4.617   2.573
  690SOL    HW1 2969   0.509   4.533   2.600
  690SOL    HW2 2970   0.655   4.603   2.578
  691SOL     OW 2971   2.516   6.568   6.834
  691SOL    HW1 2972   2.529   6.469   6.821
  691SOL    HW2 2973   2.451   6.583   6.909
  692SOL     OW 2974   3.054   6.410   3.295
  692SOL    HW1 2975   3.002   6.492   3.319
  692SOL    HW2 2976   3.011   6.365   3.217
  693SOL     OW 2977   6.310   0.724   3.273
  693SOL    HW1 2978   6.388   0.675   3.313
  693SOL    HW2 2979   6.254   0.761   3.347
  694SOL     OW 2980   4.078   5.739   2.807
  694SOL    HW1 2981   4.159   5.719   2.862
  694SOL    HW2 2982   3.996   5.722   2.862
  695SOL     OW 2983   4.235   6.085   4.046
  695SOL    HW1 2984   4.221   6.089   4.145
  695SOL    HW2 2985   4.147   6.097   3.999
  696SOL     OW 2986   3.879   4.833   2.388
  696SOL    HW1 2987   3.930   4.811   2.306
  696SOL    HW2 2988   3.785   4.859   2.364
  697SOL     OW 2989   1.908   3.400   3.509
  697SOL    HW1 2990   1.966   3.359   3.581
  697SOL    HW2 2991   1.874   3.488   3.540
  698SOL     OW 2992   5.528   6.510   6.764
  698SOL    HW1 2993   5.465   6.581   6.733
  698SOL    HW2 2994   5.614   6.516   6.713
  699SOL     OW 2995   2.165   3.250   6.481
  699SOL    HW1 2996   2.253   3.203   6.489
  699SOL    HW2 2997   2.105   3.199   6.419
  700SOL     OW 2998   2.949   1.518   2.825
  700SOL    HW1 2999   2.887   1.549   2.753
  700SOL    HW2 3000   2.947   1.419   2.832
  701SOL     OW 3001   6.417   3.538   5.535
  701SOL    HW1 3002   6.482   3.612   5.553
  701SOL    HW2 3003   6.383   3.501   5.621
  702SOL     OW 3004   0.910   5.578   5.133
  702SOL    HW1 3005   0.837   5.592   5.066
  702SOL    HW2 3006   0.984   5.525   5.091
  703SOL     OW 3007   3.566   4.430   6.122
  703SOL    HW1 3008   3.619   4.507   6.086
  703SOL    HW2 3009   3.506   4.395   6.050
  704SOL     OW 3010   1.642   2.010   0.086
  704SOL    HW1 3011   1.613   2.046   7.022
  704SOL    HW2 3012   1.741   2.010   0.092
  705SOL     OW 3013   6.205   5.936   2.441
  705SOL    HW1 3014   6.237   5.855   2.490
  705SOL    HW2 3015   6.131   5.979   2.494
  706SOL     OW 3016   4.611   2.657   4.808
  706SOL    HW1 3017   4.533   2.663   4.745
  706SOL    HW2 3018   4.679   2.726   4.783
  707SOL     OW 3019   4.843   5.494   3.004
  707SOL    HW1 3020   4.828   5.399   2.977
  707SOL    HW2 3021   4.914   5.496   3.075
  708SOL     OW 3022   4.506   6.645   1.596
  708SOL    HW1 3023   4.431   6.695   1.639
  708SOL    HW2 3024   4.592   6.666   1.644
  709SOL     OW 3025   0.712   5.892   1.368
  709SOL    HW1 3026   0.753   5.969   1.416
  709SOL    HW2 3027   0.688   5.820   1.434
  710SOL     OW 3028   4.109   3.267   2.372
  710SOL    HW1 3029   4.188   3.249   2.312
  710SOL    HW2 3030   4.062   3.181   2.391
  711SOL     OW 3031   6.944   3.395   5.717
  711SOL    HW1 3032   0.007   3.441   5.700
  711SOL    HW2 3033   6.911   3.354   5.632
  712SOL     OW 3034   4.309   3.087   1.196
  712SOL    HW1 3035   4.370   3.108   1.272
  712SOL    HW2 3036   4.331   3.148   1.119
  713SOL     OW 3037   4.345   2.336   5.674
  713SOL    HW1 3038   4.251   2.317   5.645
  713SOL    HW2 3039   4.384   2.406   5.614
  714SOL     OW 3040   5.996   4.159   3.544
  714SOL    HW1 3041   6.008   4.226   3.471
  714SOL    HW2 3042   6.066   4.088   3.536
  715SOL     OW 3043   5.899   5.747   0.228
  715SOL    HW1 3044   5.824   5.800   0.266
  715SOL    HW2 3045   5.887   5.651   0.250
  716SOL     OW 3046   0.609   0.679   1.986
  716SOL    HW1 3047   0.532   0.616   1.989
  716SOL    HW2 3048   0.691   0.629   1.956
  717SOL     OW 3049   6.358   4.187   5.858
  717SOL    HW1 3050   6.339   4.246   5.779
  717SOL    HW2 3051   6.456   4.188   5.878
  718SOL     OW 3052   5.252   2.764   5.942
  718SOL    HW1 3053   5.348   2.733   5.943
  718SOL    HW2 3054   5.192   2.685   5.953
  719SOL     OW 3055   6.185   0.792   1.509
  719SOL    HW1 3056   6.205   0.705   1.464
  719SOL    HW2 3057   6.091   0.820   1.487
  720SOL     OW 3058   3.212   0.647   5.668
  720SOL    HW1 3059   3.117   0.654   5.636
  720SOL    HW2 3060   3.275   0.667   5.593
  721SOL     OW 3061   2.586   2.088   3.809
  721SOL    HW1 3062   2.666   2.033   3.833
  721SOL    HW2 3063   2.593   2.178   3.852
  722SOL     OW 3064   2.969   0.699   5.551
  722SOL    HW1 3065   2.898   0.634   5.580
  722SOL    HW2 3066   2.963   0.712   5.452
  723SOL     OW 3067   2.040   4.766   2.846
  723SOL    HW1 3068   2.075   4.676   2.869
  723SOL    HW2 3069   1.964   4.757   2.782
  724SOL     OW 3070   1.201   3.047   4.649
  724SOL    HW1 3071   1.192   2.964   4.704
  724SOL    HW2 3072   1.298   3.070   4.639
  725SOL     OW 3073   2.452   5.628   0.698
  725SOL    HW1 3074   2.528   5.675   0.742
  725SOL    HW2 3075   2.370   5.637   0.755
  726SOL     OW 3076   3.846   5.262   1.098
  726SOL    HW1 3077   3.908   5.319   1.045
  726SOL    HW2 3078   3.796   5.318   1.164
  727SOL     OW 3079   5.643   4.649   5.387
  727SOL    HW1 3080   5.635   4.551   5.368
  727SOL    HW2 3081   5.554   4.692   5.376
  728SOL     OW 3082   6.885   2.946   5.133
  728SOL    HW1 3083   6.965   2.886   5.123
  728SOL    HW2 3084   6.838   2.954   5.045
  729SOL     OW 3085   1.311   2.346   1.110
  729SOL    HW1 3086   1.238   2.314   1.169
  729SOL    HW2 3087   1.396   2.355   1.163
  730SOL     OW 3088   5.243   0.405   4.765
  730SOL    HW1 3089   5.238   0.307   4.785
  730SOL    HW2 3090   5.213   0.457   4.845
  731SOL     OW 3091   5.244   4.409   6.163
  731SOL    HW1 3092   5.159   4.360   6.186
  731SOL    HW2 3093   5.272   4.384   6.070
  732SOL     OW 3094   6.999   2.784   1.442
  732SOL    HW1 3095   6.951   2.731   1.512
  732SOL    HW2 3096   6.973   2.751   1.351
  733SOL     OW 3097   5.540   6.471   5.188
  733SOL    HW1 3098   5.576   6.430   5.272
  733SOL    HW2 3099   5.444   6.497   5.202
  734SOL     OW 3100   0.088   4.916   2.734
  734SOL    HW1 3101   0.081   4.975   2.654
  734SOL    HW2 3102   0.166   4.944   2.790
  735SOL     OW 3103   4.382   1.971   0.307
  735SOL    HW1 3104   4.399   1.881   0.269
  735SOL    HW2 3105   4.402   2.041   0.239
  736SOL     OW 3106   0.088   1.372   3.946
  736SOL    HW1 3107   0.050   1.358   4.038
  736SOL    HW2 3108   0.185   1.349   3.947
  737SOL     OW 3109   5.272   1.882   5.005
  737SOL    HW1 3110   5.223   1.969   5.007
  737SOL    HW2 3111   5.208   1.808   4.982
  738SOL     OW 3112   2.306   4.399   1.308
  738SOL    HW1 3113   2.298   4.405   1.209
  738SOL    HW2 3114   2.367   4.324   1.332
  739SOL     OW 3115   4.872   0.275   4.037
  739SOL    HW1 3116   4.932   0.198   4.015
  739SOL    HW2 3117   4.780   0.256   4.003
  740SOL     OW 3118   6.334   0.621   1.198
  740SOL    HW1 3119   6.278   0.556   1.250
  740SOL    HW2 3120   6.313   0.613   1.101
  741SOL     OW 3121   2.300   6.288   3.324
  741SOL    HW1 3122   2.340   6.378   3.341
  741SOL    HW2 3123   2.201   6.296   3.313
  742SOL     OW 3124   2.699   6.588   2.427
  742SOL    HW1 3125   2.640   6.558   2.352
  742SOL    HW2 3126   2.777   6.639   2.390
  743SOL     OW 3127   0.009   4.768   2.981
  743SOL    HW1 3128   7.010   4.858   3.019
  743SOL    HW2 3129   0.041   4.778   2.887
  744SOL     OW 3130   5.831   0.484   0.008
  744SOL    HW1 3131   5.766   0.550   6.994
  744SOL    HW2 3132   5.867   0.520   0.094
  745SOL     OW 3133   1.522   4.743   4.441
  745SOL    HW1 3134   1.561   4.651   4.436
  745SOL    HW2 3135   1.521   4.774   4.536
  746SOL     OW 3136   0.027   3.905   6.725
  746SOL    HW1 3137   0.102   3.900   6.790
  746SOL    HW2 3138   6.970   3.942   6.771
  747SOL     OW 3139   3.717   6.457   4.195
  747SOL    HW1 3140   3.745   6.362   4.194
  747SOL    HW2 3141   3.622   6.465   4.164
  748SOL     OW 3142   3.830   5.148   2.152
  748SOL    HW1 3143   3.868   5.150   2.060
  748SOL    HW2 3144   3.771   5.068   2.162
  749SOL     OW 3145   6.148   3.796   5.246
  749SOL    HW1 3146   6.086   3.745   5.186
  749SOL    HW2 3147   6.223   3.834   5.192
  750SOL     OW 3148   1.553   2.335   1.288
  750SOL    HW1 3149   1.570   2.263   1.355
  750SOL    HW2 3150   1.595   2.420   1.319
  751SOL     OW 3151   3.651   2.078   0.096
  751SOL    HW1 3152   3.667   2.164   0.050
  751SOL    HW2 3153   3.733   2.052   0.148
  752SOL     OW 3154   3.181   1.193   1.653
  752SOL    HW1 3155   3.126   1.178   1.570
  752SOL    HW2 3156   3.195   1.291   1.666
  753SOL     OW 3157   2.353   3.016   5.615
  753SOL    HW1 3158   2.406   2.938   5.582
  753SOL    HW2 3159   2.308   3.061   5.538
  754SOL     OW 3160   5.290   3.054   5.510
  754SOL    HW1 3161   5.291   3.034   5.412
  754SOL    HW2 3162   5.237   2.983   5.557
  755SOL     OW 3163   1.829   4.654   6.114
  755SOL    HW1 3164   1.901   4.587   6.095
  755SOL    HW2 3165   1.751   4.636   6.054
  756SOL     OW 3166   3.002   6.665   6.329
  756SOL    HW1 3167   2.983   6.758   6.363
  756SOL    HW2 3168   3.042   6.610   6.402
  757SOL     OW 3169   0.278   0.501   3.515
  757SOL    HW1 3170   0.373   0.474   3.525
  757SOL    HW2 3171   0.218   0.426   3.542
  758SOL     OW 3172   3.341   0.715   2.298
  758SOL    HW1 3173   3.324   0.618   2.313
  758SOL    HW2 3174   3.278   0.750   2.228
  759SOL     OW 3175   0.189   1.540   1.572
  759SOL    HW1 3176   0.098   1.502   1.559
  759SOL    HW2 3177   0.196   1.628   1.526
  760SOL     OW 3178   5.875   6.882   5.046
  760SOL    HW1 3179   5.809   6.807   5.046
  760SOL    HW2 3180   5.956   6.855   4.993
  761SOL     OW 3181   5.058   3.790   5.973
  761SOL    HW1 3182   5.112   3.721   6.021
  761SOL    HW2 3183   5.065   3.877   6.020
  762SOL     OW 3184   2.229   0.285   4.742
  762SOL    HW1 3185   2.289   0.219   4.695
  762SOL    HW2 3186   2.250   0.377   4.711
  763SOL     OW 3187   4.217   5.361   6.673
  763SOL    HW1 3188   4.131   5.360   6.622
  763SOL    HW2 3189   4.263   5.273   6.660
  764SOL     OW 3190   4.847   0.997   4.778
  764SOL    HW1 3191   4.841   0.963   4.872
  764SOL    HW2 3192   4.938   0.977   4.741
  765SOL     OW 3193   1.673   5.909   1.716
  765SOL    HW1 3194   1.600   5.903   1.784
  765SOL    HW2 3195   1.742   5.974   1.747
  766SOL     OW 3196   2.537   3.335   6.008
  766SOL    HW1 3197   2.610   3.396   5.978
  766SOL    HW2 3198   2.474   3.319   5.932
  767SOL     OW 3199   6.197   5.510   1.502
  767SOL    HW1 3200   6.099   5.511   1.522
  767SOL    HW2 3201   6.232   5.417   1.511
  768SOL     OW 3202   2.574   6.840   2.416
  768SOL    HW1 3203   2.482   6.842   2.379
  768SOL    HW2 3204   2.596   6.748   2.447
  769SOL     OW 3205   2.756   0.742   4.953
  769SOL    HW1 3206   2.822   0.669   4.969
  769SOL    HW2 3207   2.776   0.787   4.866
  770SOL     OW 3208   2.028   5.038   2.793
  770SOL    HW1 3209   2.123   5.066   2.801
  770SOL    HW2 3210   2.019   4.943   2.822
  771SOL     OW 3211   1.424   5.663   2.175
  771SOL    HW1 3212   1.386   5.618   2.256
  771SOL    HW2 3213   1.409   5.606   2.095
  772SOL     OW 3214   5.592   6.000   6.960
  772SOL    HW1 3215   5.607   6.082   7.016
  772SOL    HW2 3216   5.520   5.944   7.001
  773SOL     OW 3217   6.918   4.338   3.799
  773SOL    HW1 3218   6.994   4.273   3.808
  773SOL    HW2 3219   6.913   4.370   3.704
  774SOL     OW 3220   1.865   1.554   1.646
  774SOL    HW1 3221   1.838   1.597   1.732
  774SOL    HW2 3222   1.813   1.471   1.632
  775SOL     OW 3223   1.138   2.405   3.574
  775SOL    HW1 3224   1.193   2.327   3.604
  775SOL    HW2 3225   1.114   2.461   3.654
  776SOL     OW 3226   1.416   6.961   5.950
  776SOL    HW1 3227   1.398   0.032   5.972
  776SOL    HW2 3228   1.339   6.923   5.899
  777SOL     OW 3229   1.967   4.454   1.787
  777SOL    HW1 3230   1.987   4.364   1.826
  777SOL    HW2 3231   1.966   4.446   1.687
  778SOL     OW 3232   2.380   1.657   2.192
  778SOL    HW1 3233   2.453   1.595   2.161
  778SOL    HW2 3234   2.411   1.752   2.183
  779SOL     OW 3235   6.313   2.388   2.125
  779SOL    HW1 3236   6.343   2.484   2.120
  779SOL    HW2 3237   6.370   2.333   2.064
  780SOL     OW 3238   6.999   4.085   3.706
  780SOL    HW1 3239   6.990   4.015   3.777
  780SOL    HW2 3240   0.062   4.076   3.660
  781SOL     OW 3241   6.490   6.667   6.960
  781SOL    HW1 3242   6.524   6.745   7.013
  781SOL    HW2 3243   6.455   6.699   6.873
  782SOL     OW 3244   1.988   3.891   6.311
  782SOL    HW1 3245   2.069   3.833   6.296
  782SOL    HW2 3246   1.907   3.845   6.274
  783SOL     OW 3247   4.740   5.002   2.032
  783SOL    HW1 3248   4.766   5.013   1.937
  783SOL    HW2 3249   4.687   4.918   2.043
  784SOL     OW 3250   4.856   4.781   0.918
  784SOL    HW1 3251   4.900   4.838   0.987
  784SOL    HW2 3252   4.757   4.780   0.933
  785SOL     OW 3253   0.276   2.842   3.262
  785SOL    HW1 3254   0.240   2.883   3.346
  785SOL    HW2 3255   0.374   2.859   3.256
  786SOL     OW 3256   1.365   1.174   2.866
  786SOL    HW1 3257   1.416   1.104   2.916
  786SOL    HW2 3258   1.406   1.264   2.884
  787SOL     OW 3259   2.478   0.362   6.884
  787SOL    HW1 3260   2.522   0.450   6.863
  787SOL    HW2 3261   2.504   0.334   6.977
  788SOL     OW 3262   3.746   2.454   6.642
  788SOL    HW1 3263   3.795   2.488   6.561
  788SOL    HW2 3264   3.657   2.500   6.649
  789SOL     OW 3265   4.570   4.328   0.537
  789SOL    HW1 3266   4.547   4.381   0.618
  789SOL    HW2 3267   4.486   4.304   0.488
  790SOL     OW 3268   2.466   1.562   3.761
  790SOL    HW1 3269   2.524   1.566   3.843
  790SOL    HW2 3270   2.373   1.590   3.785
  791SOL     OW 3271   2.194   5.736   3.828
  791SOL    HW1 3272   2.293   5.739   3.813
  791SOL    HW2 3273   2.151   5.684   3.755
  792SOL     OW 3274   0.758   0.707   0.897
  792SOL    HW1 3275   0.672   0.657   0.900
  792SOL    HW2 3276   0.775   0.740   0.804
  793SOL     OW 3277   4.701   4.926   3.290
  793SOL    HW1 3278   4.782   4.890   3.337
  793SOL    HW2 3279   4.619   4.891   3.335
  794SOL     OW 3280   3.446   3.841   5.614
  794SOL    HW1 3281   3.530   3.877   5.575
  794SOL    HW2 3282   3.403   3.911   5.670
  795SOL     OW 3283   2.907   6.707   4.131
  795SOL    HW1 3284   2.820   6.675   4.094
  795SOL    HW2 3285   2.944   6.779   4.073
  796SOL     OW 3286   6.996   2.088   6.777
  796SOL    HW1 3287   6.972   2.044   6.863
  796SOL    HW2 3288   0.051   2.147   6.791
  797SOL     OW 3289   5.922   2.675   0.740
  797SOL    HW1 3290   5.922   2.578   0.715
  797SOL    HW2 3291   5.956   2.685   0.833
  798SOL     OW 3292   3.528   6.351   2.112
  798SOL    HW1 3293   3.582   6.414   2.057
  798SOL    HW2 3294   3.444   6.397   2.141
  799SOL     OW 3295   0.351   6.678   5.494
  799SOL    HW1 3296   0.422   6.715   5.553
  799SOL    HW2 3297   0.393   6.630   5.417
  800SOL     OW 3298   5.255   2.069   2.734
  800SOL    HW1 3299   5.302   2.010   2.800
  800SOL    HW2 3300   5.227   2.154   2.780
  801SOL     OW 3301   1.661   3.879   4.522
  801SOL    HW1 3302   1.751   3.845   4.549
  801SOL    HW2 3303   1.642   3.849   4.428
  802SOL     OW 3304   3.876   2.328   0.970
  802SOL    HW1 3305   3.872   2.233   1.000
  802SOL    HW2 3306   3.946   2.338   0.900
  803SOL     OW 3307   0.293   0.069   5.530
  803SOL    HW1 3308   0.348   7.015   5.502
  803SOL    HW2 3309   0.211   0.075   5.473
  804SOL     OW 3310   5.757   5.256   6.545
  804SOL    HW1 3311   5.720   5.336   6.591
  804SOL    HW2 3312   5.721   5.173   6.587
  805SOL     OW 3313   3.117   7.012   4.185
  805SOL    HW1 3314   3.214   7.008   4.160
  805SOL    HW2 3315   3.063   6.963   4.117
  806SOL     OW 3316   5.028   1.439   4.209
  806SOL    HW1 3317   5.022   1.391   4.297
  806SOL    HW2 3318   5.119   1.480   4.199
  807SOL     OW 3319   1.653   1.059   5.682
  807SOL    HW1 3320   1.575   1.038   5.623
  807SOL    HW2 3321   1.688   0.975   5.722
  808SOL     OW 3322   3.727   3.700   6.471
  808SOL    HW1 3323   3.778   3.773   6.427
  808SOL    HW2 3324   3.637   3.733   6.498
  809SOL     OW 3325   0.221   4.750   1.035
  809SOL    HW1 3326   0.171   4.835   1.050
  809SOL    HW2 3327   0.259   4.750   0.943
  810SOL     OW 3328   3.728   3.391   1.067
  810SOL    HW1 3329   3.634   3.422   1.082
  810SOL    HW2 3330   3.790   3.467   1.086
  811SOL     OW 3331   4.749   5.262   5.411
  811SOL    HW1 3332   4.821   5.316   5.456
  811SOL    HW2 3333   4.685   5.229   5.481
  812SOL     OW 3334   0.390   1.026   2.347
  812SOL    HW1 3335   0.325   0.959   2.310
  812SOL    HW2 3336   0.419   0.997   2.438
  813SOL     OW 3337   3.961   7.019   3.958
  813SOL    HW1 3338   3.991   0.074   3.904
  813SOL    HW2 3339   4.021   6.942   3.939
  814SOL     OW 3340   5.983   6.416   2.286
  814SOL    HW1 3341   6.002   6.510   2.315
  814SOL    HW2 3342   6.049   6.354   2.327
  815SOL     OW 3343   0.353   3.818   3.322
  815SOL    HW1 3344   0.288   3.893   3.323
  815SOL    HW2 3345   0.436   3.844   3.371
  816SOL     OW 3346   6.274   6.488   6.967
  816SOL    HW1 3347   6.357   6.544   6.956
  816SOL    HW2 3348   6.199   6.545   7.000
  817SOL     OW 3349   1.441   4.776   0.957
  817SOL    HW1 3350   1.492   4.853   0.995
  817SOL    HW2 3351   1.471   4.760   0.863
  818SOL     OW 3352   6.203   2.913   2.759
  818SOL    HW1 3353   6.294   2.928   2.721
  818SOL    HW2 3354   6.166   2.828   2.723
  819SOL     OW 3355   5.397   2.570   2.741
  819SOL    HW1 3356   5.478   2.628   2.735
  819SOL    HW2 3357   5.389   2.515   2.658
  820SOL     OW 3358   3.577   1.834   5.216
  820SOL    HW1 3359   3.625   1.900   5.158
  820SOL    HW2 3360   3.496   1.876   5.256
  821SOL     OW 3361   0.925   4.405   1.091
  821SOL    HW1 3362   0.963   4.480   1.037
  821SOL    HW2 3363   0.934   4.426   1.189
  822SOL     OW 3364   1.521   4.700   3.740
  822SOL    HW1 3365   1.604   4.671   3.693
  822SOL    HW2 3366   1.450   4.720   3.673
  823SOL     OW 3367   4.772   3.757   6.476
  823SOL    HW1 3368   4.765   3.771   6.378
  823SOL    HW2 3369   4.703   3.813   6.523
  824SOL     OW 3370   5.477   1.418   6.197
  824SOL    HW1 3371   5.548   1.484   6.223
  824SOL    HW2 3372   5.390   1.466   6.186
  825SOL     OW 3373   6.861   4.625   1.331
  825SOL    HW1 3374   6.845   4.714   1.288
  825SOL    HW2 3375   6.903   4.638   1.421
  826SOL     OW 3376   4.143   2.965   5.665
  826SOL    HW1 3377   4.136   3.065   5.661
  826SOL    HW2 3378   4.072   2.924   5.608
  827SOL     OW 3379   2.955   4.597   5.634
  827SOL    HW1 3380   2.887   4.555   5.573
  827SOL    HW2 3381   2.923   4.687   5.662
  828SOL     OW 3382   6.182   6.408   6.711
  828SOL    HW1 3383   6.140   6.494   6.682
  828SOL    HW2 3384   6.232   6.423   6.797
  829SOL     OW 3385   3.767   3.946   2.694
  829SOL    HW1 3386   3.684   3.896   2.717
  829SOL    HW2 3387   3.769   4.032   2.746
  830SOL     OW 3388   4.909   5.242   6.590
  830SOL    HW1 3389   4.932   5.245   6.687
  830SOL    HW2 3390   4.816   5.209   6.579
  831SOL     OW 3391   6.219   0.222   0.034
  831SOL    HW1 3392   6.207   0.230   0.133
  831SOL    HW2 3393   6.190   0.306   7.014
  832SOL     OW 3394   3.359   0.634   1.974
  832SOL    HW1 3395   3.297   0.705   2.009
  832SOL    HW2 3396   3.453   0.661   1.992
  833SOL     OW 3397   1.186   3.751   5.919
  833SOL    HW1 3398   1.213   3.813   5.992
  833SOL    HW2 3399   1.096   3.777   5.884
  834SOL     OW 3400   3.693   3.719   0.693
  834SOL    HW1 3401   3.785   3.749   0.670
  834SOL    HW2 3402   3.683   3.622   0.671
  835SOL     OW 3403   3.829   0.393   5.700
  835SOL    HW1 3404   3.855   0.408   5.795
  835SOL    HW2 3405   3.910   0.370   5.646
  836SOL     OW 3406   4.037   5.672   5.978
  836SOL    HW1 3407   3.991   5.628   6.055
  836SOL    HW2 3408   4.129   5.635   5.968
  837SOL     OW 3409   5.452   0.155   0.554
  837SOL    HW1 3410   5.510   0.211   0.613
  837SOL    HW2 3411   5.373   0.121   0.606
  838SOL     OW 3412   2.493   0.502   4.291
  838SOL    HW1 3413   2.496   0.585   4.347
  838SOL    HW2 3414   2.438   0.432   4.338
  839SOL     OW 3415   1.017   2.416   2.300
  839SOL    HW1 3416   1.028   2.338   2.362
  839SOL    HW2 3417   1.002   2.383   2.207
  840SOL     OW 3418   6.797   5.603   0.772
  840SOL    HW1 3419   6.829   5.661   0.697
  840SOL    HW2 3420   6.819   5.647   0.859
  841SOL     OW 3421   3.814   4.932   0.002
  841SOL    HW1 3422   3.769   4.882   6.953
  841SOL    HW2 3423   3.834   4.870   0.078
  842SOL     OW 3424   4.053   0.305   4.670
  842SOL    HW1 3425   4.070   0.312   4.572
  842SOL    HW2 3426   4.072   0.212   4.701
  843SOL     OW 3427   0.896   1.362   0.987
  843SOL    HW1 3428   0.947   1.420   1.050
  843SOL    HW2 3429   0.820   1.319   1.035
  844SOL     OW 3430   5.560   0.672   0.363
  844SOL    HW1 3431   5.487   0.739   0.362
  844SOL    HW2 3432   5.542   0.602   0.294
  845SOL     OW 3433   5.052   4.443   5.032
  845SOL    HW1 3434   5.064   4.499   4.951
  845SOL    HW2 3435   4.993   4.365   5.010
  846SOL     OW 3436   2.115   1.627   6.189
  846SOL    HW1 3437   2.095   1.706   6.247
  846SOL    HW2 3438   2.201   1.585   6.218
  847SOL     OW 3439   1.225   3.237   1.631
  847SOL    HW1 3440   1.325   3.244   1.623
  847SOL    HW2 3441   1.190   3.320   1.674
  848SOL     OW 3442   6.276   0.582   5.691
  848SOL    HW1 3443   6.271   0.548   5.597
  848SOL    HW2 3444   6.371   0.601   5.715
  849SOL     OW 3445   0.431   3.332   6.005
  849SOL    HW1 3446   0.396   3.242   6.029
  849SOL    HW2 3447   0.453   3.383   6.089
  850SOL     OW 3448   5.550   0.661   3.084
  850SOL    HW1 3449   5.621   0.706   3.030
  850SOL    HW2 3450   5.478   0.627   3.023
  851SOL     OW 3451   0.146   2.032   2.993
  851SOL    HW1 3452   0.076   1.964   3.012
  851SOL    HW2 3453   0.236   1.991   3.006
  852SOL     OW 3454   1.293   3.307   6.579
  852SOL    HW1 3455   1.205   3.353   6.570
  852SOL    HW2 3456   1.366   3.370   6.556
  853SOL     OW 3457   1.249   4.244   1.516
  853SOL    HW1 3458   1.261   4.305   1.438
  853SOL    HW2 3459   1.252   4.149   1.485
  854SOL     OW 3460   5.355   5.801   0.747
  854SOL    HW1 3461   5.363   5.888   0.795
  854SOL    HW2 3462   5.267   5.760   0.767
  855SOL     OW 3463   6.906   6.914   1.825
  855SOL    HW1 3464   6.946   6.894   1.914
  855SOL    HW2 3465   6.896   7.013   1.815
  856SOL     OW 3466   1.100   2.707   5.294
  856SOL    HW1 3467   1.192   2.696   5.331
  856SOL    HW2 3468   1.073   2.624   5.245
  857SOL     OW 3469   5.742   4.243   1.905
  857SOL    HW1 3470   5.841   4.260   1.898
  857SOL    HW2 3471   5.693   4.327   1.883
  858SOL     OW 3472   2.690   3.322   1.104
  858SOL    HW1 3473   2.657   3.241   1.056
  858SOL    HW2 3474   2.615   3.363   1.155
  859SOL     OW 3475   5.948   5.764   5.403
  859SOL    HW1 3476   5.953   5.837   5.335
  859SOL    HW2 3477   5.884   5.694   5.372
  860SOL     OW 3478   5.911   3.054   0.460
  860SOL    HW1 3479   5.819   3.014   0.456
  860SOL    HW2 3480   5.978   2.988   0.427
  861SOL     OW 3481   2.613   5.703   3.295
  861SOL    HW1 3482   2.651   5.794   3.312
  861SOL    HW2 3483   2.571   5.702   3.204
  862SOL     OW 3484   1.253   3.898   4.617
  862SOL    HW1 3485   1.233   3.832   4.690
  862SOL    HW2 3486   1.336   3.949   4.640
  863SOL     OW 3487   6.068   1.251   0.636
  863SOL    HW1 3488   6.040   1.155   0.644
  863SOL    HW2 3489   6.129   1.274   0.712
  864SOL     OW 3490   4.438   5.363   4.024
  864SOL    HW1 3491   4.409   5.387   3.931
  864SOL    HW2 3492   4.475   5.270   4.024
  865SOL     OW 3493   1.058   6.575   5.822
  865SOL    HW1 3494   0.996   6.603   5.749
  865SOL    HW2 3495   1.009   6.519   5.888
  866SOL     OW 3496   2.027   2.232   2.089
  866SOL    HW1 3497   2.038   2.136   2.061
  866SOL    HW2 3498   2.089   2.289   2.035
  867SOL     OW 3499   4.087   3.764   0.439
  867SOL    HW1 3500   4.146   3.697   0.484
  867SOL    HW2 3501   4.025   3.716   0.377
  868SOL     OW 3502   5.905   1.389   0.908
  868SOL    HW1 3503   5.903   1.357   0.813
  868SOL    HW2 3504   5.903   1.489   0.909
  869SOL     OW 3505   0.638   4.761   2.967
  869SOL    HW1 3506   0.539   4.756   2.981
  869SOL    HW2 3507   0.685   4.718   3.044
  870SOL     OW 3508   4.665   3.172   0.631
  870SOL    HW1 3509   4.619   3.258   0.610
  870SOL    HW2 3510   4.618   3.096   0.587
  871SOL     OW 3511   4.759   2.520   3.114
  871SOL    HW1 3512   4.775   2.430   3.074
  871SOL    HW2 3513   4.664   2.528   3.144
  872SOL     OW 3514   5.633   2.971   3.843
  872SOL    HW1 3515   5.716   2.933   3.801
  872SOL    HW2 3516   5.559   2.973   3.776
  873SOL     OW 3517   5.571   0.189   4.041
  873SOL    HW1 3518   5.637   0.228   3.977
  873SOL    HW2 3519   5.530   0.108   4.000
  874SOL     OW 3520   1.049   4.135   5.996
  874SOL    HW1 3521   1.104   4.184   6.065
  874SOL    HW2 3522   0.984   4.198   5.955
  875SOL     OW 3523   3.609   3.453   0.432
  875SOL    HW1 3524   3.576   3.539   0.394
  875SOL    HW2 3525   3.708   3.446   0.418
  876SOL     OW 3526   0.395   4.387   2.413
  876SOL    HW1 3527   0.351   4.347   2.332
  876SOL    HW2 3528   0.358   4.344   2.495
  877SOL     OW 3529   3.948   4.583   6.338
  877SOL    HW1 3530   3.875   4.615   6.277
  877SOL    HW2 3531   3.910   4.522   6.406
  878SOL     OW 3532   3.760   6.245   5.316
  878SOL    HW1 3533   3.839   6.299   5.286
  878SOL    HW2 3534   3.676   6.292   5.289
  879SOL     OW 3535   4.055   2.314   0.755
  879SOL    HW1 3536   4.080   2.219   0.772
  879SOL    HW2 3537   4.103   2.347   0.674
  880SOL     OW 3538   3.084   4.023   4.393
  880SOL    HW1 3539   3.118   4.091   4.459
  880SOL    HW2 3540   3.031   3.953   4.442
  881SOL     OW 3541   5.179   4.034   4.668
  881SOL    HW1 3542   5.092   3.987   4.684
  881SOL    HW2 3543   5.223   4.053   4.755
  882SOL     OW 3544   0.667   2.643   4.243
  882SOL    HW1 3545   0.668   2.605   4.151
  882SOL    HW2 3546   0.582   2.617   4.289
  883SOL     OW 3547   4.716   6.901   6.770
  883SOL    HW1 3548   4.679   6.826   6.715
  883SOL    HW2 3549   4.654   6.921   6.846
  884SOL     OW 3550   6.916   4.188   0.399
  884SOL    HW1 3551   6.822   4.153   0.407
  884SOL    HW2 3552   6.974   4.117   0.360
  885SOL     OW 3553   4.759   6.145   6.266
  885SOL    HW1 3554   4.728   6.074   6.203
  885SOL    HW2 3555   4.682   6.179   6.319
  886SOL     OW 3556   4.291   0.957   1.303
  886SOL    HW1 3557   4.192   0.951   1.289
  886SOL    HW2 3558   4.319   1.053   1.308
  887SOL     OW 3559   3.747   5.749   4.022
  887SOL    HW1 3560   3.711   5.823   3.965
  887SOL    HW2 3561   3.702   5.751   4.111
  888SOL     OW 3562   6.397   5.365   2.583
  888SOL    HW1 3563   6.457   5.287   2.596
  888SOL    HW2 3564   6.442   5.448   2.617
  889SOL     OW 3565   1.014   0.085   5.866
  889SOL    HW1 3566   1.063   0.148   5.926
  889SOL    HW2 3567   1.051   7.017   5.876
  890SOL     OW 3568   1.666   5.809   2.213
  890SOL    HW1 3569   1.573   5.771   2.210
  890SOL    HW2 3570   1.711   5.794   2.125
  891SOL     OW 3571   6.312   3.510   0.470
  891SOL    HW1 3572   6.304   3.429   0.413
  891SOL    HW2 3573   6.261   3.496   0.555
  892SOL     OW 3574   3.670   4.631   5.969
  892SOL    HW1 3575   3.672   4.714   6.025
  892SOL    HW2 3576   3.763   4.606   5.944
  893SOL     OW 3577   2.175   0.789   2.171
  893SOL    HW1 3578   2.215   0.779   2.080
  893SOL    HW2 3579   2.077   0.768   2.167
  894SOL     OW 3580   0.922   2.670   3.367
  894SOL    HW1 3581   0.996   2.692   3.304
  894SOL    HW2 3582   0.915   2.571   3.377
  895SOL     OW 3583   1.085   5.346   3.760
  895SOL    HW1 3584   1.053   5.377   3.670
  895SOL    HW2 3585   1.060   5.251   3.774
  896SOL     OW 3586   6.170   6.786   1.488
  896SOL    HW1 3587   6.090   6.807   1.544
  896SOL    HW2 3588   6.246   6.760   1.548
  897SOL     OW 3589   4.260   0.919   6.644
  897SOL    HW1 3590   4.286   0.999   6.590
  897SOL    HW2 3591   4.161   0.919   6.658
  898SOL     OW 3592   3.463   6.501   3.080
  898SOL    HW1 3593   3.419   6.490   3.169
  898SOL    HW2 3594   3.458   6.597   3.052
  899SOL     OW 3595   0.576   5.185   1.191
  899SOL    HW1 3596   0.583   5.220   1.097
  899SOL    HW2 3597   0.666   5.153   1.221
  900SOL     OW 3598   4.765   6.208   0.329
  900SOL    HW1 3599   4.799   6.295   0.367
  900SOL    HW2 3600   4.815   6.187   0.245
  901SOL     OW 3601   1.406   0.989   5.557
  901SOL    HW1 3602   1.372   0.896   5.573
  901SOL    HW2 3603   1.334   1.055   5.578
  902SOL     OW 3604   0.910   2.553   0.801
  902SOL    HW1 3605   0.852   2.487   0.754
  902SOL    HW2 3606   0.903   2.642   0.755
  903SOL     OW 3607   6.949   3.506   6.407
  903SOL    HW1 3608   6.934   3.603   6.426
  903SOL    HW2 3609   6.982   3.460   6.490
  904SOL     OW 3610   2.107   2.674   2.837
  904SOL    HW1 3611   2.153   2.759   2.859
  904SOL    HW2 3612   2.052   2.685   2.754
  905SOL     OW 3613   4.940   3.924   5.700
  905SOL    HW1 3614   4.904   3.908   5.791
  905SOL    HW2 3615   4.903   4.010   5.663
  906SOL     OW 3616   0.832   3.189   6.201
  906SOL    HW1 3617   0.906   3.253   6.178
  906SOL    HW2 3618   0.771   3.231   6.268
  907SOL     OW 3619   5.021   2.539   2.630
  907SOL    HW1 3620   4.955   2.542   2.704
  907SOL    HW2 3621   5.039   2.632   2.597
  908SOL     OW 3622   2.316   5.025   2.743
  908SOL    HW1 3623   2.343   5.062   2.654
  908SOL    HW2 3624   2.347   4.930   2.750
  909SOL     OW 3625   2.584   5.932   2.081
  909SOL    HW1 3626   2.512   5.871   2.047
  909SOL    HW2 3627   2.548   5.988   2.156
  910SOL     OW 3628   2.541   1.228   0.303
  910SOL    HW1 3629   2.561   1.190   0.394
  910SOL    HW2 3630   2.450   1.198   0.274
  911SOL     OW 3631   6.886   5.772   0.575
  911SOL    HW1 3632   6.860   5.752   0.481
  911SOL    HW2 3633   6.881   5.871   0.591
  912SOL     OW 3634   5.463   0.588   3.825
  912SOL    HW1 3635   5.543   0.531   3.845
  912SOL    HW2 3636   5.430   0.568   3.733
  913SOL     OW 3637   1.950   0.863   3.498
  913SOL    HW1 3638   1.961   0.917   3.581
  913SOL    HW2 3639   1.926   0.923   3.422
  914SOL     OW 3640   1.805   5.914   5.161
  914SOL    HW1 3641   1.826   5.921   5.259
  914SOL    HW2 3642   1.724   5.858   5.149
  915SOL     OW 3643   0.985   3.093   0.827
  915SOL    HW1 3644   0.898   3.054   0.857
  915SOL    HW2 3645   0.990   3.189   0.855
  916SOL     OW 3646   1.393   2.778   2.423
  916SOL    HW1 3647   1.325   2.806   2.490
  916SOL    HW2 3648   1.483   2.813   2.450
  917SOL     OW 3649   5.653   0.837   2.341
  917SOL    HW1 3650   5.718   0.804   2.409
  917SOL    HW2 3651   5.629   0.932   2.360
  918SOL     OW 3652   3.133   0.193   0.514
  918SOL    HW1 3653   3.218   0.155   0.477
  918SOL    HW2 3654   3.077   0.119   0.550
  919SOL     OW 3655   6.543   5.920   2.747
  919SOL    HW1 3656   6.639   5.948   2.747
  919SOL    HW2 3657   6.510   5.914   2.653
  920SOL     OW 3658   2.197   5.336   2.830
  920SOL    HW1 3659   2.112   5.359   2.876
  920SOL    HW2 3660   2.255   5.283   2.892
  921SOL     OW 3661   4.919   4.218   3.118
  921SOL    HW1 3662   4.930   4.124   3.084
  921SOL    HW2 3663   4.991   4.238   3.184
  922SOL     OW 3664   3.110   3.531   5.871
  922SOL    HW1 3665   3.106   3.611   5.812
  922SOL    HW2 3666   3.103   3.559   5.966
  923SOL     OW 3667   2.991   4.638   6.039
  923SOL    HW1 3668   3.003   4.595   5.949
  923SOL    HW2 3669   2.967   4.569   6.106
  924SOL     OW 3670   5.784   2.451   2.927
  924SOL    HW1 3671   5.722   2.529   2.918
  924SOL    HW2 3672   5.736   2.368   2.900
  925SOL     OW 3673   0.721   1.413   6.551
  925SOL    HW1 3674   0.748   1.351   6.625
  925SOL    HW2 3675   0.703   1.359   6.468
  926SOL     OW 3676   5.895   0.644   0.656
  926SOL    HW1 3677   5.848   0.712   0.713
  926SOL    HW2 3678   5.828   0.581   0.616
  927SOL     OW 3679   6.178   4.154   3.055
  927SOL    HW1 3680   6.211   4.173   3.147
  927SOL    HW2 3681   6.081   4.179   3.049
  928SOL     OW 3682   1.065   5.778   0.907
  928SOL    HW1 3683   0.977   5.780   0.955
  928SOL    HW2 3684   1.137   5.752   0.971
  929SOL     OW 3685   0.237   1.169   1.059
  929SOL    HW1 3686   0.211   1.117   1.140
  929SOL    HW2 3687   0.317   1.127   1.016
  930SOL     OW 3688   5.872   5.948   4.031
  930SOL    HW1 3689   5.791   6.006   4.035
  930SOL    HW2 3690   5.845   5.853   4.017
  931SOL     OW 3691   6.137   1.990   3.368
  931SOL    HW1 3692   6.084   2.019   3.447
  931SOL    HW2 3693   6.102   2.034   3.285
  932SOL     OW 3694   3.151   6.514   3.015
  932SOL    HW1 3695   3.209   6.517   3.096
  932SOL    HW2 3696   3.185   6.444   2.952
  933SOL     OW 3697   1.242   6.013   3.232
  933SOL    HW1 3698   1.324   6.021   3.176
  933SOL    HW2 3699   1.227   5.917   3.256
  934SOL     OW 3700   1.852   0.367   5.680
  934SOL    HW1 3701   1.885   0.324   5.596
  934SOL    HW2 3702   1.884   0.461   5.685
  935SOL     OW 3703   4.725   4.659   4.914
  935SOL    HW1 3704   4.707   4.661   5.013
  935SOL    HW2 3705   4.645   4.622   4.867
  936SOL     OW 3706   1.062   0.263   6.093
  936SOL    HW1 3707   0.976   0.314   6.095
  936SOL    HW2 3708   1.091   0.244   6.187
  937SOL     OW 3709   5.037   0.940   4.597
  937SOL    HW1 3710   5.077   0.964   4.509
  937SOL    HW2 3711   5.085   0.861   4.636
  938SOL     OW 3712   6.603   5.265   5.670
  938SOL    HW1 3713   6.629   5.348   5.622
  938SOL    HW2 3714   6.607   5.281   5.769
  939SOL     OW 3715   5.921   0.081   5.584
  939SOL    HW1 3716   5.994   0.012   5.580
  939SOL    HW2 3717   5.951   0.164   5.537
  940SOL     OW 3718   0.183   2.764   2.161
  940SOL    HW1 3719   0.101   2.708   2.148
  940SOL    HW2 3720   0.230   2.735   2.244
  941SOL     OW 3721   5.505   1.150   5.683
  941SOL    HW1 3722   5.533   1.164   5.778
  941SOL    HW2 3723   5.580   1.107   5.632
  942SOL     OW 3724   5.190   6.920   3.253
  942SOL    HW1 3725   5.159   6.867   3.332
  942SOL    HW2 3726   5.290   6.914   3.246
  943SOL     OW 3727   2.115   3.281   3.695
  943SOL    HW1 3728   2.163   3.202   3.656
  943SOL    HW2 3729   2.110   3.271   3.794
  944SOL     OW 3730   0.276   3.774   5.890
  944SOL    HW1 3731   0.194   3.745   5.939
  944SOL    HW2 3732   0.289   3.872   5.902
  945SOL     OW 3733   5.846   4.115   4.515
  945SOL    HW1 3734   5.944   4.104   4.526
  945SOL    HW2 3735   5.824   4.122   4.418
  946SOL     OW 3736   5.189   2.657   6.306
  946SOL    HW1 3737   5.221   2.656   6.400
  946SOL    HW2 3738   5.127   2.734   6.292
  947SOL     OW 3739   4.044   3.146   4.138
  947SOL    HW1 3740   3.972   3.193   4.088
  947SOL    HW2 3741   4.128   3.145   4.083
  948SOL     OW 3742   4.051   7.001   1.266
  948SOL    HW1 3743   3.991   6.979   1.343
  948SOL    HW2 3744   4.102   6.919   1.239
  949SOL     OW 3745   0.987   6.388   6.481
  949SOL    HW1 3746   1.015   6.378   6.385
  949SOL    HW2 3747   1.033   6.318   6.536
  950SOL     OW 3748   4.585   5.417   1.629
  950SOL    HW1 3749   4.668   5.444   1.678
  950SOL    HW2 3750   4.510   5.478   1.656
  951SOL     OW 3751   2.044   1.416   4.072
  951SOL    HW1 3752   2.030   1.317   4.060
  951SOL    HW2 3753   2.141   1.433   4.088
  952SOL     OW 3754   4.998   1.814   3.257
  952SOL    HW1 3755   4.978   1.814   3.355
  952SOL    HW2 3756   5.024   1.721   3.229
  953SOL     OW 3757   5.656   5.380   4.093
  953SOL    HW1 3758   5.633   5.342   4.004
  953SOL    HW2 3759   5.572   5.391   4.147
  954SOL     OW 3760   4.338   5.800   0.594
  954SOL    HW1 3761   4.275   5.787   0.670
  954SOL    HW2 3762   4.409   5.866   0.619
  955SOL     OW 3763   7.003   3.951   3.145
  955SOL    HW1 3764   6.927   3.915   3.200
  955SOL    HW2 3765   6.999   4.051   3.143
  956SOL     OW 3766   6.796   1.937   2.617
  956SOL    HW1 3767   6.865   2.008   2.611
  956SOL    HW2 3768   6.822   1.860   2.559
  957SOL     OW 3769   6.648   4.220   5.161
  957SOL    HW1 3770   6.675   4.186   5.071
  957SOL    HW2 3771   6.560   4.267   5.154
  958SOL     OW 3772   4.429   1.917   1.844
  958SOL    HW1 3773   4.431   2.014   1.871
  958SOL    HW2 3774   4.352   1.901   1.783
  959SOL     OW 3775   3.539   5.756   2.695
  959SOL    HW1 3776   3.444   5.763   2.667
  959SOL    HW2 3777   3.593   5.828   2.652
  960SOL     OW 3778   0.934   6.311   1.860
  960SOL    HW1 3779   0.878   6.230   1.845
  960SOL    HW2 3780   0.908   6.383   1.796
  961SOL     OW 3781   5.363   0.045   3.456
  961SOL    HW1 3782   5.269   0.056   3.488
  961SOL    HW2 3783   5.365   7.012   3.374
  962SOL     OW 3784   0.649   0.973   5.347
  962SOL    HW1 3785   0.602   0.942   5.264
  962SOL    HW2 3786   0.591   1.036   5.397
  963SOL     OW 3787   6.644   1.634   6.269
  963SOL    HW1 3788   6.675   1.609   6.177
  963SOL    HW2 3789   6.723   1.650   6.328
  964SOL     OW 3790   5.669   4.460   0.086
  964SOL    HW1 3791   5.673   4.378   0.028
  964SOL    HW2 3792   5.762   4.492   0.104
  965SOL     OW 3793   5.252   2.006   0.797
  965SOL    HW1 3794   5.292   1.914   0.800
  965SOL    HW2 3795   5.245   2.043   0.889
  966SOL     OW 3796   5.147   2.157   1.888
  966SOL    HW1 3797   5.189   2.193   1.804
  966SOL    HW2 3798   5.109   2.233   1.941
  967SOL     OW 3799   2.352   4.554   1.536
  967SOL    HW1 3800   2.314   4.525   1.448
  967SOL    HW2 3801   2.434   4.609   1.520
  968SOL     OW 3802   3.555   1.164   1.350
  968SOL    HW1 3803   3.650   1.179   1.378
  968SOL    HW2 3804   3.503   1.126   1.427
  969SOL     OW 3805   3.426   5.979   6.101
  969SOL    HW1 3806   3.450   5.886   6.130
  969SOL    HW2 3807   3.367   6.021   6.169
  970SOL     OW 3808   5.616   0.747   5.922
  970SOL    HW1 3809   5.566   0.832   5.934
  970SOL    HW2 3810   5.703   0.751   5.972
  971SOL     OW 3811   6.713   1.940   3.143
  971SOL    HW1 3812   6.638   1.977   3.197
  971SOL    HW2 3813   6.740   2.007   3.073
  972SOL     OW 3814   5.579   3.800   2.167
  972SOL    HW1 3815   5.619   3.880   2.122
  972SOL    HW2 3816   5.530   3.744   2.099
  973SOL     OW 3817   0.463   4.787   0.119
  973SOL    HW1 3818   0.502   4.870   0.158
  973SOL    HW2 3819   0.531   4.714   0.123
  974SOL     OW 3820   5.334   6.593   2.338
  974SOL    HW1 3821   5.242   6.586   2.300
  974SOL    HW2 3822   5.394   6.528   2.292
  975SOL     OW 3823   0.959   6.472   6.733
  975SOL    HW1 3824   0.983   6.459   6.637
  975SOL    HW2 3825   0.871   6.519   6.739
  976SOL     OW 3826   6.885   3.451   3.101
  976SOL    HW1 3827   6.934   3.490   3.023
  976SOL    HW2 3828   6.933   3.368   3.131
  977SOL     OW 3829   1.338   0.711   2.198
  977SOL    HW1 3830   1.300   0.644   2.262
  977SOL    HW2 3831   1.388   0.781   2.249
  978SOL     OW 3832   3.951   3.760   5.532
  978SOL    HW1 3833   3.855   3.734   5.520
  978SOL    HW2 3834   3.958   3.860   5.537
  979SOL     OW 3835   6.781   2.291   0.529
  979SOL    HW1 3836   6.716   2.301   0.454
  979SOL    HW2 3837   6.872   2.271   0.492
  980SOL     OW 3838   4.888   2.363   4.424
  980SOL    HW1 3839   4.809   2.342   4.367
  980SOL    HW2 3840   4.929   2.278   4.456
  981SOL     OW 3841   0.525   1.786   4.751
  981SOL    HW1 3842   0.516   1.857   4.820
  981SOL    HW2 3843   0.594   1.719   4.780
  982SOL     OW 3844   2.628   2.508   4.084
  982SOL    HW1 3845   2.669   2.506   4.175
  982SOL    HW2 3846   2.553   2.573   4.083
  983SOL     OW 3847   6.090   2.448   5.199
  983SOL    HW1 3848   6.131   2.392   5.272
  983SOL    HW2 3849   6.125   2.418   5.111
  984SOL     OW 3850   2.410   1.455   4.825
  984SOL    HW1 3851   2.431   1.547   4.792
  984SOL    HW2 3852   2.419   1.452   4.925
  985SOL     OW 3853   5.687   4.044   5.093
  985SOL    HW1 3854   5.593   4.014   5.113
  985SOL    HW2 3855   5.686   4.102   5.012
  986SOL     OW 3856   6.182   4.632   1.005
  986SOL    HW1 3857   6.136   4.691   1.070
  986SOL    HW2 3858   6.130   4.548   0.993
  987SOL     OW 3859   4.674   0.056   2.130
  987SOL    HW1 3860   4.721   0.118   2.193
  987SOL    HW2 3861   4.582   0.090   2.111
  988SOL     OW 3862   3.005   3.218   2.825
  988SOL    HW1 3863   2.950   3.218   2.742
  988SOL    HW2 3864   3.055   3.305   2.832
  989SOL     OW 3865   6.275   0.876   5.758
  989SOL    HW1 3866   6.275   0.799   5.695
  989SOL    HW2 3867   6.190   0.876   5.811
  990SOL     OW 3868   4.046   0.691   2.030
  990SOL    HW1 3869   3.948   0.695   2.048
  990SOL    HW2 3870   4.085   0.784   2.034
  991SOL     OW 3871   0.872   2.689   5.480
  991SOL    HW1 3872   0.958   2.711   5.435
  991SOL    HW2 3873   0.834   2.605   5.440
  992SOL     OW 3874   6.738   2.728   2.194
  992SOL    HW1 3875   6.668   2.694   2.132
  992SOL    HW2 3876   6.757   2.660   2.265
  993SOL     OW 3877   0.920   4.447   1.385
  993SOL    HW1 3878   0.885   4.452   1.479
  993SOL    HW2 3879   1.001   4.505   1.376
  994SOL     OW 3880   3.734   4.422   1.680
  994SOL    HW1 3881   3.831   4.401   1.667
  994SOL    HW2 3882   3.725   4.501   1.741
  995SOL     OW 3883   3.869   2.936   4.842
  995SOL    HW1 3884   3.956   2.887   4.847
  995SOL    HW2 3885   3.857   2.991   4.925
  996SOL     OW 3886   3.215   5.008   4.727
  996SOL    HW1 3887   3.156   4.976   4.653
  996SOL    HW2 3888   3.170   4.990   4.815
  997SOL     OW 3889   0.871   0.990   2.983
  997SOL    HW1 3890   0.867   0.989   3.083
  997SOL    HW2 3891   0.957   1.030   2.953
  998SOL     OW 3892   4.516   7.001   4.091
  998SOL    HW1 3893   4.564   0.044   4.035
  998SOL    HW2 3894   4.560   6.996   4.181
  999SOL     OW 3895   4.921   4.187   2.811
  999SOL    HW1 3896   4.943   4.126   2.888
  999SOL    HW2 3897   4.848   4.250   2.838
 1000SOL     OW 3898   2.604   1.074   2.039
 1000SOL    HW1 3899   2.603   1.045   2.134
 1000SOL    HW2 3900   2.512   1.071   2.002
 1001SOL     OW 3901   4.770   5.892   0.380
 1001SOL    HW1 3902   4.802   5.987   0.381
 1001SOL    HW2 3903   4.752   5.863   0.474
 1002SOL     OW 3904   6.283   1.531   1.572
 1002SOL    HW1 3905   6.328   1.490   1.493
 1002SOL    HW2 3906   6.241   1.459   1.628
 1003SOL     OW 3907   2.137   6.414   2.174
 1003SOL    HW1 3908   2.094   6.380   2.258
 1003SOL    HW2 3909   2.081   6.388   2.096
 1004SOL     OW 3910   0.378   7.003   2.634
 1004SOL    HW1 3911   0.444   6.986   2.561
 1004SOL    HW2 3912   0.319   0.055   2.609
 1005SOL     OW 3913   2.316   2.861   3.827
 1005SOL    HW1 3914   2.382   2.836   3.756
 1005SOL    HW2 3915   2.251   2.926   3.790
 1006SOL     OW 3916   0.651   4.822   1.498
 1006SOL    HW1 3917   0.602   4.875   1.428
 1006SOL    HW2 3918   0.647   4.872   1.585
 1007SOL     OW 3919   4.146   6.843   5.185
 1007SOL    HW1 3920   4.227   6.794   5.151
 1007SOL    HW2 3921   4.135   6.929   5.134
 1008SOL     OW 3922   1.671   2.967   4.993
 1008SOL    HW1 3923   1.574   2.960   5.018
 1008SOL    HW2 3924   1.722   2.895   5.039
 1009SOL     OW 3925   0.536   5.408   5.002
 1009SOL    HW1 3926   0.535   5.390   5.100
 1009SOL    HW2 3927   0.609   5.473   4.980
 1010SOL     OW 3928   3.572   3.007   5.933
 1010SOL    HW1 3929   3.667   2.981   5.951
 1010SOL    HW2 3930   3.543   2.967   5.846
 1011SOL     OW 3931   2.392   4.626   2.325
 1011SOL    HW1 3932   2.325   4.658   2.392
 1011SOL    HW2 3933   2.484   4.642   2.359
 1012SOL     OW 3934   7.003   0.669   2.000
 1012SOL    HW1 3935   6.941   0.743   1.976
 1012SOL    HW2 3936   6.954   0.581   1.995
 1013SOL     OW 3937   1.310   0.731   5.590
 1013SOL    HW1 3938   1.319   0.649   5.533
 1013SOL    HW2 3939   1.288   0.704   5.683
 1014SOL     OW 3940   6.018   5.170   6.453
 1014SOL    HW1 3941   5.920   5.174   6.472
 1014SOL    HW2 3942   6.038   5.091   6.395
 1015SOL     OW 3943   2.244   6.581   5.720
 1015SOL    HW1 3944   2.170   6.571   5.786
 1015SOL    HW2 3945   2.329   6.546   5.759
 1016SOL     OW 3946   3.893   3.573   6.646
 1016SOL    HW1 3947   3.861   3.483   6.675
 1016SOL    HW2 3948   3.823   3.617   6.590
 1017SOL     OW 3949   4.390   2.628   1.054
 1017SOL    HW1 3950   4.351   2.537   1.068
 1017SOL    HW2 3951   4.473   2.637   1.108
 1018SOL     OW 3952   0.214   4.379   3.443
 1018SOL    HW1 3953   0.293   4.402   3.386
 1018SOL    HW2 3954   0.193   4.282   3.433
 1019SOL     OW 3955   6.925   6.613   1.121
 1019SOL    HW1 3956   6.876   6.696   1.145
 1019SOL    HW2 3957   7.023   6.627   1.134
 1020SOL     OW 3958   0.503   0.840   1.331
 1020SOL    HW1 3959   0.596   0.812   1.356
 1020SOL    HW2 3960   0.445   0.759   1.326
 1021SOL     OW 3961   5.414   0.304   1.394
 1021SOL    HW1 3962   5.450   0.221   1.351
 1021SOL    HW2 3963   5.345   0.345   1.334
 1022SOL     OW 3964   3.455   4.741   5.493
 1022SOL    HW1 3965   3.492   4.700   5.577
 1022SOL    HW2 3966   3.359   4.715   5.483
 1023SOL     OW 3967   0.906   6.976   3.237
 1023SOL    HW1 3968   0.839   6.903   3.225
 1023SOL    HW2 3969   0.975   6.948   3.305
 1024SOL     OW 3970   0.653   2.518   3.974
 1024SOL    HW1 3971   0.648   2.548   3.879
 1024SOL    HW2 3972   0.712   2.437   3.980
 1025SOL     OW 3973   3.609   2.914   1.009
 1025SOL    HW1 3974   3.581   2.825   1.044
 1025SOL    HW2 3975   3.699   2.938   1.045
 1026SOL     OW 3976   2.284   2.720   0.500
 1026SOL    HW1 3977   2.201   2.665   0.507
 1026SOL    HW2 3978   2.265   2.814   0.528
 1027SOL     OW 3979   3.098   6.426   1.643
 1027SOL    HW1 3980   3.121   6.339   1.686
 1027SOL    HW2 3981   3.042   6.409   1.562
 1028SOL     OW 3982   2.703   6.074   0.641
 1028SOL    HW1 3983   2.666   6.080   0.733
 1028SOL    HW2 3984   2.752   5.988   0.629
 1029SOL     OW 3985   1.944   0.121   6.866
 1029SOL    HW1 3986   1.960   0.084   6.774
 1029SOL    HW2 3987   2.029   0.121   6.917
 1030SOL     OW 3988   3.091   2.876   1.896
 1030SOL    HW1 3989   3.126   2.800   1.843
 1030SOL    HW2 3990   3.001   2.903   1.861
 1031SOL     OW 3991   5.441   4.172   1.037
 1031SOL    HW1 3992   5.381   4.094   1.014
 1031SOL    HW2 3993   5.530   4.159   0.994
 1032SOL     OW 3994   2.207   2.267   5.434
 1032SOL    HW1 3995   2.207   2.306   5.341
 1032SOL    HW2 3996   2.122   2.294   5.480
 1033SOL     OW 3997   1.402   6.994   0.994
 1033SOL    HW1 3998   1.390   0.067   1.009
 1033SOL    HW2 3999   1.487   6.978   0.943
 1034SOL     OW 4000   0.501   5.024   4.747
 1034SOL    HW1 4001   0.461   5.109   4.780
 1034SOL    HW2 4002   0.556   4.981   4.819
 1035SOL     OW 4003   0.247   0.873   5.168
 1035SOL    HW1 4004   0.183   0.822   5.225
 1035SOL    HW2 4005   0.261   0.965   5.206
 1036SOL     OW 4006   3.486   1.503   1.820
 1036SOL    HW1 4007   3.575   1.548   1.826
 1036SOL    HW2 4008   3.485   1.423   1.880
 1037SOL     OW 4009   1.892   0.964   1.843
 1037SOL    HW1 4010   1.867   0.868   1.840
 1037SOL    HW2 4011   1.820   1.016   1.888
 1038SOL     OW 4012   1.213   0.392   5.026
 1038SOL    HW1 4013   1.180   0.442   5.106
 1038SOL    HW2 4014   1.276   0.450   4.975
 1039SOL     OW 4015   3.228   3.947   5.398
 1039SOL    HW1 4016   3.266   3.971   5.308
 1039SOL    HW2 4017   3.280   3.872   5.437
 1040SOL     OW 4018   4.262   1.941   2.731
 1040SOL    HW1 4019   4.230   1.896   2.648
 1040SOL    HW2 4020   4.316   1.876   2.785
 1041SOL     OW 4021   0.124   0.301   3.549
 1041SOL    HW1 4022   0.176   0.226   3.508
 1041SOL    HW2 4023   0.026   0.289   3.529
 1042SOL     OW 4024   4.775   5.357   2.016
 1042SOL    HW1 4025   4.820   5.418   2.081
 1042SOL    HW2 4026   4.841   5.287   1.986
 1043SOL     OW 4027   3.762   1.427   5.024
 1043SOL    HW1 4028   3.845   1.382   5.057
 1043SOL    HW2 4029   3.758   1.420   4.924
 1044SOL     OW 4030   5.336   5.523   2.477
 1044SOL    HW1 4031   5.434   5.531   2.496
 1044SOL    HW2 4032   5.284   5.538   2.561
 1045SOL     OW 4033   4.133   6.688   2.216
 1045SOL    HW1 4034   4.215   6.662   2.267
 1045SOL    HW2 4035   4.064   6.724   2.280
 1046SOL     OW 4036   1.308   0.886   0.145
 1046SOL    HW1 4037   1.326   0.914   0.051
 1046SOL    HW2 4038   1.300   0.787   0.150
 1047SOL     OW 4039   1.822   1.338   3.390
 1047SOL    HW1 4040   1.865   1.345   3.300
 1047SOL    HW2 4041   1.894   1.333   3.460
 1048SOL     OW 4042   4.773   6.227   4.250
 1048SOL    HW1 4043   4.854   6.228   4.309
 1048SOL    HW2 4044   4.788   6.164   4.173
 1049SOL     OW 4045   6.495   6.180   3.608
 1049SOL    HW1 4046   6.439   6.160   3.527
 1049SOL    HW2 4047   6.505   6.279   3.617
 1050SOL     OW 4048   4.296   5.193   1.141
 1050SOL    HW1 4049   4.391   5.209   1.114
 1050SOL    HW2 4050   4.272   5.253   1.217
 1051SOL     OW 4051   2.455   5.970   1.129
 1051SOL    HW1 4052   2.359   5.945   1.137
 1051SOL    HW2 4053   2.509   5.915   1.193
 1052SOL     OW 4054   3.775   0.966   4.611
 1052SOL    HW1 4055   3.849   0.913   4.653
 1052SOL    HW2 4056   3.696   0.907   4.596
 1053SOL     OW 4057   5.538   5.152   3.277
 1053SOL    HW1 4058   5.578   5.218   3.213
 1053SOL    HW2 4059   5.553   5.183   3.370
 1054SOL     OW 4060   3.157   4.130   6.200
 1054SOL    HW1 4061   3.059   4.117   6.214
 1054SOL    HW2 4062   3.173   4.171   6.110
 1055SOL     OW 4063   3.578   6.646   5.238
 1055SOL    HW1 4064   3.618   6.631   5.328
 1055SOL    HW2 4065   3.604   6.571   5.176
 1056SOL     OW 4066   1.527   5.289   6.160
 1056SOL    HW1 4067   1.624   5.268   6.166
 1056SOL    HW2 4068   1.481   5.220   6.105
 1057SOL     OW 4069   2.818   3.057   1.793
 1057SOL    HW1 4070   2.822   3.132   1.858
 1057SOL    HW2 4071   2.870   3.081   1.711
 1058SOL     OW 4072   4.856   1.504   3.403
 1058SOL    HW1 4073   4.923   1.538   3.468
 1058SOL    HW2 4074   4.903   1.447   3.335
 1059SOL     OW 4075   2.580   0.479   1.513
 1059SOL    HW1 4076   2.488   0.440   1.510
 1059SOL    HW2 4077   2.583   0.562   1.456
 1060SOL     OW 4078   0.060   4.226   4.804
 1060SOL    HW1 4079   0.034   4.211   4.900
 1060SOL    HW2 4080   0.003   4.168   4.745
 1061SOL     OW 4081   6.310   3.144   0.842
 1061SOL    HW1 4082   6.247   3.153   0.765
 1061SOL    HW2 4083   6.281   3.205   0.916
 1062SOL     OW 4084   5.782   3.860   6.218
 1062SOL    HW1 4085   5.799   3.952   6.182
 1062SOL    HW2 4086   5.722   3.810   6.155
 1063SOL     OW 4087   1.808   5.020   2.248
 1063SOL    HW1 4088   1.901   5.041   2.218
 1063SOL    HW2 4089   1.803   5.027   2.348
 1064SOL     OW 4090   1.719   4.120   1.957
 1064SOL    HW1 4091   1.653   4.120   1.882
 1064SOL    HW2 4092   1.760   4.211   1.967
 1065SOL     OW 4093   3.310   0.277   3.794
 1065SOL    HW1 4094   3.274   0.322   3.876
 1065SOL    HW2 4095   3.375   0.337   3.749
 1066SOL     OW 4096   4.729   6.509   3.256
 1066SOL    HW1 4097   4.698   6.600   3.281
 1066SOL    HW2 4098   4.786   6.515   3.173
 1067SOL     OW 4099   0.692   3.568   0.858
 1067SOL    HW1 4100   0.693   3.668   0.864
 1067SOL    HW2 4101   0.679   3.530   0.950
 1068SOL     OW 4102   5.366   5.876   2.897
 1068SOL    HW1 4103   5.406   5.808   2.836
 1068SOL    HW2 4104   5.306   5.829   2.962
 1069SOL     OW 4105   4.212   5.306   1.393
 1069SOL    HW1 4106   4.168   5.337   1.477
 1069SOL    HW2 4107   4.196   5.372   1.320
 1070SOL     OW 4108   6.893   0.291   2.328
 1070SOL    HW1 4109   6.926   0.249   2.413
 1070SOL    HW2 4110   6.817   0.237   2.291
 1071SOL     OW 4111   1.476   0.389   3.602
 1071SOL    HW1 4112   1.520   0.337   3.529
 1071SOL    HW2 4113   1.494   0.486   3.590
 1072SOL     OW 4114   2.158   1.028   1.181
 1072SOL    HW1 4115   2.074   0.977   1.200
 1072SOL    HW2 4116   2.139   1.126   1.189
 1073SOL     OW 4117   4.892   0.020   1.883
 1073SOL    HW1 4118   4.980   0.043   1.925
 1073SOL    HW2 4119   4.824   0.088   1.910
 1074SOL     OW 4120   1.721   5.390   1.181
 1074SOL    HW1 4121   1.721   5.424   1.087
 1074SOL    HW2 4122   1.814   5.395   1.218
 1075SOL     OW 4123   5.124   6.832   4.135
 1075SOL    HW1 4124   5.155   6.904   4.197
 1075SOL    HW2 4125   5.165   6.745   4.162
 1076SOL     OW 4126   7.004   2.900   5.608
 1076SOL    HW1 4127   7.013   2.831   5.535
 1076SOL    HW2 4128   0.054   2.966   5.599
 1077SOL     OW 4129   5.961   0.663   1.067
 1077SOL    HW1 4130   6.013   0.718   1.002
 1077SOL    HW2 4131   6.000   0.673   1.158
 1078SOL     OW 4132   1.025   1.497   2.408
 1078SOL    HW1 4133   1.120   1.521   2.387
 1078SOL    HW2 4134   1.016   1.482   2.507
 1079SOL     OW 4135   2.186   6.124   2.227
 1079SOL    HW1 4136   2.162   6.145   2.321
 1079SOL    HW2 4137   2.270   6.171   2.202
 1080SOL     OW 4138   0.722   4.147   3.570
 1080SOL    HW1 4139   0.786   4.138   3.493
 1080SOL    HW2 4140   0.774   4.164   3.654
 1081SOL     OW 4141   0.313   5.327   5.942
 1081SOL    HW1 4142   0.278   5.382   5.867
 1081SOL    HW2 4143   0.405   5.295   5.920
 1082SOL     OW 4144   4.023   2.036   5.569
 1082SOL    HW1 4145   4.098   2.007   5.510
 1082SOL    HW2 4146   4.031   1.991   5.658
 1083SOL     OW 4147   4.107   3.854   6.933
 1083SOL    HW1 4148   4.128   3.878   0.003
 1083SOL    HW2 4149   4.188   3.869   6.876
 1084SOL     OW 4150   5.566   6.173   6.727
 1084SOL    HW1 4151   5.507   6.146   6.652
 1084SOL    HW2 4152   5.545   6.117   6.808
 1085SOL     OW 4153   1.048   3.927   4.122
 1085SOL    HW1 4154   1.120   3.993   4.143
 1085SOL    HW2 4155   1.033   3.868   4.201
 1086SOL     OW 4156   6.596   6.359   1.038
 1086SOL    HW1 4157   6.618   6.367   0.941
 1086SOL    HW2 4158   6.586   6.451   1.077
 1087SOL     OW 4159   5.351   1.482   4.938
 1087SOL    HW1 4160   5.395   1.554   4.993
 1087SOL    HW2 4161   5.417   1.410   4.918
 1088SOL     OW 4162   6.821   4.864   3.332
 1088SOL    HW1 4163   6.768   4.790   3.373
 1088SOL    HW2 4164   6.777   4.952   3.351
 1089SOL     OW 4165   1.664   6.269   4.211
 1089SOL    HW1 4166   1.681   6.185   4.160
 1089SOL    HW2 4167   1.709   6.264   4.300
 1090SOL     OW 4168   2.282   2.171   3.920
 1090SOL    HW1 4169   2.246   2.254   3.878
 1090SOL    HW2 4170   2.328   2.116   3.850
 1091SOL     OW 4171   3.289   1.930   5.343
 1091SOL    HW1 4172   3.326   1.980   5.264
 1091SOL    HW2 4173   3.226   1.859   5.311
 1092SOL     OW 4174   1.982   3.934   1.773
 1092SOL    HW1 4175   1.935   3.915   1.687
 1092SOL    HW2 4176   1.950   3.869   1.843
 1093SOL     OW 4177   2.165   1.447   2.336
 1093SOL    HW1 4178   2.177   1.356   2.376
 1093SOL    HW2 4179   2.249   1.474   2.289
 1094SOL     OW 4180   0.659   7.004   3.715
 1094SOL    HW1 4181   0.612   0.031   3.643
 1094SOL    HW2 4182   0.720   6.936   3.674
 1095SOL     OW 4183   0.580   2.778   6.476
 1095SOL    HW1 4184   0.672   2.818   6.473
 1095SOL    HW2 4185   0.512   2.851   6.480
 1096SOL     OW 4186   3.423   4.523   1.649
 1096SOL    HW1 4187   3.472   4.438   1.667
 1096SOL    HW2 4188   3.444   4.589   1.721
 1097SOL     OW 4189   2.182   4.609   3.969
 1097SOL    HW1 4190   2.169   4.615   3.870
 1097SOL    HW2 4191   2.100   4.569   4.011
 1098SOL     OW 4192   4.243   3.394   6.972
 1098SOL    HW1 4193   4.261   3.363   6.878
 1098SOL    HW2 4194   4.161   3.348   7.006
 1099SOL     OW 4195   4.395   1.727   5.534
 1099SOL    HW1 4196   4.317   1.726   5.471
 1099SOL    HW2 4197   4.374   1.669   5.613
 1100SOL     OW 4198   3.618   1.640   5.409
 1100SOL    HW1 4199   3.610   1.700   5.330
 1100SOL    HW2 4200   3.627   1.694   5.492
 1101SOL     OW 4201   6.280   2.335   6.660
 1101SOL    HW1 4202   6.284   2.272   6.738
 1101SOL    HW2 4203   6.184   2.350   6.634
 1102SOL     OW 4204   0.446   6.383   5.119
 1102SOL    HW1 4205   0.380   6.313   5.093
 1102SOL    HW2 4206   0.526   6.378   5.059
 1103SOL     OW 4207   3.761   1.293   0.347
 1103SOL    HW1 4208   3.759   1.217   0.282
 1103SOL    HW2 4209   3.672   1.338   0.348
 1104SOL     OW 4210   2.258   2.676   5.439
 1104SOL    HW1 4211   2.327   2.604   5.445
 1104SOL    HW2 4212   2.298   2.758   5.398
 1105SOL     OW 4213   6.684   3.958   5.314
 1105SOL    HW1 4214   6.655   4.050   5.285
 1105SOL    HW2 4215   6.606   3.896   5.310
 1106SOL     OW 4216   0.561   2.093   1.607
 1106SOL    HW1 4217   0.619   2.169   1.635
 1106SOL    HW2 4218   0.483   2.128   1.555
 1107SOL     OW 4219   1.492   0.232   6.976
 1107SOL    HW1 4220   1.507   0.295   6.900
 1107SOL    HW2 4221   1.525   0.272   0.036
 1108SOL     OW 4222   3.851   0.452   5.956
 1108SOL    HW1 4223   3.942   0.426   5.989
 1108SOL    HW2 4224   3.787   0.454   6.033
 1109SOL     OW 4225   5.008   0.735   4.264
 1109SOL    HW1 4226   4.910   0.740   4.286
 1109SOL    HW2 4227   5.027   0.650   4.216
 1110SOL     OW 4228   2.535   1.479   3.336
 1110SOL    HW1 4229   2.620   1.519   3.369
 1110SOL    HW2 4230   2.514   1.516   3.245
 1111SOL     OW 4231   4.678   5.150   6.397
 1111SOL    HW1 4232   4.727   5.207   6.331
 1111SOL    HW2 4233   4.680   5.194   6.487
 1112SOL     OW 4234   4.944   1.373   2.256
 1112SOL    HW1 4235   4.877   1.331   2.195
 1112SOL    HW2 4236   4.947   1.323   2.343
 1113SOL     OW 4237   6.314   3.826   1.899
 1113SOL    HW1 4238   6.277   3.805   1.809
 1113SOL    HW2 4239   6.343   3.741   1.944
 1114SOL     OW 4240   3.652   1.854   6.806
 1114SOL    HW1 4241   3.737   1.895   6.773
 1114SOL    HW2 4242   3.576   1.916   6.790
 1115SOL     OW 4243   3.938   3.274   6.713
 1115SOL    HW1 4244   3.912   3.304   6.621
 1115SOL    HW2 4245   4.033   3.243   6.712
 1116SOL     OW 4246   4.872   6.304   5.395
 1116SOL    HW1 4247   4.944   6.266   5.337
 1116SOL    HW2 4248   4.820   6.373   5.344
 1117SOL     OW 4249   1.999   2.254   2.370
 1117SOL    HW1 4250   2.099   2.254   2.369
 1117SOL    HW2 4251   1.964   2.237   2.278
 1118SOL     OW 4252   2.778   4.632   0.911
 1118SOL    HW1 4253   2.829   4.553   0.877
 1118SOL    HW2 4254   2.719   4.604   0.987
 1119SOL     OW 4255   3.951   4.521   1.450
 1119SOL    HW1 4256   3.854   4.539   1.466
 1119SOL    HW2 4257   3.970   4.425   1.466
 1120SOL     OW 4258   6.188   6.789   6.057
 1120SOL    HW1 4259   6.184   6.693   6.032
 1120SOL    HW2 4260   6.097   6.830   6.050
 1121SOL     OW 4261   5.158   5.025   3.466
 1121SOL    HW1 4262   5.171   5.091   3.391
 1121SOL    HW2 4263   5.178   4.933   3.433
 1122SOL     OW 4264   5.254   3.344   6.800
 1122SOL    HW1 4265   5.289   3.289   6.724
 1122SOL    HW2 4266   5.203   3.285   6.863
 1123SOL     OW 4267   4.577   1.144   3.360
 1123SOL    HW1 4268   4.664   1.097   3.342
 1123SOL    HW2 4269   4.504   1.099   3.308
 1124SOL     OW 4270   0.421   3.895   5.341
 1124SOL    HW1 4271   0.324   3.875   5.359
 1124SOL    HW2 4272   0.443   3.988   5.372
 1125SOL     OW 4273   3.354   2.101   4.606
 1125SOL    HW1 4274   3.272   2.047   4.586
 1125SOL    HW2 4275   3.389   2.141   4.521
 1126SOL     OW 4276   6.106   4.979   6.767
 1126SOL    HW1 4277   6.129   4.915   6.694
 1126SOL    HW2 4278   6.173   5.054   6.768
 1127SOL     OW 4279   5.176   5.322   4.875
 1127SOL    HW1 4280   5.236   5.253   4.834
 1127SOL    HW2 4281   5.137   5.286   4.960
 1128SOL     OW 4282   5.610   1.546   5.383
 1128SOL    HW1 4283   5.651   1.635   5.362
 1128SOL    HW2 4284   5.511   1.556   5.390
 1129SOL     OW 4285   2.258   0.408   6.758
 1129SOL    HW1 4286   2.339   0.385   6.812
 1129SOL    HW2 4287   2.285   0.451   6.672
 1130SOL     OW 4288   2.515   4.661   0.780
 1130SOL    HW1 4289   2.498   4.568   0.750
 1130SOL    HW2 4290   2.604   4.666   0.825
 1131SOL     OW 4291   0.137   5.372   6.142
 1131SOL    HW1 4292   0.174   5.341   6.054
 1131SOL    HW2 4293   0.183   5.457   6.168
 1132SOL     OW 4294   5.258   0.686   1.469
 1132SOL    HW1 4295   5.316   0.626   1.414
 1132SOL    HW2 4296   5.225   0.637   1.549
 1133SOL     OW 4297   0.621   0.404   1.370
 1133SOL    HW1 4298   0.621   0.472   1.296
 1133SOL    HW2 4299   0.552   0.335   1.351
 1134SOL     OW 4300   5.163   0.653   1.963
 1134SOL    HW1 4301   5.108   0.736   1.978
 1134SOL    HW2 4302   5.158   0.595   2.044
 1135SOL     OW 4303   2.488   1.046   2.701
 1135SOL    HW1 4304   2.551   0.993   2.756
 1135SOL    HW2 4305   2.424   0.985   2.654
 1136SOL     OW 4306   3.724   5.127   3.700
 1136SOL    HW1 4307   3.815   5.166   3.693
 1136SOL    HW2 4308   3.681   5.128   3.609
 1137SOL     OW 4309   1.294   0.962   6.489
 1137SOL    HW1 4310   1.233   0.924   6.420
 1137SOL    HW2 4311   1.384   0.980   6.448
 1138SOL     OW 4312   0.129   0.918   5.777
 1138SOL    HW1 4313   0.149   0.878   5.867
 1138SOL    HW2 4314   0.108   0.845   5.712
 1139SOL     OW 4315   3.430   5.165   1.656
 1139SOL    HW1 4316   3.467   5.122   1.738
 1139SOL    HW2 4317   3.349   5.219   1.680
 1140SOL     OW 4318   4.198   1.424   1.954
 1140SOL    HW1 4319   4.198   1.524   1.953
 1140SOL    HW2 4320   4.256   1.390   1.880
 1141SOL     OW 4321   0.413   5.887   6.930
 1141SOL    HW1 4322   0.494   5.894   6.987
 1141SOL    HW2 4323   0.372   5.978   6.918
 1142SOL     OW 4324   2.806   6.859   4.320
 1142SOL    HW1 4325   2.804   6.956   4.294
 1142SOL    HW2 4326   2.854   6.806   4.250
 1143SOL     OW 4327   1.517   3.847   2.668
 1143SOL    HW1 4328   1.442   3.828   2.605
 1143SOL    HW2 4329   1.599   3.797   2.638
 1144SOL     OW 4330   6.562   4.902   4.612
 1144SOL    HW1 4331   6.630   4.955   4.562
 1144SOL    HW2 4332   6.581   4.907   4.710
 1145SOL     OW 4333   6.444   3.583   2.618
 1145SOL    HW1 4334   6.396   3.661   2.658
 1145SOL    HW2 4335   6.388   3.500   2.631
 1146SOL     OW 4336   6.447   0.676   2.425
 1146SOL    HW1 4337   6.526   0.615   2.420
 1146SOL    HW2 4338   6.437   0.712   2.517
 1147SOL     OW 4339   2.451   5.191   1.509
 1147SOL    HW1 4340   2.370   5.156   1.556
 1147SOL    HW2 4341   2.518   5.224   1.576
 1148SOL     OW 4342   5.153   5.958   0.983
 1148SOL    HW1 4343   5.197   5.870   0.999
 1148SOL    HW2 4344   5.179   6.022   1.055
 1149SOL     OW 4345   6.954   4.214   3.156
 1149SOL    HW1 4346   6.978   4.309   3.174
 1149SOL    HW2 4347   6.863   4.195   3.193
 1150SOL     OW 4348   2.361   3.556   0.301
 1150SOL    HW1 4349   2.374   3.601   0.389
 1150SOL    HW2 4350   2.391   3.460   0.308
 1151SOL     OW 4351   4.762   4.804   6.708
 1151SOL    HW1 4352   4.767   4.710   6.674
 1151SOL    HW2 4353   4.786   4.806   6.805
 1152SOL     OW 4354   5.460   4.795   6.119
 1152SOL    HW1 4355   5.422   4.863   6.056
 1152SOL    HW2 4356   5.552   4.770   6.090
 1153SOL     OW 4357   1.773   0.719   1.445
 1153SOL    HW1 4358   1.734   0.645   1.390
 1153SOL    HW2 4359   1.832   0.681   1.516
 1154SOL     OW 4360   0.463   4.190   1.389
 1154SOL    HW1 4361   0.467   4.242   1.304
 1154SOL    HW2 4362   0.448   4.093   1.368
 1155SOL     OW 4363   2.592   5.636   6.673
 1155SOL    HW1 4364   2.569   5.664   6.766
 1155SOL    HW2 4365   2.580   5.537   6.663
 1156SOL     OW 4366   4.109   1.953   4.459
 1156SOL    HW1 4367   4.207   1.947   4.477
 1156SOL    HW2 4368   4.077   2.045   4.480
 1157SOL     OW 4369   5.781   0.572   5.402
 1157SOL    HW1 4370   5.784   0.655   5.457
 1157SOL    HW2 4371   5.785   0.596   5.305
 1158SOL     OW 4372   0.117   5.219   5.239
 1158SOL    HW1 4373   0.017   5.214   5.244
 1158SOL    HW2 4374   0.156   5.143   5.292
 1159SOL     OW 4375   6.343   0.060   4.175
 1159SOL    HW1 4376   6.379   0.140   4.224
 1159SOL    HW2 4377   6.370   0.065   4.079
 1160SOL     OW 4378   4.500   3.876   0.857
 1160SOL    HW1 4379   4.435   3.891   0.782
 1160SOL    HW2 4380   4.486   3.946   0.927
 1161SOL     OW 4381   6.345   0.256   6.360
 1161SOL    HW1 4382   6.343   0.285   6.455
 1161SOL    HW2 4383   6.287   0.317   6.305
 1162SOL     OW 4384   3.118   2.263   6.385
 1162SOL    HW1 4385   3.062   2.314   6.450
 1162SOL    HW2 4386   3.064   2.189   6.345
 1163SOL     OW 4387   6.388   3.196   2.145
 1163SOL    HW1 4388   6.343   3.227   2.229
 1163SOL    HW2 4389   6.483   3.172   2.165
 1164SOL     OW 4390   6.081   3.170   4.740
 1164SOL    HW1 4391   6.011   3.152   4.810
 1164SOL    HW2 4392   6.112   3.084   4.701
 1165SOL     OW 4393   3.001   4.815   4.087
 1165SOL    HW1 4394   3.018   4.906   4.123
 1165SOL    HW2 4395   3.088   4.773   4.061
 1166SOL     OW 4396   3.912   6.854   0.003
 1166SOL    HW1 4397   3.890   6.797   0.083
 1166SOL    HW2 4398   3.998   6.822   6.987
 1167SOL     OW 4399   4.247   6.412   6.323
 1167SOL    HW1 4400   4.241   6.456   6.413
 1167SOL    HW2 4401   4.163   6.360   6.306
 1168SOL     OW 4402   5.392   2.405   3.482
 1168SOL    HW1 4403   5.322   2.458   3.531
 1168SOL    HW2 4404   5.465   2.467   3.452
 1169SOL     OW 4405   5.259   2.024   5.795
 1169SOL    HW1 4406   5.318   1.961   5.844
 1169SOL    HW2 4407   5.171   1.979   5.775
 1170SOL     OW 4408   5.032   0.841   3.246
 1170SOL    HW1 4409   5.112   0.852   3.305
 1170SOL    HW2 4410   5.037   0.752   3.200
 1171SOL     OW 4411   3.009   6.100   6.965
 1171SOL    HW1 4412   2.964   6.186   6.988
 1171SOL    HW2 4413   2.968   6.025   7.019
 1172SOL     OW 4414   3.016   4.176   1.810
 1172SOL    HW1 4415   2.967   4.112   1.869
 1172SOL    HW2 4416   2.987   4.269   1.832
 1173SOL     OW 4417   2.825   0.764   6.340
 1173SOL    HW1 4418   2.772   0.779   6.257
 1173SOL    HW2 4419   2.772   0.710   6.405
 1174SOL     OW 4420   3.466   4.922   1.033
 1174SOL    HW1 4421   3.444   4.908   0.936
 1174SOL    HW2 4422   3.503   4.838   1.071
 1175SOL     OW 4423   3.613   3.581   6.941
 1175SOL    HW1 4424   3.541   3.576   6.871
 1175SOL    HW2 4425   3.675   3.656   6.920
 1176SOL     OW 4426   6.033   4.818   6.527
 1176SOL    HW1 4427   6.002   4.815   6.432
 1176SOL    HW2 4428   6.059   4.726   6.556
 1177SOL     OW 4429   6.941   1.859   5.442
 1177SOL    HW1 4430   6.877   1.793   5.482
 1177SOL    HW2 4431   6.970   1.827   5.352
 1178SOL     OW 4432   3.112   3.978   0.759
 1178SOL    HW1 4433   3.033   4.031   0.789
 1178SOL    HW2 4434   3.091   3.880   0.767
 1179SOL     OW 4435   3.268   6.189   0.535
 1179SOL    HW1 4436   3.302   6.109   0.585
 1179SOL    HW2 4437   3.340   6.259   0.532
 1180SOL     OW 4438   1.884   5.786   3.834
 1180SOL    HW1 4439   1.976   5.806   3.868
 1180SOL    HW2 4440   1.830   5.871   3.831
 1181SOL     OW 4441   0.368   3.215   5.737
 1181SOL    HW1 4442   0.457   3.171   5.747
 1181SOL    HW2 4443   0.335   3.244   5.827
 1182SOL     OW 4444   2.994   4.852   3.262
 1182SOL    HW1 4445   3.065   4.782   3.268
 1182SOL    HW2 4446   2.920   4.830   3.325
 1183SOL     OW 4447   3.517   5.460   1.847
 1183SOL    HW1 4448   3.585   5.489   1.915
 1183SOL    HW2 4449   3.444   5.410   1.893
 1184SOL     OW 4450   5.827   6.890   5.917
 1184SOL    HW1 4451   5.899   6.954   5.943
 1184SOL    HW2 4452   5.851   6.798   5.948
 1185SOL     OW 4453   0.357   0.816   1.039
 1185SOL    HW1 4454   0.379   0.819   1.137
 1185SOL    HW2 4455   0.361   0.908   1.002
 1186SOL     OW 4456   5.761   5.318   5.807
 1186SOL    HW1 4457   5.782   5.241   5.747
 1186SOL    HW2 4458   5.843   5.341   5.860
 1187SOL     OW 4459   5.344   6.348   5.742
 1187SOL    HW1 4460   5.359   6.329   5.646
 1187SOL    HW2 4461   5.381   6.438   5.765
 1188SOL     OW 4462   3.437   5.276   6.155
 1188SOL    HW1 4463   3.433   5.346   6.083
 1188SOL    HW2 4464   3.366   5.208   6.138
 1189SOL     OW 4465   6.270   0.549   0.921
 1189SOL    HW1 4466   6.360   0.566   0.880
 1189SOL    HW2 4467   6.241   0.455   0.901
 1190SOL     OW 4468   2.928   5.998   2.600
 1190SOL    HW1 4469   2.911   5.909   2.558
 1190SOL    HW2 4470   2.939   5.987   2.699
 1191SOL     OW 4471   2.608   6.193   4.511
 1191SOL    HW1 4472   2.696   6.227   4.478
 1191SOL    HW2 4473   2.622   6.105   4.558
 1192SOL     OW 4474   5.970   6.231   3.336
 1192SOL    HW1 4475   6.006   6.164   3.270
 1192SOL    HW2 4476   5.871   6.225   3.340
 1193SOL     OW 4477   0.018   0.492   5.108
 1193SOL    HW1 4478   0.076   0.570   5.085
 1193SOL    HW2 4479   6.970   0.483   5.039
 1194SOL     OW 4480   6.852   1.509   1.184
 1194SOL    HW1 4481   6.775   1.469   1.233
 1194SOL    HW2 4482   6.937   1.483   1.230
 1195SOL     OW 4483   6.860   3.231   0.553
 1195SOL    HW1 4484   6.922   3.207   0.628
 1195SOL    HW2 4485   6.890   3.316   0.511
 1196SOL     OW 4486   6.203   4.501   3.492
 1196SOL    HW1 4487   6.192   4.584   3.547
 1196SOL    HW2 4488   6.236   4.427   3.551
 1197SOL     OW 4489   4.434   6.403   4.561
 1197SOL    HW1 4490   4.392   6.489   4.531
 1197SOL    HW2 4491   4.526   6.396   4.523
 1198SOL     OW 4492   1.365   3.635   2.210
 1198SOL    HW1 4493   1.267   3.620   2.213
 1198SOL    HW2 4494   1.398   3.622   2.116
 1199SOL     OW 4495   3.192   3.878   2.841
 1199SOL    HW1 4496   3.257   3.949   2.870
 1199SOL    HW2 4497   3.225   3.835   2.758
 1200SOL     OW 4498   3.849   4.066   4.496
 1200SOL    HW1 4499   3.803   4.126   4.562
 1200SOL    HW2 4500   3.810   4.081   4.405
 1201SOL     OW 4501   6.473   0.836   5.120
 1201SOL    HW1 4502   6.522   0.894   5.186
 1201SOL    HW2 4503   6.426   0.894   5.053
 1202SOL     OW 4504   0.027   6.256   5.736
 1202SOL    HW1 4505   6.958   6.265   5.704
 1202SOL    HW2 4506   0.089   6.248   5.657
 1203SOL     OW 4507   0.442   6.511   0.447
 1203SOL    HW1 4508   0.369   6.530   0.513
 1203SOL    HW2 4509   0.508   6.586   0.447
 1204SOL     OW 4510   4.688   1.234   1.480
 1204SOL    HW1 4511   4.751   1.310   1.493
 1204SOL    HW2 4512   4.663   1.196   1.569
 1205SOL     OW 4513   3.643   4.008   0.414
 1205SOL    HW1 4514   3.717   3.980   0.353
 1205SOL    HW2 4515   3.568   4.047   0.360
 1206SOL     OW 4516   0.798   3.290   4.927
 1206SOL    HW1 4517   0.870   3.222   4.941
 1206SOL    HW2 4518   0.838   3.382   4.932
 1207SOL     OW 4519   0.200   0.619   0.956
 1207SOL    HW1 4520   0.240   0.567   0.880
 1207SOL    HW2 4521   0.244   0.708   0.962
 1208SOL     OW 4522   3.635   3.075   1.423
 1208SOL    HW1 4523   3.567   3.012   1.459
 1208SOL    HW2 4524   3.597   3.168   1.421
 1209SOL     OW 4525   5.076   0.063   4.400
 1209SOL    HW1 4526   5.160   0.071   4.347
 1209SOL    HW2 4527   5.056   0.151   4.444
 1210SOL     OW 4528   4.342   6.448   3.625
 1210SOL    HW1 4529   4.243   6.458   3.621
 1210SOL    HW2 4530   4.372   6.452   3.720
 1211SOL     OW 4531   1.029   3.645   2.782
 1211SOL    HW1 4532   0.954   3.589   2.816
 1211SOL    HW2 4533   1.105   3.585   2.754
 1212SOL     OW 4534   6.701   0.058   5.882
 1212SOL    HW1 4535   6.663   0.085   5.794
 1212SOL    HW2 4536   6.629   0.016   5.938
 1213SOL     OW 4537   5.537   2.492   1.920
 1213SOL    HW1 4538   5.618   2.435   1.916
 1213SOL    HW2 4539   5.472   2.454   1.986
 1214SOL     OW 4540   0.719   2.572   6.837
 1214SOL    HW1 4541   0.687   2.603   6.926
 1214SOL    HW2 4542   0.645   2.526   6.788
 1215SOL     OW 4543   1.222   5.011   2.663
 1215SOL    HW1 4544   1.298   5.035   2.602
 1215SOL    HW2 4545   1.174   4.932   2.626
 1216SOL     OW 4546   5.399   1.466   1.050
 1216SOL    HW1 4547   5.443   1.379   1.068
 1216SOL    HW2 4548   5.421   1.531   1.123
 1217SOL     OW 4549   2.355   4.881   0.739
 1217SOL    HW1 4550   2.427   4.950   0.730
 1217SOL    HW2 4551   2.396   4.790   0.739
 1218SOL     OW 4552   1.763   2.265   5.147
 1218SOL    HW1 4553   1.751   2.262   5.048
 1218SOL    HW2 4554   1.781   2.359   5.176
 1219SOL     OW 4555   5.797   5.673   2.004
 1219SOL    HW1 4556   5.812   5.628   1.916
 1219SOL    HW2 4557   5.836   5.766   2.001
 1220SOL     OW 4558   6.753   4.153   2.518
 1220SOL    HW1 4559   6.669   4.202   2.493
 1220SOL    HW2 4560   6.760   4.070   2.462
 1221SOL     OW 4561   4.971   3.780   6.644
 1221SOL    HW1 4562   5.055   3.792   6.591
 1221SOL    HW2 4563   4.892   3.779   6.583
 1222SOL     OW 4564   6.848   1.166   6.736
 1222SOL    HW1 4565   6.773   1.182   6.799
 1222SOL    HW2 4566   6.858   1.243   6.674
 1223SOL     OW 4567   4.231   0.864   0.102
 1223SOL    HW1 4568   4.174   0.781   0.096
 1223SOL    HW2 4569   4.201   0.929   0.032
 1224SOL     OW 4570   2.932   6.298   6.573
 1224SOL    HW1 4571   3.001   6.348   6.625
 1224SOL    HW2 4572   2.842   6.339   6.590
 1225SOL     OW 4573   3.433   2.346   6.742
 1225SOL    HW1 4574   3.396   2.396   6.663
 1225SOL    HW2 4575   3.358   2.307   6.795
 1226SOL     OW 4576   3.855   6.314   0.363
 1226SOL    HW1 4577   3.936   6.305   0.422
 1226SOL    HW2 4578   3.845   6.231   0.308
 1227SOL     OW 4579   5.011   4.839   5.707
 1227SOL    HW1 4580   4.926   4.889   5.686
 1227SOL    HW2 4581   5.079   4.858   5.636
 1228SOL     OW 4582   3.311   2.485   6.518
 1228SOL    HW1 4583   3.291   2.562   6.457
 1228SOL    HW2 4584   3.264   2.403   6.484
 1229SOL     OW 4585   2.573   5.392   7.022
 1229SOL    HW1 4586   2.585   5.382   0.096
 1229SOL    HW2 4587   2.515   5.472   7.004
 1230SOL     OW 4588   5.370   6.337   1.755
 1230SOL    HW1 4589   5.336   6.401   1.686
 1230SOL    HW2 4590   5.356   6.375   1.846
 1231SOL     OW 4591   1.826   2.087   5.549
 1231SOL    HW1 4592   1.781   2.086   5.459
 1231SOL    HW2 4593   1.912   2.036   5.544
 1232SOL     OW 4594   6.686   1.184   4.864
 1232SOL    HW1 4595   6.734   1.256   4.916
 1232SOL    HW2 4596   6.623   1.227   4.799
 1233SOL     OW 4597   1.127   5.430   4.936
 1233SOL    HW1 4598   1.209   5.429   4.993
 1233SOL    HW2 4599   1.116   5.342   4.891
 1234SOL     OW 4600   5.746   3.073   5.756
 1234SOL    HW1 4601   5.651   3.073   5.726
 1234SOL    HW2 4602   5.750   3.067   5.856
 1235SOL     OW 4603   5.957   5.237   2.035
 1235SOL    HW1 4604   6.034   5.268   1.978
 1235SOL    HW2 4605   5.969   5.140   2.056
 1236SOL     OW 4606   4.194   0.729   0.916
 1236SOL    HW1 4607   4.228   0.812   0.960
 1236SOL    HW2 4608   4.215   0.732   0.818
 1237SOL     OW 4609   1.904   4.617   5.754
 1237SOL    HW1 4610   1.917   4.545   5.686
 1237SOL    HW2 4611   1.842   4.585   5.826
 1238SOL     OW 4612   1.406   0.752   6.260
 1238SOL    HW1 4613   1.350   0.824   6.218
 1238SOL    HW2 4614   1.501   0.781   6.263
 1239SOL     OW 4615   0.184   0.289   0.042
 1239SOL    HW1 4616   0.227   0.210   7.022
 1239SOL    HW2 4617   0.182   0.366   7.003
 1240SOL     OW 4618   5.802   6.122   0.834
 1240SOL    HW1 4619   5.850   6.081   0.756
 1240SOL    HW2 4620   5.717   6.071   0.851
 1241SOL     OW 4621   6.069   4.075   5.310
 1241SOL    HW1 4622   6.078   3.977   5.295
 1241SOL    HW2 4623   6.126   4.102   5.387
 1242SOL     OW 4624   1.721   3.388   1.353
 1242SOL    HW1 4625   1.787   3.330   1.401
 1242SOL    HW2 4626   1.637   3.337   1.336
 1243SOL     OW 4627   1.254   0.149   5.164
 1243SOL    HW1 4628   1.350   0.170   5.147
 1243SOL    HW2 4629   1.197   0.207   5.105
 1244SOL     OW 4630   5.245   6.568   4.137
 1244SOL    HW1 4631   5.311   6.576   4.063
 1244SOL    HW2 4632   5.276   6.499   4.202
 1245SOL     OW 4633   5.666   4.375   0.419
 1245SOL    HW1 4634   5.579   4.383   0.372
 1245SOL    HW2 4635   5.658   4.310   0.495
 1246SOL     OW 4636   3.328   1.307   1.272
 1246SOL    HW1 4637   3.311   1.270   1.180
 1246SOL    HW2 4638   3.413   1.270   1.308
 1247SOL     OW 4639   0.233   6.602   5.763
 1247SOL    HW1 4640   0.158   6.634   5.706
 1247SOL    HW2 4641   0.320   6.616   5.715
 1248SOL     OW 4642   2.210   6.575   4.396
 1248SOL    HW1 4643   2.262   6.507   4.344
 1248SOL    HW2 4644   2.271   6.620   4.461
 1249SOL     OW 4645   6.766   2.318   2.138
 1249SOL    HW1 4646   6.722   2.366   2.215
 1249SOL    HW2 4647   6.798   2.229   2.168
 1250SOL     OW 4648   5.495   5.484   3.319
 1250SOL    HW1 4649   5.527   5.562   3.266
 1250SOL    HW2 4650   5.492   5.507   3.416
 1251SOL     OW 4651   2.685   1.247   3.291
 1251SOL    HW1 4652   2.632   1.330   3.308
 1251SOL    HW2 4653   2.782   1.272   3.281
 1252SOL     OW 4654   4.287   4.439   6.822
 1252SOL    HW1 4655   4.280   4.410   6.726
 1252SOL    HW2 4656   4.332   4.528   6.827
 1253SOL     OW 4657   3.052   6.533   1.896
 1253SOL    HW1 4658   3.149   6.554   1.907
 1253SOL    HW2 4659   3.037   6.483   1.811
 1254SOL     OW 4660   0.587   3.037   3.490
 1254SOL    HW1 4661   0.683   3.013   3.475
 1254SOL    HW2 4662   0.547   2.973   3.556
 1255SOL     OW 4663   5.810   1.424   5.902
 1255SOL    HW1 4664   5.810   1.450   5.806
 1255SOL    HW2 4665   5.902   1.434   5.940
 1256SOL     OW 4666   6.869   0.490   3.352
 1256SOL    HW1 4667   6.918   0.461   3.270
 1256SOL    HW2 4668   6.795   0.553   3.327
 1257SOL     OW 4669   0.181   4.880   4.383
 1257SOL    HW1 4670   0.239   4.948   4.428
 1257SOL    HW2 4671   0.119   4.926   4.320
 1258SOL     OW 4672   1.698   5.180   2.912
 1258SOL    HW1 4673   1.626   5.121   2.875
 1258SOL    HW2 4674   1.764   5.200   2.840
 1259SOL     OW 4675   3.217   0.737   4.295
 1259SOL    HW1 4676   3.259   0.665   4.350
 1259SOL    HW2 4677   3.262   0.824   4.313
 1260SOL     OW 4678   3.019   2.174   6.761
 1260SOL    HW1 4679   3.102   2.216   6.798
 1260SOL    HW2 4680   3.030   2.075   6.761
 1261SOL     OW 4681   6.840   5.261   6.523
 1261SOL    HW1 4682   6.804   5.212   6.602
 1261SOL    HW2 4683   6.787   5.344   6.508
 1262SOL     OW 4684   6.011   4.035   1.458
 1262SOL    HW1 4685   5.953   3.954   1.451
 1262SOL    HW2 4686   5.960   4.115   1.425
 1263SOL     OW 4687   0.141   2.073   1.470
 1263SOL    HW1 4688   0.047   2.098   1.447
 1263SOL    HW2 4689   0.200   2.090   1.391
 1264SOL     OW 4690   6.592   3.730   2.035
 1264SOL    HW1 4691   6.671   3.680   2.070
 1264SOL    HW2 4692   6.600   3.742   1.936
 1265SOL     OW 4693   4.756   6.004   4.044
 1265SOL    HW1 4694   4.725   6.048   3.960
 1265SOL    HW2 4695   4.730   5.907   4.042
 1266SOL     OW 4696   0.342   1.460   4.716
 1266SOL    HW1 4697   0.312   1.484   4.809
 1266SOL    HW2 4698   0.400   1.379   4.720
 1267SOL     OW 4699   4.636   6.520   1.168
 1267SOL    HW1 4700   4.676   6.551   1.081
 1267SOL    HW2 4701   4.636   6.596   1.233
 1268SOL     OW 4702   3.336   2.748   0.345
 1268SOL    HW1 4703   3.398   2.704   0.280
 1268SOL    HW2 4704   3.321   2.843   0.318
 1269SOL     OW 4705   5.924   5.315   4.693
 1269SOL    HW1 4706   5.853   5.245   4.693
 1269SOL    HW2 4707   5.935   5.352   4.785
 1270SOL     OW 4708   1.627   3.608   3.412
 1270SOL    HW1 4709   1.583   3.545   3.476
 1270SOL    HW2 4710   1.580   3.603   3.324
 1271SOL     OW 4711   2.786   2.316   3.487
 1271SOL    HW1 4712   2.738   2.391   3.531
 1271SOL    HW2 4713   2.732   2.232   3.495
 1272SOL     OW 4714   5.210   5.667   0.225
 1272SOL    HW1 4715   5.116   5.698   0.214
 1272SOL    HW2 4716   5.249   5.707   0.308
 1273SOL     OW 4717   0.203   3.797   0.431
 1273SOL    HW1 4718   0.222   3.744   0.513
 1273SOL    HW2 4719   0.276   3.782   0.363
 1274SOL     OW 4720   6.634   4.394   1.133
 1274SOL    HW1 4721   6.657   4.472   1.075
 1274SOL    HW2 4722   6.694   4.393   1.213
 1275SOL     OW 4723   3.870   2.147   4.904
 1275SOL    HW1 4724   3.969   2.148   4.893
 1275SOL    HW2 4725   3.826   2.162   4.816
 1276SOL     OW 4726   0.096   5.681   4.606
 1276SOL    HW1 4727   0.136   5.590   4.623
 1276SOL    HW2 4728   0.015   5.692   4.664
 1277SOL     OW 4729   1.377   5.661   6.285
 1277SOL    HW1 4730   1.391   5.651   6.383
 1277SOL    HW2 4731   1.335   5.578   6.248
 1278SOL     OW 4732   0.588   6.868   4.778
 1278SOL    HW1 4733   0.495   6.855   4.743
 1278SOL    HW2 4734   0.605   6.806   4.854
 1279SOL     OW 4735   2.502   6.079   0.833
 1279SOL    HW1 4736   2.517   6.020   0.912
 1279SOL    HW2 4737   2.436   6.151   0.857
 1280SOL     OW 4738   3.402   6.493   5.047
 1280SOL    HW1 4739   3.314   6.512   5.005
 1280SOL    HW2 4740   3.459   6.439   4.985
 1281SOL     OW 4741   2.009   6.567   3.365
 1281SOL    HW1 4742   2.015   6.650   3.308
 1281SOL    HW2 4743   2.061   6.581   3.449
 1282SOL     OW 4744   0.695   1.985   0.020
 1282SOL    HW1 4745   0.788   1.948   0.029
 1282SOL    HW2 4746   0.700   2.077   7.005
 1283SOL     OW 4747   0.848   3.359   5.630
 1283SOL    HW1 4748   0.933   3.409   5.613
 1283SOL    HW2 4749   0.821   3.373   5.726
 1284SOL     OW 4750   4.784   2.263   1.266
 1284SOL    HW1 4751   4.855   2.322   1.306
 1284SOL    HW2 4752   4.776   2.283   1.168
 1285SOL     OW 4753   4.725   2.234   6.578
 1285SOL    HW1 4754   4.731   2.298   6.655
 1285SOL    HW2 4755   4.720   2.140   6.613
 1286SOL     OW 4756   4.626   3.719   1.583
 1286SOL    HW1 4757   4.546   3.710   1.642
 1286SOL    HW2 4758   4.652   3.815   1.575
 1287SOL     OW 4759   5.719   5.537   5.345
 1287SOL    HW1 4760   5.672   5.495   5.423
 1287SOL    HW2 4761   5.664   5.525   5.262
 1288SOL     OW 4762   4.105   3.048   6.332
 1288SOL    HW1 4763   4.170   3.093   6.271
 1288SOL    HW2 4764   4.109   2.949   6.318
 1289SOL     OW 4765   0.458   6.377   1.475
 1289SOL    HW1 4766   0.468   6.442   1.551
 1289SOL    HW2 4767   0.548   6.355   1.437
 1290SOL     OW 4768   0.609   5.876   6.690
 1290SOL    HW1 4769   0.510   5.870   6.708
 1290SOL    HW2 4770   0.623   5.893   6.592
 1291SOL     OW 4771   0.315   3.893   4.964
 1291SOL    HW1 4772   0.391   3.903   4.900
 1291SOL    HW2 4773   0.268   3.806   4.947
 1292SOL     OW 4774   0.145   5.871   2.201
 1292SOL    HW1 4775   0.195   5.923   2.133
 1292SOL    HW2 4776   0.047   5.889   2.192
 1293SOL     OW 4777   0.962   1.905   0.107
 1293SOL    HW1 4778   0.952   1.878   0.203
 1293SOL    HW2 4779   1.014   1.835   0.058
 1294SOL     OW 4780   0.805   2.926   6.431
 1294SOL    HW1 4781   0.799   2.956   6.336
 1294SOL    HW2 4782   0.853   2.995   6.485
 1295SOL     OW 4783   6.785   3.525   2.100
 1295SOL    HW1 4784   6.790   3.462   2.177
 1295SOL    HW2 4785   6.843   3.492   2.026
 1296SOL     OW 4786   3.898   0.030   5.913
 1296SOL    HW1 4787   3.881   6.957   5.896
 1296SOL    HW2 4788   3.843   0.085   5.851
 1297SOL     OW 4789   6.821   0.827   1.541
 1297SOL    HW1 4790   6.889   0.807   1.471
 1297SOL    HW2 4791   6.865   0.827   1.631
 1298SOL     OW 4792   5.560   5.166   2.811
 1298SOL    HW1 4793   5.590   5.074   2.833
 1298SOL    HW2 4794   5.493   5.163   2.737
 1299SOL     OW 4795   1.415   3.794   3.232
 1299SOL    HW1 4796   1.467   3.870   3.271
 1299SOL    HW2 4797   1.452   3.771   3.142
 1300SOL     OW 4798   2.851   3.155   1.233
 1300SOL    HW1 4799   2.814   3.088   1.298
 1300SOL    HW2 4800   2.777   3.214   1.201
 1301SOL     OW 4801   0.700   6.295   1.071
 1301SOL    HW1 4802   0.778   6.352   1.096
 1301SOL    HW2 4803   0.731   6.204   1.045
 1302SOL     OW 4804   4.855   0.077   5.760
 1302SOL    HW1 4805   4.806   0.039   5.838
 1302SOL    HW2 4806   4.799   0.148   5.716
 1303SOL     OW 4807   4.501   2.325   1.345
 1303SOL    HW1 4808   4.595   2.351   1.320
 1303SOL    HW2 4809   4.454   2.291   1.265
 1304SOL     OW 4810   2.056   1.078   6.709
 1304SOL    HW1 4811   2.059   1.144   6.635
 1304SOL    HW2 4812   1.961   1.066   6.740
 1305SOL     OW 4813   5.168   3.600   0.540
 1305SOL    HW1 4814   5.244   3.560   0.489
 1305SOL    HW2 4815   5.135   3.533   0.607
 1306SOL     OW 4816   0.837   5.130   3.361
 1306SOL    HW1 4817   0.913   5.113   3.423
 1306SOL    HW2 4818   0.849   5.219   3.316
 1307SOL     OW 4819   0.988   4.551   3.961
 1307SOL    HW1 4820   1.022   4.613   3.891
 1307SOL    HW2 4821   0.921   4.599   4.018
 1308SOL     OW 4822   6.190   6.325   5.154
 1308SOL    HW1 4823   6.202   6.238   5.203
 1308SOL    HW2 4824   6.109   6.319   5.096
 1309SOL     OW 4825   5.726   3.832   5.356
 1309SOL    HW1 4826   5.653   3.817   5.289
 1309SOL    HW2 4827   5.750   3.929   5.359
 1310SOL     OW 4828   6.611   4.245   4.101
 1310SOL    HW1 4829   6.683   4.314   4.102
 1310SOL    HW2 4830   6.598   4.208   4.193
 1311SOL     OW 4831   0.752   6.313   4.570
 1311SOL    HW1 4832   0.680   6.285   4.506
 1311SOL    HW2 4833   0.754   6.413   4.575
 1312SOL     OW 4834   1.323   6.846   6.858
 1312SOL    HW1 4835   1.353   6.751   6.866
 1312SOL    HW2 4836   1.351   6.897   6.940
 1313SOL     OW 4837   0.400   4.439   3.261
 1313SOL    HW1 4838   0.389   4.347   3.222
 1313SOL    HW2 4839   0.498   4.460   3.269
 1314SOL     OW 4840   4.153   1.231   5.319
 1314SOL    HW1 4841   4.250   1.219   5.338
 1314SOL    HW2 4842   4.115   1.300   5.381
 1315SOL     OW 4843   0.384   1.404   1.709
 1315SOL    HW1 4844   0.326   1.358   1.776
 1315SOL    HW2 4845   0.331   1.421   1.625
 1316SOL     OW 4846   1.585   5.721   5.092
 1316SOL    HW1 4847   1.605   5.673   5.177
 1316SOL    HW2 4848   1.486   5.733   5.083
 1317SOL     OW 4849   2.439   4.719   6.637
 1317SOL    HW1 4850   2.489   4.678   6.713
 1317SOL    HW2 4851   2.491   4.704   6.552
 1318SOL     OW 4852   0.677   1.780   1.241
 1318SOL    HW1 4853   0.775   1.766   1.258
 1318SOL    HW2 4854   0.637   1.695   1.206
 1319SOL     OW 4855   6.700   6.998   0.349
 1319SOL    HW1 4856   6.775   6.936   0.370
 1319SOL    HW2 4857   6.737   0.062   0.321
 1320SOL     OW 4858   4.616   4.196   0.865
 1320SOL    HW1 4859   4.559   4.239   0.795
 1320SOL    HW2 4860   4.703   4.170   0.825
 1321SOL     OW 4861   5.669   1.482   6.497
 1321SOL    HW1 4862   5.726   1.453   6.573
 1321SOL    HW2 4863   5.617   1.405   6.462
 1322SOL     OW 4864   3.971   0.942   3.524
 1322SOL    HW1 4865   4.022   0.984   3.599
 1322SOL    HW2 4866   3.896   0.887   3.561
 1323SOL     OW 4867   4.468   0.364   5.450
 1323SOL    HW1 4868   4.437   0.383   5.543
 1323SOL    HW2 4869   4.425   0.428   5.386
 1324SOL     OW 4870   1.036   3.509   0.648
 1324SOL    HW1 4871   0.980   3.445   0.701
 1324SOL    HW2 4872   1.055   3.590   0.704
 1325SOL     OW 4873   2.206   0.578   2.949
 1325SOL    HW1 4874   2.131   0.547   2.891
 1325SOL    HW2 4875   2.222   0.510   3.022
 1326SOL     OW 4876   4.965   3.471   4.910
 1326SOL    HW1 4877   5.043   3.533   4.901
 1326SOL    HW2 4878   4.896   3.513   4.969
 1327SOL     OW 4879   0.636   6.038   2.008
 1327SOL    HW1 4880   0.661   5.981   2.086
 1327SOL    HW2 4881   0.690   6.011   1.928
 1328SOL     OW 4882   1.360   3.089   0.594
 1328SOL    HW1 4883   1.438   3.074   0.534
 1328SOL    HW2 4884   1.289   3.021   0.574
 1329SOL     OW 4885   0.055   2.412   1.677
 1329SOL    HW1 4886   7.008   2.455   1.732
 1329SOL    HW2 4887   0.021   2.395   1.585
 1330SOL     OW 4888   0.894   1.648   1.773
 1330SOL    HW1 4889   0.942   1.594   1.842
 1330SOL    HW2 4890   0.800   1.614   1.764
 1331SOL     OW 4891   5.259   2.801   2.931
 1331SOL    HW1 4892   5.241   2.790   3.029
 1331SOL    HW2 4893   5.299   2.717   2.895
 1332SOL     OW 4894   2.694   0.009   6.052
 1332SOL    HW1 4895   2.680   0.107   6.065
 1332SOL    HW2 4896   2.664   7.008   5.960
 1333SOL     OW 4897   3.742   3.653   4.154
 1333SOL    HW1 4898   3.792   3.589   4.212
 1333SOL    HW2 4899   3.652   3.672   4.195
 1334SOL     OW 4900   6.102   1.601   4.337
 1334SOL    HW1 4901   6.042   1.530   4.301
 1334SOL    HW2 4902   6.066   1.634   4.424
 1335SOL     OW 4903   2.354   2.075   2.926
 1335SOL    HW1 4904   2.314   2.130   2.999
 1335SOL    HW2 4905   2.335   1.978   2.942
 1336SOL     OW 4906   1.815   2.566   4.924
 1336SOL    HW1 4907   1.744   2.602   4.863
 1336SOL    HW2 4908   1.880   2.512   4.872
 1337SOL     OW 4909   2.003   2.441   4.752
 1337SOL    HW1 4910   1.977   2.355   4.708
 1337SOL    HW2 4911   2.012   2.513   4.683
 1338SOL     OW 4912   5.322   1.859   5.318
 1338SOL    HW1 4913   5.253   1.931   5.317
 1338SOL    HW2 4914   5.408   1.895   5.280
 1339SOL     OW 4915   6.908   1.674   6.379
 1339SOL    HW1 4916   6.973   1.743   6.350
 1339SOL    HW2 4917   6.949   1.615   6.449
 1340SOL     OW 4918   0.013   2.482   2.313
 1340SOL    HW1 4919   0.056   2.400   2.276
 1340SOL    HW2 4920   6.941   2.483   2.289
 1341SOL     OW 4921   5.116   6.534   6.065
 1341SOL    HW1 4922   5.210   6.559   6.090
 1341SOL    HW2 4923   5.052   6.597   6.110
 1342SOL     OW 4924   2.154   5.501   5.840
 1342SOL    HW1 4925   2.239   5.553   5.834
 1342SOL    HW2 4926   2.175   5.403   5.841
 1343SOL     OW 4927   4.235   5.830   3.138
 1343SOL    HW1 4928   4.275   5.921   3.151
 1343SOL    HW2 4929   4.206   5.793   3.226
 1344SOL     OW 4930   6.616   5.717   4.485
 1344SOL    HW1 4931   6.705   5.723   4.440
 1344SOL    HW2 4932   6.630   5.705   4.584
 1345SOL     OW 4933   1.659   0.911   2.755
 1345SOL    HW1 4934   1.662   1.006   2.723
 1345SOL    HW2 4935   1.662   0.849   2.677
 1346SOL     OW 4936   0.782   6.261   5.012
 1346SOL    HW1 4937   0.772   6.353   4.975
 1346SOL    HW2 4938   0.735   6.195   4.953
 1347SOL     OW 4939   6.595   6.578   4.742
 1347SOL    HW1 4940   6.594   6.485   4.778
 1347SOL    HW2 4941   6.552   6.640   4.808
 1348SOL     OW 4942   5.597   5.556   2.511
 1348SOL    HW1 4943   5.623   5.587   2.419
 1348SOL    HW2 4944   5.673   5.508   2.552
 1349SOL     OW 4945   4.626   2.462   5.820
 1349SOL    HW1 4946   4.709   2.472   5.765
 1349SOL    HW2 4947   4.621   2.370   5.857
 1350SOL     OW 4948   5.034   5.033   5.349
 1350SOL    HW1 4949   5.098   5.098   5.307
 1350SOL    HW2 4950   5.014   4.960   5.284
 1351SOL     OW 4951   5.957   1.764   3.367
 1351SOL    HW1 4952   5.892   1.753   3.442
 1351SOL    HW2 4953   6.007   1.850   3.380
 1352SOL     OW 4954   6.932   6.447   2.582
 1352SOL    HW1 4955   6.884   6.479   2.663
 1352SOL    HW2 4956   6.878   6.469   2.500
 1353SOL     OW 4957   0.466   3.117   0.351
 1353SOL    HW1 4958   0.370   3.126   0.377
 1353SOL    HW2 4959   0.505   3.037   0.395
 1354SOL     OW 4960   1.037   3.169   1.209
 1354SOL    HW1 4961   0.941   3.184   1.185
 1354SOL    HW2 4962   1.080   3.115   1.137
 1355SOL     OW 4963   7.020   2.690   5.037
 1355SOL    HW1 4964   0.042   2.756   4.979
 1355SOL    HW2 4965   0.016   2.598   5.007
 1356SOL     OW 4966   3.168   2.978   2.917
 1356SOL    HW1 4967   3.190   2.944   2.825
 1356SOL    HW2 4968   3.108   3.058   2.909
 1357SOL     OW 4969   1.345   3.074   5.634
 1357SOL    HW1 4970   1.317   3.084   5.538
 1357SOL    HW2 4971   1.429   3.126   5.650
 1358SOL     OW 4972   4.356   0.424   5.698
 1358SOL    HW1 4973   4.380   0.329   5.715
 1358SOL    HW2 4974   4.424   0.484   5.741
 1359SOL     OW 4975   5.566   4.449   1.815
 1359SOL    HW1 4976   5.470   4.431   1.837
 1359SOL    HW2 4977   5.575   4.465   1.717
 1360SOL     OW 4978   3.866   2.902   0.347
 1360SOL    HW1 4979   3.834   2.809   0.329
 1360SOL    HW2 4980   3.844   2.960   0.269
 1361SOL     OW 4981   0.123   5.303   4.830
 1361SOL    HW1 4982   0.156   5.381   4.883
 1361SOL    HW2 4983   0.023   5.302   4.830
 1362SOL     OW 4984   3.367   3.992   4.257
 1362SOL    HW1 4985   3.284   4.003   4.202
 1362SOL    HW2 4986   3.343   3.950   4.344
 1363SOL     OW 4987   6.963   5.690   3.179
 1363SOL    HW1 4988   6.972   5.685   3.079
 1363SOL    HW2 4989   6.997   5.778   3.211
 1364SOL     OW 4990   6.526   2.553   1.352
 1364SOL    HW1 4991   6.586   2.630   1.374
 1364SOL    HW2 4992   6.435   2.569   1.389
 1365SOL     OW 4993   1.193   3.106   6.377
 1365SOL    HW1 4994   1.105   3.118   6.330
 1365SOL    HW2 4995   1.254   3.181   6.352
 1366SOL     OW 4996   0.980   4.562   6.919
 1366SOL    HW1 4997   0.983   4.644   6.863
 1366SOL    HW2 4998   1.060   4.560   6.979
 1367SOL     OW 4999   2.055   6.916   2.930
 1367SOL    HW1 5000   1.975   6.918   2.990
 1367SOL    HW2 5001   2.097   7.007   2.927
 1368SOL     OW 5002   6.472   0.540   3.456
 1368SOL    HW1 5003   6.462   0.441   3.456
 1368SOL    HW2 5004   6.420   0.579   3.532
 1369SOL     OW 5005   2.346   0.135   1.517
 1369SOL    HW1 5006   2.372   0.140   1.421
 1369SOL    HW2 5007   2.250   0.110   1.526
 1370SOL     OW 5008   4.217   1.747   1.558
 1370SOL    HW1 5009   4.189   1.760   1.653
 1370SOL    HW2 5010   4.204   1.832   1.507
 1371SOL     OW 5011   6.301   1.470   4.170
 1371SOL    HW1 5012   6.201   1.460   4.173
 1371SOL    HW2 5013   6.337   1.419   4.092
 1372SOL     OW 5014   1.276   3.340   0.612
 1372SOL    HW1 5015   1.280   3.242   0.631
 1372SOL    HW2 5016   1.183   3.374   0.627
 1373SOL     OW 5017   4.901   2.412   6.941
 1373SOL    HW1 5018   4.818   2.366   6.973
 1373SOL    HW2 5019   4.895   2.510   6.963
 1374SOL     OW 5020   5.018   2.099   6.952
 1374SOL    HW1 5021   5.078   2.124   0.003
 1374SOL    HW2 5022   5.067   2.040   6.888
 1375SOL     OW 5023   0.600   4.129   6.744
 1375SOL    HW1 5024   0.693   4.165   6.733
 1375SOL    HW2 5025   0.598   4.064   6.820
 1376SOL     OW 5026   4.161   4.695   5.290
 1376SOL    HW1 5027   4.094   4.753   5.245
 1376SOL    HW2 5028   4.176   4.613   5.235
 1377SOL     OW 5029   0.584   3.502   5.579
 1377SOL    HW1 5030   0.683   3.491   5.591
 1377SOL    HW2 5031   0.537   3.465   5.659
 1378SOL     OW 5032   5.622   0.932   4.737
 1378SOL    HW1 5033   5.697   0.922   4.671
 1378SOL    HW2 5034   5.603   0.844   4.780
 1379SOL     OW 5035   3.890   6.884   3.146
 1379SOL    HW1 5036   3.808   6.888   3.203
 1379SOL    HW2 5037   3.967   6.851   3.200
 1380SOL     OW 5038   0.003   6.719   2.451
 1380SOL    HW1 5039   6.959   6.748   2.518
 1380SOL    HW2 5040   0.094   6.743   2.484
 1381SOL     OW 5041   5.939   2.444   6.818
 1381SOL    HW1 5042   5.875   2.405   6.752
 1381SOL    HW2 5043   5.958   2.378   6.890
 1382SOL     OW 5044   4.838   3.486   0.201
 1382SOL    HW1 5045   4.762   3.427   0.228
 1382SOL    HW2 5046   4.803   3.567   0.154
 1383SOL     OW 5047   1.033   0.298   1.985
 1383SOL    HW1 5048   1.130   0.320   2.000
 1383SOL    HW2 5049   0.978   0.340   2.057
 1384SOL     OW 5050   4.430   6.923   1.671
 1384SOL    HW1 5051   4.332   6.944   1.674
 1384SOL    HW2 5052   4.453   6.863   1.748
 1385SOL     OW 5053   1.903   4.008   3.907
 1385SOL    HW1 5054   1.922   4.035   3.813
 1385SOL    HW2 5055   1.989   3.999   3.958
 1386SOL     OW 5056   3.278   1.009   4.324
 1386SOL    HW1 5057   3.313   1.028   4.416
 1386SOL    HW2 5058   3.334   1.057   4.257
 1387SOL     OW 5059   3.481   5.583   2.300
 1387SOL    HW1 5060   3.482   5.484   2.311
 1387SOL    HW2 5061   3.522   5.607   2.212
 1388SOL     OW 5062   0.218   6.932   3.093
 1388SOL    HW1 5063   0.219   6.838   3.128
 1388SOL    HW2 5064   0.300   6.948   3.037
 1389SOL     OW 5065   6.890   0.834   3.689
 1389SOL    HW1 5066   6.973   0.870   3.732
 1389SOL    HW2 5067   6.913   0.790   3.603
 1390SOL     OW 5068   5.869   3.206   6.449
 1390SOL    HW1 5069   5.825   3.252   6.372
 1390SOL    HW2 5070   5.857   3.259   6.532
 1391SOL     OW 5071   6.303   6.879   5.098
 1391SOL    HW1 5072   6.269   6.835   5.180
 1391SOL    HW2 5073   6.238   6.865   5.023
 1392SOL     OW 5074   5.666   6.521   6.329
 1392SOL    HW1 5075   5.743   6.566   6.374
 1392SOL    HW2 5076   5.685   6.423   6.321
 1393SOL     OW 5077   6.876   3.576   5.940
 1393SOL    HW1 5078   6.904   3.490   5.897
 1393SOL    HW2 5079   6.871   3.648   5.871
 1394SOL     OW 5080   3.900   5.921   4.541
 1394SOL    HW1 5081   3.889   5.948   4.636
 1394SOL    HW2 5082   3.991   5.883   4.527
 1395SOL     OW 5083   1.457   4.530   4.027
 1395SOL    HW1 5084   1.404   4.460   4.075
 1395SOL    HW2 5085   1.439   4.526   3.929
 1396SOL     OW 5086   0.792   0.480   4.431
 1396SOL    HW1 5087   0.828   0.411   4.368
 1396SOL    HW2 5088   0.864   0.547   4.452
 1397SOL     OW 5089   0.482   5.798   4.772
 1397SOL    HW1 5090   0.580   5.808   4.757
 1397SOL    HW2 5091   0.450   5.711   4.734
 1398SOL     OW 5092   2.278   2.006   6.558
 1398SOL    HW1 5093   2.362   1.967   6.521
 1398SOL    HW2 5094   2.295   2.101   6.586
 1399SOL     OW 5095   3.811   6.788   0.254
 1399SOL    HW1 5096   3.800   6.710   0.316
 1399SOL    HW2 5097   3.766   6.868   0.293
 1400SOL     OW 5098   0.388   2.435   4.603
 1400SOL    HW1 5099   0.359   2.387   4.521
 1400SOL    HW2 5100   0.466   2.389   4.644
 1401SOL     OW 5101   5.915   6.956   4.424
 1401SOL    HW1 5102   5.940   6.940   4.329
 1401SOL    HW2 5103   5.819   6.930   4.438
 1402SOL     OW 5104   5.593   4.207   6.476
 1402SOL    HW1 5105   5.622   4.258   6.395
 1402SOL    HW2 5106   5.493   4.205   6.480
 1403SOL     OW 5107   1.735   2.184   1.480
 1403SOL    HW1 5108   1.782   2.210   1.564
 1403SOL    HW2 5109   1.801   2.176   1.405
 1404SOL     OW 5110   6.629   0.379   0.150
 1404SOL    HW1 5111   6.574   0.305   0.110
 1404SOL    HW2 5112   6.726   0.356   0.144
 1405SOL     OW 5113   2.715   4.280   1.076
 1405SOL    HW1 5114   2.731   4.316   0.984
 1405SOL    HW2 5115   2.674   4.351   1.133
 1406SOL     OW 5116   1.944   5.679   1.254
 1406SOL    HW1 5117   1.907   5.736   1.327
 1406SOL    HW2 5118   1.973   5.591   1.291
 1407SOL     OW 5119   1.709   4.041   3.529
 1407SOL    HW1 5120   1.656   4.124   3.513
 1407SOL    HW2 5121   1.773   4.057   3.605
 1408SOL     OW 5122   5.947   6.699   6.253
 1408SOL    HW1 5123   5.918   6.660   6.341
 1408SOL    HW2 5124   5.976   6.794   6.267
 1409SOL     OW 5125   0.856   0.258   5.141
 1409SOL    HW1 5126   0.774   0.292   5.094
 1409SOL    HW2 5127   0.855   0.290   5.236
 1410SOL     OW 5128   2.954   3.837   6.921
 1410SOL    HW1 5129   3.041   3.835   6.969
 1410SOL    HW2 5130   2.879   3.842   6.987
 1411SOL     OW 5131   3.462   5.990   0.081
 1411SOL    HW1 5132   3.490   5.919   0.146
 1411SOL    HW2 5133   3.500   6.078   0.110
 1412SOL     OW 5134   0.621   3.841   1.606
 1412SOL    HW1 5135   0.580   3.826   1.695
 1412SOL    HW2 5136   0.658   3.933   1.601
 1413SOL     OW 5137   2.074   1.348   4.473
 1413SOL    HW1 5138   2.071   1.285   4.550
 1413SOL    HW2 5139   2.164   1.342   4.429
 1414SOL     OW 5140   2.562   2.156   1.733
 1414SOL    HW1 5141   2.574   2.205   1.819
 1414SOL    HW2 5142   2.622   2.076   1.732
 1415SOL     OW 5143   3.122   1.599   4.136
 1415SOL    HW1 5144   3.159   1.653   4.061
 1415SOL    HW2 5145   3.130   1.650   4.221
 1416SOL     OW 5146   3.612   6.778   4.912
 1416SOL    HW1 5147   3.522   6.743   4.887
 1416SOL    HW2 5148   3.602   6.864   4.962
 1417SOL     OW 5149   3.331   2.698   6.767
 1417SOL    HW1 5150   3.293   2.771   6.824
 1417SOL    HW2 5151   3.406   2.654   6.816
 1418SOL     OW 5152   2.691   4.001   0.739
 1418SOL    HW1 5153   2.695   3.905   0.764
 1418SOL    HW2 5154   2.605   4.020   0.690
 1419SOL     OW 5155   2.900   5.630   4.006
 1419SOL    HW1 5156   2.966   5.554   4.014
 1419SOL    HW2 5157   2.833   5.623   4.080
 1420SOL     OW 5158   3.528   6.057   3.278
 1420SOL    HW1 5159   3.540   6.032   3.182
 1420SOL    HW2 5160   3.597   6.125   3.304
 1421SOL     OW 5161   0.711   4.232   3.974
 1421SOL    HW1 5162   0.637   4.264   3.914
 1421SOL    HW2 5163   0.676   4.219   4.067
 1422SOL     OW 5164   3.102   4.429   6.685
 1422SOL    HW1 5165   3.016   4.479   6.688
 1422SOL    HW2 5166   3.136   4.417   6.778
 1423SOL     OW 5167   3.572   0.693   4.405
 1423SOL    HW1 5168   3.569   0.711   4.503
 1423SOL    HW2 5169   3.663   0.715   4.370
 1424SOL     OW 5170   6.931   3.764   6.516
 1424SOL    HW1 5171   6.966   3.818   6.592
 1424SOL    HW2 5172   6.947   3.812   6.429
 1425SOL     OW 5173   2.027   5.577   4.938
 1425SOL    HW1 5174   2.033   5.676   4.929
 1425SOL    HW2 5175   2.104   5.543   4.991
 1426SOL     OW 5176   2.436   2.107   5.800
 1426SOL    HW1 5177   2.339   2.120   5.776
 1426SOL    HW2 5178   2.472   2.191   5.841
 1427SOL     OW 5179   6.886   6.692   3.967
 1427SOL    HW1 5180   6.968   6.697   4.024
 1427SOL    HW2 5181   6.914   6.692   3.870
 1428SOL     OW 5182   1.125   1.721   1.611
 1428SOL    HW1 5183   1.055   1.732   1.681
 1428SOL    HW2 5184   1.183   1.802   1.610
 1429SOL     OW 5185   6.088   1.613   0.215
 1429SOL    HW1 5186   6.102   1.532   0.272
 1429SOL    HW2 5187   6.007   1.599   0.158
 1430SOL     OW 5188   2.318   4.987   3.440
 1430SOL    HW1 5189   2.372   5.071   3.452
 1430SOL    HW2 5190   2.305   4.943   3.528
 1431SOL     OW 5191   2.686   2.685   6.298
 1431SOL    HW1 5192   2.590   2.710   6.311
 1431SOL    HW2 5193   2.744   2.759   6.330
 1432SOL     OW 5194   3.259   0.912   0.967
 1432SOL    HW1 5195   3.277   1.010   0.971
 1432SOL    HW2 5196   3.320   0.864   1.029
 1433SOL     OW 5197   4.214   7.023   4.992
 1433SOL    HW1 5198   4.223   0.082   4.939
 1433SOL    HW2 5199   4.201   6.946   4.929
 1434SOL     OW 5200   0.296   0.776   6.249
 1434SOL    HW1 5201   0.321   0.833   6.328
 1434SOL    HW2 5202   0.368   0.710   6.231
 1435SOL     OW 5203   0.007   0.419   2.684
 1435SOL    HW1 5204   6.933   0.414   2.704
 1435SOL    HW2 5205   0.034   0.514   2.675
 1436SOL     OW 5206   5.225   3.840   0.003
 1436SOL    HW1 5207   5.164   3.793   6.964
 1436SOL    HW2 5208   5.220   3.797   0.093
 1437SOL     OW 5209   3.092   1.296   6.228
 1437SOL    HW1 5210   3.020   1.275   6.294
 1437SOL    HW2 5211   3.063   1.268   6.136
 1438SOL     OW 5212   2.412   0.149   1.236
 1438SOL    HW1 5213   2.479   0.137   1.163
 1438SOL    HW2 5214   2.322   0.122   1.203
 1439SOL     OW 5215   0.579   5.098   0.902
 1439SOL    HW1 5216   0.519   5.085   0.824
 1439SOL    HW2 5217   0.671   5.121   0.870
 1440SOL     OW 5218   3.196   2.828   5.789
 1440SOL    HW1 5219   3.130   2.843   5.716
 1440SOL    HW2 5220   3.263   2.760   5.761
 1441SOL     OW 5221   6.324   3.716   4.097
 1441SOL    HW1 5222   6.233   3.735   4.135
 1441SOL    HW2 5223   6.349   3.622   4.118
 1442SOL     OW 5224   6.675   5.168   6.730
 1442SOL    HW1 5225   6.744   5.148   6.799
 1442SOL    HW2 5226   6.620   5.247   6.759
 1443SOL     OW 5227   1.388   2.732   4.844
 1443SOL    HW1 5228   1.433   2.807   4.892
 1443SOL    HW2 5229   1.407   2.646   4.891
 1444SOL     OW 5230   4.356   5.775   1.631
 1444SOL    HW1 5231   4.337   5.823   1.545
 1444SOL    HW2 5232   4.452   5.789   1.656
 1445SOL     OW 5233   6.865   2.891   2.367
 1445SOL    HW1 5234   6.895   2.832   2.442
 1445SOL    HW2 5235   6.820   2.835   2.297
 1446SOL     OW 5236   5.112   1.841   6.514
 1446SOL    HW1 5237   5.071   1.911   6.455
 1446SOL    HW2 5238   5.083   1.750   6.482
 1447SOL     OW 5239   6.275   6.770   5.363
 1447SOL    HW1 5240   6.354   6.722   5.400
 1447SOL    HW2 5241   6.211   6.705   5.324
 1448SOL     OW 5242   6.585   2.554   0.097
 1448SOL    HW1 5243   6.543   2.479   0.046
 1448SOL    HW2 5244   6.585   2.637   0.041
 1449SOL     OW 5245   6.196   0.940   6.971
 1449SOL    HW1 5246   6.110   0.905   7.007
 1449SOL    HW2 5247   6.272   0.886   7.008
 1450SOL     OW 5248   0.927   2.358   2.035
 1450SOL    HW1 5249   0.932   2.324   1.941
 1450SOL    HW2 5250   0.850   2.422   2.043
 1451SOL     OW 5251   2.921   1.126   2.651
 1451SOL    HW1 5252   2.937   1.180   2.733
 1451SOL    HW2 5253   2.992   1.146   2.583
 1452SOL     OW 5254   4.201   1.059   3.936
 1452SOL    HW1 5255   4.138   1.135   3.915
 1452SOL    HW2 5256   4.265   1.047   3.860
 1453SOL     OW 5257   0.244   3.614   5.354
 1453SOL    HW1 5258   0.232   3.653   5.445
 1453SOL    HW2 5259   0.173   3.649   5.293
 1454SOL     OW 5260   6.024   2.360   3.008
 1454SOL    HW1 5261   6.077   2.415   3.072
 1454SOL    HW2 5262   5.931   2.398   3.001
 1455SOL     OW 5263   1.366   0.708   1.215
 1455SOL    HW1 5264   1.352   0.769   1.293
 1455SOL    HW2 5265   1.278   0.684   1.174
 1456SOL     OW 5266   6.358   0.026   5.569
 1456SOL    HW1 5267   6.279   6.993   5.585
 1456SOL    HW2 5268   6.335   0.121   5.589
 1457SOL     OW 5269   1.306   0.123   1.310
 1457SOL    HW1 5270   1.252   0.130   1.226
 1457SOL    HW2 5271   1.398   0.159   1.293
 1458SOL     OW 5272   6.236   6.615   3.351
 1458SOL    HW1 5273   6.226   6.530   3.403
 1458SOL    HW2 5274   6.155   6.628   3.294
 1459SOL     OW 5275   2.097   5.173   5.646
 1459SOL    HW1 5276   2.105   5.077   5.618
 1459SOL    HW2 5277   2.104   5.179   5.746
 1460SOL     OW 5278   0.236   4.997   5.710
 1460SOL    HW1 5279   0.262   4.923   5.648
 1460SOL    HW2 5280   0.304   5.006   5.783
 1461SOL     OW 5281   0.595   5.173   3.459
 1461SOL    HW1 5282   0.680   5.132   3.426
 1461SOL    HW2 5283   0.571   5.252   3.403
 1462SOL     OW 5284   0.691   0.736   5.783
 1462SOL    HW1 5285   0.608   0.787   5.762
 1462SOL    HW2 5286   0.669   0.640   5.795
 1463SOL     OW 5287   0.417   5.299   6.917
 1463SOL    HW1 5288   0.475   5.222   6.943
 1463SOL    HW2 5289   0.402   5.298   6.818
 1464SOL     OW 5290   5.875   6.742   1.076
 1464SOL    HW1 5291   5.926   6.823   1.103
 1464SOL    HW2 5292   5.897   6.718   0.982
 1465SOL     OW 5293   1.636   1.737   4.003
 1465SOL    HW1 5294   1.650   1.640   4.023
 1465SOL    HW2 5295   1.578   1.746   3.922
 1466SOL     OW 5296   1.159   0.946   2.101
 1466SOL    HW1 5297   1.189   0.976   2.011
 1466SOL    HW2 5298   1.212   0.866   2.129
 1467SOL     OW 5299   2.093   1.975   2.043
 1467SOL    HW1 5300   2.143   1.946   1.962
 1467SOL    HW2 5301   2.158   1.992   2.118
 1468SOL     OW 5302   5.316   5.395   2.861
 1468SOL    HW1 5303   5.402   5.444   2.874
 1468SOL    HW2 5304   5.307   5.325   2.931
 1469SOL     OW 5305   0.984   1.234   1.851
 1469SOL    HW1 5306   0.903   1.259   1.798
 1469SOL    HW2 5307   1.066   1.265   1.803
 1470SOL     OW 5308   1.714   1.060   3.101
 1470SOL    HW1 5309   1.670   1.120   3.168
 1470SOL    HW2 5310   1.645   1.025   3.037
 1471SOL     OW 5311   0.909   0.218   0.867
 1471SOL    HW1 5312   0.825   0.269   0.850
 1471SOL    HW2 5313   0.944   0.181   0.781
 1472SOL     OW 5314   3.845   5.676   5.103
 1472SOL    HW1 5315   3.751   5.666   5.134
 1472SOL    HW2 5316   3.867   5.773   5.090
 1473SOL     OW 5317   5.835   5.972   3.345
 1473SOL    HW1 5318   5.797   5.971   3.437
 1473SOL    HW2 5319   5.915   5.912   3.342
 1474SOL     OW 5320   6.042   5.646   3.120
 1474SOL    HW1 5321   6.044   5.547   3.109
 1474SOL    HW2 5322   6.015   5.689   3.033
 1475SOL     OW 5323   6.742   0.411   1.523
 1475SOL    HW1 5324   6.769   0.353   1.600
 1475SOL    HW2 5325   6.672   0.366   1.469
 1476SOL     OW 5326   2.224   1.793   1.473
 1476SOL    HW1 5327   2.138   1.843   1.479
 1476SOL    HW2 5328   2.216   1.706   1.521
 1477SOL     OW 5329   3.086   0.936   6.964
 1477SOL    HW1 5330   2.993   0.922   6.928
 1477SOL    HW2 5331   3.147   0.961   6.888
 1478SOL     OW 5332   5.409   4.863   0.197
 1478SOL    HW1 5333   5.393   4.770   0.164
 1478SOL    HW2 5334   5.449   4.860   0.289
 1479SOL     OW 5335   1.484   3.413   6.842
 1479SOL    HW1 5336   1.448   3.344   6.778
 1479SOL    HW2 5337   1.579   3.391   6.863
 1480SOL     OW 5338   3.163   0.166   6.081
 1480SOL    HW1 5339   3.156   0.098   6.008
 1480SOL    HW2 5340   3.236   0.231   6.058
 1481SOL     OW 5341   0.405   2.178   5.456
 1481SOL    HW1 5342   0.480   2.119   5.424
 1481SOL    HW2 5343   0.419   2.200   5.553
 1482SOL     OW 5344   5.261   2.614   0.683
 1482SOL    HW1 5345   5.255   2.521   0.649
 1482SOL    HW2 5346   5.350   2.627   0.728
 1483SOL     OW 5347   6.005   2.021   6.198
 1483SOL    HW1 5348   6.052   2.031   6.111
 1483SOL    HW2 5349   5.908   2.039   6.187
 1484SOL     OW 5350   5.750   5.199   3.888
 1484SOL    HW1 5351   5.650   5.193   3.882
 1484SOL    HW2 5352   5.787   5.111   3.916
 1485SOL     OW 5353   3.410   1.688   3.293
 1485SOL    HW1 5354   3.400   1.740   3.378
 1485SOL    HW2 5355   3.466   1.607   3.311
 1486SOL     OW 5356   5.226   2.502   3.041
 1486SOL    HW1 5357   5.166   2.424   3.055
 1486SOL    HW2 5358   5.250   2.542   3.130
 1487SOL     OW 5359   6.649   2.983   6.796
 1487SOL    HW1 5360   6.693   2.964   6.884
 1487SOL    HW2 5361   6.700   3.054   6.747
 1488SOL     OW 5362   5.679   1.990   3.957
 1488SOL    HW1 5363   5.705   1.893   3.949
 1488SOL    HW2 5364   5.761   2.044   3.979
 1489SOL     OW 5365   4.348   4.977   3.654
 1489SOL    HW1 5366   4.267   5.029   3.681
 1489SOL    HW2 5367   4.329   4.879   3.661
 1490SOL     OW 5368   1.156   3.019   1.027
 1490SOL    HW1 5369   1.145   2.926   1.061
 1490SOL    HW2 5370   1.082   3.039   0.962
 1491SOL     OW 5371   6.108   3.984   3.882
 1491SOL    HW1 5372   6.038   3.934   3.933
 1491SOL    HW2 5373   6.070   4.072   3.851
 1492SOL     OW 5374   5.845   1.739   2.618
 1492SOL    HW1 5375   5.848   1.686   2.533
 1492SOL    HW2 5376   5.858   1.836   2.597
 1493SOL     OW 5377   4.769   6.933   3.755
 1493SOL    HW1 5378   4.699   6.863   3.767
 1493SOL    HW2 5379   4.775   6.958   3.658
 1494SOL     OW 5380   5.935   1.869   5.463
 1494SOL    HW1 5381   5.914   1.805   5.536
 1494SOL    HW2 5382   5.951   1.960   5.501
 1495SOL     OW 5383   6.746   2.619   4.994
 1495SOL    HW1 5384   6.840   2.639   5.021
 1495SOL    HW2 5385   6.710   2.695   4.939
 1496SOL     OW 5386   0.557   1.509   2.496
 1496SOL    HW1 5387   0.495   1.472   2.428
 1496SOL    HW2 5388   0.639   1.545   2.451
 1497SOL     OW 5389   6.822   2.834   3.853
 1497SOL    HW1 5390   6.906   2.846   3.800
 1497SOL    HW2 5391   6.827   2.748   3.904
 1498SOL     OW 5392   1.991   4.561   6.835
 1498SOL    HW1 5393   2.021   4.466   6.844
 1498SOL    HW2 5394   2.051   4.609   6.771
 1499SOL     OW 5395   1.067   3.443   6.467
 1499SOL    HW1 5396   1.051   3.399   6.379
 1499SOL    HW2 5397   1.110   3.532   6.453
 1500SOL     OW 5398   6.864   6.270   6.962
 1500SOL    HW1 5399   6.930   6.290   0.009
 1500SOL    HW2 5400   6.800   6.347   6.954
 1501SOL     OW 5401   5.257   1.772   5.935
 1501SOL    HW1 5402   5.267   1.757   6.034
 1501SOL    HW2 5403   5.166   1.810   5.916
 1502SOL     OW 5404   5.765   0.455   0.963
 1502SOL    HW1 5405   5.811   0.534   1.004
 1502SOL    HW2 5406   5.818   0.423   0.884
 1503SOL     OW 5407   2.816   1.966   2.275
 1503SOL    HW1 5408   2.760   1.952   2.356
 1503SOL    HW2 5409   2.767   1.931   2.195
 1504SOL     OW 5410   0.833   0.840   5.131
 1504SOL    HW1 5411   0.838   0.931   5.089
 1504SOL    HW2 5412   0.842   0.848   5.230
 1505SOL     OW 5413   6.064   0.419   5.874
 1505SOL    HW1 5414   6.014   0.493   5.829
 1505SOL    HW2 5415   6.157   0.450   5.896
 1506SOL     OW 5416   1.978   5.392   1.339
 1506SOL    HW1 5417   1.979   5.337   1.423
 1506SOL    HW2 5418   2.060   5.373   1.285
 1507SOL     OW 5419   0.835   1.897   5.707
 1507SOL    HW1 5420   0.802   1.958   5.635
 1507SOL    HW2 5421   0.762   1.833   5.733
 1508SOL     OW 5422   6.813   0.473   1.994
 1508SOL    HW1 5423   6.715   0.491   2.007
 1508SOL    HW2 5424   6.824   0.394   1.934
 1509SOL     OW 5425   4.602   2.277   6.162
 1509SOL    HW1 5426   4.568   2.369   6.182
 1509SOL    HW2 5427   4.624   2.270   6.065
 1510SOL     OW 5428   5.777   2.798   4.900
 1510SOL    HW1 5429   5.808   2.765   4.811
 1510SOL    HW2 5430   5.806   2.734   4.972
 1511SOL     OW 5431   3.474   2.908   1.551
 1511SOL    HW1 5432   3.424   2.836   1.503
 1511SOL    HW2 5433   3.517   2.869   1.632
 1512SOL     OW 5434   0.319   5.764   1.538
 1512SOL    HW1 5435   0.260   5.788   1.461
 1512SOL    HW2 5436   0.310   5.666   1.557
 1513SOL     OW 5437   3.208   0.941   3.732
 1513SOL    HW1 5438   3.300   0.901   3.732
 1513SOL    HW2 5439   3.140   0.867   3.734
 1514SOL     OW 5440   5.072   2.367   5.745
 1514SOL    HW1 5441   5.064   2.269   5.764
 1514SOL    HW2 5442   5.164   2.387   5.714
 1515SOL     OW 5443   5.840   3.088   4.897
 1515SOL    HW1 5444   5.842   2.992   4.869
 1515SOL    HW2 5445   5.803   3.095   4.989
 1516SOL     OW 5446   0.391   6.798   0.797
 1516SOL    HW1 5447   0.475   6.768   0.841
 1516SOL    HW2 5448   0.348   6.721   0.750
 1517SOL     OW 5449   3.913   6.002   3.270
 1517SOL    HW1 5450   3.908   6.086   3.322
 1517SOL    HW2 5451   3.843   5.938   3.302
 1518SOL     OW 5452   0.530   2.845   0.499
 1518SOL    HW1 5453   0.440   2.844   0.541
 1518SOL    HW2 5454   0.548   2.756   0.457
 1519SOL     OW 5455   6.398   5.271   2.216
 1519SOL    HW1 5456   6.414   5.213   2.296
 1519SOL    HW2 5457   6.366   5.214   2.139
 1520SOL     OW 5458   0.287   3.831   2.292
 1520SOL    HW1 5459   0.308   3.744   2.335
 1520SOL    HW2 5460   0.243   3.891   2.359
 1521SOL     OW 5461   2.209   4.195   0.328
 1521SOL    HW1 5462   2.257   4.205   0.241
 1521SOL    HW2 5463   2.181   4.100   0.340
 1522SOL     OW 5464   6.626   6.951   4.888
 1522SOL    HW1 5465   6.596   7.001   4.806
 1522SOL    HW2 5466   6.568   6.871   4.902
 1523SOL     OW 5467   4.977   4.142   0.024
 1523SOL    HW1 5468   4.994   4.235   7.016
 1523SOL    HW2 5469   4.984   4.078   6.973
 1524SOL     OW 5470   1.266   2.269   1.708
 1524SOL    HW1 5471   1.234   2.350   1.757
 1524SOL    HW2 5472   1.187   2.213   1.681
 1525SOL     OW 5473   6.588   2.300   0.346
 1525SOL    HW1 5474   6.499   2.341   0.328
 1525SOL    HW2 5475   6.628   2.268   0.260
 1526SOL     OW 5476   0.898   0.334   6.658
 1526SOL    HW1 5477   0.947   0.373   6.580
 1526SOL    HW2 5478   0.799   0.343   6.644
 1527SOL     OW 5479   3.503   0.914   5.767
 1527SOL    HW1 5480   3.582   0.876   5.720
 1527SOL    HW2 5481   3.450   0.971   5.704
 1528SOL     OW 5482   5.265   5.731   2.304
 1528SOL    HW1 5483   5.305   5.654   2.354
 1528SOL    HW2 5484   5.288   5.722   2.207
 1529SOL     OW 5485   4.002   0.071   0.418
 1529SOL    HW1 5486   3.975   7.006   0.454
 1529SOL    HW2 5487   3.930   0.138   0.436
 1530SOL     OW 5488   3.217   1.371   2.874
 1530SOL    HW1 5489   3.210   1.467   2.898
 1530SOL    HW2 5490   3.194   1.315   2.954
 1531SOL     OW 5491   5.335   0.846   4.881
 1531SOL    HW1 5492   5.293   0.867   4.969
 1531SOL    HW2 5493   5.266   0.850   4.809
 1532SOL     OW 5494   2.941   3.841   5.879
 1532SOL    HW1 5495   2.999   3.832   5.798
 1532SOL    HW2 5496   2.865   3.902   5.858
 1533SOL     OW 5497   0.173   3.358   0.211
 1533SOL    HW1 5498   0.106   3.402   0.271
 1533SOL    HW2 5499   0.171   3.401   0.121
 1534SOL     OW 5500   1.595   5.012   6.375
 1534SOL    HW1 5501   1.623   5.048   6.285
 1534SOL    HW2 5502   1.651   5.053   6.446
 1535SOL     OW 5503   5.164   5.986   4.393
 1535SOL    HW1 5504   5.250   5.965   4.439
 1535SOL    HW2 5505   5.112   6.051   4.449
 1536SOL     OW 5506   4.035   4.435   5.356
 1536SOL    HW1 5507   3.957   4.491   5.329
 1536SOL    HW2 5508   4.080   4.399   5.274
 1537SOL     OW 5509   3.729   6.513   3.141
 1537SOL    HW1 5510   3.635   6.525   3.107
 1537SOL    HW2 5511   3.773   6.439   3.090
 1538SOL     OW 5512   3.450   5.552   5.954
 1538SOL    HW1 5513   3.384   5.537   5.880
 1538SOL    HW2 5514   3.461   5.651   5.969
 1539SOL     OW 5515   4.042   3.925   1.868
 1539SOL    HW1 5516   4.010   3.933   1.963
 1539SOL    HW2 5517   4.059   3.829   1.846
 1540SOL     OW 5518   1.230   6.908   5.729
 1540SOL    HW1 5519   1.136   6.905   5.696
 1540SOL    HW2 5520   1.292   6.932   5.654
 1541SOL     OW 5521   3.705   2.897   2.280
 1541SOL    HW1 5522   3.745   2.807   2.261
 1541SOL    HW2 5523   3.656   2.894   2.367
 1542SOL     OW 5524   6.672   6.409   1.638
 1542SOL    HW1 5525   6.762   6.435   1.673
 1542SOL    HW2 5526   6.645   6.321   1.676
 1543SOL     OW 5527   3.070   3.754   3.911
 1543SOL    HW1 5528   3.043   3.811   3.988
 1543SOL    HW2 5529   2.993   3.697   3.882
 1544SOL     OW 5530   3.280   3.514   2.048
 1544SOL    HW1 5531   3.331   3.434   2.080
 1544SOL    HW2 5532   3.182   3.496   2.056
 1545SOL     OW 5533   5.144   0.723   4.680
 1545SOL    HW1 5534   5.221   0.699   4.621
 1545SOL    HW2 5535   5.072   0.654   4.671
 1546SOL     OW 5536   4.792   6.772   6.022
 1546SOL    HW1 5537   4.804   6.708   5.946
 1546SOL    HW2 5538   4.836   6.734   6.104
 1547SOL     OW 5539   1.840   3.999   3.059
 1547SOL    HW1 5540   1.858   3.954   3.147
 1547SOL    HW2 5541   1.814   3.930   2.991
 1548SOL     OW 5542   4.497   4.047   6.064
 1548SOL    HW1 5543   4.550   4.043   6.149
 1548SOL    HW2 5544   4.539   4.112   6.001
 1549SOL     OW 5545   4.284   1.501   2.627
 1549SOL    HW1 5546   4.293   1.460   2.536
 1549SOL    HW2 5547   4.188   1.523   2.644
 1550SOL     OW 5548   2.956   5.032   6.651
 1550SOL    HW1 5549   2.956   4.951   6.593
 1550SOL    HW2 5550   3.035   5.089   6.629
 1551SOL     OW 5551   2.682   3.609   0.154
 1551SOL    HW1 5552   2.636   3.529   0.193
 1551SOL    HW2 5553   2.760   3.579   0.099
 1552SOL     OW 5554   0.450   0.150   1.284
 1552SOL    HW1 5555   0.471   0.121   1.191
 1552SOL    HW2 5556   0.383   0.087   1.324
 1553SOL     OW 5557   6.882   0.420   5.714
 1553SOL    HW1 5558   6.970   0.465   5.729
 1553SOL    HW2 5559   6.881   0.378   5.623
 1554SOL     OW 5560   3.907   2.133   3.589
 1554SOL    HW1 5561   3.976   2.129   3.661
 1554SOL    HW2 5562   3.823   2.175   3.624
 1555SOL     OW 5563   5.241   1.992   6.191
 1555SOL    HW1 5564   5.256   2.081   6.147
 1555SOL    HW2 5565   5.174   2.004   6.265
 1556SOL     OW 5566   3.894   0.916   0.353
 1556SOL    HW1 5567   3.950   0.968   0.418
 1556SOL    HW2 5568   3.846   0.843   0.402
 1557SOL     OW 5569   1.985   1.509   6.715
 1557SOL    HW1 5570   1.964   1.473   6.806
 1557SOL    HW2 5571   1.902   1.544   6.673
 1558SOL     OW 5572   5.383   1.262   4.191
 1558SOL    HW1 5573   5.373   1.181   4.133
 1558SOL    HW2 5574   5.368   1.236   4.287
 1559SOL     OW 5575   0.201   2.460   6.997
 1559SOL    HW1 5576   0.210   2.556   6.972
 1559SOL    HW2 5577   0.160   2.452   0.063
 1560SOL     OW 5578   3.228   1.126   6.513
 1560SOL    HW1 5579   3.134   1.148   6.488
 1560SOL    HW2 5580   3.270   1.072   6.440
 1561SOL     OW 5581   6.125   6.571   2.689
 1561SOL    HW1 5582   6.159   6.477   2.685
 1561SOL    HW2 5583   6.189   6.632   2.643
 1562SOL     OW 5584   4.239   6.311   1.422
 1562SOL    HW1 5585   4.306   6.337   1.492
 1562SOL    HW2 5586   4.274   6.337   1.331
 1563SOL     OW 5587   2.449   1.056   5.881
 1563SOL    HW1 5588   2.376   1.087   5.820
 1563SOL    HW2 5589   2.537   1.093   5.849
 1564SOL     OW 5590   1.267   2.143   2.363
 1564SOL    HW1 5591   1.173   2.159   2.391
 1564SOL    HW2 5592   1.330   2.188   2.427
 1565SOL     OW 5593   4.048   5.649   4.233
 1565SOL    HW1 5594   4.001   5.622   4.318
 1565SOL    HW2 5595   4.083   5.568   4.187
 1566SOL     OW 5596   5.952   4.748   4.875
 1566SOL    HW1 5597   5.875   4.761   4.812
 1566SOL    HW2 5598   5.949   4.655   4.913
 1567SOL     OW 5599   6.514   5.956   0.075
 1567SOL    HW1 5600   6.530   5.922   7.007
 1567SOL    HW2 5601   6.558   6.046   0.085
 1568SOL     OW 5602   1.671   6.780   1.784
 1568SOL    HW1 5603   1.706   6.723   1.859
 1568SOL    HW2 5604   1.594   6.734   1.740
 1569SOL     OW 5605   2.937   6.754   3.686
 1569SOL    HW1 5606   2.894   6.675   3.730
 1569SOL    HW2 5607   2.892   6.837   3.717
 1570SOL     OW 5608   2.336   6.697   0.374
 1570SOL    HW1 5609   2.386   6.613   0.351
 1570SOL    HW2 5610   2.354   6.722   0.469
 1571SOL     OW 5611   6.395   1.721   3.100
 1571SOL    HW1 5612   6.400   1.761   3.191
 1571SOL    HW2 5613   6.332   1.643   3.101
 1572SOL     OW 5614   1.872   6.081   0.697
 1572SOL    HW1 5615   1.841   6.124   0.782
 1572SOL    HW2 5616   1.972   6.087   0.691
 1573SOL     OW 5617   6.249   3.837   1.584
 1573SOL    HW1 5618   6.297   3.846   1.497
 1573SOL    HW2 5619   6.169   3.778   1.571
 1574SOL     OW 5620   6.525   1.884   3.973
 1574SOL    HW1 5621   6.583   1.959   4.003
 1574SOL    HW2 5622   6.559   1.798   4.011
 1575SOL     OW 5623   2.370   1.937   1.279
 1575SOL    HW1 5624   2.323   1.869   1.336
 1575SOL    HW2 5625   2.311   1.960   1.201
 1576SOL     OW 5626   1.112   0.503   3.143
 1576SOL    HW1 5627   1.026   0.490   3.192
 1576SOL    HW2 5628   1.181   0.539   3.205
 1577SOL     OW 5629   2.467   0.556   5.750
 1577SOL    HW1 5630   2.445   0.471   5.798
 1577SOL    HW2 5631   2.442   0.634   5.807
 1578SOL     OW 5632   5.257   1.649   5.668
 1578SOL    HW1 5633   5.302   1.560   5.659
 1578SOL    HW2 5634   5.250   1.674   5.765
 1579SOL     OW 5635   6.992   1.987   1.975
 1579SOL    HW1 5636   0.034   1.921   2.007
 1579SOL    HW2 5637   6.923   1.941   1.919
 1580SOL     OW 5638   3.623   4.171   4.081
 1580SOL    HW1 5639   3.570   4.128   4.008
 1580SOL    HW2 5640   3.563   4.229   4.136
 1581SOL     OW 5641   6.205   4.870   4.814
 1581SOL    HW1 5642   6.245   4.817   4.740
 1581SOL    HW2 5643   6.114   4.833   4.837
 1582SOL     OW 5644   1.772   6.546   4.678
 1582SOL    HW1 5645   1.749   6.449   4.674
 1582SOL    HW2 5646   1.850   6.564   4.618
 1583SOL     OW 5647   0.383   6.225   3.220
 1583SOL    HW1 5648   0.480   6.213   3.202
 1583SOL    HW2 5649   0.361   6.322   3.224
 1584SOL     OW 5650   0.704   5.722   5.683
 1584SOL    HW1 5651   0.750   5.735   5.595
 1584SOL    HW2 5652   0.612   5.760   5.679
 1585SOL     OW 5653   4.268   2.018   3.327
 1585SOL    HW1 5654   4.184   1.971   3.300
 1585SOL    HW2 5655   4.296   2.080   3.253
 1586SOL     OW 5656   3.320   4.913   2.192
 1586SOL    HW1 5657   3.248   4.919   2.122
 1586SOL    HW2 5658   3.281   4.877   2.277
 1587SOL     OW 5659   2.415   5.608   5.819
 1587SOL    HW1 5660   2.488   5.599   5.752
 1587SOL    HW2 5661   2.385   5.704   5.823
 1588SOL     OW 5662   4.216   0.894   2.318
 1588SOL    HW1 5663   4.269   0.910   2.235
 1588SOL    HW2 5664   4.158   0.814   2.306
 1589SOL     OW 5665   6.813   3.009   2.009
 1589SOL    HW1 5666   6.850   2.948   1.939
 1589SOL    HW2 5667   6.888   3.043   2.067
 1590SOL     OW 5668   4.250   0.158   4.454
 1590SOL    HW1 5669   4.336   0.202   4.480
 1590SOL    HW2 5670   4.264   0.100   4.375
 1591SOL     OW 5671   6.963   5.517   1.376
 1591SOL    HW1 5672   6.981   5.422   1.398
 1591SOL    HW2 5673   6.991   5.537   1.282
 1592SOL     OW 5674   2.447   3.979   6.866
 1592SOL    HW1 5675   2.478   3.906   6.926
 1592SOL    HW2 5676   2.522   4.042   6.848
 1593SOL     OW 5677   0.811   6.921   5.745
 1593SOL    HW1 5678   0.808   6.822   5.752
 1593SOL    HW2 5679   0.862   6.948   5.663
 1594SOL     OW 5680   1.207   6.620   1.459
 1594SOL    HW1 5681   1.184   6.687   1.529
 1594SOL    HW2 5682   1.200   6.528   1.498
 1595SOL     OW 5683   1.023   5.258   0.440
 1595SOL    HW1 5684   1.040   5.248   0.538
 1595SOL    HW2 5685   0.926   5.241   0.421
 1596SOL     OW 5686   0.381   3.023   3.857
 1596SOL    HW1 5687   0.285   2.998   3.869
 1596SOL    HW2 5688   0.416   3.064   3.941
 1597SOL     OW 5689   1.202   6.281   0.381
 1597SOL    HW1 5690   1.108   6.308   0.405
 1597SOL    HW2 5691   1.202   6.187   0.347
 1598SOL     OW 5692   6.885   4.546   5.812
 1598SOL    HW1 5693   6.870   4.638   5.848
 1598SOL    HW2 5694   6.973   4.511   5.845
 1599SOL     OW 5695   4.762   5.731   4.735
 1599SOL    HW1 5696   4.705   5.682   4.670
 1599SOL    HW2 5697   4.708   5.755   4.816
 1600SOL     OW 5698   3.652   1.168   3.479
 1600SOL    HW1 5699   3.573   1.120   3.443
 1600SOL    HW2 5700   3.642   1.181   3.578
 1601SOL     OW 5701   6.856   6.381   4.134
 1601SOL    HW1 5702   6.780   6.362   4.071
 1601SOL    HW2 5703   6.929   6.314   4.120
 1602SOL     OW 5704   4.098   5.099   3.752
 1602SOL    HW1 5705   4.158   5.094   3.832
 1602SOL    HW2 5706   4.038   5.019   3.751
 1603SOL     OW 5707   1.518   6.746   2.916
 1603SOL    HW1 5708   1.420   6.748   2.938
 1603SOL    HW2 5709   1.531   6.710   2.824
 1604SOL     OW 5710   5.210   4.357   1.087
 1604SOL    HW1 5711   5.230   4.413   1.168
 1604SOL    HW2 5712   5.286   4.293   1.072
 1605SOL     OW 5713   6.676   5.510   1.766
 1605SOL    HW1 5714   6.635   5.494   1.676
 1605SOL    HW2 5715   6.611   5.560   1.823
 1606SOL     OW 5716   3.815   6.803   5.860
 1606SOL    HW1 5717   3.719   6.782   5.878
 1606SOL    HW2 5718   3.861   6.723   5.822
 1607SOL     OW 5719   4.292   0.792   0.653
 1607SOL    HW1 5720   4.388   0.808   0.633
 1607SOL    HW2 5721   4.239   0.797   0.568
 1608SOL     OW 5722   0.313   1.042   3.909
 1608SOL    HW1 5723   0.256   1.043   3.990
 1608SOL    HW2 5724   0.407   1.064   3.933
 1609SOL     OW 5725   4.661   0.104   0.232
 1609SOL    HW1 5726   4.574   0.054   0.239
 1609SOL    HW2 5727   4.733   0.051   0.276
 1610SOL     OW 5728   6.005   4.823   6.973
 1610SOL    HW1 5729   6.048   4.873   6.898
 1610SOL    HW2 5730   5.945   4.884   0.000
 1611SOL     OW 5731   2.641   3.804   0.332
 1611SOL    HW1 5732   2.665   3.748   0.253
 1611SOL    HW2 5733   2.716   3.804   0.398
 1612SOL     OW 5734   2.640   0.284   0.382
 1612SOL    HW1 5735   2.721   0.230   0.402
 1612SOL    HW2 5736   2.656   0.379   0.409
 1613SOL     OW 5737   1.753   6.062   2.261
 1613SOL    HW1 5738   1.830   6.051   2.198
 1613SOL    HW2 5739   1.702   5.976   2.265
 1614SOL     OW 5740   5.325   2.230   6.097
 1614SOL    HW1 5741   5.375   2.277   6.024
 1614SOL    HW2 5742   5.332   2.283   6.181
 1615SOL     OW 5743   6.234   5.608   0.556
 1615SOL    HW1 5744   6.329   5.612   0.523
 1615SOL    HW2 5745   6.172   5.631   0.481
 1616SOL     OW 5746   3.885   0.913   5.175
 1616SOL    HW1 5747   3.839   0.941   5.260
 1616SOL    HW2 5748   3.859   0.976   5.102
 1617SOL     OW 5749   5.297   0.005   2.917
 1617SOL    HW1 5750   5.233   6.980   2.858
 1617SOL    HW2 5751   5.278   0.103   2.912
 1618SOL     OW 5752   1.238   5.692   2.644
 1618SOL    HW1 5753   1.299   5.759   2.602
 1618SOL    HW2 5754   1.267   5.674   2.738
 1619SOL     OW 5755   0.673   4.111   1.624
 1619SOL    HW1 5756   0.749   4.161   1.581
 1619SOL    HW2 5757   0.588   4.130   1.575
 1620SOL     OW 5758   2.756   4.379   1.622
 1620SOL    HW1 5759   2.663   4.390   1.658
 1620SOL    HW2 5760   2.821   4.412   1.690
 1621SOL     OW 5761   6.392   1.082   0.585
 1621SOL    HW1 5762   6.463   1.144   0.619
 1621SOL    HW2 5763   6.433   0.995   0.558
 1622SOL     OW 5764   0.492   3.528   5.270
 1622SOL    HW1 5765   0.556   3.585   5.322
 1622SOL    HW2 5766   0.399   3.562   5.283
 1623SOL     OW 5767   1.760   2.989   4.633
 1623SOL    HW1 5768   1.825   3.045   4.684
 1623SOL    HW2 5769   1.742   2.904   4.682
 1624SOL     OW 5770   3.561   1.776   4.903
 1624SOL    HW1 5771   3.553   1.745   4.998
 1624SOL    HW2 5772   3.648   1.826   4.892
 1625SOL     OW 5773   1.030   4.517   0.489
 1625SOL    HW1 5774   1.121   4.507   0.449
 1625SOL    HW2 5775   0.974   4.575   0.431
 1626SOL     OW 5776   4.007   1.101   0.535
 1626SOL    HW1 5777   3.978   1.189   0.573
 1626SOL    HW2 5778   4.103   1.085   0.557
 1627SOL     OW 5779   6.166   2.898   3.610
 1627SOL    HW1 5780   6.134   2.807   3.585
 1627SOL    HW2 5781   6.106   2.967   3.570
 1628SOL     OW 5782   4.763   4.792   0.640
 1628SOL    HW1 5783   4.772   4.792   0.739
 1628SOL    HW2 5784   4.844   4.749   0.599
 1629SOL     OW 5785   2.968   1.158   3.792
 1629SOL    HW1 5786   3.013   1.182   3.706
 1629SOL    HW2 5787   3.036   1.153   3.865
 1630SOL     OW 5788   1.124   4.953   6.167
 1630SOL    HW1 5789   1.108   4.984   6.073
 1630SOL    HW2 5790   1.211   4.904   6.172
 1631SOL     OW 5791   0.809   2.910   0.493
 1631SOL    HW1 5792   0.826   2.966   0.411
 1631SOL    HW2 5793   0.710   2.904   0.508
 1632SOL     OW 5794   5.692   1.985   1.133
 1632SOL    HW1 5795   5.708   1.942   1.044
 1632SOL    HW2 5796   5.749   1.940   1.202
 1633SOL     OW 5797   5.561   4.044   4.618
 1633SOL    HW1 5798   5.612   4.116   4.571
 1633SOL    HW2 5799   5.564   3.961   4.563
 1634SOL     OW 5800   4.216   5.393   4.178
 1634SOL    HW1 5801   4.303   5.384   4.129
 1634SOL    HW2 5802   4.142   5.357   4.122
 1635SOL     OW 5803   0.317   4.967   6.673
 1635SOL    HW1 5804   0.379   5.045   6.667
 1635SOL    HW2 5805   0.289   4.939   6.581
 1636SOL     OW 5806   3.198   4.502   1.185
 1636SOL    HW1 5807   3.174   4.551   1.270
 1636SOL    HW2 5808   3.123   4.441   1.160
 1637SOL     OW 5809   6.870   0.704   2.944
 1637SOL    HW1 5810   6.807   0.780   2.958
 1637SOL    HW2 5811   6.938   0.702   3.018
 1638SOL     OW 5812   0.001   4.458   3.257
 1638SOL    HW1 5813   0.034   4.485   3.167
 1638SOL    HW2 5814   0.077   4.459   3.322
 1639SOL     OW 5815   5.508   6.153   1.587
 1639SOL    HW1 5816   5.505   6.243   1.631
 1639SOL    HW2 5817   5.554   6.088   1.647
 1640SOL     OW 5818   6.031   0.306   6.718
 1640SOL    HW1 5819   6.119   0.326   6.675
 1640SOL    HW2 5820   5.977   0.390   6.723
 1641SOL     OW 5821   4.556   2.002   2.915
 1641SOL    HW1 5822   4.485   2.038   2.976
 1641SOL    HW2 5823   4.537   1.906   2.895
 1642SOL     OW 5824   0.207   3.462   6.979
 1642SOL    HW1 5825   0.298   3.429   6.954
 1642SOL    HW2 5826   0.169   3.517   6.904
 1643SOL     OW 5827   2.381   5.017   4.537
 1643SOL    HW1 5828   2.459   5.004   4.476
 1643SOL    HW2 5829   2.411   5.065   4.619
 1644SOL     OW 5830   5.833   4.052   6.478
 1644SOL    HW1 5831   5.746   4.100   6.484
 1644SOL    HW2 5832   5.821   3.957   6.507
 1645SOL     OW 5833   3.668   5.162   6.705
 1645SOL    HW1 5834   3.682   5.254   6.668
 1645SOL    HW2 5835   3.612   5.108   6.642
 1646SOL     OW 5836   2.853   6.757   0.263
 1646SOL    HW1 5837   2.824   6.695   0.335
 1646SOL    HW2 5838   2.940   6.727   0.225
 1647SOL     OW 5839   6.296   3.447   4.522
 1647SOL    HW1 5840   6.330   3.465   4.614
 1647SOL    HW2 5841   6.316   3.352   4.497
 1648SOL     OW 5842   5.668   5.641   0.497
 1648SOL    HW1 5843   5.726   5.577   0.446
 1648SOL    HW2 5844   5.665   5.612   0.593
 1649SOL     OW 5845   3.612   1.636   3.605
 1649SOL    HW1 5846   3.520   1.598   3.607
 1649SOL    HW2 5847   3.646   1.635   3.511
 1650SOL     OW 5848   1.019   6.044   5.311
 1650SOL    HW1 5849   1.054   6.049   5.404
 1650SOL    HW2 5850   1.085   6.083   5.248
 1651SOL     OW 5851   0.289   1.994   1.843
 1651SOL    HW1 5852   0.284   2.079   1.791
 1651SOL    HW2 5853   0.294   1.916   1.780
 1652SOL     OW 5854   1.149   3.077   2.901
 1652SOL    HW1 5855   1.224   3.136   2.932
 1652SOL    HW2 5856   1.109   3.116   2.818
 1653SOL     OW 5857   0.907   0.036   6.954
 1653SOL    HW1 5858   0.962   0.081   0.001
 1653SOL    HW2 5859   0.938   0.067   6.864
 1654SOL     OW 5860   6.992   3.512   1.919
 1654SOL    HW1 5861   0.029   3.458   1.978
 1654SOL    HW2 5862   0.015   3.594   1.888
 1655SOL     OW 5863   0.535   1.970   4.958
 1655SOL    HW1 5864   0.471   1.959   5.034
 1655SOL    HW2 5865   0.602   2.041   4.981
 1656SOL     OW 5866   2.194   4.387   2.709
 1656SOL    HW1 5867   2.127   4.345   2.649
 1656SOL    HW2 5868   2.226   4.321   2.777
 1657SOL     OW 5869   0.004   0.939   4.361
 1657SOL    HW1 5870   0.049   0.871   4.303
 1657SOL    HW2 5871   0.062   0.960   4.439
 1658SOL     OW 5872   6.784   6.961   1.480
 1658SOL    HW1 5873   6.716   7.017   1.527
 1658SOL    HW2 5874   6.745   6.871   1.459
 1659SOL     OW 5875   3.547   6.857   0.048
 1659SOL    HW1 5876   3.629   6.824   0.094
 1659SOL    HW2 5877   3.573   6.917   6.997
 1660SOL     OW 5878   1.599   5.658   2.475
 1660SOL    HW1 5879   1.580   5.749   2.512
 1660SOL    HW2 5880   1.696   5.651   2.452
 1661SOL     OW 5881   2.754   6.434   1.194
 1661SOL    HW1 5882   2.671   6.379   1.200
 1661SOL    HW2 5883   2.771   6.458   1.099
 1662SOL     OW 5884   0.659   0.633   4.228
 1662SOL    HW1 5885   0.691   0.567   4.296
 1662SOL    HW2 5886   0.565   0.610   4.202
 1663SOL     OW 5887   4.171   6.179   3.359
 1663SOL    HW1 5888   4.101   6.166   3.429
 1663SOL    HW2 5889   4.165   6.105   3.292
 1664SOL     OW 5890   1.949   6.265   4.912
 1664SOL    HW1 5891   1.919   6.203   4.839
 1664SOL    HW2 5892   1.897   6.246   4.995
 1665SOL     OW 5893   6.839   2.533   2.682
 1665SOL    HW1 5894   6.891   2.489   2.755
 1665SOL    HW2 5895   6.794   2.464   2.626
 1666SOL     OW 5896   5.568   1.868   6.171
 1666SOL    HW1 5897   5.549   1.812   6.252
 1666SOL    HW2 5898   5.486   1.920   6.146
 1667SOL     OW 5899   0.298   6.518   0.716
 1667SOL    HW1 5900   0.351   6.435   0.701
 1667SOL    HW2 5901   0.240   6.506   0.797
 1668SOL     OW 5902   5.017   6.382   3.825
 1668SOL    HW1 5903   5.087   6.420   3.764
 1668SOL    HW2 5904   5.025   6.424   3.915
 1669SOL     OW 5905   6.529   4.883   6.734
 1669SOL    HW1 5906   6.587   4.923   6.663
 1669SOL    HW2 5907   6.481   4.957   6.783
 1670SOL     OW 5908   0.543   3.710   6.056
 1670SOL    HW1 5909   0.460   3.747   6.015
 1670SOL    HW2 5910   0.613   3.781   6.060
 1671SOL     OW 5911   5.690   1.342   3.011
 1671SOL    HW1 5912   5.670   1.258   3.061
 1671SOL    HW2 5913   5.615   1.407   3.024
 1672SOL     OW 5914   1.372   2.953   0.876
 1672SOL    HW1 5915   1.335   2.925   0.788
 1672SOL    HW2 5916   1.297   2.972   0.939
 1673SOL     OW 5917   1.201   1.377   4.943
 1673SOL    HW1 5918   1.136   1.333   4.880
 1673SOL    HW2 5919   1.193   1.477   4.934
 1674SOL     OW 5920   0.749   3.067   2.337
 1674SOL    HW1 5921   0.729   3.071   2.435
 1674SOL    HW2 5922   0.816   2.995   2.320
 1675SOL     OW 5923   5.219   6.787   0.287
 1675SOL    HW1 5924   5.310   6.747   0.286
 1675SOL    HW2 5925   5.212   6.858   0.217
 1676SOL     OW 5926   2.298   2.644   1.506
 1676SOL    HW1 5927   2.307   2.578   1.581
 1676SOL    HW2 5928   2.238   2.719   1.534
 1677SOL     OW 5929   3.441   3.408   4.029
 1677SOL    HW1 5930   3.407   3.317   4.055
 1677SOL    HW2 5931   3.475   3.455   4.110
 1678SOL     OW 5932   5.753   4.342   3.471
 1678SOL    HW1 5933   5.765   4.358   3.569
 1678SOL    HW2 5934   5.711   4.423   3.429
 1679SOL     OW 5935   2.389   2.710   4.369
 1679SOL    HW1 5936   2.426   2.700   4.461
 1679SOL    HW2 5937   2.392   2.622   4.322
 1680SOL     OW 5938   0.119   2.894   5.326
 1680SOL    HW1 5939   0.168   2.920   5.243
 1680SOL    HW2 5940   0.180   2.900   5.404
 1681SOL     OW 5941   0.114   5.318   6.643
 1681SOL    HW1 5942   0.047   5.350   6.711
 1681SOL    HW2 5943   0.065   5.278   6.565
 1682SOL     OW 5944   1.921   0.383   5.408
 1682SOL    HW1 5945   1.932   0.451   5.335
 1682SOL    HW2 5946   1.866   0.307   5.374
 1683SOL     OW 5947   4.465   4.767   2.024
 1683SOL    HW1 5948   4.453   4.752   2.122
 1683SOL    HW2 5949   4.406   4.842   1.994
 1684SOL     OW 5950   1.237   6.505   2.416
 1684SOL    HW1 5951   1.172   6.432   2.440
 1684SOL    HW2 5952   1.254   6.503   2.318
 1685SOL     OW 5953   2.464   1.114   4.762
 1685SOL    HW1 5954   2.406   1.154   4.834
 1685SOL    HW2 5955   2.553   1.089   4.800
 1686SOL     OW 5956   2.269   5.889   4.313
 1686SOL    HW1 5957   2.185   5.939   4.291
 1686SOL    HW2 5958   2.348   5.951   4.305
 1687SOL     OW 5959   1.989   3.064   1.996
 1687SOL    HW1 5960   2.024   3.156   1.979
 1687SOL    HW2 5961   1.965   3.020   1.909
 1688SOL     OW 5962   2.425   2.454   4.294
 1688SOL    HW1 5963   2.482   2.423   4.218
 1688SOL    HW2 5964   2.329   2.448   4.267
 1689SOL     OW 5965   6.158   1.204   2.773
 1689SOL    HW1 5966   6.201   1.287   2.809
 1689SOL    HW2 5967   6.143   1.139   2.847
 1690SOL     OW 5968   1.267   3.026   4.323
 1690SOL    HW1 5969   1.299   3.112   4.285
 1690SOL    HW2 5970   1.280   3.026   4.423
 1691SOL     OW 5971   5.518   3.825   3.696
 1691SOL    HW1 5972   5.498   3.809   3.599
 1691SOL    HW2 5973   5.600   3.776   3.722
 1692SOL     OW 5974   5.242   6.433   1.389
 1692SOL    HW1 5975   5.256   6.486   1.472
 1692SOL    HW2 5976   5.310   6.360   1.385
 1693SOL     OW 5977   6.613   1.987   2.256
 1693SOL    HW1 5978   6.560   2.055   2.308
 1693SOL    HW2 5979   6.707   2.019   2.248
 1694SOL     OW 5980   5.608   1.343   2.724
 1694SOL    HW1 5981   5.691   1.372   2.675
 1694SOL    HW2 5982   5.616   1.367   2.820
 1695SOL     OW 5983   3.948   0.662   6.533
 1695SOL    HW1 5984   3.915   0.568   6.526
 1695SOL    HW2 5985   4.048   0.662   6.540
 1696SOL     OW 5986   4.150   5.806   0.785
 1696SOL    HW1 5987   4.146   5.901   0.816
 1696SOL    HW2 5988   4.057   5.769   0.781
 1697SOL     OW 5989   6.117   0.924   0.318
 1697SOL    HW1 5990   6.073   0.851   0.370
 1697SOL    HW2 5991   6.047   0.990   0.289
 1698SOL     OW 5992   3.328   0.317   0.054
 1698SOL    HW1 5993   3.388   0.366   0.117
 1698SOL    HW2 5994   3.258   0.380   0.018
 1699SOL     OW 5995   2.606   1.270   6.683
 1699SOL    HW1 5996   2.683   1.331   6.663
 1699SOL    HW2 5997   2.582   1.219   6.601
 1700SOL     OW 5998   6.150   3.947   3.533
 1700SOL    HW1 5999   6.232   3.922   3.583
 1700SOL    HW2 6000   6.076   3.884   3.556
 1701SOL     OW 6001   5.088   4.420   5.543
 1701SOL    HW1 6002   5.109   4.324   5.560
 1701SOL    HW2 6003   5.165   4.477   5.572
 1702SOL     OW 6004   6.153   1.398   0.331
 1702SOL    HW1 6005   6.226   1.334   0.308
 1702SOL    HW2 6006   6.126   1.385   0.426
 1703SOL     OW 6007   3.517   2.557   0.878
 1703SOL    HW1 6008   3.470   2.634   0.835
 1703SOL    HW2 6009   3.614   2.578   0.889
 1704SOL     OW 6010   1.214   1.710   1.353
 1704SOL    HW1 6011   1.214   1.689   1.450
 1704SOL    HW2 6012   1.121   1.726   1.322
 1705SOL     OW 6013   2.955   2.162   2.554
 1705SOL    HW1 6014   2.927   2.203   2.467
 1705SOL    HW2 6015   2.895   2.195   2.627
 1706SOL     OW 6016   5.010   0.942   2.251
 1706SOL    HW1 6017   4.972   0.854   2.224
 1706SOL    HW2 6018   5.067   0.978   2.178
 1707SOL     OW 6019   5.113   2.316   1.532
 1707SOL    HW1 6020   5.123   2.296   1.435
 1707SOL    HW2 6021   5.191   2.279   1.582
 1708SOL     OW 6022   4.878   5.567   2.153
 1708SOL    HW1 6023   4.905   5.590   2.246
 1708SOL    HW2 6024   4.842   5.649   2.107
 1709SOL     OW 6025   2.975   6.074   2.196
 1709SOL    HW1 6026   2.983   6.110   2.103
 1709SOL    HW2 6027   3.007   6.142   2.261
 1710SOL     OW 6028   4.926   4.591   3.878
 1710SOL    HW1 6029   5.004   4.565   3.934
 1710SOL    HW2 6030   4.855   4.522   3.885
 1711SOL     OW 6031   1.476   4.230   4.397
 1711SOL    HW1 6032   1.527   4.315   4.388
 1711SOL    HW2 6033   1.534   4.153   4.369
 1712SOL     OW 6034   6.575   2.153   5.056
 1712SOL    HW1 6035   6.516   2.080   5.090
 1712SOL    HW2 6036   6.619   2.125   4.971
 1713SOL     OW 6037   5.044   2.392   2.008
 1713SOL    HW1 6038   5.017   2.487   2.020
 1713SOL    HW2 6039   4.991   2.334   2.070
 1714SOL     OW 6040   3.344   1.060   5.582
 1714SOL    HW1 6041   3.410   1.091   5.513
 1714SOL    HW2 6042   3.291   0.984   5.545
 1715SOL     OW 6043   1.358   5.367   2.816
 1715SOL    HW1 6044   1.420   5.343   2.891
 1715SOL    HW2 6045   1.411   5.397   2.737
 1716SOL     OW 6046   4.983   0.252   2.771
 1716SOL    HW1 6047   4.936   0.335   2.799
 1716SOL    HW2 6048   5.048   0.224   2.841
 1717SOL     OW 6049   2.748   5.990   5.651
 1717SOL    HW1 6050   2.728   5.981   5.748
 1717SOL    HW2 6051   2.790   5.906   5.617
 1718SOL     OW 6052   2.615   1.465   1.802
 1718SOL    HW1 6053   2.550   1.452   1.727
 1718SOL    HW2 6054   2.663   1.379   1.820
 1719SOL     OW 6055   1.952   2.979   1.377
 1719SOL    HW1 6056   2.037   2.985   1.325
 1719SOL    HW2 6057   1.875   2.975   1.314
 1720SOL     OW 6058   0.146   3.033   0.181
 1720SOL    HW1 6059   0.202   3.068   0.256
 1720SOL    HW2 6060   0.153   2.933   0.177
 1721SOL     OW 6061   2.126   6.987   1.743
 1721SOL    HW1 6062   2.220   6.952   1.747
 1721SOL    HW2 6063   2.104   0.007   1.830
 1722SOL     OW 6064   3.389   1.257   3.415
 1722SOL    HW1 6065   3.304   1.297   3.380
 1722SOL    HW2 6066   3.376   1.160   3.432
 1723SOL     OW 6067   5.809   2.382   1.478
 1723SOL    HW1 6068   5.754   2.452   1.433
 1723SOL    HW2 6069   5.762   2.293   1.470
 1724SOL     OW 6070   6.536   2.862   2.377
 1724SOL    HW1 6071   6.602   2.868   2.452
 1724SOL    HW2 6072   6.462   2.928   2.393
 1725SOL     OW 6073   2.271   4.824   6.270
 1725SOL    HW1 6074   2.239   4.746   6.323
 1725SOL    HW2 6075   2.270   4.906   6.327
 1726SOL     OW 6076   6.416   4.449   5.551
 1726SOL    HW1 6077   6.414   4.397   5.465
 1726SOL    HW2 6078   6.349   4.522   5.547
 1727SOL     OW 6079   3.249   2.937   3.554
 1727SOL    HW1 6080   3.257   3.013   3.490
 1727SOL    HW2 6081   3.243   2.972   3.647
 1728SOL     OW 6082   5.336   5.034   5.174
 1728SOL    HW1 6083   5.337   5.047   5.075
 1728SOL    HW2 6084   5.304   5.118   5.218
 1729SOL     OW 6085   2.109   4.387   3.367
 1729SOL    HW1 6086   2.085   4.364   3.462
 1729SOL    HW2 6087   2.037   4.445   3.328
 1730SOL     OW 6088   1.399   7.010   5.518
 1730SOL    HW1 6089   1.320   0.020   5.468
 1730SOL    HW2 6090   1.447   6.942   5.462
 1731SOL     OW 6091   0.243   4.035   3.568
 1731SOL    HW1 6092   0.337   4.008   3.590
 1731SOL    HW2 6093   0.227   4.022   3.470
 1732SOL     OW 6094   2.469   4.931   5.866
 1732SOL    HW1 6095   2.513   4.842   5.878
 1732SOL    HW2 6096   2.425   4.935   5.776
 1733SOL     OW 6097   1.678   4.696   1.880
 1733SOL    HW1 6098   1.734   4.727   1.958
 1733SOL    HW2 6099   1.715   4.736   1.796
 1734SOL     OW 6100   4.742   3.169   1.253
 1734SOL    HW1 6101   4.671   3.138   1.317
 1734SOL    HW2 6102   4.700   3.191   1.165
 1735SOL     OW 6103   5.124   5.236   0.298
 1735SOL    HW1 6104   5.037   5.282   0.278
 1735SOL    HW2 6105   5.117   5.190   0.387
 1736SOL     OW 6106   3.621   3.975   0.714
 1736SOL    HW1 6107   3.612   4.014   0.622
 1736SOL    HW2 6108   3.648   3.879   0.707
 1737SOL     OW 6109   4.004   1.082   4.258
 1737SOL    HW1 6110   4.012   1.147   4.182
 1737SOL    HW2 6111   4.046   0.995   4.233
 1738SOL     OW 6112   1.765   2.807   4.105
 1738SOL    HW1 6113   1.811   2.719   4.116
 1738SOL    HW2 6114   1.764   2.856   4.192
 1739SOL     OW 6115   7.021   1.557   5.501
 1739SOL    HW1 6116   6.958   1.628   5.530
 1739SOL    HW2 6117   6.980   1.467   5.518
 1740SOL     OW 6118   0.086   2.300   5.593
 1740SOL    HW1 6119   0.186   2.301   5.587
 1740SOL    HW2 6120   0.050   2.389   5.566
 1741SOL     OW 6121   2.201   0.602   3.818
 1741SOL    HW1 6122   2.252   0.594   3.904
 1741SOL    HW2 6123   2.225   0.527   3.757
 1742SOL     OW 6124   5.620   0.814   6.237
 1742SOL    HW1 6125   5.550   0.788   6.303
 1742SOL    HW2 6126   5.578   0.867   6.163
 1743SOL     OW 6127   0.789   2.180   2.182
 1743SOL    HW1 6128   0.852   2.221   2.116
 1743SOL    HW2 6129   0.712   2.242   2.197
 1744SOL     OW 6130   6.029   2.660   3.569
 1744SOL    HW1 6131   6.040   2.639   3.472
 1744SOL    HW2 6132   6.015   2.576   3.621
 1745SOL     OW 6133   5.610   5.641   2.256
 1745SOL    HW1 6134   5.658   5.683   2.180
 1745SOL    HW2 6135   5.565   5.557   2.225
 1746SOL     OW 6136   1.861   4.118   4.791
 1746SOL    HW1 6137   1.789   4.133   4.859
 1746SOL    HW2 6138   1.929   4.054   4.827
 1747SOL     OW 6139   4.440   1.762   2.856
 1747SOL    HW1 6140   4.477   1.680   2.813
 1747SOL    HW2 6141   4.467   1.766   2.952
 1748SOL     OW 6142   0.688   1.446   5.261
 1748SOL    HW1 6143   0.593   1.420   5.281
 1748SOL    HW2 6144   0.749   1.373   5.291
 1749SOL     OW 6145   2.282   6.816   4.993
 1749SOL    HW1 6146   2.215   6.820   5.067
 1749SOL    HW2 6147   2.286   6.722   4.958
 1750SOL     OW 6148   5.184   6.175   3.925
 1750SOL    HW1 6149   5.178   6.090   3.872
 1750SOL    HW2 6150   5.133   6.247   3.877
 1751SOL     OW 6151   3.608   0.193   4.250
 1751SOL    HW1 6152   3.705   0.178   4.231
 1751SOL    HW2 6153   3.570   0.259   4.185
 1752SOL     OW 6154   6.402   1.816   2.346
 1752SOL    HW1 6155   6.369   1.858   2.430
 1752SOL    HW2 6156   6.489   1.857   2.319
 1753SOL     OW 6157   6.449   1.051   1.300
 1753SOL    HW1 6158   6.462   1.137   1.251
 1753SOL    HW2 6159   6.416   1.070   1.392
 1754SOL     OW 6160   1.607   4.713   6.791
 1754SOL    HW1 6161   1.631   4.719   6.694
 1754SOL    HW2 6162   1.628   4.622   6.824
 1755SOL     OW 6163   0.176   6.278   1.205
 1755SOL    HW1 6164   0.255   6.309   1.152
 1755SOL    HW2 6165   0.176   6.324   1.294
 1756SOL     OW 6166   4.357   5.239   5.694
 1756SOL    HW1 6167   4.360   5.330   5.653
 1756SOL    HW2 6168   4.310   5.243   5.782
 1757SOL     OW 6169   2.093   5.285   4.502
 1757SOL    HW1 6170   2.091   5.185   4.489
 1757SOL    HW2 6171   2.010   5.325   4.465
 1758SOL     OW 6172   2.742   0.874   4.426
 1758SOL    HW1 6173   2.706   0.852   4.335
 1758SOL    HW2 6174   2.811   0.807   4.451
 1759SOL     OW 6175   1.799   6.502   5.153
 1759SOL    HW1 6176   1.731   6.475   5.084
 1759SOL    HW2 6177   1.751   6.532   5.235
 1760SOL     OW 6178   5.523   1.428   3.357
 1760SOL    HW1 6179   5.482   1.337   3.366
 1760SOL    HW2 6180   5.453   1.498   3.373
 1761SOL     OW 6181   0.233   0.745   1.367
 1761SOL    HW1 6182   0.223   0.748   1.466
 1761SOL    HW2 6183   0.144   0.762   1.324
 1762SOL     OW 6184   1.108   1.217   4.193
 1762SOL    HW1 6185   1.076   1.264   4.275
 1762SOL    HW2 6186   1.044   1.144   4.169
 1763SOL     OW 6187   0.919   4.379   4.190
 1763SOL    HW1 6188   0.948   4.312   4.122
 1763SOL    HW2 6189   0.854   4.443   4.148
 1764SOL     OW 6190   2.106   3.294   2.435
 1764SOL    HW1 6191   2.061   3.255   2.516
 1764SOL    HW2 6192   2.153   3.221   2.385
 1765SOL     OW 6193   3.837   1.263   1.545
 1765SOL    HW1 6194   3.797   1.212   1.622
 1765SOL    HW2 6195   3.809   1.359   1.552
 1766SOL     OW 6196   5.362   4.614   2.951
 1766SOL    HW1 6197   5.325   4.693   3.000
 1766SOL    HW2 6198   5.433   4.645   2.888
 1767SOL     OW 6199   0.918   4.251   2.524
 1767SOL    HW1 6200   0.979   4.292   2.455
 1767SOL    HW2 6201   0.877   4.168   2.488
 1768SOL     OW 6202   3.607   1.259   6.750
 1768SOL    HW1 6203   3.567   1.258   6.658
 1768SOL    HW2 6204   3.615   1.354   6.782
 1769SOL     OW 6205   4.427   1.239   6.399
 1769SOL    HW1 6206   4.507   1.279   6.441
 1769SOL    HW2 6207   4.452   1.151   6.357
 1770SOL     OW 6208   6.954   4.780   4.700
 1770SOL    HW1 6209   6.907   4.696   4.723
 1770SOL    HW2 6210   6.892   4.858   4.711
 1771SOL     OW 6211   1.903   5.414   0.885
 1771SOL    HW1 6212   1.823   5.403   0.825
 1771SOL    HW2 6213   1.986   5.394   0.834
 1772SOL     OW 6214   3.860   6.663   2.954
 1772SOL    HW1 6215   3.804   6.621   3.025
 1772SOL    HW2 6216   3.879   6.758   2.977
 1773SOL     OW 6217   2.800   2.979   6.240
 1773SOL    HW1 6218   2.857   3.061   6.247
 1773SOL    HW2 6219   2.755   2.977   6.151
 1774SOL     OW 6220   4.764   6.680   1.688
 1774SOL    HW1 6221   4.832   6.663   1.617
 1774SOL    HW2 6222   4.802   6.743   1.756
 1775SOL     OW 6223   2.073   4.691   5.319
 1775SOL    HW1 6224   2.041   4.781   5.349
 1775SOL    HW2 6225   2.136   4.654   5.387
 1776SOL     OW 6226   5.231   1.100   5.953
 1776SOL    HW1 6227   5.220   1.110   6.052
 1776SOL    HW2 6228   5.193   1.180   5.906
 1777SOL     OW 6229   3.436   6.227   5.964
 1777SOL    HW1 6230   3.407   6.208   5.870
 1777SOL    HW2 6231   3.412   6.149   6.022
 1778SOL     OW 6232   5.036   2.130   4.481
 1778SOL    HW1 6233   5.058   2.119   4.384
 1778SOL    HW2 6234   5.110   2.090   4.536
 1779SOL     OW 6235   3.910   1.438   4.575
 1779SOL    HW1 6236   3.895   1.341   4.555
 1779SOL    HW2 6237   3.965   1.448   4.658
 1780SOL     OW 6238   2.584   4.061   6.257
 1780SOL    HW1 6239   2.494   4.033   6.223
 1780SOL    HW2 6240   2.646   4.078   6.180
 1781SOL     OW 6241   5.239   5.374   4.038
 1781SOL    HW1 6242   5.205   5.445   3.977
 1781SOL    HW2 6243   5.170   5.354   4.108
 1782SOL     OW 6244   3.231   1.671   3.679
 1782SOL    HW1 6245   3.285   1.592   3.649
 1782SOL    HW2 6246   3.143   1.672   3.631
 1783SOL     OW 6247   2.517   3.293   6.274
 1783SOL    HW1 6248   2.597   3.348   6.298
 1783SOL    HW2 6249   2.496   3.305   6.177
 1784SOL     OW 6250   2.292   1.274   2.128
 1784SOL    HW1 6251   2.360   1.346   2.112
 1784SOL    HW2 6252   2.306   1.235   2.220
 1785SOL     OW 6253   5.969   6.054   3.597
 1785SOL    HW1 6254   5.993   6.123   3.528
 1785SOL    HW2 6255   6.047   6.039   3.657
 1786SOL     OW 6256   1.272   3.889   0.839
 1786SOL    HW1 6257   1.306   3.958   0.903
 1786SOL    HW2 6258   1.315   3.901   0.750
 1787SOL     OW 6259   2.668   1.536   5.343
 1787SOL    HW1 6260   2.663   1.628   5.305
 1787SOL    HW2 6261   2.761   1.519   5.375
 1788SOL     OW 6262   3.604   4.355   0.318
 1788SOL    HW1 6263   3.535   4.378   0.386
 1788SOL    HW2 6264   3.573   4.386   0.228
 1789SOL     OW 6265   5.353   2.939   2.287
 1789SOL    HW1 6266   5.278   2.972   2.229
 1789SOL    HW2 6267   5.327   2.851   2.327
 1790SOL     OW 6268   3.373   0.521   4.398
 1790SOL    HW1 6269   3.453   0.579   4.383
 1790SOL    HW2 6270   3.402   0.427   4.414
 1791SOL     OW 6271   6.594   1.081   4.430
 1791SOL    HW1 6272   6.600   1.020   4.509
 1791SOL    HW2 6273   6.502   1.118   4.423
 1792SOL     OW 6274   0.763   1.439   4.786
 1792SOL    HW1 6275   0.688   1.394   4.737
 1792SOL    HW2 6276   0.732   1.463   4.878
 1793SOL     OW 6277   6.346   0.737   3.979
 1793SOL    HW1 6278   6.445   0.738   3.990
 1793SOL    HW2 6279   6.311   0.645   3.996
 1794SOL     OW 6280   4.789   6.105   5.874
 1794SOL    HW1 6281   4.746   6.152   5.796
 1794SOL    HW2 6282   4.839   6.171   5.929
 1795SOL     OW 6283   6.526   5.506   2.138
 1795SOL    HW1 6284   6.624   5.504   2.122
 1795SOL    HW2 6285   6.494   5.414   2.163
 1796SOL     OW 6286   2.090   0.984   4.582
 1796SOL    HW1 6287   2.060   0.917   4.651
 1796SOL    HW2 6288   2.174   1.028   4.613
 1797SOL     OW 6289   1.269   6.711   5.409
 1797SOL    HW1 6290   1.299   6.701   5.503
 1797SOL    HW2 6291   1.246   6.621   5.371
 1798SOL     OW 6292   4.129   3.198   5.367
 1798SOL    HW1 6293   4.211   3.253   5.355
 1798SOL    HW2 6294   4.054   3.237   5.313
 1799SOL     OW 6295   5.731   2.972   6.511
 1799SOL    HW1 6296   5.770   3.063   6.524
 1799SOL    HW2 6297   5.631   2.977   6.516
 1800SOL     OW 6298   4.917   4.854   3.443
 1800SOL    HW1 6299   4.884   4.774   3.492
 1800SOL    HW2 6300   4.960   4.918   3.507
 1801SOL     OW 6301   1.296   1.567   3.141
 1801SOL    HW1 6302   1.197   1.580   3.134
 1801SOL    HW2 6303   1.341   1.656   3.141
 1802SOL     OW 6304   6.225   6.587   2.982
 1802SOL    HW1 6305   6.256   6.544   2.897
 1802SOL    HW2 6306   6.166   6.524   3.032
 1803SOL     OW 6307   6.493   6.867   2.309
 1803SOL    HW1 6308   6.515   6.799   2.240
 1803SOL    HW2 6309   6.532   6.839   2.397
 1804SOL     OW 6310   3.664   3.245   5.125
 1804SOL    HW1 6311   3.762   3.227   5.135
 1804SOL    HW2 6312   3.612   3.172   5.170
 1805SOL     OW 6313   1.178   4.474   6.039
 1805SOL    HW1 6314   1.114   4.549   6.019
 1805SOL    HW2 6315   1.246   4.505   6.105
 1806SOL     OW 6316   0.690   2.332   1.666
 1806SOL    HW1 6317   0.700   2.402   1.736
 1806SOL    HW2 6318   0.712   2.370   1.576
 1807SOL     OW 6319   6.347   2.215   6.348
 1807SOL    HW1 6320   6.387   2.151   6.283
 1807SOL    HW2 6321   6.418   2.250   6.408
 1808SOL     OW 6322   5.593   4.837   4.480
 1808SOL    HW1 6323   5.573   4.851   4.577
 1808SOL    HW2 6324   5.533   4.765   4.444
 1809SOL     OW 6325   2.776   2.100   4.975
 1809SOL    HW1 6326   2.855   2.120   5.031
 1809SOL    HW2 6327   2.694   2.142   5.015
 1810SOL     OW 6328   1.334   0.426   4.625
 1810SOL    HW1 6329   1.411   0.379   4.583
 1810SOL    HW2 6330   1.291   0.487   4.557
 1811SOL     OW 6331   4.978   4.461   2.677
 1811SOL    HW1 6332   4.992   4.362   2.678
 1811SOL    HW2 6333   5.061   4.506   2.709
 1812SOL     OW 6334   4.702   6.966   6.238
 1812SOL    HW1 6335   4.736   6.934   6.150
 1812SOL    HW2 6336   4.631   6.904   6.271
 1813SOL     OW 6337   4.865   4.943   1.805
 1813SOL    HW1 6338   4.949   4.888   1.802
 1813SOL    HW2 6339   4.889   5.038   1.824
 1814SOL     OW 6340   5.847   0.303   0.735
 1814SOL    HW1 6341   5.821   0.207   0.741
 1814SOL    HW2 6342   5.807   0.344   0.654
 1815SOL     OW 6343   6.118   0.434   2.954
 1815SOL    HW1 6344   6.192   0.372   2.980
 1815SOL    HW2 6345   6.140   0.477   2.866
 1816SOL     OW 6346   2.898   5.055   0.241
 1816SOL    HW1 6347   2.907   4.973   0.298
 1816SOL    HW2 6348   2.829   5.115   0.280
 1817SOL     OW 6349   4.336   0.467   2.933
 1817SOL    HW1 6350   4.400   0.544   2.937
 1817SOL    HW2 6351   4.369   0.394   2.992
 1818SOL     OW 6352   1.926   6.544   0.905
 1818SOL    HW1 6353   1.836   6.519   0.869
 1818SOL    HW2 6354   1.929   6.643   0.920
 1819SOL     OW 6355   1.440   6.576   1.953
 1819SOL    HW1 6356   1.500   6.566   2.032
 1819SOL    HW2 6357   1.371   6.645   1.971
 1820SOL     OW 6358   3.678   0.226   2.652
 1820SOL    HW1 6359   3.612   0.225   2.727
 1820SOL    HW2 6360   3.676   0.316   2.608
 1821SOL     OW 6361   2.409   1.461   1.600
 1821SOL    HW1 6362   2.376   1.547   1.638
 1821SOL    HW2 6363   2.461   1.479   1.517
 1822SOL     OW 6364   0.692   2.589   1.765
 1822SOL    HW1 6365   0.660   2.640   1.686
 1822SOL    HW2 6366   0.634   2.609   1.844
 1823SOL     OW 6367   3.133   6.054   3.044
 1823SOL    HW1 6368   3.219   6.058   3.095
 1823SOL    HW2 6369   3.058   6.034   3.107
 1824SOL     OW 6370   3.799   4.257   0.873
 1824SOL    HW1 6371   3.789   4.337   0.933
 1824SOL    HW2 6372   3.746   4.181   0.910
 1825SOL     OW 6373   0.893   2.412   4.602
 1825SOL    HW1 6374   0.924   2.339   4.663
 1825SOL    HW2 6375   0.825   2.375   4.539
 1826SOL     OW 6376   3.193   1.748   1.664
 1826SOL    HW1 6377   3.229   1.658   1.690
 1826SOL    HW2 6378   3.267   1.815   1.668
 1827SOL     OW 6379   6.360   5.427   0.991
 1827SOL    HW1 6380   6.300   5.386   1.059
 1827SOL    HW2 6381   6.441   5.369   0.979
 1828SOL     OW 6382   1.407   2.821   6.799
 1828SOL    HW1 6383   1.375   2.845   6.707
 1828SOL    HW2 6384   1.399   2.723   6.813
 1829SOL     OW 6385   4.306   0.838   2.904
 1829SOL    HW1 6386   4.289   0.905   2.832
 1829SOL    HW2 6387   4.222   0.789   2.926
 1830SOL     OW 6388   5.732   5.857   4.639
 1830SOL    HW1 6389   5.712   5.818   4.550
 1830SOL    HW2 6390   5.716   5.956   4.637
 1831SOL     OW 6391   5.714   6.356   2.334
 1831SOL    HW1 6392   5.810   6.378   2.318
 1831SOL    HW2 6393   5.673   6.428   2.391
 1832SOL     OW 6394   4.373   1.490   0.833
 1832SOL    HW1 6395   4.426   1.575   0.835
 1832SOL    HW2 6396   4.423   1.420   0.781
 1833SOL     OW 6397   5.671   0.587   1.718
 1833SOL    HW1 6398   5.653   0.521   1.791
 1833SOL    HW2 6399   5.718   0.666   1.756
 1834SOL     OW 6400   2.137   4.109   0.705
 1834SOL    HW1 6401   2.085   4.095   0.621
 1834SOL    HW2 6402   2.200   4.032   0.719
 1835SOL     OW 6403   7.016   4.541   1.575
 1835SOL    HW1 6404   0.040   4.538   1.487
 1835SOL    HW2 6405   0.052   4.508   1.647
 1836SOL     OW 6406   5.416   2.467   1.651
 1836SOL    HW1 6407   5.333   2.524   1.652
 1836SOL    HW2 6408   5.476   2.495   1.725
 1837SOL     OW 6409   1.049   6.881   5.518
 1837SOL    HW1 6410   1.123   6.822   5.486
 1837SOL    HW2 6411   1.057   6.971   5.474
 1838SOL     OW 6412   6.117   1.135   5.597
 1838SOL    HW1 6413   6.031   1.089   5.574
 1838SOL    HW2 6414   6.192   1.069   5.595
 1839SOL     OW 6415   0.477   1.224   5.368
 1839SOL    HW1 6416   0.455   1.321   5.378
 1839SOL    HW2 6417   0.438   1.190   5.283
 1840SOL     OW 6418   3.929   0.025   1.723
 1840SOL    HW1 6419   3.849   0.029   1.783
 1840SOL    HW2 6420   3.999   0.089   1.756
 1841SOL     OW 6421   2.541   0.877   3.305
 1841SOL    HW1 6422   2.462   0.869   3.244
 1841SOL    HW2 6423   2.571   0.786   3.334
 1842SOL     OW 6424   1.327   5.808   1.321
 1842SOL    HW1 6425   1.316   5.734   1.388
 1842SOL    HW2 6426   1.420   5.844   1.327
 1843SOL     OW 6427   5.738   0.583   4.633
 1843SOL    HW1 6428   5.819   0.544   4.676
 1843SOL    HW2 6429   5.683   0.631   4.702
 1844SOL     OW 6430   3.358   0.206   4.893
 1844SOL    HW1 6431   3.347   0.114   4.928
 1844SOL    HW2 6432   3.400   0.202   4.802
 1845SOL     OW 6433   2.574   6.459   4.558
 1845SOL    HW1 6434   2.582   6.526   4.484
 1845SOL    HW2 6435   2.583   6.367   4.520
 1846SOL     OW 6436   3.943   1.028   2.553
 1846SOL    HW1 6437   3.886   0.948   2.532
 1846SOL    HW2 6438   3.906   1.108   2.506
 1847SOL     OW 6439   1.817   0.102   5.659
 1847SOL    HW1 6440   1.853   0.057   5.741
 1847SOL    HW2 6441   1.795   0.197   5.681
 1848SOL     OW 6442   1.738   6.671   3.053
 1848SOL    HW1 6443   1.655   6.707   3.010
 1848SOL    HW2 6444   1.756   6.579   3.018
 1849SOL     OW 6445   4.927   2.537   1.172
 1849SOL    HW1 6446   4.992   2.487   1.115
 1849SOL    HW2 6447   4.972   2.568   1.255
 1850SOL     OW 6448   0.024   2.564   1.981
 1850SOL    HW1 6449   0.092   2.492   1.966
 1850SOL    HW2 6450   6.957   2.523   1.984
 1851SOL     OW 6451   0.802   3.518   0.378
 1851SOL    HW1 6452   0.785   3.475   0.466
 1851SOL    HW2 6453   0.885   3.575   0.384
 1852SOL     OW 6454   6.822   4.577   2.615
 1852SOL    HW1 6455   6.761   4.506   2.650
 1852SOL    HW2 6456   6.838   4.561   2.518
 1853SOL     OW 6457   6.623   2.476   3.319
 1853SOL    HW1 6458   6.670   2.492   3.406
 1853SOL    HW2 6459   6.608   2.564   3.273
 1854SOL     OW 6460   1.860   5.595   2.425
 1854SOL    HW1 6461   1.870   5.498   2.401
 1854SOL    HW2 6462   1.877   5.651   2.343
 1855SOL     OW 6463   5.979   3.453   5.428
 1855SOL    HW1 6464   5.891   3.409   5.445
 1855SOL    HW2 6465   5.972   3.511   5.347
 1856SOL     OW 6466   4.587   2.978   5.955
 1856SOL    HW1 6467   4.622   2.913   5.887
 1856SOL    HW2 6468   4.661   3.004   6.017
 1857SOL     OW 6469   4.122   1.883   0.406
 1857SOL    HW1 6470   4.109   1.799   0.355
 1857SOL    HW2 6471   4.210   1.924   0.381
 1858SOL     OW 6472   5.455   3.171   3.153
 1858SOL    HW1 6473   5.356   3.180   3.148
 1858SOL    HW2 6474   5.485   3.092   3.099
 1859SOL     OW 6475   4.624   1.748   3.692
 1859SOL    HW1 6476   4.615   1.847   3.681
 1859SOL    HW2 6477   4.608   1.704   3.603
 1860SOL     OW 6478   0.331   1.175   5.115
 1860SOL    HW1 6479   0.267   1.240   5.074
 1860SOL    HW2 6480   0.404   1.155   5.050
 1861SOL     OW 6481   5.485   0.496   2.727
 1861SOL    HW1 6482   5.483   0.422   2.660
 1861SOL    HW2 6483   5.580   0.516   2.752
 1862SOL     OW 6484   2.717   6.835   6.228
 1862SOL    HW1 6485   2.695   6.900   6.156
 1862SOL    HW2 6486   2.804   6.860   6.271
 1863SOL     OW 6487   7.004   2.868   3.634
 1863SOL    HW1 6488   0.016   2.775   3.623
 1863SOL    HW2 6489   6.995   2.911   3.544
 1864SOL     OW 6490   3.023   5.955   4.630
 1864SOL    HW1 6491   2.981   5.914   4.549
 1864SOL    HW2 6492   3.071   5.884   4.682
 1865SOL     OW 6493   3.785   0.534   0.234
 1865SOL    HW1 6494   3.847   0.579   0.298
 1865SOL    HW2 6495   3.838   0.500   0.155
 1866SOL     OW 6496   0.031   4.689   3.608
 1866SOL    HW1 6497   0.059   4.754   3.537
 1866SOL    HW2 6498   0.019   4.738   3.694
 1867SOL     OW 6499   1.720   4.094   1.492
 1867SOL    HW1 6500   1.807   4.142   1.494
 1867SOL    HW2 6501   1.681   4.100   1.400
 1868SOL     OW 6502   4.871   3.216   6.610
 1868SOL    HW1 6503   4.908   3.309   6.620
 1868SOL    HW2 6504   4.894   3.162   6.691
 1869SOL     OW 6505   6.548   3.299   5.047
 1869SOL    HW1 6506   6.629   3.277   4.992
 1869SOL    HW2 6507   6.466   3.274   4.997
 1870SOL     OW 6508   1.217   3.619   5.116
 1870SOL    HW1 6509   1.193   3.522   5.111
 1870SOL    HW2 6510   1.313   3.628   5.143
 1871SOL     OW 6511   0.210   0.372   0.297
 1871SOL    HW1 6512   0.212   0.309   0.375
 1871SOL    HW2 6513   0.197   0.321   0.213
 1872SOL     OW 6514   4.528   2.159   0.155
 1872SOL    HW1 6515   4.518   2.106   0.070
 1872SOL    HW2 6516   4.623   2.185   0.167
 1873SOL     OW 6517   5.994   0.663   5.771
 1873SOL    HW1 6518   6.006   0.745   5.827
 1873SOL    HW2 6519   6.083   0.634   5.735
 1874SOL     OW 6520   1.689   1.327   6.838
 1874SOL    HW1 6521   1.779   1.312   6.878
 1874SOL    HW2 6522   1.651   1.414   6.872
 1875SOL     OW 6523   6.228   0.428   0.507
 1875SOL    HW1 6524   6.174   0.400   0.586
 1875SOL    HW2 6525   6.300   0.491   0.536
 1876SOL     OW 6526   3.734   5.676   6.329
 1876SOL    HW1 6527   3.821   5.639   6.296
 1876SOL    HW2 6528   3.736   5.679   6.429
 1877SOL     OW 6529   1.240   1.781   3.715
 1877SOL    HW1 6530   1.173   1.827   3.658
 1877SOL    HW2 6531   1.229   1.682   3.706
 1878SOL     OW 6532   6.777   3.152   4.016
 1878SOL    HW1 6533   6.737   3.150   3.925
 1878SOL    HW2 6534   6.876   3.166   4.009
 1879SOL     OW 6535   2.656   6.153   4.134
 1879SOL    HW1 6536   2.594   6.202   4.073
 1879SOL    HW2 6537   2.708   6.086   4.081
 1880SOL     OW 6538   0.404   1.945   2.981
 1880SOL    HW1 6539   0.465   2.009   2.936
 1880SOL    HW2 6540   0.452   1.901   3.057
 1881SOL     OW 6541   1.265   2.061   3.942
 1881SOL    HW1 6542   1.263   1.981   3.883
 1881SOL    HW2 6543   1.230   2.036   4.033
 1882SOL     OW 6544   1.030   4.809   6.758
 1882SOL    HW1 6545   1.054   4.856   6.843
 1882SOL    HW2 6546   0.983   4.874   6.697
 1883SOL     OW 6547   1.083   3.390   3.490
 1883SOL    HW1 6548   1.017   3.359   3.559
 1883SOL    HW2 6549   1.126   3.474   3.522
 1884SOL     OW 6550   5.975   2.638   1.339
 1884SOL    HW1 6551   5.916   2.561   1.317
 1884SOL    HW2 6552   5.921   2.710   1.383
 1885SOL     OW 6553   0.236   1.950   0.501
 1885SOL    HW1 6554   0.209   2.003   0.581
 1885SOL    HW2 6555   0.311   1.997   0.454
 1886SOL     OW 6556   2.562   1.850   0.863
 1886SOL    HW1 6557   2.532   1.755   0.871
 1886SOL    HW2 6558   2.618   1.874   0.942
 1887SOL     OW 6559   0.557   4.590   5.345
 1887SOL    HW1 6560   0.579   4.600   5.248
 1887SOL    HW2 6561   0.462   4.617   5.360
 1888SOL     OW 6562   3.034   2.034   6.269
 1888SOL    HW1 6563   3.081   2.037   6.181
 1888SOL    HW2 6564   2.935   2.037   6.254
 1889SOL     OW 6565   5.749   2.541   6.569
 1889SOL    HW1 6566   5.804   2.621   6.594
 1889SOL    HW2 6567   5.809   2.469   6.533
 1890SOL     OW 6568   1.271   5.381   5.341
 1890SOL    HW1 6569   1.173   5.361   5.341
 1890SOL    HW2 6570   1.320   5.310   5.392
 1891SOL     OW 6571   5.563   3.344   4.412
 1891SOL    HW1 6572   5.573   3.438   4.444
 1891SOL    HW2 6573   5.494   3.298   4.468
 1892SOL     OW 6574   3.801   0.162   0.591
 1892SOL    HW1 6575   3.789   0.089   0.659
 1892SOL    HW2 6576   3.830   0.246   0.636
 1893SOL     OW 6577   3.197   1.558   5.840
 1893SOL    HW1 6578   3.223   1.462   5.829
 1893SOL    HW2 6579   3.188   1.601   5.750
 1894SOL     OW 6580   3.716   3.886   2.115
 1894SOL    HW1 6581   3.771   3.837   2.047
 1894SOL    HW2 6582   3.670   3.963   2.071
 1895SOL     OW 6583   5.087   1.136   2.808
 1895SOL    HW1 6584   5.008   1.187   2.841
 1895SOL    HW2 6585   5.068   1.100   2.717
 1896SOL     OW 6586   0.543   0.446   3.533
 1896SOL    HW1 6587   0.590   0.505   3.598
 1896SOL    HW2 6588   0.608   0.414   3.464
 1897SOL     OW 6589   0.751   4.950   2.312
 1897SOL    HW1 6590   0.666   4.904   2.338
 1897SOL    HW2 6591   0.822   4.932   2.380
 1898SOL     OW 6592   3.045   4.767   2.118
 1898SOL    HW1 6593   2.988   4.803   2.044
 1898SOL    HW2 6594   3.117   4.709   2.079
 1899SOL     OW 6595   0.891   2.493   2.560
 1899SOL    HW1 6596   0.798   2.521   2.582
 1899SOL    HW2 6597   0.900   2.483   2.461
 1900SOL     OW 6598   1.152   0.094   5.395
 1900SOL    HW1 6599   1.197   0.109   5.306
 1900SOL    HW2 6600   1.102   0.176   5.421
 1901SOL     OW 6601   2.145   1.597   1.670
 1901SOL    HW1 6602   2.048   1.576   1.660
 1901SOL    HW2 6603   2.172   1.589   1.766
 1902SOL     OW 6604   2.630   2.275   4.685
 1902SOL    HW1 6605   2.718   2.294   4.727
 1902SOL    HW2 6606   2.564   2.250   4.756
 1903SOL     OW 6607   6.631   4.263   3.841
 1903SOL    HW1 6608   6.612   4.251   3.938
 1903SOL    HW2 6609   6.720   4.307   3.830
 1904SOL     OW 6610   6.060   6.417   3.781
 1904SOL    HW1 6611   6.109   6.463   3.855
 1904SOL    HW2 6612   5.969   6.458   3.772
 1905SOL     OW 6613   1.770   1.293   4.595
 1905SOL    HW1 6614   1.769   1.299   4.495
 1905SOL    HW2 6615   1.718   1.369   4.633
 1906SOL     OW 6616   3.131   0.209   5.190
 1906SOL    HW1 6617   3.184   0.133   5.153
 1906SOL    HW2 6618   3.044   0.216   5.141
 1907SOL     OW 6619   3.505   0.054   3.243
 1907SOL    HW1 6620   3.514   0.149   3.214
 1907SOL    HW2 6621   3.476   7.023   3.165
 1908SOL     OW 6622   4.428   0.761   4.812
 1908SOL    HW1 6623   4.332   0.790   4.808
 1908SOL    HW2 6624   4.487   0.839   4.795
 1909SOL     OW 6625   1.205   4.092   2.716
 1909SOL    HW1 6626   1.272   4.051   2.778
 1909SOL    HW2 6627   1.135   4.024   2.693
 1910SOL     OW 6628   0.200   2.744   6.878
 1910SOL    HW1 6629   0.288   2.785   6.853
 1910SOL    HW2 6630   0.130   2.769   6.811
 1911SOL     OW 6631   6.092   2.537   5.629
 1911SOL    HW1 6632   6.008   2.514   5.581
 1911SOL    HW2 6633   6.117   2.463   5.691
 1912SOL     OW 6634   3.713   0.183   0.936
 1912SOL    HW1 6635   3.698   0.171   1.034
 1912SOL    HW2 6636   3.794   0.132   0.908
 1913SOL     OW 6637   1.180   5.800   5.304
 1913SOL    HW1 6638   1.106   5.862   5.280
 1913SOL    HW2 6639   1.268   5.841   5.278
 1914SOL     OW 6640   3.287   2.230   6.949
 1914SOL    HW1 6641   3.290   2.136   6.982
 1914SOL    HW2 6642   3.284   2.293   0.002
 1915SOL     OW 6643   3.874   1.749   5.086
 1915SOL    HW1 6644   3.851   1.784   4.995
 1915SOL    HW2 6645   3.842   1.654   5.093
 1916SOL     OW 6646   3.621   6.166   1.104
 1916SOL    HW1 6647   3.641   6.107   1.182
 1916SOL    HW2 6648   3.565   6.243   1.135
 1917SOL     OW 6649   3.387   3.128   4.110
 1917SOL    HW1 6650   3.307   3.105   4.055
 1917SOL    HW2 6651   3.396   3.063   4.185
 1918SOL     OW 6652   0.476   0.694   6.602
 1918SOL    HW1 6653   0.419   0.613   6.588
 1918SOL    HW2 6654   0.430   0.757   6.664
 1919SOL     OW 6655   2.045   0.275   1.649
 1919SOL    HW1 6656   2.056   0.324   1.563
 1919SOL    HW2 6657   2.113   0.306   1.715
 1920SOL     OW 6658   1.113   5.329   2.725
 1920SOL    HW1 6659   1.059   5.300   2.803
 1920SOL    HW2 6660   1.207   5.349   2.755
 1921SOL     OW 6661   1.277   4.577   0.342
 1921SOL    HW1 6662   1.326   4.502   0.386
 1921SOL    HW2 6663   1.251   4.551   0.249
 1922SOL     OW 6664   3.257   4.355   0.983
 1922SOL    HW1 6665   3.271   4.266   1.026
 1922SOL    HW2 6666   3.245   4.425   1.053
 1923SOL     OW 6667   3.402   1.011   6.331
 1923SOL    HW1 6668   3.396   0.929   6.274
 1923SOL    HW2 6669   3.398   1.092   6.273
 1924SOL     OW 6670   4.963   5.195   1.880
 1924SOL    HW1 6671   5.012   5.231   1.801
 1924SOL    HW2 6672   5.028   5.172   1.952
 1925SOL     OW 6673   2.534   3.736   1.366
 1925SOL    HW1 6674   2.609   3.722   1.301
 1925SOL    HW2 6675   2.569   3.780   1.448
 1926SOL     OW 6676   0.991   6.720   3.087
 1926SOL    HW1 6677   1.034   6.808   3.067
 1926SOL    HW2 6678   1.051   6.667   3.147
 1927SOL     OW 6679   3.420   5.148   6.437
 1927SOL    HW1 6680   3.419   5.182   6.343
 1927SOL    HW2 6681   3.488   5.075   6.446
 1928SOL     OW 6682   0.185   3.724   5.593
 1928SOL    HW1 6683   0.224   3.761   5.678
 1928SOL    HW2 6684   0.140   3.798   5.543
 1929SOL     OW 6685   0.630   6.291   1.769
 1929SOL    HW1 6686   0.583   6.204   1.751
 1929SOL    HW2 6687   0.628   6.309   1.867
 1930SOL     OW 6688   3.682   4.158   6.823
 1930SOL    HW1 6689   3.771   4.136   6.783
 1930SOL    HW2 6690   3.659   4.253   6.802
 1931SOL     OW 6691   6.791   3.050   2.615
 1931SOL    HW1 6692   6.867   3.012   2.563
 1931SOL    HW2 6693   6.819   3.062   2.710
 1932SOL     OW 6694   4.939   3.542   3.203
 1932SOL    HW1 6695   4.956   3.486   3.122
 1932SOL    HW2 6696   4.896   3.486   3.274
 1933SOL     OW 6697   2.344   4.486   0.991
 1933SOL    HW1 6698   2.396   4.448   0.915
 1933SOL    HW2 6699   2.248   4.458   0.984
 1934SOL     OW 6700   0.830   0.488   4.717
 1934SOL    HW1 6701   0.927   0.466   4.714
 1934SOL    HW2 6702   0.815   0.580   4.680
 1935SOL     OW 6703   3.574   6.698   4.440
 1935SOL    HW1 6704   3.520   6.633   4.386
 1935SOL    HW2 6705   3.583   6.783   4.389
 1936SOL     OW 6706   6.373   3.874   3.872
 1936SOL    HW1 6707   6.380   3.815   3.953
 1936SOL    HW2 6708   6.281   3.912   3.867
 1937SOL     OW 6709   5.070   0.471   0.895
 1937SOL    HW1 6710   5.148   0.466   0.834
 1937SOL    HW2 6711   5.096   0.520   0.979
 1938SOL     OW 6712   2.531   0.811   1.848
 1938SOL    HW1 6713   2.539   0.872   1.769
 1938SOL    HW2 6714   2.596   0.839   1.918
 1939SOL     OW 6715   0.236   0.145   4.575
 1939SOL    HW1 6716   0.184   0.064   4.551
 1939SOL    HW2 6717   0.333   0.130   4.555
 1940SOL     OW 6718   4.458   4.436   0.136
 1940SOL    HW1 6719   4.366   4.416   0.101
 1940SOL    HW2 6720   4.515   4.354   0.127
 1941SOL     OW 6721   0.365   4.650   3.091
 1941SOL    HW1 6722   0.403   4.582   3.153
 1941SOL    HW2 6723   0.307   4.606   3.023
 1942SOL     OW 6724   5.433   0.320   1.656
 1942SOL    HW1 6725   5.448   0.325   1.557
 1942SOL    HW2 6726   5.394   0.406   1.688
 1943SOL     OW 6727   2.509   6.521   2.211
 1943SOL    HW1 6728   2.426   6.474   2.181
 1943SOL    HW2 6729   2.524   6.602   2.153
 1944SOL     OW 6730   5.910   2.424   0.657
 1944SOL    HW1 6731   5.956   2.405   0.744
 1944SOL    HW2 6732   5.818   2.385   0.659
 1945SOL     OW 6733   3.231   5.453   1.942
 1945SOL    HW1 6734   3.214   5.397   1.861
 1945SOL    HW2 6735   3.223   5.397   2.024
 1946SOL     OW 6736   6.912   0.354   1.291
 1946SOL    HW1 6737   6.881   0.385   1.381
 1946SOL    HW2 6738   6.865   0.407   1.220
 1947SOL     OW 6739   4.125   6.872   4.623
 1947SOL    HW1 6740   4.214   6.917   4.612
 1947SOL    HW2 6741   4.052   6.937   4.606
 1948SOL     OW 6742   5.756   5.406   3.613
 1948SOL    HW1 6743   5.784   5.447   3.527
 1948SOL    HW2 6744   5.830   5.414   3.680
 1949SOL     OW 6745   3.576   4.498   6.568
 1949SOL    HW1 6746   3.487   4.451   6.571
 1949SOL    HW2 6747   3.577   4.561   6.491
 1950SOL     OW 6748   4.001   4.587   1.082
 1950SOL    HW1 6749   4.005   4.662   1.149
 1950SOL    HW2 6750   3.930   4.522   1.109
 1951SOL     OW 6751   5.977   4.231   6.646
 1951SOL    HW1 6752   5.983   4.195   6.552
 1951SOL    HW2 6753   5.913   4.176   6.699
 1952SOL     OW 6754   4.224   2.651   0.171
 1952SOL    HW1 6755   4.304   2.593   0.189
 1952SOL    HW2 6756   4.223   2.726   0.238
 1953SOL     OW 6757   5.734   1.735   0.080
 1953SOL    HW1 6758   5.808   1.686   0.034
 1953SOL    HW2 6759   5.773   1.807   0.138
 1954SOL     OW 6760   5.657   1.456   3.650
 1954SOL    HW1 6761   5.558   1.450   3.638
 1954SOL    HW2 6762   5.698   1.496   3.568
 1955SOL     OW 6763   0.757   1.295   2.181
 1955SOL    HW1 6764   0.780   1.386   2.214
 1955SOL    HW2 6765   0.839   1.252   2.142
 1956SOL     OW 6766   5.044   6.556   2.624
 1956SOL    HW1 6767   5.009   6.466   2.596
 1956SOL    HW2 6768   4.969   6.610   2.663
 1957SOL     OW 6769   6.040   4.938   4.523
 1957SOL    HW1 6770   6.026   5.009   4.454
 1957SOL    HW2 6771   6.133   4.942   4.557
 1958SOL     OW 6772   5.178   2.343   2.825
 1958SOL    HW1 6773   5.245   2.389   2.884
 1958SOL    HW2 6774   5.118   2.412   2.785
 1959SOL     OW 6775   0.549   1.271   4.745
 1959SOL    HW1 6776   0.570   1.229   4.833
 1959SOL    HW2 6777   0.583   1.213   4.671
 1960SOL     OW 6778   6.388   4.323   2.018
 1960SOL    HW1 6779   6.415   4.248   1.958
 1960SOL    HW2 6780   6.395   4.410   1.969
 1961SOL     OW 6781   5.833   4.393   4.271
 1961SOL    HW1 6782   5.760   4.454   4.241
 1961SOL    HW2 6783   5.793   4.310   4.309
 1962SOL     OW 6784   2.342   6.461   3.589
 1962SOL    HW1 6785   2.256   6.511   3.600
 1962SOL    HW2 6786   2.391   6.495   3.510
 1963SOL     OW 6787   0.690   1.344   1.785
 1963SOL    HW1 6788   0.636   1.409   1.732
 1963SOL    HW2 6789   0.630   1.289   1.843
 1964SOL     OW 6790   4.391   4.103   1.027
 1964SOL    HW1 6791   4.312   4.164   1.020
 1964SOL    HW2 6792   4.471   4.148   0.987
 1965SOL     OW 6793   0.897   3.503   4.648
 1965SOL    HW1 6794   0.977   3.445   4.633
 1965SOL    HW2 6795   0.889   3.569   4.573
 1966SOL     OW 6796   6.838   6.590   0.488
 1966SOL    HW1 6797   6.787   6.595   0.402
 1966SOL    HW2 6798   6.886   6.502   0.493
 1967SOL     OW 6799   5.505   2.421   5.418
 1967SOL    HW1 6800   5.470   2.515   5.423
 1967SOL    HW2 6801   5.539   2.404   5.325
 1968SOL     OW 6802   3.230   6.943   6.895
 1968SOL    HW1 6803   3.251   6.845   6.901
 1968SOL    HW2 6804   3.147   6.962   6.947
 1969SOL     OW 6805   1.572   1.610   2.015
 1969SOL    HW1 6806   1.528   1.692   1.978
 1969SOL    HW2 6807   1.520   1.529   1.987
 1970SOL     OW 6808   2.027   6.541   5.890
 1970SOL    HW1 6809   2.045   6.589   5.975
 1970SOL    HW2 6810   1.929   6.531   5.877
 1971SOL     OW 6811   0.141   7.020   5.762
 1971SOL    HW1 6812   0.179   0.009   5.671
 1971SOL    HW2 6813   0.045   6.991   5.754
 1972SOL     OW 6814   5.356   2.456   2.491
 1972SOL    HW1 6815   5.387   2.361   2.491
 1972SOL    HW2 6816   5.272   2.463   2.436
 1973SOL     OW 6817   2.880   2.484   0.227
 1973SOL    HW1 6818   2.923   2.410   0.175
 1973SOL    HW2 6819   2.860   2.561   0.166
 1974SOL     OW 6820   5.626   6.356   4.023
 1974SOL    HW1 6821   5.594   6.268   4.058
 1974SOL    HW2 6822   5.720   6.347   3.989
 1975SOL     OW 6823   2.350   1.772   3.939
 1975SOL    HW1 6824   2.257   1.735   3.946
 1975SOL    HW2 6825   2.389   1.780   4.031
 1976SOL     OW 6826   0.464   6.747   6.618
 1976SOL    HW1 6827   0.547   6.744   6.675
 1976SOL    HW2 6828   0.460   6.666   6.561
 1977SOL     OW 6829   0.624   3.686   4.460
 1977SOL    HW1 6830   0.693   3.751   4.427
 1977SOL    HW2 6831   0.591   3.716   4.550
 1978SOL     OW 6832   1.723   0.181   3.119
 1978SOL    HW1 6833   1.703   0.254   3.053
 1978SOL    HW2 6834   1.738   0.095   3.070
 1979SOL     OW 6835   6.248   4.406   6.182
 1979SOL    HW1 6836   6.214   4.325   6.135
 1979SOL    HW2 6837   6.314   4.453   6.124
 1980SOL     OW 6838   2.667   0.367   4.703
 1980SOL    HW1 6839   2.680   0.287   4.761
 1980SOL    HW2 6840   2.701   0.347   4.611
 1981SOL     OW 6841   6.645   1.755   2.746
 1981SOL    HW1 6842   6.563   1.792   2.788
 1981SOL    HW2 6843   6.676   1.818   2.674
 1982SOL     OW 6844   0.308   4.388   4.853
 1982SOL    HW1 6845   0.235   4.325   4.826
 1982SOL    HW2 6846   0.341   4.438   4.773
 1983SOL     OW 6847   0.490   1.553   3.021
 1983SOL    HW1 6848   0.409   1.589   3.067
 1983SOL    HW2 6849   0.463   1.507   2.937
 1984SOL     OW 6850   6.403   1.896   4.907
 1984SOL    HW1 6851   6.365   1.899   5.000
 1984SOL    HW2 6852   6.496   1.860   4.910
 1985SOL     OW 6853   1.211   6.165   2.295
 1985SOL    HW1 6854   1.232   6.068   2.303
 1985SOL    HW2 6855   1.273   6.207   2.228
 1986SOL     OW 6856   1.686   0.775   0.050
 1986SOL    HW1 6857   1.678   0.874   0.059
 1986SOL    HW2 6858   1.609   0.741   7.020
 1987SOL     OW 6859   1.906   2.500   2.440
 1987SOL    HW1 6860   1.823   2.458   2.476
 1987SOL    HW2 6861   1.965   2.429   2.402
 1988SOL     OW 6862   5.673   4.292   0.692
 1988SOL    HW1 6863   5.760   4.341   0.691
 1988SOL    HW2 6864   5.661   4.247   0.781
 1989SOL     OW 6865   2.549   5.919   4.598
 1989SOL    HW1 6866   2.450   5.903   4.591
 1989SOL    HW2 6867   2.598   5.833   4.581
 1990SOL     OW 6868   3.480   6.477   0.466
 1990SOL    HW1 6869   3.436   6.546   0.522
 1990SOL    HW2 6870   3.494   6.394   0.520
 1991SOL     OW 6871   4.173   4.412   6.547
 1991SOL    HW1 6872   4.086   4.460   6.560
 1991SOL    HW2 6873   4.237   4.471   6.498
 1992SOL     OW 6874   0.799   0.739   0.612
 1992SOL    HW1 6875   0.788   0.789   0.526
 1992SOL    HW2 6876   0.893   0.751   0.645
 1993SOL     OW 6877   3.573   3.233   4.853
 1993SOL    HW1 6878   3.594   3.231   4.951
 1993SOL    HW2 6879   3.564   3.139   4.820
 1994SOL     OW 6880   0.421   1.035   0.854
 1994SOL    HW1 6881   0.462   1.119   0.890
 1994SOL    HW2 6882   0.362   1.058   0.776
 1995SOL     OW 6883   5.382   2.258   3.193
 1995SOL    HW1 6884   5.377   2.289   3.288
 1995SOL    HW2 6885   5.291   2.229   3.163
 1996SOL     OW 6886   2.455   3.297   0.496
 1996SOL    HW1 6887   2.357   3.313   0.513
 1996SOL    HW2 6888   2.489   3.228   0.561
 1997SOL     OW 6889   4.441   1.610   4.602
 1997SOL    HW1 6890   4.381   1.629   4.525
 1997SOL    HW2 6891   4.530   1.652   4.586
 1998SOL     OW 6892   2.311   4.319   6.387
 1998SOL    HW1 6893   2.221   4.279   6.368
 1998SOL    HW2 6894   2.331   4.308   6.485
 1999SOL     OW 6895   2.986   7.002   0.901
 1999SOL    HW1 6896   2.913   0.035   0.936
 1999SOL    HW2 6897   2.978   6.910   0.940
 2000SOL     OW 6898   4.524   2.302   5.251
 2000SOL    HW1 6899   4.552   2.207   5.246
 2000SOL    HW2 6900   4.604   2.360   5.268
 2001SOL     OW 6901   3.020   1.545   1.883
 2001SOL    HW1 6902   3.000   1.466   1.940
 2001SOL    HW2 6903   3.103   1.528   1.829
 2002SOL     OW 6904   0.833   4.935   6.557
 2002SOL    HW1 6905   0.780   5.019   6.568
 2002SOL    HW2 6906   0.863   4.926   6.462
 2003SOL     OW 6907   6.026   6.030   2.213
 2003SOL    HW1 6908   5.939   6.072   2.188
 2003SOL    HW2 6909   6.045   6.046   2.310
 2004SOL     OW 6910   5.418   0.908   5.762
 2004SOL    HW1 6911   5.341   0.872   5.710
 2004SOL    HW2 6912   5.461   0.982   5.709
 2005SOL     OW 6913   1.179   4.998   0.246
 2005SOL    HW1 6914   1.146   5.002   0.151
 2005SOL    HW2 6915   1.136   5.071   0.299
 2006SOL     OW 6916   4.994   6.486   4.065
 2006SOL    HW1 6917   4.927   6.511   4.135
 2006SOL    HW2 6918   5.082   6.527   4.086
 2007SOL     OW 6919   4.112   4.967   0.959
 2007SOL    HW1 6920   4.072   4.892   0.905
 2007SOL    HW2 6921   4.038   5.021   1.000
 2008SOL     OW 6922   2.917   5.239   3.979
 2008SOL    HW1 6923   2.915   5.209   3.883
 2008SOL    HW2 6924   2.823   5.250   4.012
 2009SOL     OW 6925   5.799   0.754   2.549
 2009SOL    HW1 6926   5.757   0.684   2.606
 2009SOL    HW2 6927   5.841   0.824   2.608
 2010SOL     OW 6928   1.870   1.973   0.700
 2010SOL    HW1 6929   1.801   2.005   0.765
 2010SOL    HW2 6930   1.903   2.050   0.645
 2011SOL     OW 6931   6.882   6.936   4.672
 2011SOL    HW1 6932   6.915   6.996   4.599
 2011SOL    HW2 6933   6.933   6.955   4.756
 2012SOL     OW 6934   1.709   3.441   1.975
 2012SOL    HW1 6935   1.808   3.435   1.958
 2012SOL    HW2 6936   1.663   3.365   1.930
 2013SOL     OW 6937   6.352   2.372   3.553
 2013SOL    HW1 6938   6.302   2.355   3.468
 2013SOL    HW2 6939   6.412   2.294   3.571
 2014SOL     OW 6940   2.592   5.218   3.347
 2014SOL    HW1 6941   2.513   5.233   3.408
 2014SOL    HW2 6942   2.619   5.305   3.306
 2015SOL     OW 6943   2.048   0.729   0.284
 2015SOL    HW1 6944   2.020   0.702   0.191
 2015SOL    HW2 6945   1.994   0.807   0.314
 2016SOL     OW 6946   0.952   6.433   5.151
 2016SOL    HW1 6947   0.895   6.350   5.153
 2016SOL    HW2 6948   0.897   6.512   5.177
 2017SOL     OW 6949   2.895   6.958   3.988
 2017SOL    HW1 6950   2.840   6.885   3.946
 2017SOL    HW2 6951   2.924   7.022   3.917
 2018SOL     OW 6952   5.912   6.415   5.468
 2018SOL    HW1 6953   5.866   6.481   5.408
 2018SOL    HW2 6954   5.854   6.398   5.548
 2019SOL     OW 6955   5.321   2.916   6.922
 2019SOL    HW1 6956   5.246   2.876   6.869
 2019SOL    HW2 6957   5.406   2.908   6.870
 2020SOL     OW 6958   1.123   6.354   4.933
 2020SOL    HW1 6959   1.196   6.419   4.912
 2020SOL    HW2 6960   1.049   6.401   4.982
 2021SOL     OW 6961   1.365   5.995   3.520
 2021SOL    HW1 6962   1.423   6.074   3.541
 2021SOL    HW2 6963   1.336   5.999   3.425
 2022SOL     OW 6964   1.801   3.883   3.312
 2022SOL    HW1 6965   1.745   3.926   3.383
 2022SOL    HW2 6966   1.759   3.797   3.284
 2023SOL     OW 6967   6.402   1.044   6.133
 2023SOL    HW1 6968   6.307   1.051   6.104
 2023SOL    HW2 6969   6.406   1.023   6.230
 2024SOL     OW 6970   0.492   6.394   3.936
 2024SOL    HW1 6971   0.489   6.312   3.992
 2024SOL    HW2 6972   0.544   6.465   3.985
 2025SOL     OW 6973   2.588   2.027   3.525
 2025SOL    HW1 6974   2.569   2.064   3.616
 2025SOL    HW2 6975   2.608   1.929   3.533
 2026SOL     OW 6976   0.654   2.890   5.646
 2026SOL    HW1 6977   0.701   2.957   5.704
 2026SOL    HW2 6978   0.704   2.804   5.646
 2027SOL     OW 6979   0.549   0.975   0.344
 2027SOL    HW1 6980   0.620   0.991   0.413
 2027SOL    HW2 6981   0.573   0.895   0.289
 2028SOL     OW 6982   3.264   7.013   5.069
 2028SOL    HW1 6983   3.345   6.972   5.112
 2028SOL    HW2 6984   3.209   6.941   5.026
 2029SOL     OW 6985   6.244   0.218   0.339
 2029SOL    HW1 6986   6.198   0.165   0.410
 2029SOL    HW2 6987   6.262   0.310   0.373
 2030SOL     OW 6988   2.677   1.306   2.664
 2030SOL    HW1 6989   2.757   1.247   2.649
 2030SOL    HW2 6990   2.594   1.250   2.660
 2031SOL     OW 6991   6.441   5.875   1.284
 2031SOL    HW1 6992   6.502   5.816   1.338
 2031SOL    HW2 6993   6.496   5.935   1.226
 2032SOL     OW 6994   5.123   6.941   2.059
 2032SOL    HW1 6995   5.106   6.996   2.141
 2032SOL    HW2 6996   5.066   6.859   2.062
 2033SOL     OW 6997   3.334   4.092   6.587
 2033SOL    HW1 6998   3.346   4.006   6.635
 2033SOL    HW2 6999   3.362   4.082   6.491
 2034SOL     OW 7000   3.423   6.087   5.143
 2034SOL    HW1 7001   3.363   6.047   5.212
 2034SOL    HW2 7002   3.465   6.170   5.180
 2035SOL     OW 7003   0.490   0.444   2.920
 2035SOL    HW1 7004   0.550   0.524   2.923
 2035SOL    HW2 7005   0.492   0.404   2.829
 2036SOL     OW 7006   1.690   4.696   2.908
 2036SOL    HW1 7007   1.755   4.623   2.927
 2036SOL    HW2 7008   1.654   4.685   2.815
 2037SOL     OW 7009   6.623   2.982   5.350
 2037SOL    HW1 7010   6.611   3.071   5.304
 2037SOL    HW2 7011   6.534   2.939   5.362
 2038SOL     OW 7012   1.322   2.672   0.099
 2038SOL    HW1 7013   1.330   2.579   0.134
 2038SOL    HW2 7014   1.410   2.701   0.061
 2039SOL     OW 7015   0.542   5.596   3.096
 2039SOL    HW1 7016   0.520   5.621   3.002
 2039SOL    HW2 7017   0.623   5.538   3.097
 2040SOL     OW 7018   3.139   3.565   4.761
 2040SOL    HW1 7019   3.195   3.504   4.818
 2040SOL    HW2 7020   3.049   3.525   4.748
 2041SOL     OW 7021   0.489   5.982   5.142
 2041SOL    HW1 7022   0.546   6.003   5.222
 2041SOL    HW2 7023   0.529   6.023   5.061
 2042SOL     OW 7024   4.860   5.603   0.021
 2042SOL    HW1 7025   4.918   5.610   6.964
 2042SOL    HW2 7026   4.885   5.673   0.087
 2043SOL     OW 7027   6.834   3.389   3.859
 2043SOL    HW1 7028   6.809   3.332   3.937
 2043SOL    HW2 7029   6.751   3.432   3.822
 2044SOL     OW 7030   6.496   6.748   1.471
 2044SOL    HW1 7031   6.545   6.681   1.415
 2044SOL    HW2 7032   6.539   6.754   1.561
 2045SOL     OW 7033   2.628   5.291   4.142
 2045SOL    HW1 7034   2.563   5.318   4.213
 2045SOL    HW2 7035   2.608   5.198   4.113
 2046SOL     OW 7036   7.020   2.333   4.332
 2046SOL    HW1 7037   6.920   2.335   4.330
 2046SOL    HW2 7038   0.027   2.239   4.341
 2047SOL     OW 7039   6.311   1.692   0.074
 2047SOL    HW1 7040   6.354   1.779   0.098
 2047SOL    HW2 7041   6.244   1.667   0.144
 2048SOL     OW 7042   1.556   6.325   6.014
 2048SOL    HW1 7043   1.477   6.295   5.961
 2048SOL    HW2 7044   1.630   6.258   6.005
 2049SOL     OW 7045   5.920   1.421   5.575
 2049SOL    HW1 7046   5.844   1.486   5.568
 2049SOL    HW2 7047   5.919   1.360   5.495
 2050SOL     OW 7048   6.652   2.909   4.061
 2050SOL    HW1 7049   6.659   3.008   4.073
 2050SOL    HW2 7050   6.714   2.878   3.989
 2051SOL     OW 7051   1.104   5.570   0.435
 2051SOL    HW1 7052   1.046   5.619   0.370
 2051SOL    HW2 7053   1.089   5.471   0.425
 2052SOL     OW 7054   1.575   3.804   0.937
 2052SOL    HW1 7055   1.670   3.800   0.968
 2052SOL    HW2 7056   1.521   3.859   1.000
 2053SOL     OW 7057   5.675   6.729   4.496
 2053SOL    HW1 7058   5.682   6.678   4.410
 2053SOL    HW2 7059   5.627   6.673   4.564
 2054SOL     OW 7060   3.649   4.160   2.903
 2054SOL    HW1 7061   3.603   4.241   2.866
 2054SOL    HW2 7062   3.628   4.150   3.000
 2055SOL     OW 7063   5.956   3.489   3.075
 2055SOL    HW1 7064   5.877   3.482   3.135
 2055SOL    HW2 7065   5.969   3.585   3.049
 2056SOL     OW 7066   3.391   6.094   2.753
 2056SOL    HW1 7067   3.425   6.022   2.814
 2056SOL    HW2 7068   3.443   6.178   2.768
 2057SOL     OW 7069   5.448   3.992   5.197
 2057SOL    HW1 7070   5.395   3.916   5.236
 2057SOL    HW2 7071   5.432   4.075   5.251
 2058SOL     OW 7072   0.675   1.751   3.048
 2058SOL    HW1 7073   0.617   1.671   3.033
 2058SOL    HW2 7074   0.633   1.810   3.117
 2059SOL     OW 7075   1.741   5.700   6.412
 2059SOL    HW1 7076   1.765   5.787   6.456
 2059SOL    HW2 7077   1.759   5.706   6.314
 2060SOL     OW 7078   0.393   4.360   1.616
 2060SOL    HW1 7079   0.471   4.422   1.614
 2060SOL    HW2 7080   0.404   4.289   1.546
 2061SOL     OW 7081   0.676   2.191   3.356
 2061SOL    HW1 7082   0.675   2.184   3.456
 2061SOL    HW2 7083   0.622   2.117   3.317
 2062SOL     OW 7084   6.196   6.543   3.991
 2062SOL    HW1 7085   6.201   6.559   4.090
 2062SOL    HW2 7086   6.281   6.575   3.948
 2063SOL     OW 7087   1.959   0.002   6.609
 2063SOL    HW1 7088   2.007   0.061   6.544
 2063SOL    HW2 7089   1.862   0.026   6.611
 2064SOL     OW 7090   1.276   2.342   5.305
 2064SOL    HW1 7091   1.374   2.363   5.305
 2064SOL    HW2 7092   1.244   2.335   5.399
 2065SOL     OW 7093   6.568   2.346   5.288
 2065SOL    HW1 7094   6.571   2.299   5.199
 2065SOL    HW2 7095   6.571   2.444   5.273
 2066SOL     OW 7096   0.781   4.601   4.120
 2066SOL    HW1 7097   0.688   4.614   4.087
 2066SOL    HW2 7098   0.803   4.673   4.186
 2067SOL     OW 7099   6.428   4.731   1.092
 2067SOL    HW1 7100   6.352   4.670   1.068
 2067SOL    HW2 7101   6.415   4.765   1.186
 2068SOL     OW 7102   1.882   0.575   4.556
 2068SOL    HW1 7103   1.976   0.610   4.550
 2068SOL    HW2 7104   1.880   0.479   4.529
 2069SOL     OW 7105   0.370   2.479   4.066
 2069SOL    HW1 7106   0.449   2.534   4.041
 2069SOL    HW2 7107   0.334   2.433   3.985
 2070SOL     OW 7108   0.959   1.132   1.535
 2070SOL    HW1 7109   0.861   1.151   1.530
 2070SOL    HW2 7110   1.005   1.208   1.580
 2071SOL     OW 7111   6.575   6.611   6.020
 2071SOL    HW1 7112   6.566   6.649   5.928
 2071SOL    HW2 7113   6.672   6.603   6.043
 2072SOL     OW 7114   4.478   6.212   4.039
 2072SOL    HW1 7115   4.543   6.178   3.971
 2072SOL    HW2 7116   4.396   6.153   4.038
 2073SOL     OW 7117   3.903   6.915   4.890
 2073SOL    HW1 7118   3.818   6.861   4.885
 2073SOL    HW2 7119   3.979   6.860   4.857
 2074SOL     OW 7120   1.961   2.876   6.871
 2074SOL    HW1 7121   1.995   2.958   6.823
 2074SOL    HW2 7122   1.863   2.866   6.853
 2075SOL     OW 7123   6.370   3.261   2.910
 2075SOL    HW1 7124   6.469   3.254   2.916
 2075SOL    HW2 7125   6.337   3.336   2.967
 2076SOL     OW 7126   6.258   0.017   6.838
 2076SOL    HW1 7127   6.306   0.055   6.758
 2076SOL    HW2 7128   6.287   0.067   6.920
 2077SOL     OW 7129   5.610   2.706   2.872
 2077SOL    HW1 7130   5.679   2.773   2.843
 2077SOL    HW2 7131   5.616   2.693   2.971
 2078SOL     OW 7132   1.337   6.055   6.125
 2078SOL    HW1 7133   1.361   6.032   6.031
 2078SOL    HW2 7134   1.267   5.990   6.158
 2079SOL     OW 7135   5.558   2.587   3.399
 2079SOL    HW1 7136   5.592   2.679   3.419
 2079SOL    HW2 7137   5.635   2.523   3.395
 2080SOL     OW 7138   1.512   6.880   4.630
 2080SOL    HW1 7139   1.527   6.790   4.670
 2080SOL    HW2 7140   1.447   6.932   4.686
 2081SOL     OW 7141   1.295   5.029   4.241
 2081SOL    HW1 7142   1.358   4.965   4.197
 2081SOL    HW2 7143   1.346   5.103   4.285
 2082SOL     OW 7144   0.506   0.174   3.028
 2082SOL    HW1 7145   0.493   0.257   2.974
 2082SOL    HW2 7146   0.487   0.094   2.972
 2083SOL     OW 7147   6.421   4.604   6.081
 2083SOL    HW1 7148   6.408   4.634   6.176
 2083SOL    HW2 7149   6.498   4.653   6.041
 2084SOL     OW 7150   1.004   3.780   3.029
 2084SOL    HW1 7151   1.002   3.743   2.937
 2084SOL    HW2 7152   0.912   3.778   3.068
 2085SOL     OW 7153   4.759   0.171   6.852
 2085SOL    HW1 7154   4.830   0.161   6.922
 2085SOL    HW2 7155   4.782   0.114   6.773
 2086SOL     OW 7156   4.357   5.931   5.872
 2086SOL    HW1 7157   4.410   6.008   5.909
 2086SOL    HW2 7158   4.298   5.964   5.798
 2087SOL     OW 7159   5.122   0.914   1.380
 2087SOL    HW1 7160   5.169   0.826   1.375
 2087SOL    HW2 7161   5.126   0.949   1.474
 2088SOL     OW 7162   1.708   6.035   0.472
 2088SOL    HW1 7163   1.760   6.012   0.555
 2088SOL    HW2 7164   1.657   6.119   0.487
 2089SOL     OW 7165   5.153   2.233   6.477
 2089SOL    HW1 7166   5.217   2.286   6.422
 2089SOL    HW2 7167   5.190   2.223   6.570
 2090SOL     OW 7168   4.138   3.600   5.404
 2090SOL    HW1 7169   4.079   3.657   5.460
 2090SOL    HW2 7170   4.184   3.656   5.335
 2091SOL     OW 7171   6.935   5.390   0.904
 2091SOL    HW1 7172   6.893   5.450   0.836
 2091SOL    HW2 7173   6.986   5.445   0.970
 2092SOL     OW 7174   4.789   3.764   0.060
 2092SOL    HW1 7175   4.797   3.809   0.149
 2092SOL    HW2 7176   4.726   3.815   0.002
 2093SOL     OW 7177   2.910   2.290   1.561
 2093SOL    HW1 7178   2.958   2.240   1.632
 2093SOL    HW2 7179   2.843   2.352   1.603
 2094SOL     OW 7180   5.575   1.695   3.173
 2094SOL    HW1 7181   5.672   1.713   3.156
 2094SOL    HW2 7182   5.560   1.681   3.270
 2095SOL     OW 7183   6.139   6.579   5.207
 2095SOL    HW1 7184   6.208   6.511   5.182
 2095SOL    HW2 7185   6.056   6.532   5.239
 2096SOL     OW 7186   5.020   3.974   3.015
 2096SOL    HW1 7187   5.083   3.922   2.957
 2096SOL    HW2 7188   4.988   3.916   3.090
 2097SOL     OW 7189   3.052   3.554   6.671
 2097SOL    HW1 7190   2.965   3.600   6.686
 2097SOL    HW2 7191   3.116   3.617   6.626
 2098SOL     OW 7192   3.503   6.153   1.921
 2098SOL    HW1 7193   3.532   6.070   1.968
 2098SOL    HW2 7194   3.496   6.228   1.988
 2099SOL     OW 7195   3.335   2.706   6.346
 2099SOL    HW1 7196   3.281   2.748   6.273
 2099SOL    HW2 7197   3.420   2.757   6.357
 2100SOL     OW 7198   5.536   2.310   6.651
 2100SOL    HW1 7199   5.595   2.388   6.632
 2100SOL    HW2 7200   5.549   2.240   6.581
 2101SOL     OW 7201   1.407   6.946   1.477
 2101SOL    HW1 7202   1.352   6.958   1.559
 2101SOL    HW2 7203   1.363   6.990   1.399
 2102SOL     OW 7204   5.341   5.149   2.666
 2102SOL    HW1 7205   5.273   5.215   2.695
 2102SOL    HW2 7206   5.343   5.145   2.566
 2103SOL     OW 7207   3.643   4.232   6.325
 2103SOL    HW1 7208   3.631   4.320   6.278
 2103SOL    HW2 7209   3.556   4.183   6.327
 2104SOL     OW 7210   1.570   4.447   1.324
 2104SOL    HW1 7211   1.592   4.455   1.421
 2104SOL    HW2 7212   1.480   4.404   1.314
 2105SOL     OW 7213   5.788   5.314   5.044
 2105SOL    HW1 7214   5.887   5.319   5.057
 2105SOL    HW2 7215   5.748   5.255   5.115
 2106SOL     OW 7216   4.847   4.211   1.063
 2106SOL    HW1 7217   4.790   4.276   1.013
 2106SOL    HW2 7218   4.920   4.178   1.004
 2107SOL     OW 7219   5.747   2.787   5.565
 2107SOL    HW1 7220   5.693   2.761   5.485
 2107SOL    HW2 7221   5.827   2.841   5.536
 2108SOL     OW 7222   6.661   5.739   4.760
 2108SOL    HW1 7223   6.618   5.701   4.842
 2108SOL    HW2 7224   6.645   5.838   4.757
 2109SOL     OW 7225   4.336   6.036   2.239
 2109SOL    HW1 7226   4.329   5.978   2.158
 2109SOL    HW2 7227   4.330   5.979   2.321
 2110SOL     OW 7228   2.230   2.002   0.259
 2110SOL    HW1 7229   2.217   2.067   0.335
 2110SOL    HW2 7230   2.327   1.985   0.247
 2111SOL     OW 7231   1.986   2.590   6.790
 2111SOL    HW1 7232   2.022   2.683   6.784
 2111SOL    HW2 7233   1.898   2.585   6.743
 2112SOL     OW 7234   5.582   2.987   0.366
 2112SOL    HW1 7235   5.581   3.052   0.441
 2112SOL    HW2 7236   5.488   2.965   0.339
 2113SOL     OW 7237   2.491   1.693   4.445
 2113SOL    HW1 7238   2.531   1.609   4.410
 2113SOL    HW2 7239   2.495   1.693   4.545
 2114SOL     OW 7240   2.080   1.896   6.377
 2114SOL    HW1 7241   2.121   1.908   6.468
 2114SOL    HW2 7242   1.987   1.932   6.378
 2115SOL     OW 7243   1.543   4.051   3.279
 2115SOL    HW1 7244   1.631   4.067   3.234
 2115SOL    HW2 7245   1.480   4.125   3.258
 2116SOL     OW 7246   0.905   4.952   3.149
 2116SOL    HW1 7247   0.869   5.000   3.229
 2116SOL    HW2 7248   0.862   4.988   3.066
 2117SOL     OW 7249   6.746   4.562   2.005
 2117SOL    HW1 7250   6.748   4.555   1.905
 2117SOL    HW2 7251   6.766   4.656   2.031
 2118SOL     OW 7252   6.332   2.531   2.934
 2118SOL    HW1 7253   6.418   2.492   2.967
 2118SOL    HW2 7254   6.330   2.528   2.834
 2119SOL     OW 7255   1.316   0.577   0.888
 2119SOL    HW1 7256   1.240   0.576   0.953
 2119SOL    HW2 7257   1.306   0.655   0.826
 2120SOL     OW 7258   0.375   5.179   3.226
 2120SOL    HW1 7259   0.421   5.093   3.207
 2120SOL    HW2 7260   0.443   5.249   3.247
 2121SOL     OW 7261   1.522   3.947   6.468
 2121SOL    HW1 7262   1.530   3.867   6.410
 2121SOL    HW2 7263   1.612   3.974   6.501
 2122SOL     OW 7264   5.853   4.097   6.091
 2122SOL    HW1 7265   5.836   4.132   5.999
 2122SOL    HW2 7266   5.890   4.170   6.148
 2123SOL     OW 7267   6.733   5.104   2.213
 2123SOL    HW1 7268   6.645   5.067   2.243
 2123SOL    HW2 7269   6.797   5.104   2.290
 2124SOL     OW 7270   3.074   2.291   1.168
 2124SOL    HW1 7271   3.136   2.274   1.091
 2124SOL    HW2 7272   3.126   2.294   1.253
 2125SOL     OW 7273   1.914   0.753   2.448
 2125SOL    HW1 7274   1.830   0.731   2.498
 2125SOL    HW2 7275   1.940   0.848   2.465
 2126SOL     OW 7276   3.746   2.164   6.550
 2126SOL    HW1 7277   3.669   2.123   6.499
 2126SOL    HW2 7278   3.735   2.263   6.552
 2127SOL     OW 7279   1.118   2.318   5.540
 2127SOL    HW1 7280   1.135   2.414   5.563
 2127SOL    HW2 7281   1.053   2.279   5.605
 2128SOL     OW 7282   6.365   3.236   4.226
 2128SOL    HW1 7283   6.463   3.225   4.246
 2128SOL    HW2 7284   6.313   3.168   4.277
 2129SOL     OW 7285   4.556   2.856   5.251
 2129SOL    HW1 7286   4.477   2.903   5.290
 2129SOL    HW2 7287   4.618   2.923   5.210
 2130SOL     OW 7288   3.799   0.394   2.946
 2130SOL    HW1 7289   3.826   0.301   2.972
 2130SOL    HW2 7290   3.713   0.391   2.894
 2131SOL     OW 7291   4.681   1.493   6.929
 2131SOL    HW1 7292   4.603   1.443   6.966
 2131SOL    HW2 7293   4.659   1.524   6.837
 2132SOL     OW 7294   3.703   0.633   0.520
 2132SOL    HW1 7295   3.663   0.542   0.513
 2132SOL    HW2 7296   3.633   0.703   0.507
 2133SOL     OW 7297   3.435   3.166   1.099
 2133SOL    HW1 7298   3.346   3.127   1.124
 2133SOL    HW2 7299   3.504   3.093   1.097
 2134SOL     OW 7300   0.422   0.578   5.724
 2134SOL    HW1 7301   0.405   0.674   5.706
 2134SOL    HW2 7302   0.406   0.559   5.821
 2135SOL     OW 7303   1.734   3.063   5.406
 2135SOL    HW1 7304   1.706   2.984   5.460
 2135SOL    HW2 7305   1.653   3.113   5.375
 2136SOL     OW 7306   0.555   4.224   4.194
 2136SOL    HW1 7307   0.504   4.163   4.256
 2136SOL    HW2 7308   0.548   4.318   4.228
 2137SOL     OW 7309   1.112   5.381   4.462
 2137SOL    HW1 7310   1.187   5.422   4.514
 2137SOL    HW2 7311   1.115   5.281   4.473
 2138SOL     OW 7312   6.558   0.917   2.677
 2138SOL    HW1 7313   6.619   0.950   2.605
 2138SOL    HW2 7314   6.463   0.940   2.653
 2139SOL     OW 7315   3.660   1.120   2.821
 2139SOL    HW1 7316   3.640   1.041   2.761
 2139SOL    HW2 7317   3.740   1.100   2.877
 2140SOL     OW 7318   3.978   6.181   3.940
 2140SOL    HW1 7319   3.976   6.244   4.017
 2140SOL    HW2 7320   3.896   6.123   3.941
 2141SOL     OW 7321   6.071   4.365   2.167
 2141SOL    HW1 7322   6.124   4.281   2.160
 2141SOL    HW2 7323   6.130   4.440   2.197
 2142SOL     OW 7324   1.241   2.266   2.952
 2142SOL    HW1 7325   1.177   2.255   2.876
 2142SOL    HW2 7326   1.329   2.298   2.918
 2143SOL     OW 7327   3.027   4.412   1.449
 2143SOL    HW1 7328   3.017   4.356   1.367
 2143SOL    HW2 7329   2.937   4.448   1.476
 2144SOL     OW 7330   1.318   5.486   4.012
 2144SOL    HW1 7331   1.233   5.436   3.995
 2144SOL    HW2 7332   1.391   5.449   3.954
 2145SOL     OW 7333   4.335   5.809   4.234
 2145SOL    HW1 7334   4.280   5.797   4.152
 2145SOL    HW2 7335   4.387   5.894   4.228
 2146SOL     OW 7336   2.852   3.474   1.403
 2146SOL    HW1 7337   2.855   3.465   1.503
 2146SOL    HW2 7338   2.782   3.412   1.366
 2147SOL     OW 7339   6.915   1.643   6.082
 2147SOL    HW1 7340   6.994   1.611   6.135
 2147SOL    HW2 7341   6.942   1.719   6.024
 2148SOL     OW 7342   5.490   1.803   5.565
 2148SOL    HW1 7343   5.470   1.807   5.468
 2148SOL    HW2 7344   5.413   1.762   5.614
 2149SOL     OW 7345   3.609   2.555   1.323
 2149SOL    HW1 7346   3.559   2.582   1.405
 2149SOL    HW2 7347   3.698   2.518   1.349
 2150SOL     OW 7348   3.078   1.895   2.475
 2150SOL    HW1 7349   3.006   1.831   2.445
 2150SOL    HW2 7350   3.036   1.983   2.499
 2151SOL     OW 7351   1.796   0.815   5.165
 2151SOL    HW1 7352   1.767   0.891   5.224
 2151SOL    HW2 7353   1.807   0.849   5.071
 2152SOL     OW 7354   3.752   6.355   1.645
 2152SOL    HW1 7355   3.838   6.321   1.683
 2152SOL    HW2 7356   3.762   6.370   1.547
 2153SOL     OW 7357   3.713   0.481   3.352
 2153SOL    HW1 7358   3.774   0.558   3.371
 2153SOL    HW2 7359   3.754   0.397   3.387
 2154SOL     OW 7360   4.747   6.928   4.776
 2154SOL    HW1 7361   4.683   6.862   4.735
 2154SOL    HW2 7362   4.752   6.912   4.874
 2155SOL     OW 7363   1.752   6.067   0.207
 2155SOL    HW1 7364   1.750   6.051   0.306
 2155SOL    HW2 7365   1.796   6.155   0.188
 2156SOL     OW 7366   2.939   1.157   4.757
 2156SOL    HW1 7367   2.916   1.219   4.831
 2156SOL    HW2 7368   2.876   1.172   4.680
 2157SOL     OW 7369   6.445   1.208   3.550
 2157SOL    HW1 7370   6.523   1.255   3.592
 2157SOL    HW2 7371   6.468   1.111   3.538
 2158SOL     OW 7372   4.002   6.221   0.770
 2158SOL    HW1 7373   4.051   6.145   0.813
 2158SOL    HW2 7374   3.955   6.274   0.841
 2159SOL     OW 7375   1.835   6.496   5.579
 2159SOL    HW1 7376   1.930   6.487   5.550
 2159SOL    HW2 7377   1.790   6.567   5.525
 2160SOL     OW 7378   3.987   4.077   0.776
 2160SOL    HW1 7379   3.914   4.137   0.809
 2160SOL    HW2 7380   4.073   4.127   0.775
 2161SOL     OW 7381   5.144   4.239   3.276
 2161SOL    HW1 7382   5.141   4.218   3.374
 2161SOL    HW2 7383   5.239   4.237   3.244
 2162SOL     OW 7384   2.291   0.716   1.337
 2162SOL    HW1 7385   2.389   0.716   1.359
 2162SOL    HW2 7386   2.269   0.633   1.285
 2163SOL     OW 7387   0.787   4.382   6.684
 2163SOL    HW1 7388   0.873   4.337   6.657
 2163SOL    HW2 7389   0.796   4.481   6.674
 2164SOL     OW 7390   1.244   3.114   6.768
 2164SOL    HW1 7391   1.145   3.096   6.762
 2164SOL    HW2 7392   1.270   3.181   6.699
 2165SOL     OW 7393   0.538   2.441   2.941
 2165SOL    HW1 7394   0.560   2.452   2.844
 2165SOL    HW2 7395   0.620   2.411   2.990
 2166SOL     OW 7396   1.242   2.314   4.723
 2166SOL    HW1 7397   1.199   2.352   4.641
 2166SOL    HW2 7398   1.254   2.386   4.791
 2167SOL     OW 7399   1.754   1.620   3.729
 2167SOL    HW1 7400   1.810   1.546   3.764
 2167SOL    HW2 7401   1.695   1.655   3.802
 2168SOL     OW 7402   0.725   1.890   4.178
 2168SOL    HW1 7403   0.806   1.864   4.126
 2168SOL    HW2 7404   0.667   1.809   4.193
 2169SOL     OW 7405   5.623   2.008   5.677
 2169SOL    HW1 7406   5.657   1.968   5.762
 2169SOL    HW2 7407   5.566   1.940   5.629
 2170SOL     OW 7408   6.710   5.107   5.449
 2170SOL    HW1 7409   6.639   5.038   5.460
 2170SOL    HW2 7410   6.696   5.180   5.516
 2171SOL     OW 7411   0.146   3.708   1.829
 2171SOL    HW1 7412   0.205   3.743   1.902
 2171SOL    HW2 7413   0.092   3.783   1.791
 2172SOL     OW 7414   3.092   2.535   0.579
 2172SOL    HW1 7415   3.112   2.626   0.544
 2172SOL    HW2 7416   2.993   2.522   0.584
 2173SOL     OW 7417   3.457   0.285   4.479
 2173SOL    HW1 7418   3.523   0.238   4.421
 2173SOL    HW2 7419   3.506   0.331   4.554
 2174SOL     OW 7420   5.572   5.464   5.127
 2174SOL    HW1 7421   5.525   5.481   5.040
 2174SOL    HW2 7422   5.647   5.400   5.113
 2175SOL     OW 7423   2.283   2.821   4.861
 2175SOL    HW1 7424   2.324   2.900   4.905
 2175SOL    HW2 7425   2.191   2.844   4.829
 2176SOL     OW 7426   0.849   2.738   0.195
 2176SOL    HW1 7427   0.916   2.794   0.243
 2176SOL    HW2 7428   0.783   2.797   0.147
 2177SOL     OW 7429   6.381   1.476   3.772
 2177SOL    HW1 7430   6.285   1.468   3.746
 2177SOL    HW2 7431   6.398   1.421   3.854
 2178SOL     OW 7432   1.042   3.632   0.388
 2178SOL    HW1 7433   1.136   3.661   0.368
 2178SOL    HW2 7434   1.037   3.597   0.481
 2179SOL     OW 7435   1.820   5.443   4.731
 2179SOL    HW1 7436   1.735   5.397   4.757
 2179SOL    HW2 7437   1.836   5.520   4.794
 2180SOL     OW 7438   2.400   2.764   1.785
 2180SOL    HW1 7439   2.416   2.820   1.704
 2180SOL    HW2 7440   2.302   2.765   1.808
 2181SOL     OW 7441   4.371   4.896   5.341
 2181SOL    HW1 7442   4.351   4.991   5.317
 2181SOL    HW2 7443   4.292   4.838   5.318
 2182SOL     OW 7444   0.874   3.266   4.373
 2182SOL    HW1 7445   0.815   3.345   4.393
 2182SOL    HW2 7446   0.825   3.182   4.398
 2183SOL     OW 7447   2.850   4.271   5.842
 2183SOL    HW1 7448   2.824   4.174   5.842
 2183SOL    HW2 7449   2.898   4.292   5.757
 2184SOL     OW 7450   4.578   2.071   6.872
 2184SOL    HW1 7451   4.649   2.002   6.887
 2184SOL    HW2 7452   4.489   2.024   6.862
 2185SOL     OW 7453   1.487   2.007   0.682
 2185SOL    HW1 7454   1.532   1.977   0.598
 2185SOL    HW2 7455   1.557   2.038   0.747
 2186SOL     OW 7456   0.355   5.239   2.337
 2186SOL    HW1 7457   0.382   5.273   2.427
 2186SOL    HW2 7458   0.436   5.204   2.290
 2187SOL     OW 7459   6.398   1.475   2.623
 2187SOL    HW1 7460   6.349   1.431   2.698
 2187SOL    HW2 7461   6.349   1.558   2.595
 2188SOL     OW 7462   5.953   6.125   4.478
 2188SOL    HW1 7463   5.872   6.182   4.496
 2188SOL    HW2 7464   6.002   6.162   4.400
 2189SOL     OW 7465   1.916   0.105   0.311
 2189SOL    HW1 7466   2.001   0.067   0.346
 2189SOL    HW2 7467   1.933   0.195   0.272
 2190SOL     OW 7468   0.150   2.854   1.897
 2190SOL    HW1 7469   0.150   2.787   1.822
 2190SOL    HW2 7470   0.170   2.808   1.983
 2191SOL     OW 7471   2.731   2.114   6.602
 2191SOL    HW1 7472   2.814   2.122   6.657
 2191SOL    HW2 7473   2.677   2.198   6.612
 2192SOL     OW 7474   3.923   1.256   2.906
 2192SOL    HW1 7475   3.841   1.298   2.867
 2192SOL    HW2 7476   3.968   1.199   2.836
 2193SOL     OW 7477   6.608   5.557   5.883
 2193SOL    HW1 7478   6.607   5.657   5.882
 2193SOL    HW2 7479   6.665   5.525   5.959
 2194SOL     OW 7480   2.307   4.723   6.944
 2194SOL    HW1 7481   2.227   4.750   6.997
 2194SOL    HW2 7482   2.281   4.705   6.849
 2195SOL     OW 7483   6.884   0.236   3.477
 2195SOL    HW1 7484   6.856   0.326   3.443
 2195SOL    HW2 7485   6.836   0.216   3.562
 2196SOL     OW 7486   3.216   0.531   4.626
 2196SOL    HW1 7487   3.270   0.514   4.544
 2196SOL    HW2 7488   3.248   0.615   4.670
 2197SOL     OW 7489   2.993   3.652   0.962
 2197SOL    HW1 7490   2.990   3.557   0.992
 2197SOL    HW2 7491   3.027   3.656   0.868
 2198SOL     OW 7492   6.550   1.154   0.251
 2198SOL    HW1 7493   6.600   1.235   0.281
 2198SOL    HW2 7494   6.454   1.163   0.277
 2199SOL     OW 7495   5.499   1.143   3.119
 2199SOL    HW1 7496   5.451   1.215   3.169
 2199SOL    HW2 7497   5.505   1.061   3.176
 2200SOL     OW 7498   3.085   0.290   4.553
 2200SOL    HW1 7499   3.148   0.212   4.554
 2200SOL    HW2 7500   3.106   0.351   4.629
 2201SOL     OW 7501   6.255   2.301   3.312
 2201SOL    HW1 7502   6.208   2.372   3.260
 2201SOL    HW2 7503   6.191   2.227   3.332
 2202SOL     OW 7504   2.747   4.868   2.571
 2202SOL    HW1 7505   2.677   4.929   2.534
 2202SOL    HW2 7506   2.797   4.825   2.495
 2203SOL     OW 7507   2.408   2.715   1.264
 2203SOL    HW1 7508   2.499   2.757   1.266
 2203SOL    HW2 7509   2.374   2.706   1.357
 2204SOL     OW 7510   4.519   0.906   0.052
 2204SOL    HW1 7511   4.485   0.869   0.138
 2204SOL    HW2 7512   4.454   0.884   7.003
 2205SOL     OW 7513   1.382   0.256   6.021
 2205SOL    HW1 7514   1.287   0.280   6.007
 2205SOL    HW2 7515   1.440   0.309   5.958
 2206SOL     OW 7516   2.803   4.362   6.407
 2206SOL    HW1 7517   2.712   4.387   6.373
 2206SOL    HW2 7518   2.804   4.368   6.507
 2207SOL     OW 7519   3.017   4.268   6.943
 2207SOL    HW1 7520   3.099   4.226   6.981
 2207SOL    HW2 7521   2.972   4.205   6.880
 2208SOL     OW 7522   1.459   6.275   2.269
 2208SOL    HW1 7523   1.501   6.365   2.263
 2208SOL    HW2 7524   1.526   6.205   2.245
 2209SOL     OW 7525   1.590   6.054   5.777
 2209SOL    HW1 7526   1.641   6.107   5.845
 2209SOL    HW2 7527   1.653   5.995   5.726
 2210SOL     OW 7528   6.782   4.888   4.093
 2210SOL    HW1 7529   6.774   4.940   4.008
 2210SOL    HW2 7530   6.699   4.901   4.147
 2211SOL     OW 7531   5.426   0.468   6.946
 2211SOL    HW1 7532   5.491   0.428   6.881
 2211SOL    HW2 7533   5.449   0.564   6.961
 2212SOL     OW 7534   1.689   6.335   6.623
 2212SOL    HW1 7535   1.755   6.407   6.646
 2212SOL    HW2 7536   1.617   6.332   6.693
 2213SOL     OW 7537   3.691   2.823   5.157
 2213SOL    HW1 7538   3.713   2.731   5.189
 2213SOL    HW2 7539   3.776   2.875   5.145
 2214SOL     OW 7540   3.902   2.978   5.158
 2214SOL    HW1 7541   3.943   3.064   5.186
 2214SOL    HW2 7542   3.961   2.902   5.187
 2215SOL     OW 7543   6.555   2.069   0.059
 2215SOL    HW1 7544   6.512   2.025   7.005
 2215SOL    HW2 7545   6.535   2.016   0.142
 2216SOL     OW 7546   1.823   0.365   5.986
 2216SOL    HW1 7547   1.740   0.419   5.971
 2216SOL    HW2 7548   1.853   0.324   5.900
 2217SOL     OW 7549   3.796   6.732   1.485
 2217SOL    HW1 7550   3.793   6.831   1.495
 2217SOL    HW2 7551   3.746   6.689   1.561
 2218SOL     OW 7552   0.837   6.847   0.777
 2218SOL    HW1 7553   0.884   6.856   0.689
 2218SOL    HW2 7554   0.768   6.775   0.772
 2219SOL     OW 7555   6.136   2.199   2.222
 2219SOL    HW1 7556   6.178   2.288   2.208
 2219SOL    HW2 7557   6.185   2.151   2.296
 2220SOL     OW 7558   1.292   0.146   3.902
 2220SOL    HW1 7559   1.313   0.050   3.881
 2220SOL    HW2 7560   1.229   0.150   3.979
 2221SOL     OW 7561   6.013   0.703   5.003
 2221SOL    HW1 7562   6.094   0.657   5.038
 2221SOL    HW2 7563   6.026   0.802   5.006
 2222SOL     OW 7564   4.354   0.039   0.670
 2222SOL    HW1 7565   4.344   0.065   0.574
 2222SOL    HW2 7566   4.280   7.002   0.696
 2223SOL     OW 7567   5.933   0.916   4.568
 2223SOL    HW1 7568   5.972   0.960   4.487
 2223SOL    HW2 7569   5.995   0.845   4.601
 2224SOL     OW 7570   1.999   4.175   1.419
 2224SOL    HW1 7571   2.074   4.146   1.478
 2224SOL    HW2 7572   2.019   4.150   1.325
 2225SOL     OW 7573   6.042   6.319   2.911
 2225SOL    HW1 7574   5.995   6.340   2.825
 2225SOL    HW2 7575   6.046   6.220   2.923
 2226SOL     OW 7576   4.210   5.129   0.631
 2226SOL    HW1 7577   4.132   5.079   0.592
 2226SOL    HW2 7578   4.185   5.225   0.642
 2227SOL     OW 7579   5.691   3.837   0.783
 2227SOL    HW1 7580   5.776   3.865   0.739
 2227SOL    HW2 7581   5.622   3.819   0.713
 2228SOL     OW 7582   2.479   5.139   1.252
 2228SOL    HW1 7583   2.440   5.055   1.213
 2228SOL    HW2 7584   2.478   5.134   1.351
 2229SOL     OW 7585   4.333   1.623   4.342
 2229SOL    HW1 7586   4.346   1.701   4.281
 2229SOL    HW2 7587   4.236   1.603   4.351
 2230SOL     OW 7588   6.215   5.693   6.093
 2230SOL    HW1 7589   6.204   5.774   6.151
 2230SOL    HW2 7590   6.125   5.658   6.069
 2231SOL     OW 7591   0.718   0.847   2.181
 2231SOL    HW1 7592   0.664   0.816   2.259
 2231SOL    HW2 7593   0.675   0.816   2.096
 2232SOL     OW 7594   0.585   3.270   5.107
 2232SOL    HW1 7595   0.606   3.275   5.205
 2232SOL    HW2 7596   0.669   3.285   5.054
 2233SOL     OW 7597   2.769   4.534   1.395
 2233SOL    HW1 7598   2.714   4.613   1.422
 2233SOL    HW2 7599   2.741   4.454   1.448
 2234SOL     OW 7600   4.152   2.305   1.766
 2234SOL    HW1 7601   4.224   2.261   1.713
 2234SOL    HW2 7602   4.093   2.235   1.807
 2235SOL     OW 7603   2.043   0.684   1.193
 2235SOL    HW1 7604   1.979   0.757   1.218
 2235SOL    HW2 7605   2.114   0.721   1.133
 2236SOL     OW 7606   0.994   4.247   6.609
 2236SOL    HW1 7607   1.051   4.262   6.528
 2236SOL    HW2 7608   0.942   4.163   6.597
 2237SOL     OW 7609   5.537   4.973   3.954
 2237SOL    HW1 7610   5.455   4.919   3.937
 2237SOL    HW2 7611   5.511   5.065   3.985
 2238SOL     OW 7612   5.309   4.717   1.149
 2238SOL    HW1 7613   5.305   4.666   1.063
 2238SOL    HW2 7614   5.276   4.811   1.134
 2239SOL     OW 7615   3.083   5.111   3.114
 2239SOL    HW1 7616   3.009   5.072   3.169
 2239SOL    HW2 7617   3.165   5.120   3.170
 2240SOL     OW 7618   5.185   5.942   3.773
 2240SOL    HW1 7619   5.093   5.911   3.794
 2240SOL    HW2 7620   5.191   5.963   3.675
 2241SOL     OW 7621   0.229   0.174   2.489
 2241SOL    HW1 7622   0.248   0.269   2.464
 2241SOL    HW2 7623   0.130   0.161   2.496
 2242SOL     OW 7624   5.025   1.752   2.834
 2242SOL    HW1 7625   5.044   1.782   2.741
 2242SOL    HW2 7626   5.006   1.654   2.834
 2243SOL     OW 7627   3.059   6.544   5.453
 2243SOL    HW1 7628   3.041   6.449   5.478
 2243SOL    HW2 7629   2.977   6.598   5.467
 2244SOL     OW 7630   2.218   6.664   2.110
 2244SOL    HW1 7631   2.190   6.666   2.014
 2244SOL    HW2 7632   2.208   6.570   2.145
 2245SOL     OW 7633   0.695   1.928   2.199
 2245SOL    HW1 7634   0.758   1.870   2.148
 2245SOL    HW2 7635   0.726   2.023   2.193
 2246SOL     OW 7636   1.086   1.343   6.015
 2246SOL    HW1 7637   1.050   1.414   5.954
 2246SOL    HW2 7638   1.016   1.273   6.031
 2247SOL     OW 7639   2.967   2.964   5.303
 2247SOL    HW1 7640   3.017   2.995   5.223
 2247SOL    HW2 7641   2.885   3.020   5.316
 2248SOL     OW 7642   3.638   4.081   5.893
 2248SOL    HW1 7643   3.626   4.073   5.794
 2248SOL    HW2 7644   3.616   4.174   5.922
 2249SOL     OW 7645   6.300   6.592   2.447
 2249SOL    HW1 7646   6.330   6.649   2.371
 2249SOL    HW2 7647   6.347   6.504   2.444
 2250SOL     OW 7648   4.301   3.638   0.079
 2250SOL    HW1 7649   4.262   3.549   0.056
 2250SOL    HW2 7650   4.228   3.706   0.088
 2251SOL     OW 7651   5.040   1.039   6.946
 2251SOL    HW1 7652   5.008   0.980   7.019
 2251SOL    HW2 7653   4.987   1.124   6.946
 2252SOL     OW 7654   5.480   2.421   2.958
 2252SOL    HW1 7655   5.450   2.479   2.883
 2252SOL    HW2 7656   5.406   2.412   3.025
 2253SOL     OW 7657   1.276   3.650   6.596
 2253SOL    HW1 7658   1.314   3.730   6.641
 2253SOL    HW2 7659   1.195   3.618   6.645
 2254SOL     OW 7660   3.407   3.764   5.259
 2254SOL    HW1 7661   3.332   3.722   5.208
 2254SOL    HW2 7662   3.453   3.832   5.202
 2255SOL     OW 7663   5.011   2.457   6.506
 2255SOL    HW1 7664   4.950   2.466   6.427
 2255SOL    HW2 7665   5.054   2.367   6.506
 2256SOL     OW 7666   4.845   5.819   1.539
 2256SOL    HW1 7667   4.830   5.726   1.507
 2256SOL    HW2 7668   4.757   5.868   1.542
 2257SOL     OW 7669   0.396   2.055   4.508
 2257SOL    HW1 7670   0.492   2.045   4.534
 2257SOL    HW2 7671   0.386   2.038   4.410
 2258SOL     OW 7672   1.082   5.490   5.992
 2258SOL    HW1 7673   1.147   5.550   5.945
 2258SOL    HW2 7674   1.044   5.425   5.926
 2259SOL     OW 7675   5.075   4.067   6.399
 2259SOL    HW1 7676   4.994   4.064   6.458
 2259SOL    HW2 7677   5.054   4.025   6.311
 2260SOL     OW 7678   5.642   4.411   3.161
 2260SOL    HW1 7679   5.576   4.371   3.097
 2260SOL    HW2 7680   5.733   4.409   3.120
 2261SOL     OW 7681   6.792   6.036   0.591
 2261SOL    HW1 7682   6.759   6.070   0.503
 2261SOL    HW2 7683   6.791   6.110   0.658
 2262SOL     OW 7684   5.459   1.629   1.791
 2262SOL    HW1 7685   5.496   1.708   1.841
 2262SOL    HW2 7686   5.376   1.596   1.838
 2263SOL     OW 7687   2.746   5.916   6.473
 2263SOL    HW1 7688   2.777   5.910   6.568
 2263SOL    HW2 7689   2.655   5.877   6.465
 2264SOL     OW 7690   3.531   3.467   0.764
 2264SOL    HW1 7691   3.465   3.392   0.767
 2264SOL    HW2 7692   3.528   3.517   0.851
 2265SOL     OW 7693   0.872   0.781   4.133
 2265SOL    HW1 7694   0.782   0.755   4.168
 2265SOL    HW2 7695   0.888   0.738   4.045
 2266SOL     OW 7696   6.567   2.006   1.393
 2266SOL    HW1 7697   6.632   2.024   1.467
 2266SOL    HW2 7698   6.559   2.087   1.335
 2267SOL     OW 7699   5.541   2.598   4.892
 2267SOL    HW1 7700   5.493   2.597   4.805
 2267SOL    HW2 7701   5.639   2.615   4.876
 2268SOL     OW 7702   0.007   3.925   6.282
 2268SOL    HW1 7703   6.963   3.996   6.265
 2268SOL    HW2 7704   0.075   3.958   6.346
 2269SOL     OW 7705   6.002   5.833   4.579
 2269SOL    HW1 7706   5.968   5.912   4.529
 2269SOL    HW2 7707   6.063   5.779   4.520
 2270SOL     OW 7708   3.602   2.379   6.328
 2270SOL    HW1 7709   3.510   2.341   6.325
 2270SOL    HW2 7710   3.649   2.359   6.242
 2271SOL     OW 7711   6.149   4.146   0.609
 2271SOL    HW1 7712   6.212   4.164   0.533
 2271SOL    HW2 7713   6.130   4.232   0.657
 2272SOL     OW 7714   6.120   1.675   5.341
 2272SOL    HW1 7715   6.040   1.715   5.385
 2272SOL    HW2 7716   6.170   1.745   5.291
 2273SOL     OW 7717   1.547   0.500   2.133
 2273SOL    HW1 7718   1.563   0.585   2.183
 2273SOL    HW2 7719   1.449   0.492   2.112
 2274SOL     OW 7720   1.146   2.515   6.262
 2274SOL    HW1 7721   1.063   2.524   6.317
 2274SOL    HW2 7722   1.121   2.498   6.167
 2275SOL     OW 7723   5.718   0.778   4.046
 2275SOL    HW1 7724   5.720   0.690   4.094
 2275SOL    HW2 7725   5.648   0.776   3.975
 2276SOL     OW 7726   3.354   5.033   1.237
 2276SOL    HW1 7727   3.261   5.061   1.212
 2276SOL    HW2 7728   3.401   4.996   1.157
 2277SOL     OW 7729   3.349   3.133   5.506
 2277SOL    HW1 7730   3.249   3.136   5.502
 2277SOL    HW2 7731   3.382   3.198   5.574
 2278SOL     OW 7732   6.681   5.421   3.822
 2278SOL    HW1 7733   6.634   5.344   3.779
 2278SOL    HW2 7734   6.760   5.387   3.874
 2279SOL     OW 7735   4.443   6.133   4.490
 2279SOL    HW1 7736   4.417   6.222   4.528
 2279SOL    HW2 7737   4.537   6.111   4.516
 2280SOL     OW 7738   0.128   5.787   4.307
 2280SOL    HW1 7739   0.119   5.778   4.406
 2280SOL    HW2 7740   0.038   5.809   4.268
 2281SOL     OW 7741   3.564   1.525   1.343
 2281SOL    HW1 7742   3.509   1.445   1.368
 2281SOL    HW2 7743   3.652   1.495   1.306
 2282SOL     OW 7744   4.453   6.540   5.388
 2282SOL    HW1 7745   4.453   6.442   5.367
 2282SOL    HW2 7746   4.546   6.575   5.383
 2283SOL     OW 7747   6.576   4.606   1.630
 2283SOL    HW1 7748   6.656   4.558   1.665
 2283SOL    HW2 7749   6.586   4.704   1.648
 2284SOL     OW 7750   2.253   2.457   0.116
 2284SOL    HW1 7751   2.242   2.550   0.080
 2284SOL    HW2 7752   2.231   2.456   0.213
 2285SOL     OW 7753   2.042   2.511   0.845
 2285SOL    HW1 7754   2.103   2.545   0.916
 2285SOL    HW2 7755   1.950   2.502   0.882
 2286SOL     OW 7756   0.585   0.110   4.884
 2286SOL    HW1 7757   0.501   0.095   4.936
 2286SOL    HW2 7758   0.642   0.027   4.887
 2287SOL     OW 7759   1.907   1.790   2.774
 2287SOL    HW1 7760   1.810   1.792   2.800
 2287SOL    HW2 7761   1.924   1.712   2.713
 2288SOL     OW 7762   5.986   5.119   4.323
 2288SOL    HW1 7763   6.053   5.171   4.270
 2288SOL    HW2 7764   5.900   5.170   4.327
 2289SOL     OW 7765   6.530   4.430   2.588
 2289SOL    HW1 7766   6.432   4.428   2.608
 2289SOL    HW2 7767   6.581   4.428   2.674
 2290SOL     OW 7768   1.595   3.651   2.383
 2290SOL    HW1 7769   1.513   3.690   2.342
 2290SOL    HW2 7770   1.649   3.605   2.312
 2291SOL     OW 7771   2.450   2.716   6.620
 2291SOL    HW1 7772   2.391   2.711   6.700
 2291SOL    HW2 7773   2.403   2.674   6.541
 2292SOL     OW 7774   6.026   2.755   3.985
 2292SOL    HW1 7775   6.024   2.805   4.071
 2292SOL    HW2 7776   6.017   2.820   3.909
 2293SOL     OW 7777   5.566   6.677   1.434
 2293SOL    HW1 7778   5.590   6.629   1.349
 2293SOL    HW2 7779   5.621   6.640   1.509
 2294SOL     OW 7780   3.717   0.767   6.439
 2294SOL    HW1 7781   3.634   0.738   6.488
 2294SOL    HW2 7782   3.797   0.747   6.494
 2295SOL     OW 7783   0.490   1.750   2.753
 2295SOL    HW1 7784   0.507   1.827   2.814
 2295SOL    HW2 7785   0.565   1.684   2.762
 2296SOL     OW 7786   3.356   6.073   2.251
 2296SOL    HW1 7787   3.362   5.988   2.303
 2296SOL    HW2 7788   3.280   6.128   2.286
 2297SOL     OW 7789   5.299   4.554   5.103
 2297SOL    HW1 7790   5.313   4.531   5.199
 2297SOL    HW2 7791   5.211   4.517   5.072
 2298SOL     OW 7792   3.564   4.139   2.092
 2298SOL    HW1 7793   3.531   4.160   2.000
 2298SOL    HW2 7794   3.563   4.223   2.147
 2299SOL     OW 7795   4.619   4.319   5.090
 2299SOL    HW1 7796   4.642   4.240   5.147
 2299SOL    HW2 7797   4.673   4.315   5.006
 2300SOL     OW 7798   2.090   6.071   2.824
 2300SOL    HW1 7799   2.138   6.156   2.846
 2300SOL    HW2 7800   1.992   6.089   2.818
 2301SOL     OW 7801   3.539   2.914   3.095
 2301SOL    HW1 7802   3.457   2.869   3.130
 2301SOL    HW2 7803   3.620   2.866   3.130
 2302SOL     OW 7804   3.926   0.232   1.265
 2302SOL    HW1 7805   4.011   0.274   1.298
 2302SOL    HW2 7806   3.946   0.142   1.227
 2303SOL     OW 7807   2.394   3.364   0.069
 2303SOL    HW1 7808   2.466   3.352   0.137
 2303SOL    HW2 7809   2.310   3.321   0.101
 2304SOL     OW 7810   5.581   6.823   3.973
 2304SOL    HW1 7811   5.595   6.804   3.875
 2304SOL    HW2 7812   5.580   6.736   4.023
 2305SOL     OW 7813   2.350   0.298   3.042
 2305SOL    HW1 7814   2.345   0.340   3.132
 2305SOL    HW2 7815   2.434   0.328   2.996
 2306SOL     OW 7816   2.036   5.226   1.894
 2306SOL    HW1 7817   2.132   5.205   1.915
 2306SOL    HW2 7818   1.988   5.142   1.871
 2307SOL     OW 7819   0.126   3.170   4.245
 2307SOL    HW1 7820   0.077   3.134   4.325
 2307SOL    HW2 7821   0.222   3.185   4.268
 2308SOL     OW 7822   2.310   4.668   1.806
 2308SOL    HW1 7823   2.290   4.684   1.709
 2308SOL    HW2 7824   2.225   4.677   1.859
 2309SOL     OW 7825   1.763   0.656   5.996
 2309SOL    HW1 7826   1.835   0.592   6.022
 2309SOL    HW2 7827   1.729   0.703   6.078
 2310SOL     OW 7828   5.994   5.314   0.716
 2310SOL    HW1 7829   5.904   5.312   0.759
 2310SOL    HW2 7830   6.049   5.388   0.756
 2311SOL     OW 7831   2.029   0.438   1.419
 2311SOL    HW1 7832   1.959   0.493   1.374
 2311SOL    HW2 7833   2.100   0.414   1.353
 2312SOL     OW 7834   4.643   6.050   3.479
 2312SOL    HW1 7835   4.713   6.119   3.496
 2312SOL    HW2 7836   4.552   6.092   3.485
 2313SOL     OW 7837   5.394   5.765   1.718
 2313SOL    HW1 7838   5.467   5.824   1.683
 2313SOL    HW2 7839   5.324   5.822   1.763
 2314SOL     OW 7840   5.527   5.830   3.660
 2314SOL    HW1 7841   5.618   5.859   3.690
 2314SOL    HW2 7842   5.459   5.861   3.727
 2315SOL     OW 7843   5.157   2.827   6.728
 2315SOL    HW1 7844   5.226   2.785   6.669
 2315SOL    HW2 7845   5.078   2.767   6.737
 2316SOL     OW 7846   4.452   1.691   4.095
 2316SOL    HW1 7847   4.411   1.773   4.056
 2316SOL    HW2 7848   4.513   1.649   4.027
 2317SOL     OW 7849   0.518   6.515   3.417
 2317SOL    HW1 7850   0.565   6.435   3.454
 2317SOL    HW2 7851   0.461   6.556   3.489
 2318SOL     OW 7852   0.978   2.687   3.663
 2318SOL    HW1 7853   0.938   2.759   3.720
 2318SOL    HW2 7854   0.977   2.717   3.567
 2319SOL     OW 7855   1.692   4.766   3.373
 2319SOL    HW1 7856   1.776   4.816   3.349
 2319SOL    HW2 7857   1.708   4.711   3.455
 2320SOL     OW 7858   1.089   2.385   4.219
 2320SOL    HW1 7859   1.036   2.470   4.222
 2320SOL    HW2 7860   1.165   2.395   4.155
 2321SOL     OW 7861   2.951   6.938   6.362
 2321SOL    HW1 7862   2.995   7.002   6.299
 2321SOL    HW2 7863   2.944   6.979   6.453
 2322SOL     OW 7864   3.078   1.728   5.300
 2322SOL    HW1 7865   3.029   1.802   5.253
 2322SOL    HW2 7866   3.074   1.645   5.243
 2323SOL     OW 7867   2.319   5.174   1.891
 2323SOL    HW1 7868   2.371   5.092   1.865
 2323SOL    HW2 7869   2.372   5.226   1.957
 2324SOL     OW 7870   6.257   6.640   1.774
 2324SOL    HW1 7871   6.293   6.559   1.728
 2324SOL    HW2 7872   6.177   6.615   1.829
 2325SOL     OW 7873   1.427   4.563   2.254
 2325SOL    HW1 7874   1.409   4.626   2.178
 2325SOL    HW2 7875   1.509   4.509   2.234
 2326SOL     OW 7876   3.315   5.344   5.720
 2326SOL    HW1 7877   3.261   5.306   5.644
 2326SOL    HW2 7878   3.259   5.407   5.773
 2327SOL     OW 7879   6.178   3.246   5.357
 2327SOL    HW1 7880   6.178   3.319   5.288
 2327SOL    HW2 7881   6.176   3.287   5.448
 2328SOL     OW 7882   3.212   1.994   3.330
 2328SOL    HW1 7883   3.137   2.052   3.362
 2328SOL    HW2 7884   3.286   2.053   3.296
 2329SOL     OW 7885   1.476   3.964   4.894
 2329SOL    HW1 7886   1.482   4.011   4.806
 2329SOL    HW2 7887   1.384   3.973   4.930
 2330SOL     OW 7888   1.056   3.649   2.349
 2330SOL    HW1 7889   1.018   3.569   2.304
 2330SOL    HW2 7890   1.072   3.721   2.282
 2331SOL     OW 7891   6.328   3.908   0.582
 2331SOL    HW1 7892   6.292   4.001   0.582
 2331SOL    HW2 7893   6.352   3.882   0.489
 2332SOL     OW 7894   4.674   1.963   5.637
 2332SOL    HW1 7895   4.603   2.024   5.601
 2332SOL    HW2 7896   4.710   1.908   5.562
 2333SOL     OW 7897   0.071   5.968   3.155
 2333SOL    HW1 7898   0.075   5.998   3.251
 2333SOL    HW2 7899   7.021   6.016   3.109
 2334SOL     OW 7900   2.533   0.367   0.129
 2334SOL    HW1 7901   2.439   0.383   0.159
 2334SOL    HW2 7902   2.583   0.319   0.202
 2335SOL     OW 7903   5.968   1.153   3.532
 2335SOL    HW1 7904   5.946   1.242   3.494
 2335SOL    HW2 7905   5.935   1.147   3.626
 2336SOL     OW 7906   4.183   1.923   5.026
 2336SOL    HW1 7907   4.166   1.840   4.973
 2336SOL    HW2 7908   4.119   1.928   5.103
 2337SOL     OW 7909   4.582   0.850   3.567
 2337SOL    HW1 7910   4.661   0.801   3.604
 2337SOL    HW2 7911   4.599   0.948   3.568
 2338SOL     OW 7912   1.086   1.062   6.665
 2338SOL    HW1 7913   1.166   1.054   6.606
 2338SOL    HW2 7914   1.103   1.134   6.733
 2339SOL     OW 7915   3.368   4.098   5.174
 2339SOL    HW1 7916   3.439   4.029   5.160
 2339SOL    HW2 7917   3.310   4.102   5.092
 2340SOL     OW 7918   5.445   5.053   6.669
 2340SOL    HW1 7919   5.380   5.100   6.728
 2340SOL    HW2 7920   5.396   5.008   6.594
 2341SOL     OW 7921   5.394   4.790   1.444
 2341SOL    HW1 7922   5.380   4.838   1.357
 2341SOL    HW2 7923   5.324   4.819   1.509
 2342SOL     OW 7924   0.235   6.174   4.936
 2342SOL    HW1 7925   0.284   6.189   4.850
 2342SOL    HW2 7926   0.160   6.240   4.943
 2343SOL     OW 7927   1.819   6.670   2.473
 2343SOL    HW1 7928   1.904   6.723   2.464
 2343SOL    HW2 7929   1.742   6.733   2.482
 2344SOL     OW 7930   1.689   0.968   1.127
 2344SOL    HW1 7931   1.747   0.913   1.186
 2344SOL    HW2 7932   1.733   1.056   1.110
 2345SOL     OW 7933   2.056   5.396   5.488
 2345SOL    HW1 7934   2.042   5.312   5.540
 2345SOL    HW2 7935   2.005   5.471   5.531
 2346SOL     OW 7936   4.967   3.364   4.686
 2346SOL    HW1 7937   4.976   3.404   4.777
 2346SOL    HW2 7938   4.941   3.435   4.621
 2347SOL     OW 7939   2.212   3.709   1.812
 2347SOL    HW1 7940   2.171   3.770   1.880
 2347SOL    HW2 7941   2.238   3.623   1.856
 2348SOL     OW 7942   3.533   6.051   3.822
 2348SOL    HW1 7943   3.442   6.018   3.847
 2348SOL    HW2 7944   3.542   6.053   3.722
 2349SOL     OW 7945   0.779   5.179   6.003
 2349SOL    HW1 7946   0.839   5.242   6.053
 2349SOL    HW2 7947   0.701   5.154   6.060
 2350SOL     OW 7948   5.389   6.727   6.684
 2350SOL    HW1 7949   5.367   6.800   6.748
 2350SOL    HW2 7950   5.440   6.764   6.607
 2351SOL     OW 7951   3.586   5.148   2.684
 2351SOL    HW1 7952   3.520   5.184   2.618
 2351SOL    HW2 7953   3.672   5.127   2.638
 2352SOL     OW 7954   1.276   3.699   2.535
 2352SOL    HW1 7955   1.288   3.611   2.582
 2352SOL    HW2 7956   1.222   3.685   2.452
 2353SOL     OW 7957   2.937   4.875   4.893
 2353SOL    HW1 7958   2.892   4.810   4.955
 2353SOL    HW2 7959   2.904   4.860   4.800
 2354SOL     OW 7960   3.178   1.856   6.407
 2354SOL    HW1 7961   3.235   1.812   6.337
 2354SOL    HW2 7962   3.127   1.931   6.367
 2355SOL     OW 7963   0.974   5.395   6.844
 2355SOL    HW1 7964   0.920   5.455   6.784
 2355SOL    HW2 7965   1.071   5.403   6.819
 2356SOL     OW 7966   2.438   4.044   0.608
 2356SOL    HW1 7967   2.424   3.966   0.548
 2356SOL    HW2 7968   2.454   4.126   0.552
 2357SOL     OW 7969   3.924   5.260   3.613
 2357SOL    HW1 7970   3.924   5.258   3.513
 2357SOL    HW2 7971   4.004   5.211   3.647
 2358SOL     OW 7972   2.611   5.427   4.908
 2358SOL    HW1 7973   2.699   5.443   4.863
 2358SOL    HW2 7974   2.621   5.354   4.975
 2359SOL     OW 7975   0.136   0.855   6.041
 2359SOL    HW1 7976   0.132   0.955   6.029
 2359SOL    HW2 7977   0.204   0.833   6.111
 2360SOL     OW 7978   4.881   5.885   5.717
 2360SOL    HW1 7979   4.843   5.813   5.775
 2360SOL    HW2 7980   4.866   5.973   5.760
 2361SOL     OW 7981   3.034   6.953   4.749
 2361SOL    HW1 7982   3.076   6.977   4.661
 2361SOL    HW2 7983   3.020   0.011   4.803
 2362SOL     OW 7984   3.510   6.656   5.844
 2362SOL    HW1 7985   3.498   6.661   5.745
 2362SOL    HW2 7986   3.437   6.601   5.884
 2363SOL     OW 7987   4.978   2.608   5.406
 2363SOL    HW1 7988   4.986   2.558   5.320
 2363SOL    HW2 7989   5.070   2.620   5.445
 2364SOL     OW 7990   0.247   2.471   2.913
 2364SOL    HW1 7991   0.242   2.571   2.912
 2364SOL    HW2 7992   0.343   2.443   2.910
 2365SOL     OW 7993   5.675   2.715   6.235
 2365SOL    HW1 7994   5.625   2.728   6.149
 2365SOL    HW2 7995   5.705   2.805   6.270
 2366SOL     OW 7996   1.180   4.186   5.476
 2366SOL    HW1 7997   1.128   4.135   5.407
 2366SOL    HW2 7998   1.237   4.123   5.528
 2367SOL     OW 7999   2.609   3.588   6.835
 2367SOL    HW1 8000   2.542   3.634   6.894
 2367SOL    HW2 8001   2.574   3.499   6.808
 2368SOL     OW 8002   4.786   0.617   3.653
 2368SOL    HW1 8003   4.798   0.609   3.554
 2368SOL    HW2 8004   4.861   0.571   3.700
 2369SOL     OW 8005   2.284   2.974   4.346
 2369SOL    HW1 8006   2.329   2.885   4.354
 2369SOL    HW2 8007   2.248   3.001   4.435
 2370SOL     OW 8008   4.341   4.109   6.598
 2370SOL    HW1 8009   4.375   4.198   6.568
 2370SOL    HW2 8010   4.243   4.114   6.614
 2371SOL     OW 8011   1.336   6.333   1.847
 2371SOL    HW1 8012   1.367   6.418   1.888
 2371SOL    HW2 8013   1.246   6.309   1.883
 2372SOL     OW 8014   1.183   2.255   0.891
 2372SOL    HW1 8015   1.242   2.296   0.960
 2372SOL    HW2 8016   1.165   2.160   0.914
 2373SOL     OW 8017   5.859   0.497   6.645
 2373SOL    HW1 8018   5.919   0.503   6.565
 2373SOL    HW2 8019   5.766   0.524   6.619
 2374SOL     OW 8020   6.292   0.582   3.675
 2374SOL    HW1 8021   6.355   0.515   3.715
 2374SOL    HW2 8022   6.310   0.672   3.716
 2375SOL     OW 8023   1.754   6.886   3.803
 2375SOL    HW1 8024   1.719   6.937   3.881
 2375SOL    HW2 8025   1.846   6.919   3.780
 2376SOL     OW 8026   6.437   2.488   4.272
 2376SOL    HW1 8027   6.490   2.566   4.303
 2376SOL    HW2 8028   6.343   2.496   4.304
 2377SOL     OW 8029   3.235   4.088   3.568
 2377SOL    HW1 8030   3.139   4.069   3.545
 2377SOL    HW2 8031   3.254   4.051   3.659
 2378SOL     OW 8032   5.490   1.670   6.630
 2378SOL    HW1 8033   5.556   1.716   6.690
 2378SOL    HW2 8034   5.534   1.592   6.586
 2379SOL     OW 8035   0.163   1.622   6.864
 2379SOL    HW1 8036   0.184   1.698   6.926
 2379SOL    HW2 8037   0.123   1.546   6.916
 2380SOL     OW 8038   6.922   6.888   5.793
 2380SOL    HW1 8039   6.853   6.958   5.811
 2380SOL    HW2 8040   6.954   6.848   5.879
 2381SOL     OW 8041   2.259   4.174   4.084
 2381SOL    HW1 8042   2.261   4.093   4.026
 2381SOL    HW2 8043   2.328   4.240   4.052
 2382SOL     OW 8044   2.223   4.663   2.562
 2382SOL    HW1 8045   2.181   4.594   2.621
 2382SOL    HW2 8046   2.268   4.733   2.619
 2383SOL     OW 8047   5.266   6.109   6.830
 2383SOL    HW1 8048   5.299   6.174   6.898
 2383SOL    HW2 8049   5.202   6.155   6.768
 2384SOL     OW 8050   1.038   0.513   2.215
 2384SOL    HW1 8051   1.126   0.505   2.262
 2384SOL    HW2 8052   1.015   0.609   2.204
 2385SOL     OW 8053   6.024   0.245   0.979
 2385SOL    HW1 8054   5.931   0.258   0.946
 2385SOL    HW2 8055   6.087   0.299   0.923
 2386SOL     OW 8056   4.106   4.960   4.315
 2386SOL    HW1 8057   4.094   4.970   4.414
 2386SOL    HW2 8058   4.018   4.946   4.271
 2387SOL     OW 8059   6.753   2.726   4.549
 2387SOL    HW1 8060   6.694   2.742   4.469
 2387SOL    HW2 8061   6.751   2.806   4.608
 2388SOL     OW 8062   1.198   1.907   5.202
 2388SOL    HW1 8063   1.291   1.899   5.239
 2388SOL    HW2 8064   1.143   1.831   5.234
 2389SOL     OW 8065   5.089   4.066   3.785
 2389SOL    HW1 8066   5.162   3.997   3.783
 2389SOL    HW2 8067   5.051   4.078   3.693
 2390SOL     OW 8068   3.506   3.588   4.557
 2390SOL    HW1 8069   3.508   3.596   4.458
 2390SOL    HW2 8070   3.441   3.516   4.584
 2391SOL     OW 8071   4.015   4.216   5.796
 2391SOL    HW1 8072   4.082   4.184   5.729
 2391SOL    HW2 8073   3.970   4.136   5.837
 2392SOL     OW 8074   3.148   6.006   5.745
 2392SOL    HW1 8075   3.140   5.999   5.845
 2392SOL    HW2 8076   3.070   6.057   5.709
 2393SOL     OW 8077   3.347   5.413   1.102
 2393SOL    HW1 8078   3.422   5.480   1.106
 2393SOL    HW2 8079   3.311   5.398   1.194
 2394SOL     OW 8080   1.490   3.698   5.169
 2394SOL    HW1 8081   1.477   3.778   5.228
 2394SOL    HW2 8082   1.530   3.624   5.223
 2395SOL     OW 8083   6.752   2.247   0.083
 2395SOL    HW1 8084   6.798   2.262   7.020
 2395SOL    HW2 8085   6.686   2.172   0.074
 2396SOL     OW 8086   5.044   5.753   0.582
 2396SOL    HW1 8087   5.004   5.779   0.670
 2396SOL    HW2 8088   5.059   5.654   0.581
 2397SOL     OW 8089   6.855   5.041   0.316
 2397SOL    HW1 8090   6.809   4.953   0.330
 2397SOL    HW2 8091   6.948   5.035   0.351
 2398SOL     OW 8092   2.879   4.883   5.980
 2398SOL    HW1 8093   2.919   4.798   6.015
 2398SOL    HW2 8094   2.953   4.948   5.959
 2399SOL     OW 8095   4.609   1.906   2.047
 2399SOL    HW1 8096   4.646   1.990   2.086
 2399SOL    HW2 8097   4.577   1.924   1.953
 2400SOL     OW 8098   4.041   4.711   0.777
 2400SOL    HW1 8099   4.086   4.714   0.688
 2400SOL    HW2 8100   4.066   4.627   0.825
 2401SOL     OW 8101   3.801   0.571   5.478
 2401SOL    HW1 8102   3.865   0.544   5.406
 2401SOL    HW2 8103   3.791   0.495   5.543
 2402SOL     OW 8104   7.000   2.650   4.494
 2402SOL    HW1 8105   6.990   2.613   4.402
 2402SOL    HW2 8106   6.909   2.666   4.534
 2403SOL     OW 8107   2.906   2.879   6.618
 2403SOL    HW1 8108   2.900   2.799   6.677
 2403SOL    HW2 8109   2.998   2.886   6.579
 2404SOL     OW 8110   5.369   1.368   2.595
 2404SOL    HW1 8111   5.460   1.368   2.637
 2404SOL    HW2 8112   5.377   1.341   2.499
 2405SOL     OW 8113   3.905   3.723   5.094
 2405SOL    HW1 8114   3.966   3.767   5.028
 2405SOL    HW2 8115   3.810   3.733   5.062
 2406SOL     OW 8116   2.014   0.375   3.577
 2406SOL    HW1 8117   2.088   0.332   3.524
 2406SOL    HW2 8118   1.987   0.460   3.532
 2407SOL     OW 8119   4.586   1.972   3.340
 2407SOL    HW1 8120   4.576   2.071   3.331
 2407SOL    HW2 8121   4.495   1.929   3.343
 2408SOL     OW 8122   3.863   5.398   2.798
 2408SOL    HW1 8123   3.781   5.456   2.799
 2408SOL    HW2 8124   3.884   5.373   2.703
 2409SOL     OW 8125   2.132   2.859   2.083
 2409SOL    HW1 8126   2.078   2.943   2.076
 2409SOL    HW2 8127   2.131   2.811   1.996
 2410SOL     OW 8128   6.774   2.611   5.654
 2410SOL    HW1 8129   6.721   2.648   5.730
 2410SOL    HW2 8130   6.756   2.664   5.572
 2411SOL     OW 8131   3.696   4.406   5.663
 2411SOL    HW1 8132   3.737   4.397   5.754
 2411SOL    HW2 8133   3.757   4.368   5.594
 2412SOL     OW 8134   2.843   4.469   0.005
 2412SOL    HW1 8135   2.890   4.557   0.001
 2412SOL    HW2 8136   2.907   4.396   7.007
 2413SOL     OW 8137   6.428   3.145   6.855
 2413SOL    HW1 8138   6.486   3.064   6.849
 2413SOL    HW2 8139   6.338   3.125   6.817
 2414SOL     OW 8140   5.837   3.926   2.796
 2414SOL    HW1 8141   5.775   3.982   2.850
 2414SOL    HW2 8142   5.895   3.985   2.740
 2415SOL     OW 8143   1.574   0.443   1.033
 2415SOL    HW1 8144   1.476   0.428   1.047
 2415SOL    HW2 8145   1.614   0.362   0.990
 2416SOL     OW 8146   2.787   1.302   5.087
 2416SOL    HW1 8147   2.854   1.372   5.065
 2416SOL    HW2 8148   2.768   1.302   5.185
 2417SOL     OW 8149   4.567   2.742   0.292
 2417SOL    HW1 8150   4.577   2.752   0.193
 2417SOL    HW2 8151   4.657   2.739   0.334
 2418SOL     OW 8152   3.199   3.385   4.369
 2418SOL    HW1 8153   3.101   3.367   4.358
 2418SOL    HW2 8154   3.243   3.307   4.411
 2419SOL     OW 8155   0.331   6.594   4.238
 2419SOL    HW1 8156   0.253   6.570   4.181
 2419SOL    HW2 8157   0.378   6.511   4.268
 2420SOL     OW 8158   4.052   6.948   2.567
 2420SOL    HW1 8159   3.998   0.006   2.589
 2420SOL    HW2 8160   4.149   6.968   2.577
 2421SOL     OW 8161   2.846   0.571   4.248
 2421SOL    HW1 8162   2.772   0.505   4.237
 2421SOL    HW2 8163   2.866   0.584   4.345
 2422SOL     OW 8164   5.522   0.495   1.063
 2422SOL    HW1 8165   5.480   0.411   1.029
 2422SOL    HW2 8166   5.551   0.481   1.158
 2423SOL     OW 8167   1.077   6.239   3.188
 2423SOL    HW1 8168   1.095   6.266   3.094
 2423SOL    HW2 8169   1.135   6.161   3.213
 2424SOL     OW 8170   5.547   5.409   6.392
 2424SOL    HW1 8171   5.602   5.332   6.425
 2424SOL    HW2 8172   5.457   5.375   6.363
 2425SOL     OW 8173   6.228   7.020   4.536
 2425SOL    HW1 8174   6.130   7.002   4.534
 2425SOL    HW2 8175   6.277   6.946   4.491
 2426SOL     OW 8176   0.999   4.743   4.529
 2426SOL    HW1 8177   1.084   4.735   4.582
 2426SOL    HW2 8178   0.922   4.715   4.586
 2427SOL     OW 8179   6.743   5.410   0.034
 2427SOL    HW1 8180   6.697   5.326   0.064
 2427SOL    HW2 8181   6.806   5.440   0.106
 2428SOL     OW 8182   1.037   6.949   3.515
 2428SOL    HW1 8183   1.087   6.894   3.448
 2428SOL    HW2 8184   0.960   6.895   3.551
 2429SOL     OW 8185   6.805   5.492   3.298
 2429SOL    HW1 8186   6.858   5.557   3.245
 2429SOL    HW2 8187   6.837   5.491   3.393
 2430SOL     OW 8188   6.294   2.300   1.117
 2430SOL    HW1 8189   6.293   2.310   1.018
 2430SOL    HW2 8190   6.217   2.242   1.145
 2431SOL     OW 8191   4.233   0.397   2.040
 2431SOL    HW1 8192   4.195   0.437   1.957
 2431SOL    HW2 8193   4.195   0.443   2.120
 2432SOL     OW 8194   4.325   6.379   3.011
 2432SOL    HW1 8195   4.298   6.474   3.028
 2432SOL    HW2 8196   4.255   6.334   2.956
 2433SOL     OW 8197   3.423   6.789   0.899
 2433SOL    HW1 8198   3.405   6.727   0.975
 2433SOL    HW2 8199   3.400   6.882   0.925
 2434SOL     OW 8200   4.999   1.856   3.530
 2434SOL    HW1 8201   5.039   1.768   3.555
 2434SOL    HW2 8202   5.052   1.929   3.573
 2435SOL     OW 8203   4.623   5.547   0.118
 2435SOL    HW1 8204   4.551   5.574   0.054
 2435SOL    HW2 8205   4.712   5.554   0.072
 2436SOL     OW 8206   2.363   0.555   0.674
 2436SOL    HW1 8207   2.337   0.595   0.761
 2436SOL    HW2 8208   2.281   0.528   0.623
 2437SOL     OW 8209   5.521   5.530   0.937
 2437SOL    HW1 8210   5.504   5.627   0.950
 2437SOL    HW2 8211   5.516   5.508   0.840
 2438SOL     OW 8212   4.043   0.896   5.630
 2438SOL    HW1 8213   4.063   0.936   5.540
 2438SOL    HW2 8214   4.050   0.796   5.624
 2439SOL     OW 8215   1.111   4.140   0.109
 2439SOL    HW1 8216   1.087   4.079   0.184
 2439SOL    HW2 8217   1.137   4.086   0.029
 2440SOL     OW 8218   3.539   6.379   4.830
 2440SOL    HW1 8219   3.540   6.282   4.855
 2440SOL    HW2 8220   3.566   6.389   4.735
 2441SOL     OW 8221   6.534   1.540   0.027
 2441SOL    HW1 8222   6.451   1.589   0.053
 2441SOL    HW2 8223   6.512   1.474   6.979
 2442SOL     OW 8224   6.205   5.990   3.732
 2442SOL    HW1 8225   6.291   5.989   3.783
 2442SOL    HW2 8226   6.218   5.944   3.644
 2443SOL     OW 8227   2.898   0.009   6.749
 2443SOL    HW1 8228   2.983   0.020   6.697
 2443SOL    HW2 8229   2.917   6.989   6.836
 2444SOL     OW 8230   3.859   4.098   6.451
 2444SOL    HW1 8231   3.782   4.138   6.401
 2444SOL    HW2 8232   3.860   3.999   6.435
 2445SOL     OW 8233   0.096   1.137   2.420
 2445SOL    HW1 8234   0.066   1.174   2.332
 2445SOL    HW2 8235   0.183   1.179   2.447
 2446SOL     OW 8236   0.500   3.167   4.096
 2446SOL    HW1 8237   0.534   3.086   4.145
 2446SOL    HW2 8238   0.451   3.226   4.160
 2447SOL     OW 8239   3.064   0.828   1.208
 2447SOL    HW1 8240   3.045   0.848   1.304
 2447SOL    HW2 8241   3.068   0.913   1.155
 2448SOL     OW 8242   0.100   0.665   3.953
 2448SOL    HW1 8243   0.119   0.668   3.855
 2448SOL    HW2 8244   0.123   0.574   3.988
 2449SOL     OW 8245   6.338   4.659   2.872
 2449SOL    HW1 8246   6.330   4.563   2.846
 2449SOL    HW2 8247   6.336   4.716   2.790
 2450SOL     OW 8248   3.018   5.463   5.074
 2450SOL    HW1 8249   3.078   5.402   5.022
 2450SOL    HW2 8250   3.050   5.467   5.169
 2451SOL     OW 8251   0.757   0.392   3.791
 2451SOL    HW1 8252   0.807   0.322   3.843
 2451SOL    HW2 8253   0.659   0.374   3.799
 2452SOL     OW 8254   2.637   2.330   3.239
 2452SOL    HW1 8255   2.618   2.240   3.200
 2452SOL    HW2 8256   2.707   2.321   3.310
 2453SOL     OW 8257   6.202   3.329   1.053
 2453SOL    HW1 8258   6.256   3.407   1.084
 2453SOL    HW2 8259   6.106   3.342   1.078
 2454SOL     OW 8260   3.358   0.701   0.228
 2454SOL    HW1 8261   3.259   0.687   0.224
 2454SOL    HW2 8262   3.381   0.784   0.178
 2455SOL     OW 8263   4.774   0.699   1.167
 2455SOL    HW1 8264   4.782   0.747   1.254
 2455SOL    HW2 8265   4.683   0.713   1.128
 2456SOL     OW 8266   5.672   1.719   0.500
 2456SOL    HW1 8267   5.663   1.781   0.578
 2456SOL    HW2 8268   5.760   1.672   0.504
 2457SOL     OW 8269   7.001   6.001   6.429
 2457SOL    HW1 8270   0.016   5.960   6.346
 2457SOL    HW2 8271   0.018   6.091   6.444
 2458SOL     OW 8272   2.429   5.707   4.058
 2458SOL    HW1 8273   2.360   5.676   4.123
 2458SOL    HW2 8274   2.399   5.793   4.016
 2459SOL     OW 8275   2.776   5.923   5.949
 2459SOL    HW1 8276   2.765   5.826   5.971
 2459SOL    HW2 8277   2.870   5.951   5.968
 2460SOL     OW 8278   1.781   1.317   1.947
 2460SOL    HW1 8279   1.763   1.328   1.849
 2460SOL    HW2 8280   1.853   1.381   1.975
 2461SOL     OW 8281   4.605   0.371   3.054
 2461SOL    HW1 8282   4.591   0.291   2.997
 2461SOL    HW2 8283   4.517   0.401   3.092
 2462SOL     OW 8284   1.860   5.695   0.723
 2462SOL    HW1 8285   1.796   5.638   0.671
 2462SOL    HW2 8286   1.841   5.685   0.821
 2463SOL     OW 8287   6.589   2.599   5.213
 2463SOL    HW1 8288   6.643   2.644   5.143
 2463SOL    HW2 8289   6.618   2.631   5.303
 2464SOL     OW 8290   1.979   4.190   2.080
 2464SOL    HW1 8291   1.990   4.210   1.983
 2464SOL    HW2 8292   1.943   4.097   2.091
 2465SOL     OW 8293   0.521   0.208   1.827
 2465SOL    HW1 8294   0.521   0.122   1.877
 2465SOL    HW2 8295   0.586   0.271   1.870
 2466SOL     OW 8296   2.663   1.971   2.751
 2466SOL    HW1 8297   2.624   1.906   2.817
 2466SOL    HW2 8298   2.759   1.950   2.737
 2467SOL     OW 8299   5.476   1.146   4.629
 2467SOL    HW1 8300   5.509   1.065   4.678
 2467SOL    HW2 8301   5.542   1.220   4.639
 2468SOL     OW 8302   5.125   6.165   2.184
 2468SOL    HW1 8303   5.189   6.154   2.260
 2468SOL    HW2 8304   5.033   6.177   2.220
 2469SOL     OW 8305   3.984   4.040   5.507
 2469SOL    HW1 8306   3.929   4.121   5.484
 2469SOL    HW2 8307   4.073   4.070   5.544
 2470SOL     OW 8308   3.717   4.830   6.203
 2470SOL    HW1 8309   3.725   4.922   6.241
 2470SOL    HW2 8310   3.777   4.822   6.123
 2471SOL     OW 8311   2.845   5.862   1.018
 2471SOL    HW1 8312   2.892   5.926   0.957
 2471SOL    HW2 8313   2.906   5.786   1.039
 2472SOL     OW 8314   5.375   2.622   4.674
 2472SOL    HW1 8315   5.338   2.530   4.687
 2472SOL    HW2 8316   5.302   2.684   4.643
 2473SOL     OW 8317   2.119   3.943   4.832
 2473SOL    HW1 8318   2.102   3.848   4.857
 2473SOL    HW2 8319   2.174   3.988   4.903
 2474SOL     OW 8320   0.537   6.353   0.875
 2474SOL    HW1 8321   0.490   6.274   0.835
 2474SOL    HW2 8322   0.599   6.323   0.948
 2475SOL     OW 8323   4.696   1.616   1.547
 2475SOL    HW1 8324   4.600   1.608   1.574
 2475SOL    HW2 8325   4.743   1.677   1.611
 2476SOL     OW 8326   0.199   1.952   3.587
 2476SOL    HW1 8327   0.166   2.046   3.580
 2476SOL    HW2 8328   0.182   1.905   3.500
 2477SOL     OW 8329   4.816   1.610   2.421
 2477SOL    HW1 8330   4.913   1.593   2.437
 2477SOL    HW2 8331   4.768   1.613   2.509
 2478SOL     OW 8332   6.252   1.090   2.225
 2478SOL    HW1 8333   6.165   1.042   2.216
 2478SOL    HW2 8334   6.235   1.186   2.248
 2479SOL     OW 8335   1.705   3.644   1.361
 2479SOL    HW1 8336   1.747   3.555   1.347
 2479SOL    HW2 8337   1.607   3.633   1.376
 2480SOL     OW 8338   5.997   3.947   0.717
 2480SOL    HW1 8339   5.930   3.907   0.655
 2480SOL    HW2 8340   6.062   4.003   0.665
 2481SOL     OW 8341   2.547   0.946   0.130
 2481SOL    HW1 8342   2.467   0.997   0.097
 2481SOL    HW2 8343   2.630   0.998   0.110
 2482SOL     OW 8344   4.619   2.807   5.531
 2482SOL    HW1 8345   4.643   2.904   5.533
 2482SOL    HW2 8346   4.594   2.781   5.438
 2483SOL     OW 8347   2.440   2.362   6.942
 2483SOL    HW1 8348   2.349   2.379   6.982
 2483SOL    HW2 8349   2.487   2.449   6.930
 2484SOL     OW 8350   2.682   0.589   0.033
 2484SOL    HW1 8351   2.613   0.656   0.060
 2484SOL    HW2 8352   2.663   0.502   0.078
 2485SOL     OW 8353   5.562   3.530   1.714
 2485SOL    HW1 8354   5.547   3.624   1.685
 2485SOL    HW2 8355   5.660   3.514   1.727
 2486SOL     OW 8356   2.051   4.682   4.382
 2486SOL    HW1 8357   2.100   4.648   4.302
 2486SOL    HW2 8358   2.096   4.649   4.465
 2487SOL     OW 8359   3.874   6.011   0.214
 2487SOL    HW1 8360   3.946   5.958   0.259
 2487SOL    HW2 8361   3.902   6.035   0.121
 2488SOL     OW 8362   2.058   4.381   2.463
 2488SOL    HW1 8363   2.017   4.291   2.473
 2488SOL    HW2 8364   2.013   4.445   2.525
 2489SOL     OW 8365   1.521   5.723   3.017
 2489SOL    HW1 8366   1.540   5.749   3.111
 2489SOL    HW2 8367   1.437   5.668   3.014
 2490SOL     OW 8368   6.436   5.347   1.820
 2490SOL    HW1 8369   6.428   5.402   1.737
 2490SOL    HW2 8370   6.489   5.265   1.801
 2491SOL     OW 8371   2.655   5.390   0.806
 2491SOL    HW1 8372   2.583   5.419   0.870
 2491SOL    HW2 8373   2.656   5.291   0.800
 2492SOL     OW 8374   4.382   2.917   7.017
 2492SOL    HW1 8375   4.332   2.836   0.023
 2492SOL    HW2 8376   4.444   2.948   0.065
 2493SOL     OW 8377   6.438   0.317   2.309
 2493SOL    HW1 8378   6.365   0.372   2.350
 2493SOL    HW2 8379   6.526   0.355   2.336
 2494SOL     OW 8380   6.009   4.308   1.904
 2494SOL    HW1 8381   6.039   4.333   1.996
 2494SOL    HW2 8382   5.992   4.391   1.851
 2495SOL     OW 8383   5.033   0.299   4.572
 2495SOL    HW1 8384   5.125   0.324   4.599
 2495SOL    HW2 8385   4.971   0.376   4.587
 2496SOL     OW 8386   0.412   4.020   6.137
 2496SOL    HW1 8387   0.410   3.948   6.207
 2496SOL    HW2 8388   0.495   4.075   6.148
 2497SOL     OW 8389   6.985   1.164   0.714
 2497SOL    HW1 8390   6.931   1.240   0.679
 2497SOL    HW2 8391   0.010   1.193   0.796
 2498SOL     OW 8392   3.742   2.103   4.159
 2498SOL    HW1 8393   3.817   2.076   4.099
 2498SOL    HW2 8394   3.778   2.120   4.251
 2499SOL     OW 8395   5.247   2.675   4.303
 2499SOL    HW1 8396   5.322   2.609   4.300
 2499SOL    HW2 8397   5.161   2.628   4.288
 2500SOL     OW 8398   4.371   2.926   6.694
 2500SOL    HW1 8399   4.384   2.885   6.784
 2500SOL    HW2 8400   4.405   2.863   6.624
 2501SOL     OW 8401   6.500   5.843   0.339
 2501SOL    HW1 8402   6.464   5.909   0.404
 2501SOL    HW2 8403   6.491   5.879   0.246
 2502SOL     OW 8404   2.289   5.990   3.126
 2502SOL    HW1 8405   2.347   5.993   3.207
 2502SOL    HW2 8406   2.271   6.083   3.095
 2503SOL     OW 8407   3.492   5.404   5.023
 2503SOL    HW1 8408   3.559   5.348   4.975
 2503SOL    HW2 8409   3.405   5.401   4.974
 2504SOL     OW 8410   2.406   4.982   5.191
 2504SOL    HW1 8411   2.414   4.886   5.218
 2504SOL    HW2 8412   2.385   4.987   5.093
 2505SOL     OW 8413   1.681   6.000   3.864
 2505SOL    HW1 8414   1.601   5.986   3.924
 2505SOL    HW2 8415   1.654   5.984   3.769
 2506SOL     OW 8416   5.831   3.392   6.641
 2506SOL    HW1 8417   5.757   3.429   6.696
 2506SOL    HW2 8418   5.903   3.461   6.630
 2507SOL     OW 8419   1.135   3.953   1.117
 2507SOL    HW1 8420   1.232   3.951   1.090
 2507SOL    HW2 8421   1.111   4.046   1.146
 2508SOL     OW 8422   2.919   1.355   2.015
 2508SOL    HW1 8423   2.853   1.294   1.972
 2508SOL    HW2 8424   2.875   1.405   2.089
 2509SOL     OW 8425   6.002   2.497   2.707
 2509SOL    HW1 8426   5.906   2.526   2.701
 2509SOL    HW2 8427   6.011   2.428   2.778
 2510SOL     OW 8428   3.351   4.325   1.377
 2510SOL    HW1 8429   3.423   4.318   1.309
 2510SOL    HW2 8430   3.279   4.258   1.357
 2511SOL     OW 8431   2.515   1.738   4.166
 2511SOL    HW1 8432   2.598   1.791   4.153
 2511SOL    HW2 8433   2.490   1.738   4.263
 2512SOL     OW 8434   4.704   5.170   5.164
 2512SOL    HW1 8435   4.676   5.074   5.174
 2512SOL    HW2 8436   4.750   5.201   5.247
 2513SOL     OW 8437   1.529   3.169   5.244
 2513SOL    HW1 8438   1.582   3.147   5.162
 2513SOL    HW2 8439   1.499   3.264   5.240
 2514SOL     OW 8440   6.427   3.408   3.943
 2514SOL    HW1 8441   6.377   3.376   3.863
 2514SOL    HW2 8442   6.403   3.352   4.023
 2515SOL     OW 8443   1.466   6.680   0.237
 2515SOL    HW1 8444   1.486   6.583   0.250
 2515SOL    HW2 8445   1.549   6.728   0.211
 2516SOL     OW 8446   5.875   0.352   3.491
 2516SOL    HW1 8447   5.801   0.394   3.543
 2516SOL    HW2 8448   5.841   0.327   3.400
 2517SOL     OW 8449   1.058   5.760   5.778
 2517SOL    HW1 8450   1.154   5.733   5.780
 2517SOL    HW2 8451   1.001   5.682   5.755
 2518SOL     OW 8452   2.436   3.713   7.008
 2518SOL    HW1 8453   2.464   3.705   0.079
 2518SOL    HW2 8454   2.337   3.700   7.000
 2519SOL     OW 8455   4.605   6.146   3.766
 2519SOL    HW1 8456   4.572   6.219   3.706
 2519SOL    HW2 8457   4.576   6.058   3.730
 2520SOL     OW 8458   1.077   3.256   0.219
 2520SOL    HW1 8459   1.073   3.266   0.119
 2520SOL    HW2 8460   1.161   3.210   0.244
 2521SOL     OW 8461   1.167   6.362   5.675
 2521SOL    HW1 8462   1.085   6.319   5.636
 2521SOL    HW2 8463   1.142   6.447   5.720
 2522SOL     OW 8464   6.901   2.912   5.885
 2522SOL    HW1 8465   6.912   2.909   5.785
 2522SOL    HW2 8466   6.838   2.986   5.909
 2523SOL     OW 8467   0.052   3.036   1.368
 2523SOL    HW1 8468   0.020   3.067   1.278
 2523SOL    HW2 8469   0.011   2.948   1.390
 2524SOL     OW 8470   1.046   5.189   4.848
 2524SOL    HW1 8471   1.105   5.138   4.786
 2524SOL    HW2 8472   0.951   5.173   4.824
 2525SOL     OW 8473   0.941   2.626   4.208
 2525SOL    HW1 8474   0.950   2.713   4.160
 2525SOL    HW2 8475   0.858   2.626   4.263
 2526SOL     OW 8476   1.764   4.315   5.581
 2526SOL    HW1 8477   1.684   4.368   5.553
 2526SOL    HW2 8478   1.736   4.225   5.611
 2527SOL     OW 8479   5.220   6.444   4.979
 2527SOL    HW1 8480   5.274   6.417   5.059
 2527SOL    HW2 8481   5.268   6.416   4.896
 2528SOL     OW 8482   6.200   4.308   0.923
 2528SOL    HW1 8483   6.185   4.345   1.015
 2528SOL    HW2 8484   6.265   4.366   0.874
 2529SOL     OW 8485   0.040   5.875   6.798
 2529SOL    HW1 8486   6.965   5.885   6.808
 2529SOL    HW2 8487   0.068   5.784   6.828
 2530SOL     OW 8488   1.077   6.098   4.781
 2530SOL    HW1 8489   1.066   6.189   4.822
 2530SOL    HW2 8490   0.990   6.069   4.742
 2531SOL     OW 8491   5.418   5.813   4.246
 2531SOL    HW1 8492   5.414   5.908   4.213
 2531SOL    HW2 8493   5.337   5.764   4.213
 2532SOL     OW 8494   1.081   6.119   0.954
 2532SOL    HW1 8495   1.116   6.042   1.006
 2532SOL    HW2 8496   1.001   6.090   0.902
 2533SOL     OW 8497   4.065   0.280   3.342
 2533SOL    HW1 8498   4.057   0.259   3.244
 2533SOL    HW2 8499   4.105   0.371   3.353
 2534SOL     OW 8500   2.269   0.830   2.850
 2534SOL    HW1 8501   2.261   0.731   2.864
 2534SOL    HW2 8502   2.289   0.848   2.754
 2535SOL     OW 8503   2.656   2.929   6.571
 2535SOL    HW1 8504   2.746   2.889   6.589
 2535SOL    HW2 8505   2.591   2.856   6.550
 2536SOL     OW 8506   7.005   2.419   3.722
 2536SOL    HW1 8507   7.021   2.354   3.796
 2536SOL    HW2 8508   6.912   2.455   3.729
 2537SOL     OW 8509   5.074   6.286   6.695
 2537SOL    HW1 8510   5.106   6.380   6.684
 2537SOL    HW2 8511   5.013   6.281   6.775
 2538SOL     OW 8512   1.681   4.090   4.266
 2538SOL    HW1 8513   1.659   4.149   4.189
 2538SOL    HW2 8514   1.761   4.034   4.244
 2539SOL     OW 8515   5.118   0.436   5.812
 2539SOL    HW1 8516   5.191   0.503   5.799
 2539SOL    HW2 8517   5.114   0.375   5.733
 2540SOL     OW 8518   4.620   1.254   2.359
 2540SOL    HW1 8519   4.654   1.270   2.267
 2540SOL    HW2 8520   4.528   1.292   2.368
 2541SOL     OW 8521   1.650   6.628   5.388
 2541SOL    HW1 8522   1.616   6.665   5.474
 2541SOL    HW2 8523   1.630   6.692   5.314
 2542SOL     OW 8524   4.774   1.811   5.402
 2542SOL    HW1 8525   4.796   1.864   5.320
 2542SOL    HW2 8526   4.761   1.715   5.377
 2543SOL     OW 8527   1.693   1.590   3.073
 2543SOL    HW1 8528   1.694   1.658   3.146
 2543SOL    HW2 8529   1.612   1.532   3.081
 2544SOL     OW 8530   6.978   5.144   1.915
 2544SOL    HW1 8531   7.016   5.192   1.994
 2544SOL    HW2 8532   7.004   5.047   1.920
 2545SOL     OW 8533   2.126   0.966   0.790
 2545SOL    HW1 8534   2.178   0.914   0.857
 2545SOL    HW2 8535   2.038   0.993   0.829
 2546SOL     OW 8536   0.013   2.682   2.504
 2546SOL    HW1 8537   6.973   2.642   2.569
 2546SOL    HW2 8538   0.057   2.609   2.451
 2547SOL     OW 8539   5.929   5.116   0.099
 2547SOL    HW1 8540   6.018   5.160   0.091
 2547SOL    HW2 8541   5.923   5.071   0.188
 2548SOL     OW 8542   2.812   6.516   5.200
 2548SOL    HW1 8543   2.812   6.573   5.282
 2548SOL    HW2 8544   2.718   6.501   5.170
 2549SOL     OW 8545   2.143   1.464   1.405
 2549SOL    HW1 8546   2.220   1.427   1.353
 2549SOL    HW2 8547   2.171   1.480   1.500
 2550SOL     OW 8548   6.884   0.470   6.431
 2550SOL    HW1 8549   6.845   0.466   6.339
 2550SOL    HW2 8550   6.832   0.536   6.486
 2551SOL     OW 8551   2.599   5.869   0.145
 2551SOL    HW1 8552   2.513   5.911   0.174
 2551SOL    HW2 8553   2.592   5.842   0.049
 2552SOL     OW 8554   1.126   5.931   5.582
 2552SOL    HW1 8555   1.213   5.977   5.600
 2552SOL    HW2 8556   1.110   5.862   5.652
 2553SOL     OW 8557   3.445   3.324   0.183
 2553SOL    HW1 8558   3.486   3.282   0.264
 2553SOL    HW2 8559   3.515   3.334   0.112
 2554SOL     OW 8560   1.693   5.813   6.713
 2554SOL    HW1 8561   1.726   5.862   6.632
 2554SOL    HW2 8562   1.600   5.844   6.734
 2555SOL     OW 8563   6.396   6.386   5.833
 2555SOL    HW1 8564   6.477   6.415   5.882
 2555SOL    HW2 8565   6.408   6.292   5.801
 2556SOL     OW 8566   4.087   5.969   0.399
 2556SOL    HW1 8567   4.126   6.024   0.473
 2556SOL    HW2 8568   4.162   5.925   0.349
 2557SOL     OW 8569   2.555   2.310   6.590
 2557SOL    HW1 8570   2.462   2.303   6.626
 2557SOL    HW2 8571   2.552   2.330   6.492
 2558SOL     OW 8572   3.883   3.361   5.901
 2558SOL    HW1 8573   3.845   3.337   5.990
 2558SOL    HW2 8574   3.980   3.385   5.912
 2559SOL     OW 8575   6.444   2.832   4.628
 2559SOL    HW1 8576   6.469   2.749   4.679
 2559SOL    HW2 8577   6.527   2.883   4.604
 2560SOL     OW 8578   5.152   3.397   4.428
 2560SOL    HW1 8579   5.204   3.482   4.439
 2560SOL    HW2 8580   5.057   3.418   4.405
 2561SOL     OW 8581   3.140   0.376   4.016
 2561SOL    HW1 8582   3.104   0.468   4.003
 2561SOL    HW2 8583   3.119   0.344   4.109
 2562SOL     OW 8584   1.956   5.769   2.242
 2562SOL    HW1 8585   1.906   5.854   2.260
 2562SOL    HW2 8586   2.012   5.781   2.159
 2563SOL     OW 8587   4.386   1.536   6.712
 2563SOL    HW1 8588   4.360   1.455   6.765
 2563SOL    HW2 8589   4.339   1.534   6.624
 2564SOL     OW 8590   1.003   6.970   6.338
 2564SOL    HW1 8591   1.031   0.041   6.344
 2564SOL    HW2 8592   0.960   6.954   6.250
 2565SOL     OW 8593   6.768   0.670   0.181
 2565SOL    HW1 8594   6.731   0.723   0.257
 2565SOL    HW2 8595   6.708   0.677   0.102
 2566SOL     OW 8596   1.683   0.246   0.896
 2566SOL    HW1 8597   1.757   0.279   0.838
 2566SOL    HW2 8598   1.644   0.163   0.857
 2567SOL     OW 8599   1.118   1.525   1.973
 2567SOL    HW1 8600   1.147   1.461   2.044
 2567SOL    HW2 8601   1.192   1.539   1.907
 2568SOL     OW 8602   2.720   0.679   6.582
 2568SOL    HW1 8603   2.676   0.681   6.671
 2568SOL    HW2 8604   2.796   0.614   6.583
 2569SOL     OW 8605   2.719   0.617   1.722
 2569SOL    HW1 8606   2.674   0.577   1.642
 2569SOL    HW2 8607   2.670   0.699   1.750
 2570SOL     OW 8608   5.857   0.843   6.602
 2570SOL    HW1 8609   5.956   0.857   6.609
 2570SOL    HW2 8610   5.812   0.887   6.679
 2571SOL     OW 8611   2.690   3.685   5.404
 2571SOL    HW1 8612   2.677   3.784   5.394
 2571SOL    HW2 8613   2.740   3.667   5.488
 2572SOL     OW 8614   2.291   6.219   0.949
 2572SOL    HW1 8615   2.227   6.143   0.957
 2572SOL    HW2 8616   2.314   6.254   1.040
 2573SOL     OW 8617   6.335   1.938   2.567
 2573SOL    HW1 8618   6.358   1.932   2.664
 2573SOL    HW2 8619   6.300   2.030   2.547
 2574SOL     OW 8620   0.209   3.163   0.457
 2574SOL    HW1 8621   0.146   3.240   0.445
 2574SOL    HW2 8622   0.249   3.166   0.548
 2575SOL     OW 8623   5.302   4.750   6.840
 2575SOL    HW1 8624   5.325   4.683   6.911
 2575SOL    HW2 8625   5.250   4.705   6.768
 2576SOL     OW 8626   3.902   0.074   4.308
 2576SOL    HW1 8627   3.978   0.091   4.372
 2576SOL    HW2 8628   3.926   7.022   4.248
 2577SOL     OW 8629   4.115   6.173   2.327
 2577SOL    HW1 8630   4.043   6.105   2.340
 2577SOL    HW2 8631   4.195   6.129   2.285
 2578SOL     OW 8632   4.912   2.794   4.932
 2578SOL    HW1 8633   4.917   2.704   4.976
 2578SOL    HW2 8634   4.875   2.861   4.997
 2579SOL     OW 8635   1.142   0.690   3.582
 2579SOL    HW1 8636   1.080   0.769   3.587
 2579SOL    HW2 8637   1.094   0.608   3.613
 2580SOL     OW 8638   2.408   2.799   6.923
 2580SOL    HW1 8639   2.339   2.780   6.992
 2580SOL    HW2 8640   2.445   2.891   6.936
 2581SOL     OW 8641   6.793   4.377   1.372
 2581SOL    HW1 8642   6.887   4.348   1.353
 2581SOL    HW2 8643   6.790   4.477   1.379
 2582SOL     OW 8644   1.268   4.524   2.482
 2582SOL    HW1 8645   1.318   4.532   2.396
 2582SOL    HW2 8646   1.267   4.428   2.511
 2583SOL     OW 8647   0.485   1.924   1.102
 2583SOL    HW1 8648   0.562   1.877   1.145
 2583SOL    HW2 8649   0.426   1.856   1.056
 2584SOL     OW 8650   3.950   5.714   0.412
 2584SOL    HW1 8651   3.971   5.807   0.443
 2584SOL    HW2 8652   4.030   5.656   0.423
 2585SOL     OW 8653   4.119   1.250   6.961
 2585SOL    HW1 8654   4.086   1.157   6.942
 2585SOL    HW2 8655   4.042   1.310   6.980
 2586SOL     OW 8656   3.849   1.714   3.463
 2586SOL    HW1 8657   3.807   1.739   3.551
 2586SOL    HW2 8658   3.933   1.767   3.451
 2587SOL     OW 8659   6.794   1.127   3.574
 2587SOL    HW1 8660   6.820   1.205   3.517
 2587SOL    HW2 8661   6.869   1.060   3.575
 2588SOL     OW 8662   4.980   6.939   6.727
 2588SOL    HW1 8663   4.994   6.999   6.805
 2588SOL    HW2 8664   4.882   6.934   6.705
 2589SOL     OW 8665   0.338   5.727   5.602
 2589SOL    HW1 8666   0.383   5.757   5.685
 2589SOL    HW2 8667   0.284   5.803   5.564
 2590SOL     OW 8668   3.160   6.170   1.764
 2590SOL    HW1 8669   3.081   6.182   1.825
 2590SOL    HW2 8670   3.180   6.073   1.753
 2591SOL     OW 8671   0.075   5.976   1.942
 2591SOL    HW1 8672   0.110   5.927   1.863
 2591SOL    HW2 8673   7.001   5.962   1.949
 2592SOL     OW 8674   3.321   6.789   1.308
 2592SOL    HW1 8675   3.260   6.865   1.331
 2592SOL    HW2 8676   3.335   6.731   1.389
 2593SOL     OW 8677   2.925   6.008   1.606
 2593SOL    HW1 8678   2.852   6.002   1.674
 2593SOL    HW2 8679   3.012   5.986   1.649
 2594SOL     OW 8680   6.738   5.792   5.897
 2594SOL    HW1 8681   6.806   5.816   5.967
 2594SOL    HW2 8682   6.780   5.797   5.806
 2595SOL     OW 8683   6.083   1.220   5.156
 2595SOL    HW1 8684   6.158   1.229   5.222
 2595SOL    HW2 8685   6.023   1.299   5.163
 2596SOL     OW 8686   3.720   1.996   1.825
 2596SOL    HW1 8687   3.708   2.077   1.881
 2596SOL    HW2 8688   3.634   1.972   1.780
 2597SOL     OW 8689   2.000   3.682   6.597
 2597SOL    HW1 8690   2.078   3.620   6.608
 2597SOL    HW2 8691   1.989   3.737   6.681
 2598SOL     OW 8692   5.903   0.646   4.413
 2598SOL    HW1 8693   5.935   0.741   4.411
 2598SOL    HW2 8694   5.829   0.638   4.480
 2599SOL     OW 8695   2.778   0.525   0.451
 2599SOL    HW1 8696   2.864   0.491   0.488
 2599SOL    HW2 8697   2.727   0.572   0.523
 2600SOL     OW 8698   4.912   3.493   4.365
 2600SOL    HW1 8699   4.875   3.581   4.336
 2600SOL    HW2 8700   4.894   3.425   4.294
 2601SOL     OW 8701   2.579   1.960   6.446
 2601SOL    HW1 8702   2.621   2.018   6.515
 2601SOL    HW2 8703   2.573   1.866   6.479
 2602SOL     OW 8704   6.638   4.773   3.772
 2602SOL    HW1 8705   6.541   4.751   3.784
 2602SOL    HW2 8706   6.681   4.704   3.713
 2603SOL     OW 8707   2.255   1.965   2.322
 2603SOL    HW1 8708   2.339   1.970   2.269
 2603SOL    HW2 8709   2.262   2.026   2.401
 2604SOL     OW 8710   5.100   1.346   3.516
 2604SOL    HW1 8711   5.138   1.277   3.577
 2604SOL    HW2 8712   5.057   1.302   3.438
 2605SOL     OW 8713   2.249   4.203   2.912
 2605SOL    HW1 8714   2.231   4.218   3.009
 2605SOL    HW2 8715   2.188   4.132   2.877
 2606SOL     OW 8716   6.685   4.634   0.997
 2606SOL    HW1 8717   6.612   4.675   1.053
 2606SOL    HW2 8718   6.759   4.701   0.986
 2607SOL     OW 8719   0.165   1.322   6.331
 2607SOL    HW1 8720   0.124   1.412   6.317
 2607SOL    HW2 8721   0.096   1.259   6.366
 2608SOL     OW 8722   4.264   4.933   2.228
 2608SOL    HW1 8723   4.218   4.987   2.298
 2608SOL    HW2 8724   4.340   4.884   2.268
 2609SOL     OW 8725   0.116   1.577   1.830
 2609SOL    HW1 8726   0.170   1.558   1.748
 2609SOL    HW2 8727   0.038   1.636   1.805
 2610SOL     OW 8728   0.235   5.073   4.028
 2610SOL    HW1 8729   0.283   5.053   3.943
 2610SOL    HW2 8730   0.289   5.040   4.106
 2611SOL     OW 8731   4.322   6.288   0.854
 2611SOL    HW1 8732   4.343   6.221   0.926
 2611SOL    HW2 8733   4.241   6.340   0.880
 2612SOL     OW 8734   6.604   0.138   5.636
 2612SOL    HW1 8735   6.671   0.167   5.567
 2612SOL    HW2 8736   6.544   0.069   5.597
 2613SOL     OW 8737   2.400   6.569   0.669
 2613SOL    HW1 8738   2.314   6.617   0.682
 2613SOL    HW2 8739   2.383   6.480   0.627
 2614SOL     OW 8740   6.293   0.623   6.018
 2614SOL    HW1 8741   6.301   0.683   6.098
 2614SOL    HW2 8742   6.304   0.676   5.935
 2615SOL     OW 8743   6.688   3.374   3.281
 2615SOL    HW1 8744   6.758   3.406   3.217
 2615SOL    HW2 8745   6.732   3.321   3.354
 2616SOL     OW 8746   3.897   3.426   4.278
 2616SOL    HW1 8747   3.888   3.378   4.365
 2616SOL    HW2 8748   3.879   3.363   4.203
 2617SOL     OW 8749   3.717   6.745   0.772
 2617SOL    HW1 8750   3.623   6.760   0.739
 2617SOL    HW2 8751   3.765   6.683   0.710
 2618SOL     OW 8752   0.151   6.911   4.451
 2618SOL    HW1 8753   0.061   6.949   4.430
 2618SOL    HW2 8754   0.203   6.900   4.366
 2619SOL     OW 8755   3.887   1.558   2.932
 2619SOL    HW1 8756   3.951   1.611   2.988
 2619SOL    HW2 8757   3.844   1.487   2.988
 2620SOL     OW 8758   6.817   6.538   2.822
 2620SOL    HW1 8759   6.903   6.526   2.871
 2620SOL    HW2 8760   6.756   6.462   2.843
 2621SOL     OW 8761   1.189   6.101   2.745
 2621SOL    HW1 8762   1.201   6.017   2.798
 2621SOL    HW2 8763   1.157   6.175   2.805
 2622SOL     OW 8764   2.258   2.526   5.767
 2622SOL    HW1 8765   2.214   2.611   5.738
 2622SOL    HW2 8766   2.307   2.486   5.689
 2623SOL     OW 8767   2.281   1.206   5.470
 2623SOL    HW1 8768   2.204   1.269   5.484
 2623SOL    HW2 8769   2.367   1.257   5.476
 2624SOL     OW 8770   6.772   2.161   5.314
 2624SOL    HW1 8771   6.782   2.125   5.407
 2624SOL    HW2 8772   6.714   2.242   5.316
 2625SOL     OW 8773   2.497   1.903   5.576
 2625SOL    HW1 8774   2.507   1.975   5.644
 2625SOL    HW2 8775   2.422   1.842   5.603
 2626SOL     OW 8776   0.595   0.057   5.242
 2626SOL    HW1 8777   0.535   7.015   5.196
 2626SOL    HW2 8778   0.543   0.138   5.266
 2627SOL     OW 8779   1.656   1.724   5.556
 2627SOL    HW1 8780   1.696   1.799   5.610
 2627SOL    HW2 8781   1.719   1.699   5.483
 2628SOL     OW 8782   2.175   4.922   5.998
 2628SOL    HW1 8783   2.238   4.960   5.930
 2628SOL    HW2 8784   2.227   4.869   6.065
 2629SOL     OW 8785   2.692   3.702   1.674
 2629SOL    HW1 8786   2.670   3.604   1.673
 2629SOL    HW2 8787   2.772   3.718   1.732
 2630SOL     OW 8788   2.735   1.798   3.265
 2630SOL    HW1 8789   2.679   1.879   3.285
 2630SOL    HW2 8790   2.774   1.807   3.173
 2631SOL     OW 8791   4.979   0.397   5.285
 2631SOL    HW1 8792   5.069   0.437   5.266
 2631SOL    HW2 8793   4.991   0.309   5.331
 2632SOL     OW 8794   3.586   1.970   6.039
 2632SOL    HW1 8795   3.534   1.906   6.096
 2632SOL    HW2 8796   3.540   2.059   6.038
 2633SOL     OW 8797   6.817   0.787   4.538
 2633SOL    HW1 8798   6.852   0.739   4.619
 2633SOL    HW2 8799   6.893   0.828   4.489
 2634SOL     OW 8800   1.186   3.931   3.183
 2634SOL    HW1 8801   1.269   3.886   3.215
 2634SOL    HW2 8802   1.143   3.876   3.111
 2635SOL     OW 8803   6.326   6.099   5.765
 2635SOL    HW1 8804   6.323   6.090   5.666
 2635SOL    HW2 8805   6.244   6.147   5.797
 2636SOL     OW 8806   4.752   0.100   5.280
 2636SOL    HW1 8807   4.810   0.161   5.334
 2636SOL    HW2 8808   4.708   0.033   5.339
 2637SOL     OW 8809   5.197   2.041   3.634
 2637SOL    HW1 8810   5.245   1.999   3.710
 2637SOL    HW2 8811   5.251   2.031   3.550
 2638SOL     OW 8812   6.656   0.620   3.253
 2638SOL    HW1 8813   6.654   0.717   3.227
 2638SOL    HW2 8814   6.596   0.606   3.333
 2639SOL     OW 8815   0.903   6.484   1.185
 2639SOL    HW1 8816   0.989   6.444   1.155
 2639SOL    HW2 8817   0.879   6.561   1.126
 2640SOL     OW 8818   0.214   5.924   4.590
 2640SOL    HW1 8819   0.277   5.952   4.663
 2640SOL    HW2 8820   0.186   5.829   4.606
 2641SOL     OW 8821   4.901   3.329   2.066
 2641SOL    HW1 8822   4.839   3.254   2.043
 2641SOL    HW2 8823   4.888   3.355   2.162
 2642SOL     OW 8824   4.011   6.697   4.200
 2642SOL    HW1 8825   4.109   6.681   4.207
 2642SOL    HW2 8826   3.967   6.675   4.287
 2643SOL     OW 8827   0.241   3.575   2.677
 2643SOL    HW1 8828   0.273   3.570   2.583
 2643SOL    HW2 8829   0.150   3.534   2.684
 2644SOL     OW 8830   6.226   5.236   6.041
 2644SOL    HW1 8831   6.265   5.253   5.950
 2644SOL    HW2 8832   6.205   5.138   6.050
 2645SOL     OW 8833   4.420   5.469   4.915
 2645SOL    HW1 8834   4.418   5.562   4.950
 2645SOL    HW2 8835   4.455   5.407   4.986
 2646SOL     OW 8836   6.084   0.525   6.502
 2646SOL    HW1 8837   6.146   0.591   6.544
 2646SOL    HW2 8838   6.109   0.510   6.407
 2647SOL     OW 8839   6.514   0.249   1.432
 2647SOL    HW1 8840   6.450   0.206   1.369
 2647SOL    HW2 8841   6.546   0.180   1.497
 2648SOL     OW 8842   0.136   0.418   4.042
 2648SOL    HW1 8843   0.189   0.370   4.112
 2648SOL    HW2 8844   0.117   0.355   3.966
 2649SOL     OW 8845   5.772   2.807   6.986
 2649SOL    HW1 8846   5.852   2.866   6.989
 2649SOL    HW2 8847   5.736   2.794   0.054
 2650SOL     OW 8848   0.483   4.068   4.423
 2650SOL    HW1 8849   0.450   4.149   4.472
 2650SOL    HW2 8850   0.569   4.038   4.463
 2651SOL     OW 8851   0.786   1.014   0.499
 2651SOL    HW1 8852   0.868   0.982   0.452
 2651SOL    HW2 8853   0.787   0.981   0.594
 2652SOL     OW 8854   3.821   4.063   4.219
 2652SOL    HW1 8855   3.900   4.118   4.193
 2652SOL    HW2 8856   3.750   4.073   4.149
 2653SOL     OW 8857   5.360   6.293   5.467
 2653SOL    HW1 8858   5.362   6.194   5.475
 2653SOL    HW2 8859   5.326   6.319   5.377
 2654SOL     OW 8860   4.905   5.438   1.217
 2654SOL    HW1 8861   4.926   5.415   1.312
 2654SOL    HW2 8862   4.809   5.419   1.199
 2655SOL     OW 8863   4.216   5.785   3.963
 2655SOL    HW1 8864   4.138   5.756   3.907
 2655SOL    HW2 8865   4.198   5.876   3.999
 2656SOL     OW 8866   3.242   5.015   4.269
 2656SOL    HW1 8867   3.156   5.042   4.224
 2656SOL    HW2 8868   3.232   4.922   4.305
 2657SOL     OW 8869   1.121   3.788   6.356
 2657SOL    HW1 8870   1.178   3.745   6.426
 2657SOL    HW2 8871   1.107   3.884   6.379
 2658SOL     OW 8872   5.199   4.499   0.299
 2658SOL    HW1 8873   5.130   4.532   0.235
 2658SOL    HW2 8874   5.163   4.507   0.393
 2659SOL     OW 8875   5.737   3.013   4.528
 2659SOL    HW1 8876   5.684   2.964   4.459
 2659SOL    HW2 8877   5.761   3.104   4.494
 2660SOL     OW 8878   1.131   1.035   1.091
 2660SOL    HW1 8879   1.105   0.973   1.017
 2660SOL    HW2 8880   1.230   1.036   1.100
 2661SOL     OW 8881   2.560   6.848   1.092
 2661SOL    HW1 8882   2.550   6.767   1.033
 2661SOL    HW2 8883   2.477   6.858   1.147
 2662SOL     OW 8884   4.712   6.625   5.698
 2662SOL    HW1 8885   4.759   6.539   5.676
 2662SOL    HW2 8886   4.651   6.610   5.776
 2663SOL     OW 8887   2.851   3.758   0.513
 2663SOL    HW1 8888   2.869   3.660   0.505
 2663SOL    HW2 8889   2.852   3.785   0.609
 2664SOL     OW 8890   3.818   4.556   5.298
 2664SOL    HW1 8891   3.751   4.498   5.252
 2664SOL    HW2 8892   3.776   4.645   5.319
 2665SOL     OW 8893   2.542   2.733   5.286
 2665SOL    HW1 8894   2.565   2.652   5.232
 2665SOL    HW2 8895   2.500   2.802   5.228
 2666SOL     OW 8896   5.677   4.122   0.927
 2666SOL    HW1 8897   5.646   4.039   0.881
 2666SOL    HW2 8898   5.777   4.121   0.934
 2667SOL     OW 8899   1.087   6.783   3.990
 2667SOL    HW1 8900   1.156   6.713   3.971
 2667SOL    HW2 8901   1.129   6.857   4.043
 2668SOL     OW 8902   6.921   3.359   4.553
 2668SOL    HW1 8903   6.955   3.394   4.467
 2668SOL    HW2 8904   6.954   3.415   4.628
 2669SOL     OW 8905   2.817   4.445   5.447
 2669SOL    HW1 8906   2.853   4.486   5.363
 2669SOL    HW2 8907   2.847   4.350   5.453
 2670SOL     OW 8908   6.133   3.159   6.516
 2670SOL    HW1 8909   6.171   3.084   6.461
 2670SOL    HW2 8910   6.037   3.172   6.493
 2671SOL     OW 8911   3.686   5.450   6.060
 2671SOL    HW1 8912   3.690   5.352   6.042
 2671SOL    HW2 8913   3.599   5.487   6.024
 2672SOL     OW 8914   0.805   5.183   0.776
 2672SOL    HW1 8915   0.829   5.262   0.833
 2672SOL    HW2 8916   0.888   5.150   0.729
 2673SOL     OW 8917   6.382   0.998   4.063
 2673SOL    HW1 8918   6.465   0.988   4.119
 2673SOL    HW2 8919   6.354   0.909   4.028
 2674SOL     OW 8920   1.338   4.459   3.722
 2674SOL    HW1 8921   1.410   4.528   3.714
 2674SOL    HW2 8922   1.332   4.407   3.636
 2675SOL     OW 8923   6.435   5.345   3.548
 2675SOL    HW1 8924   6.455   5.279   3.621
 2675SOL    HW2 8925   6.508   5.343   3.480
 2676SOL     OW 8926   4.409   1.968   0.604
 2676SOL    HW1 8927   4.473   1.891   0.600
 2676SOL    HW2 8928   4.375   1.987   0.512
 2677SOL     OW 8929   3.216   3.566   0.447
 2677SOL    HW1 8930   3.248   3.661   0.455
 2677SOL    HW2 8931   3.275   3.507   0.503
 2678SOL     OW 8932   0.310   2.714   1.267
 2678SOL    HW1 8933   0.306   2.758   1.357
 2678SOL    HW2 8934   0.398   2.733   1.224
 2679SOL     OW 8935   3.620   4.551   0.906
 2679SOL    HW1 8936   3.685   4.626   0.893
 2679SOL    HW2 8937   3.589   4.518   0.816
 2680SOL     OW 8938   1.409   1.180   0.764
 2680SOL    HW1 8939   1.431   1.150   0.857
 2680SOL    HW2 8940   1.421   1.279   0.757
 2681SOL     OW 8941   1.185   2.933   4.905
 2681SOL    HW1 8942   1.135   2.940   4.992
 2681SOL    HW2 8943   1.181   2.839   4.873
 2682SOL     OW 8944   5.062   4.457   2.415
 2682SOL    HW1 8945   4.998   4.518   2.369
 2682SOL    HW2 8946   5.030   4.438   2.507
 2683SOL     OW 8947   2.895   5.047   1.284
 2683SOL    HW1 8948   2.970   5.073   1.223
 2683SOL    HW2 8949   2.881   4.948   1.280
 2684SOL     OW 8950   4.104   5.669   1.032
 2684SOL    HW1 8951   4.046   5.732   1.084
 2684SOL    HW2 8952   4.160   5.722   0.968
 2685SOL     OW 8953   6.423   6.291   6.528
 2685SOL    HW1 8954   6.379   6.380   6.538
 2685SOL    HW2 8955   6.420   6.262   6.432
 2686SOL     OW 8956   1.620   1.995   5.685
 2686SOL    HW1 8957   1.671   2.048   5.617
 2686SOL    HW2 8958   1.554   1.936   5.638
 2687SOL     OW 8959   4.713   4.359   2.184
 2687SOL    HW1 8960   4.656   4.347   2.265
 2687SOL    HW2 8961   4.741   4.454   2.175
 2688SOL     OW 8962   4.010   4.226   0.071
 2688SOL    HW1 8963   3.974   4.319   0.059
 2688SOL    HW2 8964   3.962   4.164   0.010
 2689SOL     OW 8965   1.496   3.871   3.560
 2689SOL    HW1 8966   1.586   3.915   3.552
 2689SOL    HW2 8967   1.503   3.776   3.530
 2690SOL     OW 8968   3.389   3.580   3.519
 2690SOL    HW1 8969   3.430   3.657   3.568
 2690SOL    HW2 8970   3.459   3.513   3.497
 2691SOL     OW 8971   1.175   5.727   1.960
 2691SOL    HW1 8972   1.095   5.704   2.015
 2691SOL    HW2 8973   1.231   5.646   1.946
 2692SOL     OW 8974   3.273   5.475   2.747
 2692SOL    HW1 8975   3.289   5.567   2.710
 2692SOL    HW2 8976   3.267   5.410   2.671
 2693SOL     OW 8977   2.080   5.458   2.566
 2693SOL    HW1 8978   2.014   5.423   2.501
 2693SOL    HW2 8979   2.085   5.397   2.646
 2694SOL     OW 8980   4.289   6.637   3.007
 2694SOL    HW1 8981   4.232   6.685   2.940
 2694SOL    HW2 8982   4.256   6.656   3.099
 2695SOL     OW 8983   5.133   0.477   2.503
 2695SOL    HW1 8984   5.104   0.501   2.595
 2695SOL    HW2 8985   5.077   0.400   2.470
 2696SOL     OW 8986   3.685   3.853   5.438
 2696SOL    HW1 8987   3.649   3.762   5.418
 2696SOL    HW2 8988   3.734   3.889   5.358
 2697SOL     OW 8989   3.400   1.654   2.842
 2697SOL    HW1 8990   3.315   1.687   2.884
 2697SOL    HW2 8991   3.458   1.732   2.819
 2698SOL     OW 8992   2.408   6.487   0.235
 2698SOL    HW1 8993   2.411   6.387   0.246
 2698SOL    HW2 8994   2.389   6.509   0.140
 2699SOL     OW 8995   2.694   6.815   0.670
 2699SOL    HW1 8996   2.677   6.722   0.638
 2699SOL    HW2 8997   2.760   6.813   0.745
 2700SOL     OW 8998   2.374   3.829   0.443
 2700SOL    HW1 8999   2.463   3.815   0.401
 2700SOL    HW2 9000   2.315   3.880   0.381
 2701SOL     OW 9001   5.619   1.167   6.187
 2701SOL    HW1 9002   5.584   1.260   6.183
 2701SOL    HW2 9003   5.666   1.153   6.274
 2702SOL     OW 9004   0.699   3.334   3.610
 2702SOL    HW1 9005   0.645   3.417   3.600
 2702SOL    HW2 9006   0.640   3.253   3.600
 2703SOL     OW 9007   1.442   0.418   1.602
 2703SOL    HW1 9008   1.366   0.353   1.615
 2703SOL    HW2 9009   1.415   0.508   1.637
 2704SOL     OW 9010   0.052   6.342   1.479
 2704SOL    HW1 9011   0.004   6.416   1.527
 2704SOL    HW2 9012   0.086   6.276   1.545
 2705SOL     OW 9013   6.957   5.396   4.325
 2705SOL    HW1 9014   6.945   5.488   4.362
 2705SOL    HW2 9015   6.992   5.335   4.397
 2706SOL     OW 9016   0.347   6.565   1.697
 2706SOL    HW1 9017   0.433   6.617   1.689
 2706SOL    HW2 9018   0.291   6.582   1.616
 2707SOL     OW 9019   3.403   6.928   4.112
 2707SOL    HW1 9020   3.456   6.989   4.053
 2707SOL    HW2 9021   3.435   6.936   4.206
 2708SOL     OW 9022   0.380   2.187   6.631
 2708SOL    HW1 9023   0.348   2.095   6.608
 2708SOL    HW2 9024   0.380   2.244   6.548
 2709SOL     OW 9025   6.472   6.883   0.435
 2709SOL    HW1 9026   6.556   6.911   0.389
 2709SOL    HW2 9027   6.393   6.911   0.379
 2710SOL     OW 9028   0.796   3.766   3.490
 2710SOL    HW1 9029   0.833   3.687   3.538
 2710SOL    HW2 9030   0.867   3.836   3.483
 2711SOL     OW 9031   2.368   1.417   4.099
 2711SOL    HW1 9032   2.447   1.475   4.080
 2711SOL    HW2 9033   2.375   1.333   4.045
 2712SOL     OW 9034   2.900   4.387   0.834
 2712SOL    HW1 9035   2.891   4.400   0.735
 2712SOL    HW2 9036   2.909   4.290   0.854
 2713SOL     OW 9037   2.304   2.115   4.646
 2713SOL    HW1 9038   2.280   2.019   4.664
 2713SOL    HW2 9039   2.394   2.119   4.602
 2714SOL     OW 9040   4.086   2.404   0.386
 2714SOL    HW1 9041   3.993   2.434   0.404
 2714SOL    HW2 9042   4.141   2.415   0.469
 2715SOL     OW 9043   5.323   1.486   1.375
 2715SOL    HW1 9044   5.247   1.469   1.312
 2715SOL    HW2 9045   5.394   1.417   1.360
 2716SOL     OW 9046   5.187   4.655   2.733
 2716SOL    HW1 9047   5.143   4.731   2.780
 2716SOL    HW2 9048   5.271   4.630   2.782
 2717SOL     OW 9049   1.038   6.279   2.483
 2717SOL    HW1 9050   1.121   6.255   2.431
 2717SOL    HW2 9051   0.970   6.207   2.472
 2718SOL     OW 9052   2.298   2.004   5.396
 2718SOL    HW1 9053   2.243   2.088   5.396
 2718SOL    HW2 9054   2.343   1.994   5.485
 2719SOL     OW 9055   6.766   5.711   1.000
 2719SOL    HW1 9056   6.821   5.781   1.046
 2719SOL    HW2 9057   6.756   5.632   1.059
 2720SOL     OW 9058   1.956   6.356   1.980
 2720SOL    HW1 9059   1.905   6.292   2.037
 2720SOL    HW2 9060   1.894   6.421   1.937
 2721SOL     OW 9061   2.590   0.133   3.794
 2721SOL    HW1 9062   2.507   0.126   3.849
 2721SOL    HW2 9063   2.637   0.219   3.814
 2722SOL     OW 9064   6.480   5.405   1.517
 2722SOL    HW1 9065   6.566   5.357   1.499
 2722SOL    HW2 9066   6.456   5.462   1.439
 2723SOL     OW 9067   0.784   6.872   6.058
 2723SOL    HW1 9068   0.736   6.887   6.144
 2723SOL    HW2 9069   0.746   6.933   5.988
 2724SOL     OW 9070   1.973   6.613   7.012
 2724SOL    HW1 9071   1.976   6.696   6.958
 2724SOL    HW2 9072   1.987   6.635   0.084
 2725SOL     OW 9073   5.178   5.198   4.531
 2725SOL    HW1 9074   5.151   5.180   4.437
 2725SOL    HW2 9075   5.109   5.254   4.576
 2726SOL     OW 9076   6.854   2.588   1.254
 2726SOL    HW1 9077   6.782   2.647   1.291
 2726SOL    HW2 9078   6.873   2.614   1.160
 2727SOL     OW 9079   0.117   5.232   3.234
 2727SOL    HW1 9080   0.075   5.250   3.144
 2727SOL    HW2 9081   0.216   5.239   3.226
 2728SOL     OW 9082   4.619   6.312   5.709
 2728SOL    HW1 9083   4.710   6.327   5.670
 2728SOL    HW2 9084   4.570   6.399   5.716
 2729SOL     OW 9085   6.722   6.135   1.175
 2729SOL    HW1 9086   6.774   6.210   1.217
 2729SOL    HW2 9087   6.659   6.173   1.108
 2730SOL     OW 9088   1.500   5.672   1.555
 2730SOL    HW1 9089   1.532   5.674   1.461
 2730SOL    HW2 9090   1.517   5.761   1.598
 2731SOL     OW 9091   4.170   3.428   2.848
 2731SOL    HW1 9092   4.211   3.476   2.771
 2731SOL    HW2 9093   4.098   3.366   2.816
 2732SOL     OW 9094   5.485   1.988   1.594
 2732SOL    HW1 9095   5.578   2.009   1.565
 2732SOL    HW2 9096   5.486   1.911   1.657
 2733SOL     OW 9097   6.950   7.022   4.328
 2733SOL    HW1 9098   6.901   6.943   4.293
 2733SOL    HW2 9099   6.982   0.054   4.251
 2734SOL     OW 9100   2.142   6.699   1.848
 2734SOL    HW1 9101   2.228   6.739   1.818
 2734SOL    HW2 9102   2.076   6.700   1.773
 2735SOL     OW 9103   1.351   3.267   2.997
 2735SOL    HW1 9104   1.291   3.278   3.076
 2735SOL    HW2 9105   1.409   3.348   2.988
 2736SOL     OW 9106   4.741   6.592   5.311
 2736SOL    HW1 9107   4.835   6.594   5.277
 2736SOL    HW2 9108   4.699   6.682   5.298
 2737SOL     OW 9109   3.361   3.543   5.505
 2737SOL    HW1 9110   3.367   3.619   5.440
 2737SOL    HW2 9111   3.449   3.530   5.550
 2738SOL     OW 9112   5.072   5.464   2.734
 2738SOL    HW1 9113   5.157   5.460   2.786
 2738SOL    HW2 9114   5.030   5.554   2.746
 2739SOL     OW 9115   0.090   4.996   1.020
 2739SOL    HW1 9116   0.036   5.057   0.962
 2739SOL    HW2 9117   0.182   5.034   1.031
 2740SOL     OW 9118   6.536   3.747   2.425
 2740SOL    HW1 9119   6.522   3.669   2.486
 2740SOL    HW2 9120   6.447   3.784   2.398
 2741SOL     OW 9121   6.501   0.345   5.398
 2741SOL    HW1 9122   6.461   0.321   5.310
 2741SOL    HW2 9123   6.437   0.320   5.471
 2742SOL     OW 9124   1.842   5.386   6.331
 2742SOL    HW1 9125   1.930   5.422   6.361
 2742SOL    HW2 9126   1.768   5.432   6.380
 2743SOL     OW 9127   6.752   4.871   2.031
 2743SOL    HW1 9128   6.816   4.922   1.973
 2743SOL    HW2 9129   6.741   4.919   2.118
 2744SOL     OW 9130   5.246   1.617   6.197
 2744SOL    HW1 9131   5.155   1.613   6.238
 2744SOL    HW2 9132   5.311   1.653   6.265
 2745SOL     OW 9133   0.015   6.794   6.027
 2745SOL    HW1 9134   0.070   6.854   6.084
 2745SOL    HW2 9135   0.046   6.700   6.037
 2746SOL     OW 9136   2.367   2.199   4.164
 2746SOL    HW1 9137   2.309   2.260   4.218
 2746SOL    HW2 9138   2.340   2.205   4.067
 2747SOL     OW 9139   6.083   4.031   6.368
 2747SOL    HW1 9140   6.113   3.949   6.319
 2747SOL    HW2 9141   5.995   4.014   6.411
 2748SOL     OW 9142   5.549   1.258   1.069
 2748SOL    HW1 9143   5.611   1.314   1.125
 2748SOL    HW2 9144   5.601   1.213   0.996
 2749SOL     OW 9145   6.740   5.028   2.904
 2749SOL    HW1 9146   6.793   4.970   2.842
 2749SOL    HW2 9147   6.791   5.042   2.989
 2750SOL     OW 9148   0.798   5.079   1.305
 2750SOL    HW1 9149   0.872   5.015   1.324
 2750SOL    HW2 9150   0.735   5.081   1.383
 2751SOL     OW 9151   0.494   6.053   1.720
 2751SOL    HW1 9152   0.431   6.051   1.642
 2751SOL    HW2 9153   0.571   5.992   1.702
 2752SOL     OW 9154   4.362   4.863   6.062
 2752SOL    HW1 9155   4.324   4.831   5.975
 2752SOL    HW2 9156   4.423   4.794   6.099
 2753SOL     OW 9157   0.545   6.483   5.367
 2753SOL    HW1 9158   0.590   6.416   5.426
 2753SOL    HW2 9159   0.511   6.438   5.285
 2754SOL     OW 9160   0.544   0.863   3.100
 2754SOL    HW1 9161   0.569   0.766   3.108
 2754SOL    HW2 9162   0.578   0.913   3.180
 2755SOL     OW 9163   2.070   6.805   3.225
 2755SOL    HW1 9164   2.036   6.860   3.302
 2755SOL    HW2 9165   2.151   6.848   3.186
 2756SOL     OW 9166   5.852   4.534   6.441
 2756SOL    HW1 9167   5.763   4.567   6.474
 2756SOL    HW2 9168   5.920   4.546   6.514
 2757SOL     OW 9169   2.201   0.363   6.241
 2757SOL    HW1 9170   2.155   0.286   6.285
 2757SOL    HW2 9171   2.181   0.362   6.143
 2758SOL     OW 9172   4.928   6.241   3.142
 2758SOL    HW1 9173   4.831   6.217   3.145
 2758SOL    HW2 9174   4.971   6.219   3.230
 2759SOL     OW 9175   5.098   5.451   5.455
 2759SOL    HW1 9176   5.136   5.387   5.389
 2759SOL    HW2 9177   5.164   5.467   5.528
 2760SOL     OW 9178   0.212   6.005   2.643
 2760SOL    HW1 9179   0.133   6.059   2.611
 2760SOL    HW2 9180   0.233   6.031   2.737
 2761SOL     OW 9181   1.769   4.556   4.793
 2761SOL    HW1 9182   1.787   4.572   4.890
 2761SOL    HW2 9183   1.689   4.496   4.783
 2762SOL     OW 9184   2.070   0.150   6.388
 2762SOL    HW1 9185   2.153   0.096   6.372
 2762SOL    HW2 9186   1.994   0.111   6.336
 2763SOL     OW 9187   4.814   2.388   4.848
 2763SOL    HW1 9188   4.801   2.454   4.921
 2763SOL    HW2 9189   4.894   2.413   4.793
 2764SOL     OW 9190   6.696   1.378   1.369
 2764SOL    HW1 9191   6.619   1.384   1.433
 2764SOL    HW2 9192   6.780   1.362   1.420
 2765SOL     OW 9193   6.361   6.715   0.615
 2765SOL    HW1 9194   6.416   6.727   0.697
 2765SOL    HW2 9195   6.391   6.780   0.544
 2766SOL     OW 9196   4.811   2.714   0.406
 2766SOL    HW1 9197   4.808   2.622   0.369
 2766SOL    HW2 9198   4.903   2.733   0.440
 2767SOL     OW 9199   6.592   5.161   0.110
 2767SOL    HW1 9200   6.625   5.077   0.153
 2767SOL    HW2 9201   6.525   5.139   0.039
 2768SOL     OW 9202   4.467   0.411   1.062
 2768SOL    HW1 9203   4.557   0.369   1.055
 2768SOL    HW2 9204   4.440   0.448   0.974
 2769SOL     OW 9205   1.633   4.424   6.258
 2769SOL    HW1 9206   1.714   4.381   6.218
 2769SOL    HW2 9207   1.617   4.387   6.350
 2770SOL     OW 9208   4.515   5.551   5.954
 2770SOL    HW1 9209   4.500   5.508   6.043
 2770SOL    HW2 9210   4.435   5.605   5.930
 2771SOL     OW 9211   6.123   1.076   4.152
 2771SOL    HW1 9212   6.220   1.053   4.140
 2771SOL    HW2 9213   6.069   1.028   4.083
 2772SOL     OW 9214   3.867   1.580   0.704
 2772SOL    HW1 9215   3.953   1.619   0.740
 2772SOL    HW2 9216   3.888   1.504   0.642
 2773SOL     OW 9217   6.336   2.131   4.818
 2773SOL    HW1 9218   6.356   2.042   4.859
 2773SOL    HW2 9219   6.394   2.144   4.737
 2774SOL     OW 9220   5.324   2.680   3.264
 2774SOL    HW1 9221   5.331   2.779   3.265
 2774SOL    HW2 9222   5.394   2.640   3.324
 2775SOL     OW 9223   6.900   3.949   5.486
 2775SOL    HW1 9224   6.825   3.934   5.421
 2775SOL    HW2 9225   6.883   4.032   5.538
 2776SOL     OW 9226   4.768   4.224   6.007
 2776SOL    HW1 9227   4.799   4.297   5.945
 2776SOL    HW2 9228   4.792   4.248   6.101
 2777SOL     OW 9229   2.615   1.877   1.378
 2777SOL    HW1 9230   2.689   1.929   1.335
 2777SOL    HW2 9231   2.537   1.873   1.316
 2778SOL     OW 9232   2.043   6.841   5.776
 2778SOL    HW1 9233   2.074   6.751   5.806
 2778SOL    HW2 9234   2.026   6.899   5.855
 2779SOL     OW 9235   5.215   6.221   2.461
 2779SOL    HW1 9236   5.209   6.294   2.530
 2779SOL    HW2 9237   5.165   6.141   2.494
 2780SOL     OW 9238   0.676   6.895   6.301
 2780SOL    HW1 9239   0.654   6.952   6.381
 2780SOL    HW2 9240   0.750   6.833   6.325
 2781SOL     OW 9241   6.028   0.396   1.746
 2781SOL    HW1 9242   5.977   0.330   1.691
 2781SOL    HW2 9243   5.968   0.436   1.815
 2782SOL     OW 9244   4.490   0.998   5.129
 2782SOL    HW1 9245   4.474   0.988   5.227
 2782SOL    HW2 9246   4.580   1.038   5.114
 2783SOL     OW 9247   5.010   3.977   2.668
 2783SOL    HW1 9248   4.940   4.044   2.693
 2783SOL    HW2 9249   5.037   3.990   2.573
 2784SOL     OW 9250   3.542   1.372   2.357
 2784SOL    HW1 9251   3.462   1.384   2.298
 2784SOL    HW2 9252   3.512   1.364   2.453
 2785SOL     OW 9253   6.002   2.380   0.916
 2785SOL    HW1 9254   5.946   2.391   0.998
 2785SOL    HW2 9255   6.090   2.426   0.929
 2786SOL     OW 9256   5.204   6.943   2.355
 2786SOL    HW1 9257   5.195   7.002   2.435
 2786SOL    HW2 9258   5.165   6.853   2.376
 2787SOL     OW 9259   5.442   6.610   5.779
 2787SOL    HW1 9260   5.505   6.623   5.702
 2787SOL    HW2 9261   5.393   6.695   5.796
 2788SOL     OW 9262   2.316   6.251   5.944
 2788SOL    HW1 9263   2.346   6.346   5.937
 2788SOL    HW2 9264   2.383   6.192   5.897
 2789SOL     OW 9265   1.587   2.341   4.139
 2789SOL    HW1 9266   1.566   2.360   4.043
 2789SOL    HW2 9267   1.536   2.260   4.169
 2790SOL     OW 9268   3.356   5.820   1.967
 2790SOL    HW1 9269   3.282   5.834   2.034
 2790SOL    HW2 9270   3.405   5.736   1.989
 2791SOL     OW 9271   0.444   2.907   2.492
 2791SOL    HW1 9272   0.507   2.948   2.558
 2791SOL    HW2 9273   0.376   2.975   2.464
 2792SOL     OW 9274   1.967   0.655   3.935
 2792SOL    HW1 9275   1.880   0.635   3.888
 2792SOL    HW2 9276   2.043   0.640   3.871
 2793SOL     OW 9277   5.390   3.762   1.404
 2793SOL    HW1 9278   5.484   3.727   1.398
 2793SOL    HW2 9279   5.327   3.694   1.366
 2794SOL     OW 9280   6.751   1.917   6.742
 2794SOL    HW1 9281   6.820   1.934   6.671
 2794SOL    HW2 9282   6.792   1.930   6.832
 2795SOL     OW 9283   0.860   3.350   1.117
 2795SOL    HW1 9284   0.762   3.345   1.096
 2795SOL    HW2 9285   0.874   3.418   1.189
 2796SOL     OW 9286   0.112   6.284   2.838
 2796SOL    HW1 9287   0.170   6.358   2.804
 2796SOL    HW2 9288   0.047   6.321   2.905
 2797SOL     OW 9289   5.163   5.248   5.248
 2797SOL    HW1 9290   5.083   5.257   5.188
 2797SOL    HW2 9291   5.213   5.334   5.251
 2798SOL     OW 9292   6.700   5.271   2.644
 2798SOL    HW1 9293   6.647   5.187   2.651
 2798SOL    HW2 9294   6.779   5.267   2.706
 2799SOL     OW 9295   5.697   4.997   5.859
 2799SOL    HW1 9296   5.677   4.900   5.849
 2799SOL    HW2 9297   5.736   5.031   5.773
 2800SOL     OW 9298   4.618   6.498   6.190
 2800SOL    HW1 9299   4.713   6.477   6.167
 2800SOL    HW2 9300   4.568   6.413   6.207
 2801SOL     OW 9301   6.824   5.111   5.943
 2801SOL    HW1 9302   6.852   5.196   5.898
 2801SOL    HW2 9303   6.729   5.090   5.920
 2802SOL     OW 9304   5.643   6.346   5.405
 2802SOL    HW1 9305   5.556   6.301   5.424
 2802SOL    HW2 9306   5.717   6.279   5.405
 2803SOL     OW 9307   4.531   5.384   6.184
 2803SOL    HW1 9308   4.435   5.388   6.211
 2803SOL    HW2 9309   4.558   5.289   6.169
 2804SOL     OW 9310   0.904   4.525   5.157
 2804SOL    HW1 9311   0.965   4.569   5.224
 2804SOL    HW2 9312   0.907   4.426   5.169
 2805SOL     OW 9313   5.692   3.648   2.840
 2805SOL    HW1 9314   5.714   3.740   2.807
 2805SOL    HW2 9315   5.753   3.582   2.796
 2806SOL     OW 9316   1.571   4.301   5.891
 2806SOL    HW1 9317   1.576   4.246   5.808
 2806SOL    HW2 9318   1.578   4.242   5.971
 2807SOL     OW 9319   3.809   6.889   4.137
 2807SOL    HW1 9320   3.873   6.817   4.165
 2807SOL    HW2 9321   3.834   6.921   4.046
 2808SOL     OW 9322   6.302   5.603   2.257
 2808SOL    HW1 9323   6.284   5.684   2.203
 2808SOL    HW2 9324   6.389   5.563   2.229
 2809SOL     OW 9325   5.486   2.741   0.766
 2809SOL    HW1 9326   5.552   2.705   0.832
 2809SOL    HW2 9327   5.426   2.807   0.811
 2810SOL     OW 9328   2.292   5.642   2.882
 2810SOL    HW1 9329   2.277   5.556   2.832
 2810SOL    HW2 9330   2.204   5.682   2.906
 2811SOL     OW 9331   1.531   2.071   4.080
 2811SOL    HW1 9332   1.452   2.082   4.019
 2811SOL    HW2 9333   1.514   1.995   4.143
 2812SOL     OW 9334   5.568   3.321   0.275
 2812SOL    HW1 9335   5.663   3.302   0.300
 2812SOL    HW2 9336   5.524   3.238   0.242
 2813SOL     OW 9337   1.059   0.428   6.467
 2813SOL    HW1 9338   1.112   0.484   6.531
 2813SOL    HW2 9339   1.027   0.485   6.391
 2814SOL     OW 9340   3.626   4.376   5.197
 2814SOL    HW1 9341   3.627   4.333   5.107
 2814SOL    HW2 9342   3.533   4.404   5.220
 2815SOL     OW 9343   6.775   5.549   6.109
 2815SOL    HW1 9344   6.861   5.544   6.160
 2815SOL    HW2 9345   6.732   5.458   6.106
 2816SOL     OW 9346   6.688   5.837   3.334
 2816SOL    HW1 9347   6.756   5.789   3.280
 2816SOL    HW2 9348   6.597   5.802   3.313
 2817SOL     OW 9349   2.757   0.041   1.638
 2817SOL    HW1 9350   2.687   0.109   1.658
 2817SOL    HW2 9351   2.847   0.076   1.664
 2818SOL     OW 9352   0.309   0.699   2.501
 2818SOL    HW1 9353   0.216   0.713   2.467
 2818SOL    HW2 9354   0.311   0.714   2.600
 2819SOL     OW 9355   2.310   0.469   1.577
 2819SOL    HW1 9356   2.275   0.474   1.671
 2819SOL    HW2 9357   2.253   0.525   1.517
 2820SOL     OW 9358   1.295   2.212   3.723
 2820SOL    HW1 9359   1.240   2.166   3.653
 2820SOL    HW2 9360   1.271   2.175   3.813
 2821SOL     OW 9361   3.937   4.921   5.774
 2821SOL    HW1 9362   4.007   4.850   5.770
 2821SOL    HW2 9363   3.875   4.912   5.696
 2822SOL     OW 9364   4.088   1.660   0.100
 2822SOL    HW1 9365   4.055   1.619   0.185
 2822SOL    HW2 9366   4.183   1.633   0.084
 2823SOL     OW 9367   5.172   0.859   1.103
 2823SOL    HW1 9368   5.130   0.851   1.194
 2823SOL    HW2 9369   5.241   0.931   1.105
 2824SOL     OW 9370   1.852   1.790   4.848
 2824SOL    HW1 9371   1.850   1.835   4.759
 2824SOL    HW2 9372   1.860   1.692   4.835
 2825SOL     OW 9373   4.949   6.078   6.476
 2825SOL    HW1 9374   4.989   6.163   6.512
 2825SOL    HW2 9375   4.909   6.096   6.386
 2826SOL     OW 9376   4.800   2.194   0.094
 2826SOL    HW1 9377   4.847   2.162   0.012
 2826SOL    HW2 9378   4.836   2.283   0.121
 2827SOL     OW 9379   0.378   1.230   6.502
 2827SOL    HW1 9380   0.305   1.294   6.524
 2827SOL    HW2 9381   0.428   1.263   6.421
 2828SOL     OW 9382   2.452   2.326   0.416
 2828SOL    HW1 9383   2.518   2.290   0.483
 2828SOL    HW2 9384   2.502   2.371   0.342
 2829SOL     OW 9385   3.398   2.988   3.814
 2829SOL    HW1 9386   3.437   3.069   3.857
 2829SOL    HW2 9387   3.453   2.962   3.735
 2830SOL     OW 9388   2.923   4.049   5.092
 2830SOL    HW1 9389   2.867   4.088   5.019
 2830SOL    HW2 9390   2.915   3.950   5.092
 2831SOL     OW 9391   0.531   3.458   2.797
 2831SOL    HW1 9392   0.474   3.383   2.828
 2831SOL    HW2 9393   0.483   3.545   2.810
 2832SOL     OW 9394   0.550   2.872   2.178
 2832SOL    HW1 9395   0.528   2.890   2.274
 2832SOL    HW2 9396   0.617   2.939   2.146
 2833SOL     OW 9397   2.865   1.698   2.522
 2833SOL    HW1 9398   2.930   1.623   2.510
 2833SOL    HW2 9399   2.784   1.666   2.571
 2834SOL     OW 9400   4.032   6.187   5.789
 2834SOL    HW1 9401   3.963   6.211   5.721
 2834SOL    HW2 9402   4.112   6.148   5.744
 2835SOL     OW 9403   0.347   6.467   1.049
 2835SOL    HW1 9404   0.390   6.488   1.136
 2835SOL    HW2 9405   0.417   6.447   0.981
 2836SOL     OW 9406   0.634   6.837   1.766
 2836SOL    HW1 9407   0.594   6.887   1.689
 2836SOL    HW2 9408   0.601   6.875   1.852
 2837SOL     OW 9409   4.625   4.328   2.462
 2837SOL    HW1 9410   4.681   4.382   2.525
 2837SOL    HW2 9411   4.636   4.231   2.482
 2838SOL     OW 9412   3.968   3.810   0.947
 2838SOL    HW1 9413   3.943   3.855   0.862
 2838SOL    HW2 9414   4.007   3.878   1.010
 2839SOL     OW 9415   6.952   2.263   3.251
 2839SOL    HW1 9416   6.891   2.185   3.239
 2839SOL    HW2 9417   7.010   2.272   3.170
 2840SOL     OW 9418   2.049   0.451   1.987
 2840SOL    HW1 9419   2.100   0.389   2.047
 2840SOL    HW2 9420   1.951   0.446   2.009
 2841SOL     OW 9421   6.077   2.195   6.401
 2841SOL    HW1 9422   6.053   2.125   6.335
 2841SOL    HW2 9423   6.160   2.243   6.372
 2842SOL     OW 9424   0.186   4.652   4.112
 2842SOL    HW1 9425   0.171   4.749   4.134
 2842SOL    HW2 9426   0.139   4.629   4.027
 2843SOL     OW 9427   2.496   2.443   3.008
 2843SOL    HW1 9428   2.406   2.407   3.030
 2843SOL    HW2 9429   2.565   2.397   3.065
 2844SOL     OW 9430   6.498   5.414   0.278
 2844SOL    HW1 9431   6.409   5.439   0.241
 2844SOL    HW2 9432   6.523   5.323   0.245
 2845SOL     OW 9433   5.629   3.325   2.035
 2845SOL    HW1 9434   5.557   3.382   2.074
 2845SOL    HW2 9435   5.591   3.236   2.009
 2846SOL     OW 9436   4.400   0.342   0.511
 2846SOL    HW1 9437   4.334   0.395   0.565
 2846SOL    HW2 9438   4.351   0.277   0.453
 2847SOL     OW 9439   5.450   4.015   2.742
 2847SOL    HW1 9440   5.426   3.918   2.747
 2847SOL    HW2 9441   5.369   4.070   2.761
 2848SOL     OW 9442   2.198   2.259   4.962
 2848SOL    HW1 9443   2.146   2.281   5.044
 2848SOL    HW2 9444   2.198   2.337   4.900
 2849SOL     OW 9445   3.878   0.452   0.672
 2849SOL    HW1 9446   3.782   0.461   0.646
 2849SOL    HW2 9447   3.888   0.467   0.771
 2850SOL     OW 9448   1.944   0.626   2.749
 2850SOL    HW1 9449   1.873   0.557   2.764
 2850SOL    HW2 9450   1.931   0.700   2.815
 2851SOL     OW 9451   5.691   2.389   6.201
 2851SOL    HW1 9452   5.639   2.416   6.281
 2851SOL    HW2 9453   5.780   2.437   6.201
 2852SOL     OW 9454   6.873   4.051   6.874
 2852SOL    HW1 9455   6.882   4.090   6.966
 2852SOL    HW2 9456   6.776   4.035   6.854
 2853SOL     OW 9457   1.621   2.063   5.978
 2853SOL    HW1 9458   1.622   2.061   5.878
 2853SOL    HW2 9459   1.680   1.990   6.013
 2854SOL     OW 9460   4.162   1.152   5.844
 2854SOL    HW1 9461   4.079   1.097   5.837
 2854SOL    HW2 9462   4.233   1.112   5.785
 2855SOL     OW 9463   1.876   1.771   5.734
 2855SOL    HW1 9464   1.904   1.839   5.803
 2855SOL    HW2 9465   1.920   1.792   5.647
 2856SOL     OW 9466   0.581   3.633   4.993
 2856SOL    HW1 9467   0.518   3.579   5.049
 2856SOL    HW2 9468   0.591   3.725   5.032
 2857SOL     OW 9469   0.988   2.399   1.013
 2857SOL    HW1 9470   0.963   2.481   0.962
 2857SOL    HW2 9471   1.063   2.352   0.966
 2858SOL     OW 9472   4.226   5.216   2.507
 2858SOL    HW1 9473   4.158   5.147   2.483
 2858SOL    HW2 9474   4.183   5.288   2.562
 2859SOL     OW 9475   6.654   6.927   6.680
 2859SOL    HW1 9476   6.731   6.910   6.618
 2859SOL    HW2 9477   6.589   6.852   6.672
 2860SOL     OW 9478   1.897   1.482   2.402
 2860SOL    HW1 9479   1.995   1.483   2.382
 2860SOL    HW2 9480   1.883   1.496   2.500
 2861SOL     OW 9481   2.862   5.485   5.320
 2861SOL    HW1 9482   2.822   5.542   5.391
 2861SOL    HW2 9483   2.820   5.507   5.232
 2862SOL     OW 9484   4.741   2.009   1.380
 2862SOL    HW1 9485   4.756   2.052   1.290
 2862SOL    HW2 9486   4.642   1.997   1.394
 2863SOL     OW 9487   4.651   1.533   6.662
 2863SOL    HW1 9488   4.557   1.553   6.633
 2863SOL    HW2 9489   4.684   1.453   6.612
 2864SOL     OW 9490   5.039   2.326   0.966
 2864SOL    HW1 9491   5.031   2.299   0.870
 2864SOL    HW2 9492   5.099   2.406   0.973
 2865SOL     OW 9493   4.384   6.402   4.227
 2865SOL    HW1 9494   4.425   6.359   4.147
 2865SOL    HW2 9495   4.293   6.362   4.244
 2866SOL     OW 9496   5.644   4.683   6.567
 2866SOL    HW1 9497   5.629   4.742   6.488
 2866SOL    HW2 9498   5.690   4.735   6.639
 2867SOL     OW 9499   6.008   6.045   2.916
 2867SOL    HW1 9500   5.912   6.051   2.889
 2867SOL    HW2 9501   6.049   5.963   2.874
 2868SOL     OW 9502   1.741   1.384   6.044
 2868SOL    HW1 9503   1.689   1.312   5.997
 2868SOL    HW2 9504   1.760   1.458   5.980
 2869SOL     OW 9505   6.658   0.901   2.916
 2869SOL    HW1 9506   6.616   0.888   2.826
 2869SOL    HW2 9507   6.702   0.990   2.921
 2870SOL     OW 9508   0.730   1.572   5.592
 2870SOL    HW1 9509   0.686   1.594   5.680
 2870SOL    HW2 9510   0.684   1.494   5.551
 2871SOL     OW 9511   5.847   1.004   6.847
 2871SOL    HW1 9512   5.900   0.976   6.928
 2871SOL    HW2 9513   5.751   1.015   6.873
 2872SOL     OW 9514   2.371   2.207   1.554
 2872SOL    HW1 9515   2.418   2.213   1.466
 2872SOL    HW2 9516   2.433   2.167   1.622
 2873SOL     OW 9517   6.489   6.360   2.221
 2873SOL    HW1 9518   6.438   6.291   2.169
 2873SOL    HW2 9519   6.580   6.325   2.242
 2874SOL     OW 9520   4.378   6.522   2.620
 2874SOL    HW1 9521   4.454   6.514   2.683
 2874SOL    HW2 9522   4.298   6.560   2.667
 2875SOL     OW 9523   5.434   6.881   1.154
 2875SOL    HW1 9524   5.494   6.801   1.152
 2875SOL    HW2 9525   5.355   6.862   1.212
 2876SOL     OW 9526   2.095   0.524   2.565
 2876SOL    HW1 9527   2.024   0.566   2.622
 2876SOL    HW2 9528   2.070   0.532   2.469
 2877SOL     OW 9529   2.906   1.409   5.546
 2877SOL    HW1 9530   2.911   1.508   5.553
 2877SOL    HW2 9531   2.998   1.371   5.535
 2878SOL     OW 9532   3.360   4.372   5.251
 2878SOL    HW1 9533   3.367   4.272   5.242
 2878SOL    HW2 9534   3.265   4.398   5.265
 2879SOL     OW 9535   5.084   5.341   6.405
 2879SOL    HW1 9536   5.161   5.282   6.378
 2879SOL    HW2 9537   5.024   5.291   6.467
 2880SOL     OW 9538   0.387   2.175   2.623
 2880SOL    HW1 9539   0.313   2.115   2.655
 2880SOL    HW2 9540   0.419   2.144   2.533
 2881SOL     OW 9541   4.364   5.943   6.932
 2881SOL    HW1 9542   4.275   5.935   6.976
 2881SOL    HW2 9543   4.358   6.004   6.853
 2882SOL     OW 9544   6.876   5.657   1.597
 2882SOL    HW1 9545   6.890   5.613   1.508
 2882SOL    HW2 9546   6.810   5.605   1.650
 2883SOL     OW 9547   5.797   0.221   3.877
 2883SOL    HW1 9548   5.788   0.166   3.794
 2883SOL    HW2 9549   5.894   0.233   3.899
 2884SOL     OW 9550   0.648   6.861   3.207
 2884SOL    HW1 9551   0.598   6.821   3.131
 2884SOL    HW2 9552   0.669   6.791   3.275
 2885SOL     OW 9553   1.551   3.408   3.909
 2885SOL    HW1 9554   1.534   3.416   3.811
 2885SOL    HW2 9555   1.602   3.324   3.928
 2886SOL     OW 9556   1.621   3.157   6.336
 2886SOL    HW1 9557   1.589   3.119   6.249
 2886SOL    HW2 9558   1.590   3.099   6.411
 2887SOL     OW 9559   0.922   6.626   5.580
 2887SOL    HW1 9560   0.980   6.697   5.539
 2887SOL    HW2 9561   0.827   6.641   5.551
 2888SOL     OW 9562   0.166   3.972   6.503
 2888SOL    HW1 9563   0.110   3.923   6.570
 2888SOL    HW2 9564   0.237   4.024   6.551
 2889SOL     OW 9565   2.828   5.857   2.303
 2889SOL    HW1 9566   2.884   5.935   2.273
 2889SOL    HW2 9567   2.785   5.814   2.224
 2890SOL     OW 9568   1.560   6.209   0.649
 2890SOL    HW1 9569   1.587   6.276   0.718
 2890SOL    HW2 9570   1.541   6.121   0.693
 2891SOL     OW 9571   0.763   4.628   3.174
 2891SOL    HW1 9572   0.742   4.652   3.269
 2891SOL    HW2 9573   0.848   4.575   3.171
 2892SOL     OW 9574   6.631   2.864   0.987
 2892SOL    HW1 9575   6.707   2.906   1.036
 2892SOL    HW2 9576   6.628   2.898   0.893
 2893SOL     OW 9577   0.708   5.272   4.259
 2893SOL    HW1 9578   0.655   5.351   4.287
 2893SOL    HW2 9579   0.799   5.301   4.228
 2894SOL     OW 9580   6.979   3.093   2.215
 2894SOL    HW1 9581   0.049   3.111   2.243
 2894SOL    HW2 9582   6.940   3.022   2.273
 2895SOL     OW 9583   4.844   1.016   5.360
 2895SOL    HW1 9584   4.933   1.041   5.399
 2895SOL    HW2 9585   4.776   1.012   5.433
 2896SOL     OW 9586   4.385   6.543   5.676
 2896SOL    HW1 9587   4.379   6.643   5.682
 2896SOL    HW2 9588   4.434   6.518   5.592
 2897SOL     OW 9589   3.894   5.033   2.839
 2897SOL    HW1 9590   3.984   5.061   2.806
 2897SOL    HW2 9591   3.842   5.114   2.868
 2898SOL     OW 9592   4.507   4.555   4.426
 2898SOL    HW1 9593   4.566   4.599   4.494
 2898SOL    HW2 9594   4.415   4.594   4.431
 2899SOL     OW 9595   0.656   1.674   0.643
 2899SOL    HW1 9596   0.718   1.599   0.664
 2899SOL    HW2 9597   0.568   1.657   0.687
 2900SOL     OW 9598   2.777   4.342   6.718
 2900SOL    HW1 9599   2.825   4.373   6.800
 2900SOL    HW2 9600   2.771   4.242   6.719
 2901SOL     OW 9601   2.515   4.898   3.040
 2901SOL    HW1 9602   2.534   4.807   3.002
 2901SOL    HW2 9603   2.582   4.918   3.112
 2902SOL     OW 9604   5.926   5.615   3.374
 2902SOL    HW1 9605   5.974   5.599   3.460
 2902SOL    HW2 9606   5.992   5.630   3.301
 2903SOL     OW 9607   4.420   6.806   0.617
 2903SOL    HW1 9608   4.467   6.748   0.550
 2903SOL    HW2 9609   4.448   6.901   0.605
 2904SOL     OW 9610   2.747   5.253   4.624
 2904SOL    HW1 9611   2.672   5.318   4.613
 2904SOL    HW2 9612   2.718   5.179   4.685
 2905SOL     OW 9613   1.509   3.606   4.622
 2905SOL    HW1 9614   1.458   3.606   4.708
 2905SOL    HW2 9615   1.573   3.683   4.622
 2906SOL     OW 9616   4.576   4.820   2.613
 2906SOL    HW1 9617   4.674   4.815   2.635
 2906SOL    HW2 9618   4.543   4.729   2.588
 2907SOL     OW 9619   0.350   1.923   3.812
 2907SOL    HW1 9620   0.350   1.825   3.831
 2907SOL    HW2 9621   0.311   1.940   3.721
 2908SOL     OW 9622   5.183   6.388   3.274
 2908SOL    HW1 9623   5.152   6.293   3.279
 2908SOL    HW2 9624   5.279   6.391   3.248
 2909SOL     OW 9625   1.630   5.946   3.610
 2909SOL    HW1 9626   1.711   5.923   3.555
 2909SOL    HW2 9627   1.548   5.935   3.554
 2910SOL     OW 9628   5.676   1.002   4.250
 2910SOL    HW1 9629   5.708   0.937   4.182
 2910SOL    HW2 9630   5.751   1.062   4.277
 2911SOL     OW 9631   1.690   6.037   3.208
 2911SOL    HW1 9632   1.752   5.996   3.141
 2911SOL    HW2 9633   1.736   6.112   3.255
 2912SOL     OW 9634   5.850   6.602   0.318
 2912SOL    HW1 9635   5.781   6.662   0.278
 2912SOL    HW2 9636   5.861   6.521   0.261
 2913SOL     OW 9637   3.469   5.129   2.076
 2913SOL    HW1 9638   3.539   5.107   2.008
 2913SOL    HW2 9639   3.443   5.047   2.126
 2914SOL     OW 9640   6.802   5.892   6.577
 2914SOL    HW1 9641   6.827   5.798   6.554
 2914SOL    HW2 9642   6.856   5.955   6.522
 2915SOL     OW 9643   3.452   2.064   3.751
 2915SOL    HW1 9644   3.364   2.110   3.741
 2915SOL    HW2 9645   3.457   1.987   3.687
 2916SOL     OW 9646   1.325   5.726   0.418
 2916SOL    HW1 9647   1.359   5.676   0.338
 2916SOL    HW2 9648   1.243   5.681   0.453
 2917SOL     OW 9649   2.559   0.207   3.375
 2917SOL    HW1 9650   2.555   0.118   3.331
 2917SOL    HW2 9651   2.635   0.210   3.439
 2918SOL     OW 9652   6.383   4.282   5.128
 2918SOL    HW1 9653   6.377   4.263   5.226
 2918SOL    HW2 9654   6.324   4.219   5.077
 2919SOL     OW 9655   5.709   0.481   2.425
 2919SOL    HW1 9656   5.615   0.515   2.431
 2919SOL    HW2 9657   5.741   0.488   2.330
 2920SOL     OW 9658   3.053   1.139   1.140
 2920SOL    HW1 9659   3.116   1.149   1.063
 2920SOL    HW2 9660   2.977   1.203   1.129
 2921SOL     OW 9661   0.525   6.537   4.727
 2921SOL    HW1 9662   0.439   6.585   4.743
 2921SOL    HW2 9663   0.573   6.579   4.650
 2922SOL     OW 9664   4.493   7.017   1.317
 2922SOL    HW1 9665   4.449   0.079   1.292
 2922SOL    HW2 9666   4.473   6.995   1.412
 2923SOL     OW 9667   5.954   5.339   3.168
 2923SOL    HW1 9668   5.926   5.416   3.226
 2923SOL    HW2 9669   6.022   5.284   3.216
 2924SOL     OW 9670   6.731   2.372   5.777
 2924SOL    HW1 9671   6.735   2.456   5.723
 2924SOL    HW2 9672   6.693   2.393   5.867
 2925SOL     OW 9673   5.629   2.391   0.811
 2925SOL    HW1 9674   5.629   2.359   0.716
 2925SOL    HW2 9675   5.584   2.323   0.869
 2926SOL     OW 9676   6.096   1.785   6.351
 2926SOL    HW1 9677   6.058   1.860   6.297
 2926SOL    HW2 9678   6.022   1.729   6.387
 2927SOL     OW 9679   1.274   3.968   1.444
 2927SOL    HW1 9680   1.334   3.916   1.505
 2927SOL    HW2 9681   1.191   3.916   1.426
 2928SOL     OW 9682   0.811   0.912   0.006
 2928SOL    HW1 9683   0.857   0.992   0.045
 2928SOL    HW2 9684   0.712   0.931   7.024
 2929SOL     OW 9685   1.229   2.490   6.604
 2929SOL    HW1 9686   1.131   2.478   6.593
 2929SOL    HW2 9687   1.263   2.554   6.535
 2930SOL     OW 9688   5.306   6.715   5.447
 2930SOL    HW1 9689   5.249   6.703   5.528
 2930SOL    HW2 9690   5.403   6.717   5.474
 2931SOL     OW 9691   5.322   5.141   0.144
 2931SOL    HW1 9692   5.345   5.046   0.167
 2931SOL    HW2 9693   5.229   5.161   0.176
 2932SOL     OW 9694   0.930   5.938   2.141
 2932SOL    HW1 9695   1.020   5.949   2.183
 2932SOL    HW2 9696   0.942   5.922   2.042
 2933SOL     OW 9697   1.414   5.888   2.580
 2933SOL    HW1 9698   1.423   5.954   2.655
 2933SOL    HW2 9699   1.425   5.936   2.493
 2934SOL     OW 9700   5.045   1.371   6.595
 2934SOL    HW1 9701   5.111   1.435   6.634
 2934SOL    HW2 9702   4.976   1.349   6.664
 2935SOL     OW 9703   0.108   2.517   6.580
 2935SOL    HW1 9704   0.093   2.606   6.624
 2935SOL    HW2 9705   0.090   2.444   6.646
 2936SOL     OW 9706   4.622   6.396   0.516
 2936SOL    HW1 9707   4.580   6.408   0.606
 2936SOL    HW2 9708   4.618   6.300   0.490
 2937SOL     OW 9709   5.661   4.804   1.498
 2937SOL    HW1 9710   5.563   4.795   1.514
 2937SOL    HW2 9711   5.709   4.817   1.585
 2938SOL     OW 9712   4.655   5.293   6.675
 2938SOL    HW1 9713   4.723   5.349   6.722
 2938SOL    HW2 9714   4.601   5.352   6.614
 2939SOL     OW 9715   2.368   0.685   2.342
 2939SOL    HW1 9716   2.287   0.721   2.295
 2939SOL    HW2 9717   2.425   0.635   2.277
 2940SOL     OW 9718   5.630   4.702   5.647
 2940SOL    HW1 9719   5.641   4.695   5.548
 2940SOL    HW2 9720   5.534   4.718   5.669
 2941SOL     OW 9721   1.778   2.349   4.318
 2941SOL    HW1 9722   1.841   2.277   4.291
 2941SOL    HW2 9723   1.701   2.352   4.254
 2942SOL     OW 9724   4.046   2.103   0.545
 2942SOL    HW1 9725   4.022   2.182   0.489
 2942SOL    HW2 9726   4.082   2.030   0.487
 2943SOL     OW 9727   5.659   4.332   3.979
 2943SOL    HW1 9728   5.588   4.270   4.013
 2943SOL    HW2 9729   5.746   4.284   3.974
 2944SOL     OW 9730   2.878   6.202   4.271
 2944SOL    HW1 9731   2.790   6.186   4.227
 2944SOL    HW2 9732   2.941   6.127   4.247
 2945SOL     OW 9733   3.310   3.479   2.535
 2945SOL    HW1 9734   3.404   3.473   2.570
 2945SOL    HW2 9735   3.246   3.454   2.608
 2946SOL     OW 9736   1.629   4.969   5.940
 2946SOL    HW1 9737   1.662   4.993   5.849
 2946SOL    HW2 9738   1.707   4.946   5.998
 2947SOL     OW 9739   6.993   5.010   1.271
 2947SOL    HW1 9740   0.023   4.987   1.191
 2947SOL    HW2 9741   7.005   4.940   1.341
 2948SOL     OW 9742   0.307   3.874   4.225
 2948SOL    HW1 9743   0.394   3.861   4.176
 2948SOL    HW2 9744   0.273   3.785   4.256
 2949SOL     OW 9745   1.637   5.311   0.800
 2949SOL    HW1 9746   1.606   5.378   0.733
 2949SOL    HW2 9747   1.707   5.252   0.759
 2950SOL     OW 9748   5.485   5.235   4.557
 2950SOL    HW1 9749   5.540   5.190   4.487
 2950SOL    HW2 9750   5.389   5.212   4.543
 2951SOL     OW 9751   5.092   1.612   2.497
 2951SOL    HW1 9752   5.108   1.708   2.521
 2951SOL    HW2 9753   5.138   1.592   2.411
 2952SOL     OW 9754   6.879   5.252   4.866
 2952SOL    HW1 9755   6.877   5.159   4.903
 2952SOL    HW2 9756   6.786   5.288   4.864
 2953SOL     OW 9757   5.861   4.323   2.327
 2953SOL    HW1 9758   5.890   4.252   2.390
 2953SOL    HW2 9759   5.934   4.340   2.259
 2954SOL     OW 9760   1.229   5.222   1.914
 2954SOL    HW1 9761   1.239   5.167   1.997
 2954SOL    HW2 9762   1.159   5.182   1.855
 2955SOL     OW 9763   0.769   4.046   1.920
 2955SOL    HW1 9764   0.673   4.016   1.921
 2955SOL    HW2 9765   0.797   4.065   1.825
 2956SOL     OW 9766   5.741   6.098   2.813
 2956SOL    HW1 9767   5.678   6.121   2.739
 2956SOL    HW2 9768   5.690   6.092   2.899
 2957SOL     OW 9769   5.289   4.486   1.321
 2957SOL    HW1 9770   5.302   4.582   1.295
 2957SOL    HW2 9771   5.218   4.480   1.390
 2958SOL     OW 9772   2.240   4.120   3.387
 2958SOL    HW1 9773   2.183   4.202   3.374
 2958SOL    HW2 9774   2.208   4.048   3.325
 2959SOL     OW 9775   4.944   3.762   0.949
 2959SOL    HW1 9776   5.021   3.735   1.007
 2959SOL    HW2 9777   4.877   3.687   0.946
 2960SOL     OW 9778   3.165   0.661   0.608
 2960SOL    HW1 9779   3.137   0.723   0.534
 2960SOL    HW2 9780   3.110   0.577   0.603
 2961SOL     OW 9781   5.932   4.814   3.060
 2961SOL    HW1 9782   5.846   4.840   3.104
 2961SOL    HW2 9783   6.009   4.850   3.113
 2962SOL     OW 9784   4.433   6.912   3.193
 2962SOL    HW1 9785   4.521   6.867   3.180
 2962SOL    HW2 9786   4.364   6.843   3.216
 2963SOL     OW 9787   1.783   1.118   6.191
 2963SOL    HW1 9788   1.779   1.213   6.160
 2963SOL    HW2 9789   1.827   1.115   6.281
 2964SOL     OW 9790   0.095   1.306   4.964
 2964SOL    HW1 9791   0.106   1.215   4.923
 2964SOL    HW2 9792   0.153   1.371   4.916
 2965SOL     OW 9793   0.623   0.999   4.317
 2965SOL    HW1 9794   0.655   0.934   4.386
 2965SOL    HW2 9795   0.638   0.961   4.226
 2966SOL     OW 9796   4.293   4.700   3.663
 2966SOL    HW1 9797   4.380   4.652   3.671
 2966SOL    HW2 9798   4.244   4.668   3.581
 2967SOL     OW 9799   6.426   0.995   4.880
 2967SOL    HW1 9800   6.331   1.021   4.860
 2967SOL    HW2 9801   6.488   1.054   4.829
 2968SOL     OW 9802   0.919   2.804   0.717
 2968SOL    HW1 9803   0.873   2.845   0.639
 2968SOL    HW2 9804   0.877   2.837   0.802
 2969SOL     OW 9805   5.124   3.031   4.533
 2969SOL    HW1 9806   5.096   3.065   4.443
 2969SOL    HW2 9807   5.222   3.009   4.531
 2970SOL     OW 9808   2.816   2.439   5.237
 2970SOL    HW1 9809   2.831   2.341   5.243
 2970SOL    HW2 9810   2.747   2.459   5.168
 2971SOL     OW 9811   5.198   4.071   0.178
 2971SOL    HW1 9812   5.117   4.112   0.136
 2971SOL    HW2 9813   5.187   3.971   0.181
 2972SOL     OW 9814   0.228   4.707   6.287
 2972SOL    HW1 9815   0.302   4.692   6.222
 2972SOL    HW2 9816   0.204   4.621   6.331
 2973SOL     OW 9817   5.101   5.971   1.959
 2973SOL    HW1 9818   5.181   5.991   1.902
 2973SOL    HW2 9819   5.101   6.031   2.039
 2974SOL     OW 9820   0.802   4.481   3.711
 2974SOL    HW1 9821   0.872   4.487   3.783
 2974SOL    HW2 9822   0.720   4.439   3.749
 2975SOL     OW 9823   5.335   3.468   4.104
 2975SOL    HW1 9824   5.295   3.462   4.012
 2975SOL    HW2 9825   5.321   3.381   4.151
 2976SOL     OW 9826   3.862   2.061   2.957
 2976SOL    HW1 9827   3.803   2.016   3.024
 2976SOL    HW2 9828   3.806   2.105   2.887
 2977SOL     OW 9829   1.697   0.390   2.642
 2977SOL    HW1 9830   1.758   0.313   2.660
 2977SOL    HW2 9831   1.694   0.408   2.543
 2978SOL     OW 9832   4.253   5.145   0.004
 2978SOL    HW1 9833   4.163   5.107   7.006
 2978SOL    HW2 9834   4.264   5.149   0.103
 2979SOL     OW 9835   3.663   1.175   3.762
 2979SOL    HW1 9836   3.679   1.118   3.843
 2979SOL    HW2 9837   3.725   1.253   3.764
 2980SOL     OW 9838   1.372   5.185   4.997
 2980SOL    HW1 9839   1.431   5.137   5.061
 2980SOL    HW2 9840   1.363   5.280   5.024
 2981SOL     OW 9841   2.835   1.167   6.221
 2981SOL    HW1 9842   2.888   1.125   6.147
 2981SOL    HW2 9843   2.783   1.245   6.186
 2982SOL     OW 9844   2.946   5.555   1.953
 2982SOL    HW1 9845   2.914   5.646   1.979
 2982SOL    HW2 9846   3.046   5.556   1.946
 2983SOL     OW 9847   6.231   2.208   2.837
 2983SOL    HW1 9848   6.164   2.267   2.884
 2983SOL    HW2 9849   6.276   2.150   2.904
 2984SOL     OW 9850   6.171   4.454   6.886
 2984SOL    HW1 9851   6.156   4.359   6.861
 2984SOL    HW2 9852   6.085   4.494   6.918
 2985SOL     OW 9853   2.035   2.854   4.784
 2985SOL    HW1 9854   1.962   2.788   4.763
 2985SOL    HW2 9855   1.998   2.947   4.779
 2986SOL     OW 9856   3.566   4.164   3.172
 2986SOL    HW1 9857   3.498   4.185   3.242
 2986SOL    HW2 9858   3.656   4.156   3.214
 2987SOL     OW 9859   0.886   1.698   4.069
 2987SOL    HW1 9860   0.979   1.691   4.105
 2987SOL    HW2 9861   0.823   1.650   4.130
 2988SOL     OW 9862   1.815   6.433   2.932
 2988SOL    HW1 9863   1.864   6.350   2.959
 2988SOL    HW2 9864   1.837   6.455   2.837
 2989SOL     OW 9865   5.635   5.491   5.653
 2989SOL    HW1 9866   5.660   5.584   5.681
 2989SOL    HW2 9867   5.691   5.425   5.703
 2990SOL     OW 9868   3.707   2.060   4.695
 2990SOL    HW1 9869   3.616   2.101   4.689
 2990SOL    HW2 9870   3.699   1.960   4.689
 2991SOL     OW 9871   6.566   3.769   5.592
 2991SOL    HW1 9872   6.528   3.815   5.513
 2991SOL    HW2 9873   6.519   3.799   5.675
 2992SOL     OW 9874   1.462   5.222   4.345
 2992SOL    HW1 9875   1.543   5.204   4.289
 2992SOL    HW2 9876   1.490   5.253   4.436
 2993SOL     OW 9877   0.496   4.917   1.294
 2993SOL    HW1 9878   0.462   5.010   1.279
 2993SOL    HW2 9879   0.561   4.893   1.222
 2994SOL     OW 9880   3.663   6.578   6.818
 2994SOL    HW1 9881   3.757   6.608   6.835
 2994SOL    HW2 9882   3.616   6.648   6.764
 2995SOL     OW 9883   2.976   1.240   6.517
 2995SOL    HW1 9884   2.984   1.264   6.614
 2995SOL    HW2 9885   2.924   1.155   6.508
 2996SOL     OW 9886   1.128   1.162   5.091
 2996SOL    HW1 9887   1.122   1.204   5.182
 2996SOL    HW2 9888   1.174   1.226   5.028
 2997SOL     OW 9889   5.563   0.264   2.936
 2997SOL    HW1 9890   5.580   0.348   2.989
 2997SOL    HW2 9891   5.476   0.273   2.888
 2998SOL     OW 9892   5.339   6.748   3.634
 2998SOL    HW1 9893   5.247   6.780   3.656
 2998SOL    HW2 9894   5.338   6.699   3.547
 2999SOL     OW 9895   2.155   5.117   5.045
 2999SOL    HW1 9896   2.215   5.073   4.978
 2999SOL    HW2 9897   2.074   5.061   5.060
 3000SOL     OW 9898   3.399   4.100   6.300
 3000SOL    HW1 9899   3.431   4.027   6.239
 3000SOL    HW2 9900   3.318   4.142   6.260
 3001SOL     OW 9901   0.052   0.606   6.086
 3001SOL    HW1 9902   0.073   0.698   6.054
 3001SOL    HW2 9903   0.085   0.539   6.019
 3002SOL     OW 9904   3.193   1.814   6.668
 3002SOL    HW1 9905   3.136   1.867   6.731
 3002SOL    HW2 9906   3.179   1.847   6.575
 3003SOL     OW 9907   1.647   6.941   0.856
 3003SOL    HW1 9908   1.687   6.896   0.936
 3003SOL    HW2 9909   1.715   6.948   0.783
 3004SOL     OW 9910   0.508   3.771   3.088
 3004SOL    HW1 9911   0.494   3.724   3.001
 3004SOL    HW2 9912   0.426   3.760   3.145
 3005SOL     OW 9913   1.685   2.862   6.842
 3005SOL    HW1 9914   1.594   2.846   6.882
 3005SOL    HW2 9915   1.701   2.797   6.768
 3006SOL     OW 9916   5.428   1.599   4.429
 3006SOL    HW1 9917   5.514   1.549   4.427
 3006SOL    HW2 9918   5.395   1.606   4.523
 3007SOL     OW 9919   5.315   3.951   0.962
 3007SOL    HW1 9920   5.290   3.865   0.917
 3007SOL    HW2 9921   5.298   3.942   1.060
 3008SOL     OW 9922   3.366   2.243   6.303
 3008SOL    HW1 9923   3.272   2.252   6.334
 3008SOL    HW2 9924   3.368   2.230   6.203
 3009SOL     OW 9925   6.781   2.140   2.948
 3009SOL    HW1 9926   6.761   2.236   2.925
 3009SOL    HW2 9927   6.875   2.119   2.923
 3010SOL     OW 9928   2.952   5.960   3.230
 3010SOL    HW1 9929   2.870   5.961   3.288
 3010SOL    HW2 9930   3.031   5.988   3.285
 3011SOL     OW 9931   6.207   1.682   2.563
 3011SOL    HW1 9932   6.116   1.666   2.602
 3011SOL    HW2 9933   6.235   1.776   2.582
 3012SOL     OW 9934   1.967   3.517   6.334
 3012SOL    HW1 9935   2.003   3.427   6.358
 3012SOL    HW2 9936   1.950   3.570   6.417
 3013SOL     OW 9937   5.399   5.956   3.907
 3013SOL    HW1 9938   5.378   5.999   3.995
 3013SOL    HW2 9939   5.313   5.932   3.861
 3014SOL     OW 9940   4.962   2.517   5.154
 3014SOL    HW1 9941   4.863   2.522   5.141
 3014SOL    HW2 9942   5.008   2.524   5.065
 3015SOL     OW 9943   2.809   1.916   0.299
 3015SOL    HW1 9944   2.722   1.871   0.319
 3015SOL    HW2 9945   2.792   2.012   0.276
 3016SOL     OW 9946   3.094   6.410   4.015
 3016SOL    HW1 9947   3.068   6.397   4.111
 3016SOL    HW2 9948   3.114   6.507   3.999
 3017SOL     OW 9949   6.102   5.603   1.844
 3017SOL    HW1 9950   6.148   5.530   1.895
 3017SOL    HW2 9951   6.004   5.583   1.837
 3018SOL     OW 9952   2.583   6.925   5.836
 3018SOL    HW1 9953   2.570   6.826   5.842
 3018SOL    HW2 9954   2.626   6.947   5.748
 3019SOL     OW 9955   0.328   6.815   6.903
 3019SOL    HW1 9956   0.286   6.736   6.859
 3019SOL    HW2 9957   0.422   6.826   6.869
 3020SOL     OW 9958   4.030   2.474   1.139
 3020SOL    HW1 9959   4.075   2.413   1.204
 3020SOL    HW2 9960   3.972   2.421   1.078
 3021SOL     OW 9961   3.129   6.950   5.909
 3021SOL    HW1 9962   3.083   6.910   5.829
 3021SOL    HW2 9963   3.228   6.941   5.898
 3022SOL     OW 9964   4.110   5.595   5.215
 3022SOL    HW1 9965   4.142   5.659   5.146
 3022SOL    HW2 9966   4.012   5.606   5.229
 3023SOL     OW 9967   4.183   6.785   3.251
 3023SOL    HW1 9968   4.218   6.698   3.287
 3023SOL    HW2 9969   4.118   6.824   3.316
 3024SOL     OW 9970   4.955   6.381   4.875
 3024SOL    HW1 9971   5.033   6.412   4.931
 3024SOL    HW2 9972   4.874   6.434   4.901
 3025SOL     OW 9973   4.524   6.475   0.734
 3025SOL    HW1 9974   4.471   6.552   0.770
 3025SOL    HW2 9975   4.478   6.389   0.757
 3026SOL     OW 9976   1.306   0.941   6.095
 3026SOL    HW1 9977   1.349   1.017   6.144
 3026SOL    HW2 9978   1.251   0.977   6.019
 3027SOL     OW 9979   4.338   1.461   2.926
 3027SOL    HW1 9980   4.256   1.473   2.982
 3027SOL    HW2 9981   4.323   1.501   2.836
 3028SOL     OW 9982   1.627   3.756   5.798
 3028SOL    HW1 9983   1.683   3.810   5.862
 3028SOL    HW2 9984   1.685   3.689   5.753
 3029SOL     OW 9985   0.520   3.003   5.163
 3029SOL    HW1 9986   0.591   2.963   5.221
 3029SOL    HW2 9987   0.560   3.074   5.105
 3030SOL     OW 9988   0.491   3.405   0.456
 3030SOL    HW1 9989   0.477   3.308   0.437
 3030SOL    HW2 9990   0.578   3.417   0.504
 3031SOL     OW 9991   0.095   4.776   1.405
 3031SOL    HW1 9992   0.136   4.690   1.374
 3031SOL    HW2 9993   0.167   4.840   1.431
 3032SOL     OW 9994   2.519   6.685   1.523
 3032SOL    HW1 9995   2.424   6.660   1.541
 3032SOL    HW2 9996   2.530   6.784   1.536
 3033SOL     OW 9997   5.762   1.451   1.513
 3033SOL    HW1 9998   5.708   1.532   1.491
 3033SOL    HW2 9999   5.716   1.399   1.585
 3034SOL     OW10000   0.926   0.237   3.096
 3034SOL    HW110001   0.879   0.150   3.109
 3034SOL    HW210002   1.021   0.229   3.128
 3035SOL     OW10003   0.336   2.740   6.093
 3035SOL    HW110004   0.377   2.740   6.002
 3035SOL    HW210005   0.240   2.713   6.086
 3036SOL     OW10006   2.168   1.398   6.011
 3036SOL    HW110007   2.197   1.460   5.937
 3036SOL    HW210008   2.112   1.449   6.077
 3037SOL     OW10009   6.126   5.414   6.431
 3037SOL    HW110010   6.087   5.323   6.437
 3037SOL    HW210011   6.207   5.412   6.372
 3038SOL     OW10012   5.198   5.447   5.894
 3038SOL    HW110013   5.193   5.347   5.900
 3038SOL    HW210014   5.250   5.483   5.971
 3039SOL     OW10015   0.306   3.629   0.954
 3039SOL    HW110016   0.405   3.624   0.958
 3039SOL    HW210017   0.277   3.671   0.868
 3040SOL     OW10018   3.191   4.213   5.939
 3040SOL    HW110019   3.127   4.257   5.877
 3040SOL    HW210020   3.233   4.134   5.893
 3041SOL     OW10021   2.386   3.254   5.306
 3041SOL    HW110022   2.455   3.326   5.308
 3041SOL    HW210023   2.427   3.169   5.276
 3042SOL     OW10024   5.693   5.557   2.931
 3042SOL    HW110025   5.710   5.574   3.028
 3042SOL    HW210026   5.618   5.614   2.900
 3043SOL     OW10027   2.772   4.149   1.485
 3043SOL    HW110028   2.781   4.231   1.542
 3043SOL    HW210029   2.862   4.104   1.479
 3044SOL     OW10030   3.402   4.759   5.910
 3044SOL    HW110031   3.454   4.696   5.853
 3044SOL    HW210032   3.409   4.731   6.006
 3045SOL     OW10033   4.933   0.007   3.196
 3045SOL    HW110034   4.921   0.105   3.180
 3045SOL    HW210035   5.022   7.015   3.238
 3046SOL     OW10036   2.683   0.820   5.822
 3046SOL    HW110037   2.648   0.818   5.728
 3046SOL    HW210038   2.781   0.803   5.821
 3047SOL     OW10039   5.908   0.367   1.367
 3047SOL    HW110040   5.839   0.297   1.346
 3047SOL    HW210041   5.862   0.453   1.389
 3048SOL     OW10042   3.946   2.142   1.333
 3048SOL    HW110043   3.857   2.150   1.379
 3048SOL    HW210044   4.003   2.220   1.356
 3049SOL     OW10045   1.237   0.328   2.959
 3049SOL    HW110046   1.201   0.405   3.011
 3049SOL    HW210047   1.210   0.336   2.863
 3050SOL     OW10048   3.160   1.775   2.043
 3050SOL    HW110049   3.079   1.823   2.077
 3050SOL    HW210050   3.132   1.697   1.987
 3051SOL     OW10051   2.011   5.700   6.061
 3051SOL    HW110052   2.109   5.682   6.066
 3051SOL    HW210053   1.994   5.775   5.996
 3052SOL     OW10054   4.793   5.534   1.755
 3052SOL    HW110055   4.769   5.510   1.850
 3052SOL    HW210056   4.889   5.562   1.751
 3053SOL     OW10057   6.986   2.370   0.732
 3053SOL    HW110058   6.991   2.463   0.768
 3053SOL    HW210059   6.905   2.361   0.675
 3054SOL     OW10060   6.555   2.203   1.211
 3054SOL    HW110061   6.461   2.229   1.190
 3054SOL    HW210062   6.605   2.282   1.246
 3055SOL     OW10063   4.764   6.917   5.047
 3055SOL    HW110064   4.724   6.995   5.096
 3055SOL    HW210065   4.863   6.920   5.056
 3056SOL     OW10066   6.119   0.772   5.383
 3056SOL    HW110067   6.037   0.824   5.407
 3056SOL    HW210068   6.200   0.829   5.398
 3057SOL     OW10069   4.463   5.395   3.682
 3057SOL    HW110070   4.380   5.404   3.736
 3057SOL    HW210071   4.441   5.398   3.585
 3058SOL     OW10072   0.133   4.507   1.344
 3058SOL    HW110073   0.221   4.511   1.297
 3058SOL    HW210074   0.085   4.423   1.318
 3059SOL     OW10075   2.865   2.314   4.295
 3059SOL    HW110076   2.774   2.347   4.320
 3059SOL    HW210077   2.921   2.304   4.378
 3060SOL     OW10078   1.342   4.853   0.395
 3060SOL    HW110079   1.271   4.903   0.347
 3060SOL    HW210080   1.349   4.760   0.358
 3061SOL     OW10081   6.695   5.546   5.622
 3061SOL    HW110082   6.793   5.532   5.613
 3061SOL    HW210083   6.670   5.553   5.719
 3062SOL     OW10084   2.270   0.458   0.983
 3062SOL    HW110085   2.357   0.507   0.980
 3062SOL    HW210086   2.205   0.502   0.920
 3063SOL     OW10087   1.744   5.497   2.077
 3063SOL    HW110088   1.840   5.467   2.074
 3063SOL    HW210089   1.696   5.443   2.146
 3064SOL     OW10090   5.006   3.403   1.069
 3064SOL    HW110091   4.979   3.462   1.145
 3064SOL    HW210092   5.104   3.385   1.073
 3065SOL     OW10093   1.729   2.048   6.415
 3065SOL    HW110094   1.632   2.065   6.432
 3065SOL    HW210095   1.770   2.006   6.496
 3066SOL     OW10096   4.965   4.659   0.530
 3066SOL    HW110097   4.887   4.628   0.475
 3066SOL    HW210098   5.012   4.580   0.569
 3067SOL     OW10099   4.294   0.864   5.838
 3067SOL    HW110100   4.223   0.844   5.905
 3067SOL    HW210101   4.267   0.826   5.749
 3068SOL     OW10102   0.058   6.813   0.879
 3068SOL    HW110103   0.106   6.746   0.935
 3068SOL    HW210104   0.073   6.792   0.782
 3069SOL     OW10105   0.014   6.461   1.996
 3069SOL    HW110106   0.044   6.545   2.041
 3069SOL    HW210107   6.941   6.467   1.975
 3070SOL     OW10108   3.040   1.230   0.102
 3070SOL    HW110109   3.029   1.305   0.166
 3070SOL    HW210110   3.134   1.197   0.104
 3071SOL     OW10111   6.939   6.590   3.720
 3071SOL    HW110112   0.014   6.587   3.710
 3071SOL    HW210113   6.902   6.498   3.707
 3072SOL     OW10114   2.473   5.808   6.151
 3072SOL    HW110115   2.497   5.812   6.247
 3072SOL    HW210116   2.546   5.762   6.100
 3073SOL     OW10117   6.619   3.666   4.445
 3073SOL    HW110118   6.521   3.647   4.459
 3073SOL    HW210119   6.631   3.714   4.358
 3074SOL     OW10120   6.597   3.814   1.552
 3074SOL    HW110121   6.527   3.884   1.567
 3074SOL    HW210122   6.560   3.724   1.572
 3075SOL     OW10123   2.536   5.513   1.439
 3075SOL    HW110124   2.552   5.480   1.346
 3075SOL    HW210125   2.543   5.613   1.440
 3076SOL     OW10126   6.163   0.828   3.512
 3076SOL    HW110127   6.199   0.854   3.602
 3076SOL    HW210128   6.127   0.734   3.517
 3077SOL     OW10129   5.890   4.505   1.779
 3077SOL    HW110130   5.803   4.519   1.730
 3077SOL    HW210131   5.946   4.587   1.769
 3078SOL     OW10132   6.875   3.157   2.911
 3078SOL    HW110133   6.913   3.163   3.004
 3078SOL    HW210134   6.776   3.150   2.916
 3079SOL     OW10135   2.619   2.403   2.739
 3079SOL    HW110136   2.603   2.455   2.823
 3079SOL    HW210137   2.543   2.341   2.723
 3080SOL     OW10138   5.515   5.395   2.194
 3080SOL    HW110139   5.561   5.387   2.105
 3080SOL    HW210140   5.564   5.341   2.262
 3081SOL     OW10141   1.246   2.834   6.007
 3081SOL    HW110142   1.261   2.905   5.938
 3081SOL    HW210143   1.235   2.877   6.097
 3082SOL     OW10144   1.808   5.685   4.081
 3082SOL    HW110145   1.825   5.724   3.990
 3082SOL    HW210146   1.710   5.689   4.101
 3083SOL     OW10147   3.301   5.964   3.872
 3083SOL    HW110148   3.286   5.884   3.813
 3083SOL    HW210149   3.216   6.015   3.881
 3084SOL     OW10150   6.951   4.079   4.605
 3084SOL    HW110151   6.855   4.067   4.628
 3084SOL    HW210152   6.971   4.034   4.518
 3085SOL     OW10153   5.633   4.111   0.224
 3085SOL    HW110154   5.658   4.187   0.283
 3085SOL    HW210155   5.712   4.086   0.167
 3086SOL     OW10156   5.462   1.261   1.443
 3086SOL    HW110157   5.511   1.285   1.527
 3086SOL    HW210158   5.518   1.200   1.388
 3087SOL     OW10159   1.883   6.188   3.735
 3087SOL    HW110160   1.937   6.148   3.661
 3087SOL    HW210161   1.810   6.125   3.762
 3088SOL     OW10162   2.356   5.000   4.906
 3088SOL    HW110163   2.378   5.078   4.848
 3088SOL    HW210164   2.357   4.917   4.851
 3089SOL     OW10165   3.286   1.961   5.604
 3089SOL    HW110166   3.279   1.937   5.507
 3089SOL    HW210167   3.337   2.047   5.613
 3090SOL     OW10168   2.270   1.637   1.905
 3090SOL    HW110169   2.322   1.656   1.988
 3090SOL    HW210170   2.252   1.722   1.857
 3091SOL     OW10171   1.706   1.173   1.393
 3091SOL    HW110172   1.681   1.080   1.419
 3091SOL    HW210173   1.710   1.181   1.294
 3092SOL     OW10174   5.661   1.088   0.757
 3092SOL    HW110175   5.567   1.085   0.791
 3092SOL    HW210176   5.672   1.165   0.695
 3093SOL     OW10177   5.762   6.386   6.672
 3093SOL    HW110178   5.758   6.405   6.574
 3093SOL    HW210179   5.704   6.307   6.693
 3094SOL     OW10180   2.344   0.310   4.396
 3094SOL    HW110181   2.405   0.231   4.404
 3094SOL    HW210182   2.297   0.325   4.483
 3095SOL     OW10183   2.126   4.732   5.807
 3095SOL    HW110184   2.112   4.789   5.888
 3095SOL    HW210185   2.038   4.691   5.780
 3096SOL     OW10186   1.011   5.018   5.551
 3096SOL    HW110187   0.940   5.089   5.546
 3096SOL    HW210188   1.097   5.059   5.583
 3097SOL     OW10189   5.567   2.967   6.805
 3097SOL    HW110190   5.623   2.884   6.810
 3097SOL    HW210191   5.614   3.042   6.851
 3098SOL     OW10192   2.150   2.302   1.125
 3098SOL    HW110193   2.089   2.340   1.055
 3098SOL    HW210194   2.202   2.376   1.168
 3099SOL     OW10195   0.880   6.723   4.159
 3099SOL    HW110196   0.919   6.665   4.231
 3099SOL    HW210197   0.953   6.753   4.098
 3100SOL     OW10198   0.042   6.970   3.828
 3100SOL    HW110199   0.090   6.980   3.741
 3100SOL    HW210200   6.969   6.987   3.814
 3101SOL     OW10201   6.346   5.974   6.831
 3101SOL    HW110202   6.430   5.969   6.777
 3101SOL    HW210203   6.274   5.921   6.785
 3102SOL     OW10204   6.491   5.983   1.942
 3102SOL    HW110205   6.438   5.937   1.871
 3102SOL    HW210206   6.430   6.014   2.015
 3103SOL     OW10207   4.106   0.984   2.006
 3103SOL    HW110208   4.118   0.943   1.915
 3103SOL    HW210209   4.182   1.046   2.025
 3104SOL     OW10210   4.788   0.576   5.480
 3104SOL    HW110211   4.736   0.628   5.412
 3104SOL    HW210212   4.836   0.501   5.435
 3105SOL     OW10213   5.822   4.226   1.426
 3105SOL    HW110214   5.843   4.324   1.431
 3105SOL    HW210215   5.734   4.213   1.382
 3106SOL     OW10216   5.269   0.228   3.990
 3106SOL    HW110217   5.320   0.313   4.001
 3106SOL    HW210218   5.313   0.171   3.920
 3107SOL     OW10219   4.145   0.856   4.887
 3107SOL    HW110220   4.145   0.956   4.882
 3107SOL    HW210221   4.202   0.825   4.963
 3108SOL     OW10222   1.531   5.641   4.129
 3108SOL    HW110223   1.459   5.698   4.090
 3108SOL    HW210224   1.507   5.544   4.118
 3109SOL     OW10225   5.353   6.292   3.555
 3109SOL    HW110226   5.373   6.379   3.511
 3109SOL    HW210227   5.366   6.299   3.653
 3110SOL     OW10228   1.017   3.199   3.318
 3110SOL    HW110229   1.057   3.250   3.394
 3110SOL    HW210230   1.035   3.249   3.233
 3111SOL     OW10231   0.105   4.514   3.015
 3111SOL    HW110232   0.079   4.611   3.010
 3111SOL    HW210233   0.100   4.473   2.925
 3112SOL     OW10234   3.934   2.992   6.879
 3112SOL    HW110235   3.932   3.029   6.786
 3112SOL    HW210236   3.942   2.892   6.874
 3113SOL     OW10237   2.790   4.750   3.913
 3113SOL    HW110238   2.875   4.728   3.962
 3113SOL    HW210239   2.800   4.840   3.869
 3114SOL     OW10240   3.831   2.046   0.730
 3114SOL    HW110241   3.809   1.949   0.729
 3114SOL    HW210242   3.926   2.060   0.702
 3115SOL     OW10243   4.437   4.558   6.298
 3115SOL    HW110244   4.352   4.606   6.320
 3115SOL    HW210245   4.497   4.618   6.246
 3116SOL     OW10246   6.411   2.530   0.542
 3116SOL    HW110247   6.343   2.463   0.570
 3116SOL    HW210248   6.387   2.567   0.451
 3117SOL     OW10249   4.686   3.693   5.402
 3117SOL    HW110250   4.633   3.645   5.332
 3117SOL    HW210251   4.783   3.673   5.391
 3118SOL     OW10252   0.305   5.605   2.650
 3118SOL    HW110253   0.286   5.674   2.580
 3118SOL    HW210254   0.354   5.528   2.608
 3119SOL     OW10255   2.492   3.060   0.062
 3119SOL    HW110256   2.423   3.052   0.134
 3119SOL    HW210257   2.490   3.153   0.025
 3120SOL     OW10258   3.045   0.228   6.317
 3120SOL    HW110259   3.095   0.207   6.233
 3120SOL    HW210260   3.085   0.310   6.359
 3121SOL     OW10261   7.013   1.280   4.176
 3121SOL    HW110262   0.002   1.315   4.269
 3121SOL    HW210263   6.917   1.256   4.164
 3122SOL     OW10264   3.961   5.439   6.601
 3122SOL    HW110265   3.887   5.435   6.668
 3122SOL    HW210266   3.999   5.531   6.599
 3123SOL     OW10267   1.989   2.078   3.062
 3123SOL    HW110268   2.020   2.039   2.976
 3123SOL    HW210269   2.066   2.085   3.125
 3124SOL     OW10270   4.955   6.453   4.608
 3124SOL    HW110271   4.923   6.548   4.603
 3124SOL    HW210272   4.939   6.418   4.700
 3125SOL     OW10273   1.139   3.353   5.138
 3125SOL    HW110274   1.184   3.290   5.074
 3125SOL    HW210275   1.076   3.302   5.196
 3126SOL     OW10276   6.209   4.179   5.589
 3126SOL    HW110277   6.203   4.104   5.655
 3126SOL    HW210278   6.149   4.253   5.617
 3127SOL     OW10279   1.931   2.620   6.193
 3127SOL    HW110280   1.838   2.656   6.179
 3127SOL    HW210281   1.934   2.569   6.279
 3128SOL     OW10282   2.556   0.280   6.533
 3128SOL    HW110283   2.543   0.268   6.435
 3128SOL    HW210284   2.653   0.280   6.555
 3129SOL     OW10285   6.512   3.618   0.063
 3129SOL    HW110286   6.508   3.578   6.996
 3129SOL    HW210287   6.545   3.550   0.128
 3130SOL     OW10288   2.105   4.408   2.171
 3130SOL    HW110289   2.065   4.319   2.149
 3130SOL    HW210290   2.082   4.433   2.265
 3131SOL     OW10291   0.043   3.127   1.615
 3131SOL    HW110292   7.003   3.199   1.640
 3131SOL    HW210293   0.047   3.119   1.515
 3132SOL     OW10294   4.276   5.629   6.477
 3132SOL    HW110295   4.356   5.585   6.519
 3132SOL    HW210296   4.305   5.679   6.395
 3133SOL     OW10297   3.126   1.206   3.089
 3133SOL    HW110298   3.109   1.107   3.084
 3133SOL    HW210299   3.114   1.237   3.183
 3134SOL     OW10300   4.391   3.790   1.720
 3134SOL    HW110301   4.349   3.764   1.807
 3134SOL    HW210302   4.366   3.885   1.698
 3135SOL     OW10303   4.733   0.304   5.973
 3135SOL    HW110304   4.754   0.248   6.053
 3135SOL    HW210305   4.786   0.389   5.976
 3136SOL     OW10306   5.472   0.613   2.376
 3136SOL    HW110307   5.530   0.683   2.335
 3136SOL    HW210308   5.400   0.656   2.429
 3137SOL     OW10309   6.359   0.634   2.177
 3137SOL    HW110310   6.277   0.581   2.154
 3137SOL    HW210311   6.390   0.611   2.269
 3138SOL     OW10312   6.633   5.063   3.422
 3138SOL    HW110313   6.594   4.987   3.473
 3138SOL    HW210314   6.569   5.092   3.351
 3139SOL     OW10315   4.698   5.514   0.642
 3139SOL    HW110316   4.678   5.566   0.559
 3139SOL    HW210317   4.792   5.480   0.638
 3140SOL     OW10318   6.741   6.625   0.224
 3140SOL    HW110319   6.687   6.699   0.184
 3140SOL    HW210320   6.830   6.620   0.178
 3141SOL     OW10321   0.986   0.092   6.680
 3141SOL    HW110322   0.959   0.188   6.681
 3141SOL    HW210323   0.918   0.039   6.630
 3142SOL     OW10324   3.575   0.085   2.395
 3142SOL    HW110325   3.477   0.094   2.377
 3142SOL    HW210326   3.595   0.116   2.488
 3143SOL     OW10327   6.708   1.807   0.540
 3143SOL    HW110328   6.805   1.819   0.564
 3143SOL    HW210329   6.663   1.896   0.537
 3144SOL     OW10330   4.020   3.555   1.107
 3144SOL    HW110331   4.033   3.625   1.037
 3144SOL    HW210332   4.034   3.465   1.067
 3145SOL     OW10333   2.351   6.188   1.937
 3145SOL    HW110334   2.405   6.135   1.872
 3145SOL    HW210335   2.298   6.257   1.888
 3146SOL     OW10336   1.463   1.278   4.878
 3146SOL    HW110337   1.374   1.317   4.900
 3146SOL    HW210338   1.535   1.345   4.897
 3147SOL     OW10339   3.169   5.588   0.968
 3147SOL    HW110340   3.103   5.621   1.035
 3147SOL    HW210341   3.237   5.530   1.014
 3148SOL     OW10342   6.215   6.958   3.507
 3148SOL    HW110343   6.300   6.972   3.559
 3148SOL    HW210344   6.237   6.945   3.411
 3149SOL     OW10345   3.363   0.678   5.410
 3149SOL    HW110346   3.449   0.643   5.373
 3149SOL    HW210347   3.293   0.608   5.404
 3150SOL     OW10348   6.472   5.378   4.892
 3150SOL    HW110349   6.521   5.399   4.976
 3150SOL    HW210350   6.423   5.291   4.903
 3151SOL     OW10351   6.851   0.971   4.897
 3151SOL    HW110352   6.800   0.908   4.956
 3151SOL    HW210353   6.803   1.059   4.893
 3152SOL     OW10354   0.956   5.278   1.301
 3152SOL    HW110355   1.011   5.287   1.383
 3152SOL    HW210356   0.890   5.203   1.313
 3153SOL     OW10357   6.379   5.348   0.647
 3153SOL    HW110358   6.382   5.261   0.697
 3153SOL    HW210359   6.471   5.371   0.616
 3154SOL     OW10360   0.515   1.523   6.696
 3154SOL    HW110361   0.581   1.469   6.643
 3154SOL    HW210362   0.536   1.515   6.793
 3155SOL     OW10363   6.288   4.127   0.377
 3155SOL    HW110364   6.273   4.178   0.292
 3155SOL    HW210365   6.347   4.048   0.358
 3156SOL     OW10366   3.561   3.018   2.834
 3156SOL    HW110367   3.527   2.998   2.925
 3156SOL    HW210368   3.496   3.076   2.785
 3157SOL     OW10369   2.945   1.859   5.098
 3157SOL    HW110370   2.946   1.958   5.110
 3157SOL    HW210371   2.941   1.836   5.001
 3158SOL     OW10372   3.395   1.481   3.595
 3158SOL    HW110373   3.354   1.419   3.529
 3158SOL    HW210374   3.430   1.428   3.673
 3159SOL     OW10375   6.276   0.744   0.161
 3159SOL    HW110376   6.328   0.670   0.203
 3159SOL    HW210377   6.219   0.789   0.230
 3160SOL     OW10378   0.456   5.871   5.833
 3160SOL    HW110379   0.530   5.862   5.899
 3160SOL    HW210380   0.458   5.964   5.794
 3161SOL     OW10381   2.345   2.560   2.775
 3161SOL    HW110382   2.402   2.550   2.856
 3161SOL    HW210383   2.256   2.598   2.801
 3162SOL     OW10384   1.207   6.351   1.590
 3162SOL    HW110385   1.261   6.372   1.672
 3162SOL    HW210386   1.180   6.255   1.592
 3163SOL     OW10387   4.585   2.896   6.430
 3163SOL    HW110388   4.530   2.976   6.456
 3163SOL    HW210389   4.543   2.813   6.466
 3164SOL     OW10390   4.176   5.803   1.299
 3164SOL    HW110391   4.161   5.887   1.350
 3164SOL    HW210392   4.090   5.751   1.294
 3165SOL     OW10393   1.041   6.874   0.943
 3165SOL    HW110394   0.960   6.922   0.911
 3165SOL    HW210395   1.059   6.897   1.038
 3166SOL     OW10396   4.197   2.012   4.192
 3166SOL    HW110397   4.289   1.975   4.199
 3166SOL    HW210398   4.149   2.002   4.279
 3167SOL     OW10399   6.695   4.560   0.487
 3167SOL    HW110400   6.711   4.563   0.585
 3167SOL    HW210401   6.774   4.520   0.441
 3168SOL     OW10402   5.311   2.895   0.260
 3168SOL    HW110403   5.262   2.954   0.196
 3168SOL    HW210404   5.278   2.801   0.250
 3169SOL     OW10405   1.948   4.246   4.087
 3169SOL    HW110406   2.043   4.223   4.104
 3169SOL    HW210407   1.904   4.171   4.037
 3170SOL     OW10408   4.571   6.220   1.457
 3170SOL    HW110409   4.531   6.268   1.379
 3170SOL    HW210410   4.537   6.261   1.542
 3171SOL     OW10411   0.155   0.893   2.316
 3171SOL    HW110412   0.142   0.977   2.369
 3171SOL    HW210413   0.067   0.855   2.290
 3172SOL     OW10414   0.096   5.636   0.624
 3172SOL    HW110415   0.017   5.685   0.587
 3172SOL    HW210416   0.130   5.573   0.554
 3173SOL     OW10417   2.956   2.114   0.581
 3173SOL    HW110418   3.028   2.150   0.640
 3173SOL    HW210419   2.996   2.076   0.497
 3174SOL     OW10420   3.203   2.337   0.407
 3174SOL    HW110421   3.177   2.416   0.463
 3174SOL    HW210422   3.302   2.322   0.416
 3175SOL     OW10423   6.383   1.016   1.563
 3175SOL    HW110424   6.413   0.964   1.643
 3175SOL    HW210425   6.287   0.996   1.544
 3176SOL     OW10426   1.581   4.100   6.053
 3176SOL    HW110427   1.633   4.027   6.010
 3176SOL    HW210428   1.501   4.061   6.099
 3177SOL     OW10429   5.020   3.826   4.027
 3177SOL    HW110430   5.052   3.828   4.122
 3177SOL    HW210431   5.023   3.732   3.994
 3178SOL     OW10432   6.366   1.911   0.650
 3178SOL    HW110433   6.404   2.003   0.639
 3178SOL    HW210434   6.323   1.903   0.739
 3179SOL     OW10435   0.713   3.298   2.198
 3179SOL    HW110436   0.618   3.319   2.175
 3179SOL    HW210437   0.715   3.216   2.256
 3180SOL     OW10438   4.848   1.100   6.449
 3180SOL    HW110439   4.811   1.090   6.356
 3180SOL    HW210440   4.899   1.017   6.474
 3181SOL     OW10441   0.021   2.222   3.533
 3181SOL    HW110442   0.032   2.306   3.585
 3181SOL    HW210443   7.023   2.243   3.438
 3182SOL     OW10444   2.831   0.249   6.670
 3182SOL    HW110445   2.815   0.303   6.752
 3182SOL    HW210446   2.854   0.155   6.695
 3183SOL     OW10447   4.647   4.287   1.712
 3183SOL    HW110448   4.681   4.196   1.686
 3183SOL    HW210449   4.563   4.277   1.765
 3184SOL     OW10450   0.678   3.775   2.788
 3184SOL    HW110451   0.721   3.692   2.826
 3184SOL    HW210452   0.579   3.767   2.794
 3185SOL     OW10453   5.459   6.062   6.504
 3185SOL    HW110454   5.523   5.987   6.522
 3185SOL    HW210455   5.365   6.028   6.509
 3186SOL     OW10456   3.672   2.148   1.472
 3186SOL    HW110457   3.608   2.161   1.547
 3186SOL    HW210458   3.636   2.190   1.389
 3187SOL     OW10459   4.727   4.504   1.026
 3187SOL    HW110460   4.643   4.558   1.036
 3187SOL    HW210461   4.758   4.509   0.931
 3188SOL     OW10462   1.735   0.481   4.247
 3188SOL    HW110463   1.833   0.501   4.249
 3188SOL    HW210464   1.687   0.544   4.308
 3189SOL     OW10465   1.778   1.271   1.661
 3189SOL    HW110466   1.732   1.271   1.572
 3189SOL    HW210467   1.775   1.179   1.700
 3190SOL     OW10468   0.487   5.576   0.734
 3190SOL    HW110469   0.453   5.636   0.662
 3190SOL    HW210470   0.490   5.482   0.701
 3191SOL     OW10471   4.778   5.849   1.134
 3191SOL    HW110472   4.737   5.808   1.215
 3191SOL    HW210473   4.838   5.923   1.160
 3192SOL     OW10474   0.218   2.641   1.737
 3192SOL    HW110475   0.289   2.614   1.802
 3192SOL    HW210476   0.163   2.562   1.713
 3193SOL     OW10477   3.631   1.067   6.944
 3193SOL    HW110478   3.540   1.025   6.940
 3193SOL    HW210479   3.630   1.152   6.892
 3194SOL     OW10480   1.887   2.208   6.237
 3194SOL    HW110481   1.801   2.233   6.192
 3194SOL    HW210482   1.868   2.171   6.327
 3195SOL     OW10483   3.182   1.572   3.200
 3195SOL    HW110484   3.270   1.596   3.240
 3195SOL    HW210485   3.182   1.595   3.102
 3196SOL     OW10486   0.695   0.671   6.459
 3196SOL    HW110487   0.615   0.681   6.519
 3196SOL    HW210488   0.724   0.575   6.459
 3197SOL     OW10489   2.703   6.439   3.394
 3197SOL    HW110490   2.722   6.384   3.476
 3197SOL    HW210491   2.775   6.508   3.383
 3198SOL     OW10492   6.102   2.837   4.854
 3198SOL    HW110493   6.120   2.741   4.874
 3198SOL    HW210494   6.069   2.883   4.937
 3199SOL     OW10495   4.831   3.884   2.171
 3199SOL    HW110496   4.822   3.785   2.188
 3199SOL    HW210497   4.920   3.916   2.202
 3200SOL     OW10498   6.165   3.140   2.016
 3200SOL    HW110499   6.250   3.139   2.069
 3200SOL    HW210500   6.087   3.142   2.078
 3201SOL     OW10501   5.866   4.735   4.454
 3201SOL    HW110502   5.918   4.810   4.494
 3201SOL    HW210503   5.768   4.754   4.462
 3202SOL     OW10504   0.450   4.625   1.890
 3202SOL    HW110505   0.437   4.720   1.864
 3202SOL    HW210506   0.428   4.613   1.987
 3203SOL     OW10507   6.295   2.292   0.332
 3203SOL    HW110508   6.236   2.319   0.256
 3203SOL    HW210509   6.256   2.326   0.418
 3204SOL     OW10510   4.498   6.365   3.229
 3204SOL    HW110511   4.450   6.352   3.142
 3204SOL    HW210512   4.588   6.406   3.211
 3205SOL     OW10513   6.278   2.939   6.406
 3205SOL    HW110514   6.230   2.917   6.321
 3205SOL    HW210515   6.274   2.860   6.467
 3206SOL     OW10516   1.314   5.359   6.291
 3206SOL    HW110517   1.406   5.343   6.254
 3206SOL    HW210518   1.246   5.322   6.227
 3207SOL     OW10519   0.822   0.398   6.116
 3207SOL    HW110520   0.809   0.419   6.019
 3207SOL    HW210521   0.747   0.340   6.148
 3208SOL     OW10522   4.830   5.490   6.024
 3208SOL    HW110523   4.857   5.563   5.962
 3208SOL    HW210524   4.769   5.427   5.977
 3209SOL     OW10525   4.420   5.853   3.418
 3209SOL    HW110526   4.487   5.887   3.484
 3209SOL    HW210527   4.462   5.849   3.327
 3210SOL     OW10528   0.912   4.701   1.519
 3210SOL    HW110529   0.818   4.725   1.493
 3210SOL    HW210530   0.911   4.624   1.582
 3211SOL     OW10531   1.809   3.811   1.157
 3211SOL    HW110532   1.781   3.728   1.204
 3211SOL    HW210533   1.909   3.817   1.157
 3212SOL     OW10534   3.125   0.590   1.064
 3212SOL    HW110535   3.086   0.666   1.116
 3212SOL    HW210536   3.224   0.590   1.074
 3213SOL     OW10537   0.998   5.950   1.366
 3213SOL    HW110538   1.067   5.974   1.298
 3213SOL    HW210539   0.976   5.853   1.360
 3214SOL     OW10540   4.754   5.190   0.837
 3214SOL    HW110541   4.843   5.145   0.844
 3214SOL    HW210542   4.733   5.207   0.740
 3215SOL     OW10543   6.969   2.608   1.008
 3215SOL    HW110544   6.896   2.540   0.998
 3215SOL    HW210545   7.004   2.633   0.918
 3216SOL     OW10546   6.200   5.017   0.478
 3216SOL    HW110547   6.210   5.116   0.472
 3216SOL    HW210548   6.144   4.994   0.558
 3217SOL     OW10549   6.986   5.433   2.332
 3217SOL    HW110550   0.052   5.418   2.293
 3217SOL    HW210551   6.919   5.442   2.258
 3218SOL     OW10552   4.571   2.015   3.713
 3218SOL    HW110553   4.581   2.079   3.789
 3218SOL    HW210554   4.649   2.025   3.651
 3219SOL     OW10555   0.288   2.366   3.825
 3219SOL    HW110556   0.277   2.454   3.780
 3219SOL    HW210557   0.378   2.328   3.803
 3220SOL     OW10558   6.682   5.474   6.441
 3220SOL    HW110559   6.617   5.464   6.517
 3220SOL    HW210560   6.655   5.552   6.384
 3221SOL     OW10561   3.625   0.724   1.456
 3221SOL    HW110562   3.661   0.771   1.375
 3221SOL    HW210563   3.588   0.635   1.429
 3222SOL     OW10564   3.526   1.919   2.366
 3222SOL    HW110565   3.450   1.885   2.421
 3222SOL    HW210566   3.492   1.954   2.279
 3223SOL     OW10567   2.045   6.740   6.085
 3223SOL    HW110568   1.945   6.744   6.083
 3223SOL    HW210569   2.076   6.726   6.179
 3224SOL     OW10570   4.389   3.776   6.203
 3224SOL    HW110571   4.392   3.734   6.294
 3224SOL    HW210572   4.400   3.875   6.212
 3225SOL     OW10573   4.929   2.671   6.706
 3225SOL    HW110574   4.973   2.587   6.673
 3225SOL    HW210575   4.879   2.714   6.631
 3226SOL     OW10576   2.067   1.564   3.517
 3226SOL    HW110577   2.166   1.574   3.516
 3226SOL    HW210578   2.026   1.631   3.455
 3227SOL     OW10579   3.468   2.572   0.179
 3227SOL    HW110580   3.521   2.515   0.242
 3227SOL    HW210581   3.497   2.554   0.085
 3228SOL     OW10582   6.681   4.422   2.807
 3228SOL    HW110583   6.724   4.332   2.799
 3228SOL    HW210584   6.745   4.486   2.848
 3229SOL     OW10585   4.146   6.773   4.864
 3229SOL    HW110586   4.114   6.679   4.854
 3229SOL    HW210587   4.164   6.811   4.773
 3230SOL     OW10588   2.127   3.618   5.070
 3230SOL    HW110589   2.118   3.621   4.971
 3230SOL    HW210590   2.163   3.529   5.098
 3231SOL     OW10591   2.689   1.193   1.234
 3231SOL    HW110592   2.593   1.177   1.213
 3231SOL    HW210593   2.724   1.266   1.176
 3232SOL     OW10594   4.969   5.320   5.056
 3232SOL    HW110595   4.886   5.277   5.091
 3232SOL    HW210596   4.947   5.412   5.022
 3233SOL     OW10597   0.767   2.979   1.536
 3233SOL    HW110598   0.700   3.028   1.479
 3233SOL    HW210599   0.836   3.043   1.569
 3234SOL     OW10600   0.005   1.959   0.194
 3234SOL    HW110601   6.970   1.989   0.269
 3234SOL    HW210602   0.054   2.038   0.157
 3235SOL     OW10603   5.676   0.795   2.081
 3235SOL    HW110604   5.582   0.767   2.058
 3235SOL    HW210605   5.680   0.820   2.178
 3236SOL     OW10606   1.640   3.297   0.437
 3236SOL    HW110607   1.663   3.330   0.529
 3236SOL    HW210608   1.552   3.334   0.409
 3237SOL     OW10609   5.066   1.789   4.239
 3237SOL    HW110610   4.999   1.716   4.227
 3237SOL    HW210611   5.158   1.754   4.217
 3238SOL     OW10612   6.631   5.257   0.950
 3238SOL    HW110613   6.637   5.284   0.854
 3238SOL    HW210614   6.610   5.159   0.956
 3239SOL     OW10615   6.882   1.741   1.836
 3239SOL    HW110616   6.909   1.708   1.927
 3239SOL    HW210617   6.791   1.707   1.814
 3240SOL     OW10618   0.117   7.010   6.523
 3240SOL    HW110619   0.085   0.080   6.522
 3240SOL    HW210620   0.045   6.951   6.559
 3241SOL     OW10621   4.240   1.964   5.424
 3241SOL    HW110622   4.311   1.901   5.456
 3241SOL    HW210623   4.230   1.955   5.325
 3242SOL     OW10624   3.739   4.533   0.084
 3242SOL    HW110625   3.833   4.517   0.055
 3242SOL    HW210626   3.678   4.525   0.005
 3243SOL     OW10627   4.229   4.477   0.531
 3243SOL    HW110628   4.209   4.575   0.530
 3243SOL    HW210629   4.144   4.426   0.539
 3244SOL     OW10630   5.166   5.478   0.484
 3244SOL    HW110631   5.233   5.551   0.470
 3244SOL    HW210632   5.202   5.392   0.448
 3245SOL     OW10633   5.098   3.180   5.122
 3245SOL    HW110634   5.115   3.254   5.187
 3245SOL    HW210635   5.008   3.193   5.080
 3246SOL     OW10636   5.555   0.251   2.495
 3246SOL    HW110637   5.625   0.179   2.496
 3246SOL    HW210638   5.598   0.339   2.473
 3247SOL     OW10639   5.874   4.956   2.553
 3247SOL    HW110640   5.909   4.964   2.646
 3247SOL    HW210641   5.836   5.044   2.524
 3248SOL     OW10642   6.427   3.468   1.099
 3248SOL    HW110643   6.467   3.508   1.182
 3248SOL    HW210644   6.495   3.468   1.026
 3249SOL     OW10645   3.968   3.127   4.432
 3249SOL    HW110646   4.041   3.133   4.364
 3249SOL    HW210647   3.984   3.195   4.504
 3250SOL     OW10648   5.784   6.654   2.086
 3250SOL    HW110649   5.753   6.559   2.093
 3250SOL    HW210650   5.820   6.683   2.175
 3251SOL     OW10651   3.023   0.810   3.430
 3251SOL    HW110652   3.039   0.903   3.397
 3251SOL    HW210653   3.095   0.750   3.396
 3252SOL     OW10654   2.134   1.558   3.026
 3252SOL    HW110655   2.108   1.649   3.058
 3252SOL    HW210656   2.078   1.489   3.071
 3253SOL     OW10657   5.178   4.176   1.987
 3253SOL    HW110658   5.272   4.161   2.019
 3253SOL    HW210659   5.120   4.200   2.064
 3254SOL     OW10660   5.305   5.467   5.261
 3254SOL    HW110661   5.399   5.436   5.274
 3254SOL    HW210662   5.303   5.566   5.248
 3255SOL     OW10663   5.662   5.894   0.333
 3255SOL    HW110664   5.659   5.819   0.399
 3255SOL    HW210665   5.633   5.979   0.379
 3256SOL     OW10666   2.846   1.074   0.185
 3256SOL    HW110667   2.864   0.975   0.188
 3256SOL    HW210668   2.927   1.121   0.149
 3257SOL     OW10669   1.843   1.651   1.930
 3257SOL    HW110670   1.751   1.653   1.969
 3257SOL    HW210671   1.906   1.611   1.995
 3258SOL     OW10672   4.243   4.636   1.855
 3258SOL    HW110673   4.304   4.634   1.935
 3258SOL    HW210674   4.239   4.544   1.815
 3259SOL     OW10675   4.839   5.555   4.213
 3259SOL    HW110676   4.784   5.489   4.263
 3259SOL    HW210677   4.876   5.622   4.276
 3260SOL     OW10678   1.817   1.776   0.463
 3260SOL    HW110679   1.823   1.681   0.495
 3260SOL    HW210680   1.840   1.837   0.539
 3261SOL     OW10681   5.366   6.862   0.777
 3261SOL    HW110682   5.301   6.858   0.702
 3261SOL    HW210683   5.333   6.926   0.847
 3262SOL     OW10684   3.297   2.052   2.866
 3262SOL    HW110685   3.297   2.072   2.768
 3262SOL    HW210686   3.386   2.077   2.905
 3263SOL     OW10687   2.604   0.711   3.719
 3263SOL    HW110688   2.516   0.757   3.710
 3263SOL    HW210689   2.677   0.773   3.692
 3264SOL     OW10690   1.417   3.977   1.112
 3264SOL    HW110691   1.474   4.047   1.068
 3264SOL    HW210692   1.381   4.013   1.198
 3265SOL     OW10693   5.492   0.484   6.599
 3265SOL    HW110694   5.425   0.554   6.622
 3265SOL    HW210695   5.486   0.463   6.501
 3266SOL     OW10696   1.918   3.805   0.808
 3266SOL    HW110697   1.851   3.861   0.759
 3266SOL    HW210698   1.943   3.850   0.894
 3267SOL     OW10699   3.672   6.973   0.370
 3267SOL    HW110700   3.572   6.965   0.362
 3267SOL    HW210701   3.695   0.026   0.428
 3268SOL     OW10702   1.020   3.613   1.068
 3268SOL    HW110703   1.102   3.653   1.109
 3268SOL    HW210704   1.025   3.622   0.968
 3269SOL     OW10705   4.461   5.654   2.381
 3269SOL    HW110706   4.441   5.737   2.433
 3269SOL    HW210707   4.513   5.591   2.438
 3270SOL     OW10708   0.876   4.420   6.132
 3270SOL    HW110709   0.966   4.414   6.176
 3270SOL    HW210710   0.886   4.408   6.034
 3271SOL     OW10711   5.980   3.734   2.933
 3271SOL    HW110712   6.030   3.676   2.869
 3271SOL    HW210713   5.925   3.800   2.882
 3272SOL     OW10714   3.310   4.752   6.281
 3272SOL    HW110715   3.261   4.771   6.366
 3272SOL    HW210716   3.266   4.800   6.205
 3273SOL     OW10717   0.874   6.490   0.734
 3273SOL    HW110718   0.970   6.505   0.758
 3273SOL    HW210719   0.815   6.542   0.795
 3274SOL     OW10720   4.507   0.741   1.026
 3274SOL    HW110721   4.423   0.796   1.028
 3274SOL    HW210722   4.487   0.649   1.059
 3275SOL     OW10723   6.796   1.472   0.063
 3275SOL    HW110724   6.811   1.518   0.150
 3275SOL    HW210725   6.701   1.486   0.034
 3276SOL     OW10726   2.252   5.905   0.352
 3276SOL    HW110727   2.306   5.912   0.436
 3276SOL    HW210728   2.166   5.858   0.372
 3277SOL     OW10729   4.155   6.749   6.928
 3277SOL    HW110730   4.206   6.742   7.013
 3277SOL    HW210731   4.219   6.748   6.851
 3278SOL     OW10732   1.154   1.129   5.637
 3278SOL    HW110733   1.147   1.075   5.721
 3278SOL    HW210734   1.219   1.204   5.651
 3279SOL     OW10735   5.626   0.667   6.958
 3279SOL    HW110736   5.539   0.702   6.992
 3279SOL    HW210737   5.673   0.738   6.906
 3280SOL     OW10738   3.795   5.109   4.237
 3280SOL    HW110739   3.854   5.185   4.266
 3280SOL    HW210740   3.707   5.115   4.282
 3281SOL     OW10741   2.192   5.875   1.711
 3281SOL    HW110742   2.164   5.957   1.662
 3281SOL    HW210743   2.112   5.827   1.745
 3282SOL     OW10744   0.327   4.761   5.533
 3282SOL    HW110745   0.268   4.735   5.456
 3282SOL    HW210746   0.361   4.678   5.578
 3283SOL     OW10747   3.915   1.047   1.068
 3283SOL    HW110748   3.887   1.125   1.013
 3283SOL    HW210749   3.886   0.962   1.023
 3284SOL     OW10750   0.222   5.152   0.075
 3284SOL    HW110751   0.244   5.228   0.014
 3284SOL    HW210752   0.129   5.121   0.056
 3285SOL     OW10753   4.825   2.983   3.233
 3285SOL    HW110754   4.821   2.884   3.240
 3285SOL    HW210755   4.790   3.024   3.317
 3286SOL     OW10756   3.981   3.261   2.803
 3286SOL    HW110757   3.914   3.192   2.774
 3286SOL    HW210758   3.993   3.255   2.902
 3287SOL     OW10759   0.742   0.577   6.831
 3287SOL    HW110760   0.795   0.661   6.841
 3287SOL    HW210761   0.649   0.591   6.864
 3288SOL     OW10762   0.638   5.343   6.342
 3288SOL    HW110763   0.668   5.287   6.265
 3288SOL    HW210764   0.540   5.358   6.336
 3289SOL     OW10765   2.632   6.568   5.671
 3289SOL    HW110766   2.532   6.573   5.677
 3289SOL    HW210767   2.667   6.511   5.746
 3290SOL     OW10768   0.743   0.113   2.103
 3290SOL    HW110769   0.767   0.092   2.198
 3290SOL    HW210770   0.698   0.202   2.099
 3291SOL     OW10771   2.137   0.099   1.206
 3291SOL    HW110772   2.140   0.071   1.302
 3291SOL    HW210773   2.043   0.127   1.183
 3292SOL     OW10774   0.737   0.981   1.015
 3292SOL    HW110775   0.762   0.893   0.976
 3292SOL    HW210776   0.743   1.052   0.945
 3293SOL     OW10777   0.341   3.587   2.416
 3293SOL    HW110778   0.272   3.548   2.356
 3293SOL    HW210779   0.429   3.544   2.397
 3294SOL     OW10780   6.459   1.882   6.587
 3294SOL    HW110781   6.484   1.913   6.495
 3294SOL    HW210782   6.412   1.794   6.581
 3295SOL     OW10783   1.277   2.817   2.177
 3295SOL    HW110784   1.325   2.807   2.264
 3295SOL    HW210785   1.283   2.731   2.126
 3296SOL     OW10786   1.424   6.890   2.025
 3296SOL    HW110787   1.388   6.981   2.004
 3296SOL    HW210788   1.521   6.887   2.001
 3297SOL     OW10789   2.959   0.656   4.511
 3297SOL    HW110790   3.018   0.737   4.510
 3297SOL    HW210791   3.013   0.576   4.536
 3298SOL     OW10792   5.960   1.448   5.251
 3298SOL    HW110793   6.040   1.471   5.306
 3298SOL    HW210794   5.944   1.521   5.184
 3299SOL     OW10795   2.704   5.446   3.262
 3299SOL    HW110796   2.687   5.544   3.265
 3299SOL    HW210797   2.742   5.421   3.173
 3300SOL     OW10798   6.886   0.514   5.389
 3300SOL    HW110799   6.826   0.436   5.402
 3300SOL    HW210800   6.941   0.501   5.307
 3301SOL     OW10801   1.776   3.177   3.487
 3301SOL    HW110802   1.815   3.268   3.476
 3301SOL    HW210803   1.834   3.123   3.548
 3302SOL     OW10804   6.673   4.524   5.604
 3302SOL    HW110805   6.706   4.542   5.696
 3302SOL    HW210806   6.573   4.520   5.605
 3303SOL     OW10807   3.548   3.411   1.650
 3303SOL    HW110808   3.486   3.386   1.724
 3303SOL    HW210809   3.571   3.330   1.597
 3304SOL     OW10810   0.889   5.898   4.357
 3304SOL    HW110811   0.925   5.806   4.345
 3304SOL    HW210812   0.792   5.900   4.332
 3305SOL     OW10813   1.906   1.422   3.125
 3305SOL    HW110814   1.825   1.480   3.119
 3305SOL    HW210815   1.902   1.352   3.054
 3306SOL     OW10816   1.795   5.470   5.044
 3306SOL    HW110817   1.769   5.523   5.125
 3306SOL    HW210818   1.882   5.505   5.009
 3307SOL     OW10819   0.014   5.975   0.364
 3307SOL    HW110820   7.002   5.887   0.333
 3307SOL    HW210821   0.063   6.019   0.289
 3308SOL     OW10822   2.797   6.165   0.345
 3308SOL    HW110823   2.891   6.198   0.354
 3308SOL    HW210824   2.766   6.127   0.432
 3309SOL     OW10825   6.823   5.969   2.765
 3309SOL    HW110826   6.869   5.905   2.827
 3309SOL    HW210827   6.892   6.023   2.717
 3310SOL     OW10828   0.046   3.069   6.144
 3310SOL    HW110829   0.135   3.066   6.099
 3310SOL    HW210830   7.000   3.042   6.079
 3311SOL     OW10831   2.079   4.217   1.826
 3311SOL    HW110832   2.068   4.119   1.808
 3311SOL    HW210833   2.147   4.255   1.764
 3312SOL     OW10834   4.082   4.531   6.039
 3312SOL    HW110835   4.179   4.519   6.021
 3312SOL    HW210836   4.059   4.629   6.035
 3313SOL     OW10837   0.368   5.763   3.256
 3313SOL    HW110838   0.417   5.706   3.190
 3313SOL    HW210839   0.346   5.851   3.214
 3314SOL     OW10840   3.139   1.356   3.338
 3314SOL    HW110841   3.055   1.361   3.393
 3314SOL    HW210842   3.141   1.432   3.273
 3315SOL     OW10843   0.035   3.411   5.222
 3315SOL    HW110844   7.005   3.332   5.249
 3315SOL    HW210845   0.106   3.427   5.289
 3316SOL     OW10846   5.072   1.499   6.041
 3316SOL    HW110847   5.159   1.541   6.068
 3316SOL    HW210848   5.032   1.451   6.120
 3317SOL     OW10849   4.461   3.044   1.694
 3317SOL    HW110850   4.375   3.095   1.692
 3317SOL    HW210851   4.499   3.046   1.786
 3318SOL     OW10852   2.706   1.178   0.925
 3318SOL    HW110853   2.745   1.206   0.838
 3318SOL    HW210854   2.754   1.225   1.000
 3319SOL     OW10855   6.841   0.976   3.988
 3319SOL    HW110856   6.820   0.992   4.084
 3319SOL    HW210857   6.808   0.885   3.961
 3320SOL     OW10858   5.587   0.122   4.441
 3320SOL    HW110859   5.525   0.092   4.514
 3320SOL    HW210860   5.577   0.061   4.362
 3321SOL     OW10861   4.768   1.523   0.529
 3321SOL    HW110862   4.709   1.484   0.458
 3321SOL    HW210863   4.782   1.456   0.601
 3322SOL     OW10864   5.871   3.338   0.637
 3322SOL    HW110865   5.854   3.264   0.572
 3322SOL    HW210866   5.802   3.409   0.627
 3323SOL     OW10867   2.848   3.246   0.462
 3323SOL    HW110868   2.848   3.251   0.362
 3323SOL    HW210869   2.906   3.170   0.491
 3324SOL     OW10870   3.128   5.321   0.002
 3324SOL    HW110871   3.222   5.318   0.035
 3324SOL    HW210872   3.127   5.348   6.930
 3325SOL     OW10873   1.536   3.137   6.787
 3325SOL    HW110874   1.444   3.106   6.810
 3325SOL    HW210875   1.562   3.105   6.696
 3326SOL     OW10876   4.887   2.287   2.209
 3326SOL    HW110877   4.811   2.228   2.181
 3326SOL    HW210878   4.892   2.289   2.309
 3327SOL     OW10879   2.526   6.117   1.696
 3327SOL    HW110880   2.580   6.179   1.639
 3327SOL    HW210881   2.511   6.032   1.646
 3328SOL     OW10882   4.331   1.473   1.130
 3328SOL    HW110883   4.428   1.466   1.155
 3328SOL    HW210884   4.316   1.425   1.043
 3329SOL     OW10885   4.902   6.719   4.243
 3329SOL    HW110886   4.827   6.702   4.179
 3329SOL    HW210887   4.976   6.767   4.195
 3330SOL     OW10888   6.290   4.802   1.384
 3330SOL    HW110889   6.214   4.797   1.319
 3330SOL    HW210890   6.294   4.718   1.438
 3331SOL     OW10891   1.815   3.173   1.037
 3331SOL    HW110892   1.812   3.273   1.042
 3331SOL    HW210893   1.903   3.145   0.999
 3332SOL     OW10894   6.703   4.903   6.963
 3332SOL    HW110895   6.638   4.903   6.887
 3332SOL    HW210896   6.757   4.987   6.959
 3333SOL     OW10897   3.691   3.898   6.907
 3333SOL    HW110898   3.703   3.992   6.873
 3333SOL    HW210899   3.770   3.843   6.881
 3334SOL     OW10900   2.698   3.667   1.171
 3334SOL    HW110901   2.623   3.688   1.109
 3334SOL    HW210902   2.746   3.585   1.138
 3335SOL     OW10903   5.270   6.526   5.249
 3335SOL    HW110904   5.307   6.592   5.315
 3335SOL    HW210905   5.171   6.537   5.242
 3336SOL     OW10906   1.925   6.636   4.175
 3336SOL    HW110907   1.988   6.705   4.211
 3336SOL    HW210908   1.978   6.560   4.137
 3337SOL     OW10909   2.924   3.720   1.842
 3337SOL    HW110910   2.920   3.706   1.941
 3337SOL    HW210911   2.944   3.633   1.797
 3338SOL     OW10912   5.721   3.274   2.274
 3338SOL    HW110913   5.683   3.304   2.186
 3338SOL    HW210914   5.787   3.201   2.258
 3339SOL     OW10915   0.407   0.203   6.688
 3339SOL    HW110916   0.497   0.204   6.732
 3339SOL    HW210917   0.399   0.121   6.631
 3340SOL     OW10918   3.795   1.641   3.209
 3340SOL    HW110919   3.825   1.652   3.304
 3340SOL    HW210920   3.790   1.543   3.187
 3341SOL     OW10921   0.639   5.235   3.057
 3341SOL    HW110922   0.714   5.293   3.088
 3341SOL    HW210923   0.675   5.156   3.008
 3342SOL     OW10924   1.654   6.357   3.790
 3342SOL    HW110925   1.736   6.312   3.755
 3342SOL    HW210926   1.668   6.381   3.886
 3343SOL     OW10927   5.098   3.372   0.209
 3343SOL    HW110928   5.179   3.414   0.250
 3343SOL    HW210929   5.033   3.443   0.182
 3344SOL     OW10930   5.593   3.423   3.832
 3344SOL    HW110931   5.604   3.457   3.926
 3344SOL    HW210932   5.643   3.338   3.821
 3345SOL     OW10933   1.954   3.081   5.806
 3345SOL    HW110934   2.032   3.135   5.838
 3345SOL    HW210935   1.980   3.032   5.723
 3346SOL     OW10936   1.603   1.554   0.063
 3346SOL    HW110937   1.613   1.475   0.124
 3346SOL    HW210938   1.507   1.564   0.037
 3347SOL     OW10939   0.816   3.112   5.774
 3347SOL    HW110940   0.841   3.189   5.716
 3347SOL    HW210941   0.783   3.146   5.863
 3348SOL     OW10942   3.500   3.708   4.260
 3348SOL    HW110943   3.484   3.806   4.253
 3348SOL    HW210944   3.414   3.659   4.248
 3349SOL     OW10945   1.550   5.384   3.050
 3349SOL    HW110946   1.599   5.366   3.136
 3349SOL    HW210947   1.575   5.316   2.982
 3350SOL     OW10948   0.591   2.478   6.006
 3350SOL    HW110949   0.606   2.574   6.027
 3350SOL    HW210950   0.625   2.458   5.914
 3351SOL     OW10951   4.651   0.782   2.728
 3351SOL    HW110952   4.733   0.788   2.671
 3351SOL    HW210953   4.570   0.782   2.670
 3352SOL     OW10954   6.880   2.529   0.202
 3352SOL    HW110955   6.795   2.500   0.158
 3352SOL    HW210956   6.880   2.629   0.211
 3353SOL     OW10957   2.623   5.783   1.519
 3353SOL    HW110958   2.662   5.854   1.460
 3353SOL    HW210959   2.693   5.749   1.581
 3354SOL     OW10960   4.832   2.455   5.667
 3354SOL    HW110961   4.843   2.507   5.582
 3354SOL    HW210962   4.922   2.424   5.699
 3355SOL     OW10963   2.405   1.865   5.987
 3355SOL    HW110964   2.399   1.958   5.951
 3355SOL    HW210965   2.497   1.848   6.022
 3356SOL     OW10966   0.466   5.054   5.392
 3356SOL    HW110967   0.393   4.992   5.421
 3356SOL    HW210968   0.518   5.011   5.318
 3357SOL     OW10969   2.134   3.822   2.071
 3357SOL    HW110970   2.183   3.849   2.153
 3357SOL    HW210971   2.157   3.727   2.049
 3358SOL     OW10972   4.853   1.507   1.255
 3358SOL    HW110973   4.949   1.484   1.236
 3358SOL    HW210974   4.848   1.601   1.288
 3359SOL     OW10975   0.184   6.786   2.668
 3359SOL    HW110976   0.115   6.820   2.732
 3359SOL    HW210977   0.248   6.859   2.646
 3360SOL     OW10978   1.888   1.531   0.173
 3360SOL    HW110979   1.891   1.506   0.270
 3360SOL    HW210980   1.815   1.597   0.158
 3361SOL     OW10981   0.641   5.009   4.310
 3361SOL    HW110982   0.721   4.949   4.307
 3361SOL    HW210983   0.670   5.103   4.293
 3362SOL     OW10984   3.423   1.537   2.601
 3362SOL    HW110985   3.509   1.579   2.571
 3362SOL    HW210986   3.398   1.573   2.691
 3363SOL     OW10987   6.452   0.171   2.046
 3363SOL    HW110988   6.386   0.206   1.979
 3363SOL    HW210989   6.424   0.200   2.138
 3364SOL     OW10990   1.379   5.116   3.805
 3364SOL    HW110991   1.280   5.126   3.811
 3364SOL    HW210992   1.410   5.053   3.877
 3365SOL     OW10993   0.008   2.199   5.207
 3365SOL    HW110994   7.024   2.203   5.107
 3365SOL    HW210995   6.942   2.212   5.248
 3366SOL     OW10996   6.067   5.571   5.162
 3366SOL    HW110997   6.073   5.589   5.260
 3366SOL    HW210998   6.046   5.474   5.147
 3367SOL     OW10999   3.953   3.061   2.443
 3367SOL    HW111000   3.887   3.018   2.381
 3367SOL    HW211001   3.945   3.019   2.534
 3368SOL     OW11002   0.920   5.718   6.396
 3368SOL    HW111003   0.886   5.770   6.474
 3368SOL    HW211004   1.011   5.682   6.417
 3369SOL     OW11005   3.713   1.793   0.334
 3369SOL    HW111006   3.633   1.775   0.391
 3369SOL    HW211007   3.697   1.758   0.242
 3370SOL     OW11008   0.319   6.199   0.722
 3370SOL    HW111009   0.272   6.205   0.810
 3370SOL    HW211010   0.259   6.156   0.655
 3371SOL     OW11011   2.532   2.541   1.862
 3371SOL    HW111012   2.506   2.637   1.854
 3371SOL    HW211013   2.514   2.510   1.955
 3372SOL     OW11014   0.266   2.201   1.686
 3372SOL    HW111015   0.208   2.153   1.620
 3372SOL    HW211016   0.209   2.262   1.742
 3373SOL     OW11017   0.155   1.469   3.685
 3373SOL    HW111018   0.120   1.419   3.606
 3373SOL    HW211019   0.120   1.429   3.769
 3374SOL     OW11020   1.476   6.163   4.497
 3374SOL    HW111021   1.418   6.118   4.565
 3374SOL    HW211022   1.481   6.107   4.415
 3375SOL     OW11023   0.196   4.669   6.707
 3375SOL    HW111024   0.179   4.659   6.805
 3375SOL    HW211025   0.129   4.731   6.668
 3376SOL     OW11026   3.984   3.869   4.304
 3376SOL    HW111027   3.967   3.941   4.371
 3376SOL    HW211028   3.924   3.883   4.225
 3377SOL     OW11029   0.204   5.577   6.335
 3377SOL    HW111030   0.126   5.579   6.397
 3377SOL    HW211031   0.268   5.650   6.359
 3378SOL     OW11032   0.564   1.273   0.906
 3378SOL    HW111033   0.604   1.255   0.996
 3378SOL    HW211034   0.512   1.358   0.908
 3379SOL     OW11035   0.020   0.244   6.033
 3379SOL    HW111036   6.985   0.166   6.053
 3379SOL    HW211037   0.067   0.272   6.117
 3380SOL     OW11038   5.673   6.321   4.765
 3380SOL    HW111039   5.705   6.244   4.820
 3380SOL    HW211040   5.678   6.298   4.668
 3381SOL     OW11041   0.620   2.717   1.541
 3381SOL    HW111042   0.665   2.655   1.477
 3381SOL    HW211043   0.655   2.809   1.529
 3382SOL     OW11044   0.988   2.419   0.553
 3382SOL    HW111045   1.032   2.405   0.464
 3382SOL    HW211046   1.058   2.440   0.622
 3383SOL     OW11047   4.582   6.004   1.306
 3383SOL    HW111048   4.575   6.091   1.356
 3383SOL    HW211049   4.678   5.986   1.285
 3384SOL     OW11050   2.763   3.194   6.511
 3384SOL    HW111051   2.766   3.238   6.601
 3384SOL    HW211052   2.747   3.096   6.523
 3385SOL     OW11053   6.977   3.090   4.482
 3385SOL    HW111054   6.951   3.185   4.499
 3385SOL    HW211055   7.009   3.048   4.568
 3386SOL     OW11056   5.669   4.253   6.928
 3386SOL    HW111057   5.588   4.202   6.956
 3386SOL    HW211058   5.651   4.301   6.842
 3387SOL     OW11059   2.653   0.329   2.458
 3387SOL    HW111060   2.653   0.231   2.479
 3387SOL    HW211061   2.559   0.360   2.446
 3388SOL     OW11062   5.409   2.735   1.490
 3388SOL    HW111063   5.402   2.834   1.476
 3388SOL    HW211064   5.333   2.705   1.548
 3389SOL     OW11065   5.709   4.992   6.596
 3389SOL    HW111066   5.627   4.973   6.651
 3389SOL    HW211067   5.790   4.957   6.644
 3390SOL     OW11068   6.137   6.150   6.536
 3390SOL    HW111069   6.093   6.150   6.626
 3390SOL    HW211070   6.192   6.233   6.526
 3391SOL     OW11071   4.837   3.237   5.037
 3391SOL    HW111072   4.806   3.327   5.068
 3391SOL    HW211073   4.842   3.235   4.937
 3392SOL     OW11074   2.570   0.699   3.989
 3392SOL    HW111075   2.604   0.713   3.896
 3392SOL    HW211076   2.645   0.673   4.049
 3393SOL     OW11077   0.520   6.254   0.549
 3393SOL    HW111078   0.459   6.238   0.627
 3393SOL    HW211079   0.496   6.339   0.504
 3394SOL     OW11080   5.724   3.280   1.266
 3394SOL    HW111081   5.626   3.257   1.260
 3394SOL    HW211082   5.751   3.287   1.362
 3395SOL     OW11083   5.183   3.577   3.265
 3395SOL    HW111084   5.229   3.556   3.179
 3395SOL    HW211085   5.084   3.569   3.253
 3396SOL     OW11086   5.307   1.766   3.213
 3396SOL    HW111087   5.231   1.737   3.155
 3396SOL    HW211088   5.393   1.757   3.163
 3397SOL     OW11089   3.054   6.369   5.788
 3397SOL    HW111090   3.001   6.303   5.735
 3397SOL    HW211091   3.059   6.340   5.883
 3398SOL     OW11092   0.994   6.600   4.790
 3398SOL    HW111093   1.049   6.640   4.863
 3398SOL    HW211094   0.915   6.553   4.831
 3399SOL     OW11095   5.121   4.096   3.517
 3399SOL    HW111096   5.095   4.012   3.469
 3399SOL    HW211097   5.209   4.082   3.562
 3400SOL     OW11098   4.178   3.489   5.866
 3400SOL    HW111099   4.134   3.478   5.777
 3400SOL    HW211100   4.183   3.586   5.889
 3401SOL     OW11101   0.587   2.779   1.164
 3401SOL    HW111102   0.558   2.862   1.115
 3401SOL    HW211103   0.682   2.789   1.192
 3402SOL     OW11104   4.443   5.666   6.953
 3402SOL    HW111105   4.427   5.764   6.963
 3402SOL    HW211106   4.358   5.621   6.926
 3403SOL     OW11107   3.113   5.422   5.414
 3403SOL    HW111108   3.136   5.510   5.455
 3403SOL    HW211109   3.015   5.419   5.394
 3404SOL     OW11110   5.232   1.394   6.867
 3404SOL    HW111111   5.211   1.473   6.808
 3404SOL    HW211112   5.148   1.358   6.906
 3405SOL     OW11113   6.794   3.956   5.851
 3405SOL    HW111114   6.847   4.028   5.807
 3405SOL    HW211115   6.836   3.867   5.833
 3406SOL     OW11116   0.925   3.821   1.989
 3406SOL    HW111117   0.864   3.899   1.972
 3406SOL    HW211118   1.012   3.853   2.025
 3407SOL     OW11119   1.372   4.538   6.209
 3407SOL    HW111120   1.326   4.544   6.297
 3407SOL    HW211121   1.468   4.515   6.223
 3408SOL     OW11122   4.900   3.822   4.672
 3408SOL    HW111123   4.847   3.815   4.588
 3408SOL    HW211124   4.974   3.756   4.671
 3409SOL     OW11125   3.442   6.294   6.527
 3409SOL    HW111126   3.368   6.359   6.511
 3409SOL    HW211127   3.502   6.293   6.447
 3410SOL     OW11128   6.688   6.863   1.136
 3410SOL    HW111129   6.607   6.922   1.134
 3410SOL    HW211130   6.736   6.868   1.048
 3411SOL     OW11131   0.159   3.350   2.023
 3411SOL    HW111132   0.146   3.254   1.999
 3411SOL    HW211133   0.239   3.386   1.975
 3412SOL     OW11134   4.674   2.682   0.738
 3412SOL    HW111135   4.624   2.705   0.821
 3412SOL    HW211136   4.764   2.726   0.740
 3413SOL     OW11137   5.905   1.595   0.572
 3413SOL    HW111138   5.882   1.643   0.657
 3413SOL    HW211139   6.004   1.582   0.566
 3414SOL     OW11140   3.458   1.293   6.533
 3414SOL    HW111141   3.372   1.245   6.548
 3414SOL    HW211142   3.439   1.386   6.502
 3415SOL     OW11143   1.910   3.898   4.232
 3415SOL    HW111144   1.882   3.821   4.290
 3415SOL    HW211145   2.003   3.882   4.199
 3416SOL     OW11146   6.548   5.952   0.690
 3416SOL    HW111147   6.637   5.957   0.643
 3416SOL    HW211148   6.503   6.042   0.685
 3417SOL     OW11149   0.292   6.660   3.108
 3417SOL    HW111150   0.376   6.627   3.152
 3417SOL    HW211151   0.272   6.605   3.027
 3418SOL     OW11152   3.386   5.891   3.498
 3418SOL    HW111153   3.477   5.903   3.459
 3418SOL    HW211154   3.389   5.819   3.567
 3419SOL     OW11155   2.935   6.208   5.632
 3419SOL    HW111156   2.888   6.124   5.659
 3419SOL    HW211157   2.874   6.264   5.576
 3420SOL     OW11158   5.881   3.202   4.148
 3420SOL    HW111159   5.930   3.284   4.121
 3420SOL    HW211160   5.847   3.213   4.242
 3421SOL     OW11161   4.539   1.388   5.222
 3421SOL    HW111162   4.560   1.350   5.132
 3421SOL    HW211163   4.473   1.462   5.212
 3422SOL     OW11164   2.570   0.367   0.814
 3422SOL    HW111165   2.485   0.351   0.763
 3422SOL    HW211166   2.559   0.334   0.908
 3423SOL     OW11167   0.569   4.669   6.334
 3423SOL    HW111168   0.516   4.636   6.412
 3423SOL    HW211169   0.667   4.661   6.354
 3424SOL     OW11170   2.746   6.562   0.926
 3424SOL    HW111171   2.653   6.599   0.920
 3424SOL    HW211172   2.747   6.468   0.890
 3425SOL     OW11173   5.178   5.362   2.297
 3425SOL    HW111174   5.117   5.422   2.245
 3425SOL    HW211175   5.232   5.417   2.361
 3426SOL     OW11176   4.101   2.919   0.482
 3426SOL    HW111177   4.179   2.885   0.430
 3426SOL    HW211178   4.018   2.908   0.429
 3427SOL     OW11179   0.102   1.197   0.259
 3427SOL    HW111180   0.157   1.177   0.178
 3427SOL    HW211181   0.005   1.185   0.238
 3428SOL     OW11182   2.203   5.874   0.034
 3428SOL    HW111183   2.193   5.969   0.003
 3428SOL    HW211184   2.224   5.873   0.132
 3429SOL     OW11185   0.761   1.875   0.832
 3429SOL    HW111186   0.697   1.822   0.777
 3429SOL    HW211187   0.738   1.972   0.827
 3430SOL     OW11188   1.516   6.407   5.245
 3430SOL    HW111189   1.555   6.455   5.323
 3430SOL    HW211190   1.441   6.348   5.276
 3431SOL     OW11191   1.791   0.210   1.653
 3431SOL    HW111192   1.890   0.223   1.657
 3431SOL    HW211193   1.763   0.205   1.557
 3432SOL     OW11194   1.952   2.914   6.334
 3432SOL    HW111195   1.964   3.013   6.337
 3432SOL    HW211196   1.927   2.886   6.241
 3433SOL     OW11197   1.230   6.920   5.057
 3433SOL    HW111198   1.141   6.963   5.046
 3433SOL    HW211199   1.277   6.961   5.135
 3434SOL     OW11200   4.566   1.138   1.715
 3434SOL    HW111201   4.500   1.213   1.725
 3434SOL    HW211202   4.526   1.054   1.751
 3435SOL     OW11203   1.356   1.479   1.336
 3435SOL    HW111204   1.310   1.567   1.326
 3435SOL    HW211205   1.444   1.481   1.289
 3436SOL     OW11206   3.958   6.589   6.843
 3436SOL    HW111207   4.037   6.644   6.872
 3436SOL    HW211208   3.989   6.500   6.811
 3437SOL     OW11209   2.370   0.123   5.443
 3437SOL    HW111210   2.299   0.185   5.477
 3437SOL    HW211211   2.335   0.029   5.443
 3438SOL     OW11212   1.669   3.099   0.023
 3438SOL    HW111213   1.646   3.099   6.950
 3438SOL    HW211214   1.651   3.009   0.062
 3439SOL     OW11215   2.156   6.009   4.607
 3439SOL    HW111216   2.192   5.916   4.604
 3439SOL    HW211217   2.192   6.056   4.688
 3440SOL     OW11218   2.954   3.375   1.024
 3440SOL    HW111219   2.862   3.337   1.032
 3440SOL    HW211220   3.004   3.358   1.109
 3441SOL     OW11221   6.044   5.231   5.676
 3441SOL    HW111222   6.004   5.212   5.587
 3441SOL    HW211223   6.114   5.163   5.697
 3442SOL     OW11224   2.107   4.595   1.965
 3442SOL    HW111225   2.051   4.558   1.890
 3442SOL    HW211226   2.111   4.528   2.039
 3443SOL     OW11227   3.718   6.376   1.380
 3443SOL    HW111228   3.627   6.406   1.409
 3443SOL    HW211229   3.737   6.412   1.288
 3444SOL     OW11230   5.433   5.296   0.408
 3444SOL    HW111231   5.513   5.320   0.352
 3444SOL    HW211232   5.366   5.249   0.351
 3445SOL     OW11233   6.369   5.462   2.965
 3445SOL    HW111234   6.270   5.458   2.957
 3445SOL    HW211235   6.408   5.372   2.948
 3446SOL     OW11236   6.751   1.401   1.876
 3446SOL    HW111237   6.656   1.431   1.889
 3446SOL    HW211238   6.810   1.453   1.937
 3447SOL     OW11239   5.725   5.305   0.773
 3447SOL    HW111240   5.706   5.267   0.682
 3447SOL    HW211241   5.692   5.242   0.843
 3448SOL     OW11242   3.588   0.640   6.976
 3448SOL    HW111243   3.516   0.697   6.936
 3448SOL    HW211244   3.554   0.593   0.032
 3449SOL     OW11245   5.478   5.856   4.824
 3449SOL    HW111246   5.563   5.834   4.776
 3449SOL    HW211247   5.404   5.799   4.790
 3450SOL     OW11248   6.946   2.786   6.794
 3450SOL    HW111249   6.949   2.878   6.757
 3450SOL    HW211250   6.857   2.744   6.774
 3451SOL     OW11251   2.407   6.316   0.540
 3451SOL    HW111252   2.342   6.282   0.472
 3451SOL    HW211253   2.477   6.248   0.556
 3452SOL     OW11254   6.044   0.832   6.215
 3452SOL    HW111255   5.981   0.762   6.247
 3452SOL    HW211256   6.138   0.803   6.232
 3453SOL     OW11257   6.804   5.874   0.049
 3453SOL    HW111258   6.743   5.796   0.039
 3453SOL    HW211259   6.765   5.954   0.003
 3454SOL     OW11260   1.113   2.964   5.197
 3454SOL    HW111261   1.023   3.003   5.178
 3454SOL    HW211262   1.103   2.878   5.248
 3455SOL     OW11263   2.677   1.984   4.522
 3455SOL    HW111264   2.763   1.975   4.472
 3455SOL    HW211265   2.606   2.021   4.462
 3456SOL     OW11266   5.559   5.550   1.840
 3456SOL    HW111267   5.583   5.460   1.875
 3456SOL    HW211268   5.489   5.541   1.770
 3457SOL     OW11269   2.838   5.339   3.034
 3457SOL    HW111270   2.808   5.288   2.953
 3457SOL    HW211271   2.923   5.387   3.013
 3458SOL     OW11272   4.534   0.992   2.295
 3458SOL    HW111273   4.562   1.081   2.330
 3458SOL    HW211274   4.602   0.923   2.320
 3459SOL     OW11275   5.539   3.687   2.564
 3459SOL    HW111276   5.489   3.611   2.523
 3459SOL    HW211277   5.628   3.696   2.519
 3460SOL     OW11278   2.526   2.825   0.439
 3460SOL    HW111279   2.561   2.868   0.522
 3460SOL    HW211280   2.454   2.760   0.463
 3461SOL     OW11281   5.030   4.578   5.310
 3461SOL    HW111282   5.034   4.520   5.229
 3461SOL    HW211283   5.012   4.523   5.391
 3462SOL     OW11284   0.296   4.923   3.141
 3462SOL    HW111285   0.221   4.943   3.205
 3462SOL    HW211286   0.325   4.828   3.153
 3463SOL     OW11287   1.192   4.093   2.318
 3463SOL    HW111288   1.254   4.105   2.241
 3463SOL    HW211289   1.126   4.168   2.320
 3464SOL     OW11290   6.881   4.197   5.655
 3464SOL    HW111291   6.849   4.291   5.644
 3464SOL    HW211292   6.937   4.191   5.738
 3465SOL     OW11293   1.483   1.914   2.305
 3465SOL    HW111294   1.549   1.987   2.288
 3465SOL    HW211295   1.391   1.948   2.287
 3466SOL     OW11296   6.952   4.805   6.934
 3466SOL    HW111297   7.007   4.874   6.887
 3466SOL    HW211298   6.857   4.835   6.939
 3467SOL     OW11299   2.172   2.790   0.258
 3467SOL    HW111300   2.226   2.746   0.330
 3467SOL    HW211301   2.190   2.889   0.259
 3468SOL     OW11302   5.109   6.303   2.943
 3468SOL    HW111303   5.124   6.207   2.921
 3468SOL    HW211304   5.044   6.311   3.019
 3469SOL     OW11305   5.420   0.944   2.571
 3469SOL    HW111306   5.475   1.006   2.514
 3469SOL    HW211307   5.380   0.996   2.647
 3470SOL     OW11308   6.044   3.969   1.150
 3470SOL    HW111309   6.027   3.872   1.134
 3470SOL    HW211310   5.971   4.022   1.107
 3471SOL     OW11311   4.260   5.009   3.970
 3471SOL    HW111312   4.295   5.024   4.063
 3471SOL    HW211313   4.217   4.919   3.964
 3472SOL     OW11314   2.587   1.015   2.297
 3472SOL    HW111315   2.596   0.920   2.328
 3472SOL    HW211316   2.519   1.062   2.353
 3473SOL     OW11317   0.344   2.426   1.049
 3473SOL    HW111318   0.289   2.438   1.132
 3473SOL    HW211319   0.437   2.458   1.065
 3474SOL     OW11320   1.603   5.397   2.296
 3474SOL    HW111321   1.549   5.482   2.295
 3474SOL    HW211322   1.588   5.350   2.383
 3475SOL     OW11323   0.619   5.212   4.010
 3475SOL    HW111324   0.651   5.240   4.100
 3475SOL    HW211325   0.638   5.115   3.996
 3476SOL     OW11326   3.077   1.767   3.422
 3476SOL    HW111327   3.138   1.838   3.386
 3476SOL    HW211328   3.090   1.683   3.370
 3477SOL     OW11329   2.661   5.098   1.018
 3477SOL    HW111330   2.746   5.101   1.071
 3477SOL    HW211331   2.584   5.124   1.077
 3478SOL     OW11332   2.280   5.764   4.849
 3478SOL    HW111333   2.252   5.781   4.754
 3478SOL    HW211334   2.242   5.836   4.908
 3479SOL     OW11335   1.825   0.812   2.946
 3479SOL    HW111336   1.769   0.870   2.888
 3479SOL    HW211337   1.773   0.785   3.027
 3480SOL     OW11338   0.169   6.845   5.243
 3480SOL    HW111339   0.075   6.855   5.276
 3480SOL    HW211340   0.177   6.760   5.192
 3481SOL     OW11341   4.663   0.292   0.542
 3481SOL    HW111342   4.695   0.235   0.466
 3481SOL    HW211343   4.565   0.309   0.532
 3482SOL     OW11344   5.897   1.452   1.853
 3482SOL    HW111345   5.803   1.421   1.840
 3482SOL    HW211346   5.923   1.443   1.949
 3483SOL     OW11347   4.814   1.771   1.352
 3483SOL    HW111348   4.776   1.718   1.427
 3483SOL    HW211349   4.795   1.868   1.367
 3484SOL     OW11350   2.102   3.463   1.004
 3484SOL    HW111351   2.156   3.382   1.025
 3484SOL    HW211352   2.051   3.448   0.920
 3485SOL     OW11353   1.835   0.952   4.205
 3485SOL    HW111354   1.822   0.903   4.292
 3485SOL    HW211355   1.912   1.016   4.215
 3486SOL     OW11356   2.914   1.262   2.899
 3486SOL    HW111357   2.987   1.235   2.961
 3486SOL    HW211358   2.826   1.234   2.938
 3487SOL     OW11359   5.518   2.714   5.979
 3487SOL    HW111360   5.598   2.695   5.922
 3487SOL    HW211361   5.474   2.629   6.006
 3488SOL     OW11362   6.132   1.570   4.767
 3488SOL    HW111363   6.085   1.589   4.854
 3488SOL    HW211364   6.203   1.638   4.752
 3489SOL     OW11365   2.982   6.985   0.595
 3489SOL    HW111366   2.991   7.006   0.693
 3489SOL    HW211367   3.010   6.891   0.579
 3490SOL     OW11368   4.087   4.701   0.251
 3490SOL    HW111369   4.034   4.616   0.245
 3490SOL    HW211370   4.164   4.697   0.187
 3491SOL     OW11371   5.792   3.065   5.173
 3491SOL    HW111372   5.814   3.068   5.270
 3491SOL    HW211373   5.716   3.001   5.158
 3492SOL     OW11374   0.573   5.663   1.532
 3492SOL    HW111375   0.488   5.716   1.536
 3492SOL    HW211376   0.577   5.612   1.447
 3493SOL     OW11377   5.311   4.222   6.488
 3493SOL    HW111378   5.233   4.170   6.454
 3493SOL    HW211379   5.306   4.316   6.455
 3494SOL     OW11380   3.806   0.849   1.622
 3494SOL    HW111381   3.868   0.779   1.658
 3494SOL    HW211382   3.741   0.806   1.560
 3495SOL     OW11383   4.725   5.110   2.274
 3495SOL    HW111384   4.628   5.125   2.290
 3495SOL    HW211385   4.739   5.075   2.181
 3496SOL     OW11386   6.669   4.049   0.446
 3496SOL    HW111387   6.627   4.139   0.440
 3496SOL    HW211388   6.675   4.008   0.354
 3497SOL     OW11389   3.209   0.654   3.285
 3497SOL    HW111390   3.186   0.594   3.208
 3497SOL    HW211391   3.264   0.730   3.253
 3498SOL     OW11392   2.401   2.116   0.916
 3498SOL    HW111393   2.465   2.078   0.982
 3498SOL    HW211394   2.441   2.114   0.824
 3499SOL     OW11395   4.766   2.831   4.388
 3499SOL    HW111396   4.691   2.776   4.352
 3499SOL    HW211397   4.756   2.841   4.487
 3500SOL     OW11398   1.484   3.482   5.462
 3500SOL    HW111399   1.501   3.412   5.530
 3500SOL    HW211400   1.385   3.494   5.450
 3501SOL     OW11401   1.723   5.153   4.235
 3501SOL    HW111402   1.771   5.169   4.149
 3501SOL    HW211403   1.690   5.059   4.238
 3502SOL     OW11404   6.215   2.655   2.329
 3502SOL    HW111405   6.290   2.703   2.283
 3502SOL    HW211406   6.130   2.673   2.279
 3503SOL     OW11407   6.555   6.348   4.867
 3503SOL    HW111408   6.640   6.316   4.909
 3503SOL    HW211409   6.514   6.274   4.814
 3504SOL     OW11410   1.918   2.079   1.283
 3504SOL    HW111411   1.926   1.979   1.281
 3504SOL    HW211412   2.002   2.119   1.319
 3505SOL     OW11413   5.303   5.031   4.900
 3505SOL    HW111414   5.364   5.009   4.824
 3505SOL    HW211415   5.245   4.952   4.920
 3506SOL     OW11416   4.831   5.340   6.259
 3506SOL    HW111417   4.814   5.384   6.171
 3506SOL    HW211418   4.930   5.331   6.274
 3507SOL     OW11419   2.254   0.912   0.328
 3507SOL    HW111420   2.177   0.849   0.321
 3507SOL    HW211421   2.334   0.863   0.362
 3508SOL     OW11422   3.153   2.497   6.112
 3508SOL    HW111423   3.220   2.548   6.058
 3508SOL    HW211424   3.117   2.556   6.185
 3509SOL     OW11425   5.675   6.931   5.668
 3509SOL    HW111426   5.752   6.980   5.628
 3509SOL    HW211427   5.696   6.911   5.764
 3510SOL     OW11428   1.947   2.481   1.562
 3510SOL    HW111429   1.906   2.569   1.538
 3510SOL    HW211430   2.010   2.452   1.490
 3511SOL     OW11431   1.936   4.678   0.882
 3511SOL    HW111432   2.018   4.683   0.825
 3511SOL    HW211433   1.901   4.584   0.880
 3512SOL     OW11434   0.433   5.065   0.686
 3512SOL    HW111435   0.500   5.036   0.618
 3512SOL    HW211436   0.368   5.129   0.645
 3513SOL     OW11437   6.047   3.538   0.381
 3513SOL    HW111438   6.143   3.564   0.395
 3513SOL    HW211439   6.004   3.520   0.469
 3514SOL     OW11440   0.496   1.676   1.915
 3514SOL    HW111441   0.478   1.687   2.012
 3514SOL    HW211442   0.474   1.582   1.887
 3515SOL     OW11443   4.347   6.096   3.135
 3515SOL    HW111444   4.438   6.099   3.094
 3515SOL    HW211445   4.322   6.188   3.165
 3516SOL     OW11446   4.789   6.845   1.052
 3516SOL    HW111447   4.796   6.754   1.011
 3516SOL    HW211448   4.863   6.857   1.118
 3517SOL     OW11449   0.660   2.131   0.840
 3517SOL    HW111450   0.718   2.142   0.920
 3517SOL    HW211451   0.695   2.188   0.765
 3518SOL     OW11452   5.917   3.917   5.016
 3518SOL    HW111453   5.834   3.959   5.053
 3518SOL    HW211454   5.963   3.983   4.956
 3519SOL     OW11455   0.878   0.753   5.982
 3519SOL    HW111456   0.953   0.695   5.951
 3519SOL    HW211457   0.814   0.767   5.906
 3520SOL     OW11458   3.140   5.425   6.759
 3520SOL    HW111459   3.093   5.344   6.726
 3520SOL    HW211460   3.195   5.464   6.685
 3521SOL     OW11461   5.344   3.474   0.316
 3521SOL    HW111462   5.374   3.560   0.275
 3521SOL    HW211463   5.412   3.403   0.298
 3522SOL     OW11464   6.094   5.077   1.655
 3522SOL    HW111465   6.069   5.017   1.730
 3522SOL    HW211466   6.059   5.169   1.672
 3523SOL     OW11467   2.831   4.845   5.646
 3523SOL    HW111468   2.846   4.892   5.733
 3523SOL    HW211469   2.733   4.832   5.631
 3524SOL     OW11470   3.362   1.172   1.008
 3524SOL    HW111471   3.377   1.228   0.927
 3524SOL    HW211472   3.446   1.124   1.031
 3525SOL     OW11473   1.045   4.126   2.048
 3525SOL    HW111474   1.097   4.104   1.965
 3525SOL    HW211475   0.948   4.126   2.026
 3526SOL     OW11476   2.770   6.368   3.691
 3526SOL    HW111477   2.781   6.272   3.716
 3526SOL    HW211478   2.860   6.410   3.680
 3527SOL     OW11479   6.291   3.369   6.190
 3527SOL    HW111480   6.271   3.309   6.113
 3527SOL    HW211481   6.208   3.384   6.244
 3528SOL     OW11482   0.984   5.094   3.787
 3528SOL    HW111483   0.885   5.089   3.774
 3528SOL    HW211484   1.014   5.014   3.840
 3529SOL     OW11485   5.132   6.942   6.218
 3529SOL    HW111486   5.156   6.942   6.315
 3529SOL    HW211487   5.099   0.008   6.191
 3530SOL     OW11488   1.599   5.363   3.332
 3530SOL    HW111489   1.564   5.298   3.399
 3530SOL    HW211490   1.588   5.456   3.367
 3531SOL     OW11491   4.539   3.686   1.134
 3531SOL    HW111492   4.519   3.781   1.109
 3531SOL    HW211493   4.454   3.636   1.148
 3532SOL     OW11494   2.613   0.907   0.851
 3532SOL    HW111495   2.691   0.877   0.797
 3532SOL    HW211496   2.635   0.993   0.897
 3533SOL     OW11497   1.636   1.795   2.485
 3533SOL    HW111498   1.730   1.789   2.450
 3533SOL    HW211499   1.573   1.811   2.409
 3534SOL     OW11500   5.656   0.944   5.067
 3534SOL    HW111501   5.560   0.926   5.085
 3534SOL    HW211502   5.694   0.873   5.007
 3535SOL     OW11503   0.599   5.864   0.541
 3535SOL    HW111504   0.646   5.945   0.506
 3535SOL    HW211505   0.565   5.883   0.634
 3536SOL     OW11506   1.964   1.931   4.390
 3536SOL    HW111507   2.056   1.901   4.364
 3536SOL    HW211508   1.898   1.899   4.321
 3537SOL     OW11509   2.450   5.174   0.646
 3537SOL    HW111510   2.484   5.133   0.561
 3537SOL    HW211511   2.395   5.255   0.624
 3538SOL     OW11512   1.679   0.440   5.179
 3538SOL    HW111513   1.598   0.386   5.201
 3538SOL    HW211514   1.728   0.397   5.104
 3539SOL     OW11515   5.567   3.527   6.333
 3539SOL    HW111516   5.519   3.564   6.413
 3539SOL    HW211517   5.499   3.490   6.269
 3540SOL     OW11518   1.996   2.311   5.601
 3540SOL    HW111519   2.003   2.342   5.696
 3540SOL    HW211520   1.918   2.248   5.593
 3541SOL     OW11521   2.266   2.373   6.135
 3541SOL    HW111522   2.193   2.306   6.120
 3541SOL    HW211523   2.234   2.463   6.106
 3542SOL     OW11524   0.487   3.871   1.833
 3542SOL    HW111525   0.452   3.809   1.904
 3542SOL    HW211526   0.421   3.945   1.818
 3543SOL     OW11527   0.801   3.560   5.970
 3543SOL    HW111528   0.713   3.603   5.989
 3543SOL    HW211529   0.837   3.593   5.883
 3544SOL     OW11530   2.159   4.647   6.614
 3544SOL    HW111531   2.257   4.667   6.622
 3544SOL    HW211532   2.139   4.616   6.521
 3545SOL     OW11533   3.810   5.124   0.685
 3545SOL    HW111534   3.743   5.052   0.667
 3545SOL    HW211535   3.895   5.103   0.637
 3546SOL     OW11536   0.044   4.619   2.712
 3546SOL    HW111537   0.081   4.689   2.650
 3546SOL    HW211538   6.969   4.613   2.698
 3547SOL     OW11539   6.080   4.451   4.607
 3547SOL    HW111540   5.990   4.460   4.563
 3547SOL    HW211541   6.118   4.361   4.588
 3548SOL     OW11542   4.746   0.329   5.625
 3548SOL    HW111543   4.781   0.422   5.640
 3548SOL    HW211544   4.653   0.334   5.587
 3549SOL     OW11545   0.375   4.372   6.463
 3549SOL    HW111546   0.292   4.427   6.455
 3549SOL    HW211547   0.435   4.413   6.532
 3550SOL     OW11548   5.823   2.730   4.278
 3550SOL    HW111549   5.752   2.667   4.312
 3550SOL    HW211550   5.906   2.717   4.333
 3551SOL     OW11551   3.737   1.771   3.867
 3551SOL    HW111552   3.833   1.744   3.874
 3551SOL    HW211553   3.702   1.746   3.776
 3552SOL     OW11554   6.231   0.225   1.178
 3552SOL    HW111555   6.219   0.300   1.242
 3552SOL    HW211556   6.145   0.209   1.129
 3553SOL     OW11557   3.704   5.557   0.440
 3553SOL    HW111558   3.727   5.460   0.449
 3553SOL    HW211559   3.786   5.608   0.413
 3554SOL     OW11560   4.687   2.216   0.832
 3554SOL    HW111561   4.721   2.295   0.781
 3554SOL    HW211562   4.743   2.136   0.811
 3555SOL     OW11563   0.833   4.022   5.004
 3555SOL    HW111564   0.772   3.947   5.031
 3555SOL    HW211565   0.896   3.989   4.933
 3556SOL     OW11566   4.224   0.608   4.213
 3556SOL    HW111567   4.224   0.702   4.246
 3556SOL    HW211568   4.187   0.547   4.283
 3557SOL     OW11569   1.253   0.369   3.762
 3557SOL    HW111570   1.337   0.382   3.709
 3557SOL    HW211571   1.252   0.277   3.800
 3558SOL     OW11572   1.361   6.215   2.536
 3558SOL    HW111573   1.290   6.197   2.604
 3558SOL    HW211574   1.326   6.190   2.445
 3559SOL     OW11575   0.640   6.272   5.491
 3559SOL    HW111576   0.603   6.214   5.564
 3559SOL    HW211577   0.690   6.215   5.426
 3560SOL     OW11578   2.426   5.163   2.460
 3560SOL    HW111579   2.382   5.244   2.421
 3560SOL    HW211580   2.491   5.190   2.530
 3561SOL     OW11581   4.668   4.099   5.266
 3561SOL    HW111582   4.712   4.064   5.183
 3561SOL    HW211583   4.661   4.026   5.333
 3562SOL     OW11584   3.836   0.843   3.088
 3562SOL    HW111585   3.864   0.773   3.154
 3562SOL    HW211586   3.897   0.922   3.096
 3563SOL     OW11587   6.135   1.943   0.486
 3563SOL    HW111588   6.218   1.903   0.524
 3563SOL    HW211589   6.097   1.882   0.417
 3564SOL     OW11590   1.186   4.718   2.908
 3564SOL    HW111591   1.103   4.664   2.911
 3564SOL    HW211592   1.187   4.783   2.985
 3565SOL     OW11593   3.145   6.366   4.352
 3565SOL    HW111594   3.207   6.387   4.427
 3565SOL    HW211595   3.053   6.397   4.374
 3566SOL     OW11596   6.474   3.409   6.839
 3566SOL    HW111597   6.445   3.313   6.843
 3566SOL    HW211598   6.401   3.465   6.802
 3567SOL     OW11599   0.447   1.773   6.605
 3567SOL    HW111600   0.436   1.677   6.629
 3567SOL    HW211601   0.536   1.806   6.638
 3568SOL     OW11602   5.012   4.132   4.327
 3568SOL    HW111603   5.099   4.109   4.369
 3568SOL    HW211604   4.942   4.142   4.398
 3569SOL     OW11605   2.257   2.023   6.192
 3569SOL    HW111606   2.223   2.002   6.284
 3569SOL    HW211607   2.285   1.938   6.147
 3570SOL     OW11608   5.034   0.145   5.995
 3570SOL    HW111609   5.020   0.050   5.966
 3570SOL    HW211610   4.978   0.205   5.939
 3571SOL     OW11611   0.953   5.336   5.810
 3571SOL    HW111612   0.929   5.289   5.725
 3571SOL    HW211613   0.883   5.404   5.832
 3572SOL     OW11614   6.173   4.224   2.577
 3572SOL    HW111615   6.083   4.184   2.593
 3572SOL    HW211616   6.243   4.168   2.622
 3573SOL     OW11617   0.346   5.113   3.588
 3573SOL    HW111618   0.254   5.126   3.552
 3573SOL    HW211619   0.413   5.130   3.516
 3574SOL     OW11620   0.403   3.914   1.189
 3574SOL    HW111621   0.400   3.868   1.278
 3574SOL    HW211622   0.428   3.848   1.119
 3575SOL     OW11623   4.852   4.792   2.617
 3575SOL    HW111624   4.945   4.814   2.647
 3575SOL    HW211625   4.818   4.713   2.669
 3576SOL     OW11626   0.183   1.986   5.931
 3576SOL    HW111627   0.122   2.064   5.945
 3576SOL    HW211628   0.276   2.017   5.917
 3577SOL     OW11629   1.947   1.974   5.886
 3577SOL    HW111630   1.897   1.921   5.954
 3577SOL    HW211631   2.017   2.029   5.931
 3578SOL     OW11632   3.463   2.349   0.542
 3578SOL    HW111633   3.443   2.327   0.637
 3578SOL    HW211634   3.562   2.360   0.530
 3579SOL     OW11635   6.625   2.750   4.282
 3579SOL    HW111636   6.592   2.811   4.209
 3579SOL    HW211637   6.720   2.723   4.263
 3580SOL     OW11638   5.294   3.494   1.729
 3580SOL    HW111639   5.286   3.534   1.821
 3580SOL    HW211640   5.389   3.502   1.698
 3581SOL     OW11641   0.686   6.303   3.500
 3581SOL    HW111642   0.774   6.329   3.540
 3581SOL    HW211643   0.702   6.248   3.417
 3582SOL     OW11644   1.205   2.567   5.579
 3582SOL    HW111645   1.305   2.578   5.572
 3582SOL    HW211646   1.162   2.657   5.583
 3583SOL     OW11647   0.892   3.978   6.649
 3583SOL    HW111648   0.845   3.928   6.721
 3583SOL    HW211649   0.900   3.920   6.568
 3584SOL     OW11650   6.134   5.286   6.701
 3584SOL    HW111651   6.048   5.302   6.749
 3584SOL    HW211652   6.116   5.263   6.605
 3585SOL     OW11653   3.638   7.014   4.630
 3585SOL    HW111654   3.677   6.954   4.561
 3585SOL    HW211655   3.540   0.003   4.611
 3586SOL     OW11656   0.056   1.676   4.792
 3586SOL    HW111657   0.129   1.652   4.856
 3586SOL    HW211658   0.084   1.654   4.699
 3587SOL     OW11659   2.908   5.289   6.713
 3587SOL    HW111660   2.881   5.310   6.807
 3587SOL    HW211661   2.914   5.190   6.701
 3588SOL     OW11662   1.690   2.302   6.060
 3588SOL    HW111663   1.675   2.216   6.011
 3588SOL    HW211664   1.673   2.379   5.999
 3589SOL     OW11665   3.697   1.392   4.765
 3589SOL    HW111666   3.743   1.431   4.685
 3589SOL    HW211667   3.610   1.439   4.780
 3590SOL     OW11668   0.925   2.986   6.841
 3590SOL    HW111669   0.924   2.887   6.852
 3590SOL    HW211670   0.935   3.008   6.744
 3591SOL     OW11671   4.825   3.475   6.459
 3591SOL    HW111672   4.784   3.565   6.449
 3591SOL    HW211673   4.906   3.481   6.519
 3592SOL     OW11674   6.961   4.898   1.596
 3592SOL    HW111675   6.983   4.891   1.693
 3592SOL    HW211676   7.023   4.840   1.544
 3593SOL     OW11677   0.606   6.079   4.901
 3593SOL    HW111678   0.557   6.147   4.847
 3593SOL    HW211679   0.650   6.013   4.839
 3594SOL     OW11680   4.346   0.318   3.203
 3594SOL    HW111681   4.338   0.410   3.240
 3594SOL    HW211682   4.255   0.285   3.176
 3595SOL     OW11683   3.224   5.950   6.954
 3595SOL    HW111684   3.308   5.982   6.999
 3595SOL    HW211685   3.147   6.007   6.983
 3596SOL     OW11686   6.062   3.130   3.440
 3596SOL    HW111687   6.151   3.126   3.395
 3596SOL    HW211688   6.035   3.225   3.453
 3597SOL     OW11689   1.523   1.933   5.016
 3597SOL    HW111690   1.511   1.854   4.957
 3597SOL    HW211691   1.436   1.983   5.024
 3598SOL     OW11692   0.902   5.378   6.165
 3598SOL    HW111693   0.971   5.329   6.218
 3598SOL    HW211694   0.946   5.444   6.105
 3599SOL     OW11695   6.955   2.200   6.524
 3599SOL    HW111696   7.019   2.135   6.482
 3599SOL    HW211697   6.940   2.174   6.620
 3600SOL     OW11698   0.835   3.302   1.475
 3600SOL    HW111699   0.787   3.266   1.394
 3600SOL    HW211700   0.879   3.226   1.523
 3601SOL     OW11701   5.437   4.528   6.493
 3601SOL    HW111702   5.518   4.567   6.536
 3601SOL    HW211703   5.464   4.467   6.418
 3602SOL     OW11704   1.974   2.627   0.596
 3602SOL    HW111705   1.935   2.553   0.542
 3602SOL    HW211706   2.028   2.588   0.671
 3603SOL     OW11707   3.198   0.480   3.516
 3603SOL    HW111708   3.218   0.384   3.499
 3603SOL    HW211709   3.200   0.531   3.430
 3604SOL     OW11710   6.595   5.323   3.229
 3604SOL    HW111711   6.569   5.348   3.136
 3604SOL    HW211712   6.658   5.391   3.265
 3605SOL     OW11713   6.595   3.594   5.118
 3605SOL    HW111714   6.694   3.581   5.109
 3605SOL    HW211715   6.548   3.513   5.083
 3606SOL     OW11716   6.957   0.173   4.539
 3606SOL    HW111717   6.999   0.262   4.519
 3606SOL    HW211718   6.932   0.128   4.453
 3607SOL     OW11719   5.833   5.534   1.770
 3607SOL    HW111720   5.733   5.535   1.777
 3607SOL    HW211721   5.860   5.552   1.675
 3608SOL     OW11722   5.768   2.375   3.874
 3608SOL    HW111723   5.833   2.321   3.928
 3608SOL    HW211724   5.744   2.458   3.925
 3609SOL     OW11725   1.262   6.694   4.271
 3609SOL    HW111726   1.205   6.626   4.225
 3609SOL    HW211727   1.352   6.697   4.226
 3610SOL     OW11728   1.426   6.884   5.268
 3610SOL    HW111729   1.472   6.850   5.186
 3610SOL    HW211730   1.375   6.809   5.311
 3611SOL     OW11731   4.050   5.694   5.499
 3611SOL    HW111732   4.085   5.605   5.529
 3611SOL    HW211733   3.951   5.695   5.507
 3612SOL     OW11734   6.635   6.851   0.108
 3612SOL    HW111735   6.669   6.906   0.032
 3612SOL    HW211736   6.635   6.907   0.191
 3613SOL     OW11737   4.495   5.395   2.073
 3613SOL    HW111738   4.467   5.340   2.152
 3613SOL    HW211739   4.595   5.396   2.067
 3614SOL     OW11740   4.140   3.261   1.524
 3614SOL    HW111741   4.173   3.350   1.556
 3614SOL    HW211742   4.165   3.191   1.590
 3615SOL     OW11743   5.072   5.592   6.831
 3615SOL    HW111744   5.138   5.518   6.842
 3615SOL    HW211745   5.120   5.678   6.816
 3616SOL     OW11746   0.881   2.290   6.925
 3616SOL    HW111747   0.781   2.288   6.919
 3616SOL    HW211748   0.908   2.330   7.013
 3617SOL     OW11749   3.895   1.479   7.010
 3617SOL    HW111750   3.976   1.524   0.022
 3617SOL    HW211751   3.817   1.496   0.046
 3618SOL     OW11752   2.067   2.583   5.257
 3618SOL    HW111753   2.146   2.602   5.316
 3618SOL    HW211754   2.075   2.637   5.173
 3619SOL     OW11755   5.831   2.723   4.632
 3619SOL    HW111756   5.805   2.816   4.603
 3619SOL    HW211757   5.913   2.695   4.584
 3620SOL     OW11758   6.161   6.508   5.996
 3620SOL    HW111759   6.183   6.473   6.087
 3620SOL    HW211760   6.224   6.470   5.929
 3621SOL     OW11761   3.431   2.863   5.084
 3621SOL    HW111762   3.520   2.823   5.107
 3621SOL    HW211763   3.366   2.844   5.157
 3622SOL     OW11764   1.949   1.839   5.455
 3622SOL    HW111765   1.913   1.754   5.417
 3622SOL    HW211766   2.044   1.851   5.425
 3623SOL     OW11767   6.167   5.663   4.384
 3623SOL    HW111768   6.108   5.724   4.331
 3623SOL    HW211769   6.261   5.671   4.351
 3624SOL     OW11770   1.486   6.620   1.661
 3624SOL    HW111771   1.397   6.638   1.620
 3624SOL    HW211772   1.491   6.523   1.687
 3625SOL     OW11773   6.271   2.827   6.889
 3625SOL    HW111774   6.231   2.751   6.838
 3625SOL    HW211775   6.231   2.913   6.857
 3626SOL     OW11776   1.351   2.091   6.083
 3626SOL    HW111777   1.449   2.073   6.073
 3626SOL    HW211778   1.332   2.186   6.057
 3627SOL     OW11779   3.559   3.082   2.455
 3627SOL    HW111780   3.634   3.141   2.425
 3627SOL    HW211781   3.521   3.116   2.541
 3628SOL     OW11782   1.676   1.147   2.126
 3628SOL    HW111783   1.712   1.220   2.067
 3628SOL    HW211784   1.590   1.114   2.088
 3629SOL     OW11785   6.832   0.947   5.410
 3629SOL    HW111786   6.901   1.020   5.405
 3629SOL    HW211787   6.854   0.885   5.485
 3630SOL     OW11788   4.963   2.781   4.201
 3630SOL    HW111789   4.996   2.687   4.192
 3630SOL    HW211790   4.890   2.784   4.270
 3631SOL     OW11791   2.257   1.130   3.474
 3631SOL    HW111792   2.305   1.121   3.561
 3631SOL    HW211793   2.214   1.043   3.450
 3632SOL     OW11794   5.474   5.872   1.414
 3632SOL    HW111795   5.563   5.916   1.426
 3632SOL    HW211796   5.403   5.932   1.451
 3633SOL     OW11797   4.040   1.667   6.037
 3633SOL    HW111798   3.955   1.720   6.033
 3633SOL    HW211799   4.118   1.729   6.036
 3634SOL     OW11800   1.628   4.329   4.738
 3634SOL    HW111801   1.697   4.260   4.759
 3634SOL    HW211802   1.546   4.312   4.792
 3635SOL     OW11803   3.690   0.291   0.350
 3635SOL    HW111804   3.747   0.231   0.294
 3635SOL    HW211805   3.710   0.386   0.328
 3636SOL     OW11806   0.282   5.576   0.993
 3636SOL    HW111807   0.382   5.576   0.991
 3636SOL    HW211808   0.247   5.654   0.941
 3637SOL     OW11809   0.088   1.739   2.286
 3637SOL    HW111810   0.148   1.660   2.276
 3637SOL    HW211811   0.101   1.801   2.208
 3638SOL     OW11812   0.887   4.495   3.430
 3638SOL    HW111813   0.884   4.462   3.525
 3638SOL    HW211814   0.928   4.586   3.429
 3639SOL     OW11815   3.418   4.897   0.776
 3639SOL    HW111816   3.361   4.820   0.746
 3639SOL    HW211817   3.491   4.912   0.710
 3640SOL     OW11818   4.555   0.837   0.603
 3640SOL    HW111819   4.588   0.832   0.697
 3640SOL    HW211820   4.625   0.802   0.540
 3641SOL     OW11821   5.091   3.853   2.214
 3641SOL    HW111822   5.081   3.766   2.262
 3641SOL    HW211823   5.083   3.838   2.116
 3642SOL     OW11824   5.565   0.942   6.811
 3642SOL    HW111825   5.485   0.971   6.862
 3642SOL    HW211826   5.541   0.930   6.715
 3643SOL     OW11827   3.387   5.850   4.498
 3643SOL    HW111828   3.333   5.773   4.465
 3643SOL    HW211829   3.336   5.935   4.483
 3644SOL     OW11830   0.157   1.056   1.300
 3644SOL    HW111831   0.135   1.118   1.375
 3644SOL    HW211832   0.162   0.963   1.335
 3645SOL     OW11833   0.553   2.608   3.605
 3645SOL    HW111834   0.631   2.562   3.647
 3645SOL    HW211835   0.562   2.605   3.506
 3646SOL     OW11836   1.056   4.059   6.378
 3646SOL    HW111837   1.071   4.132   6.311
 3646SOL    HW211838   0.958   4.037   6.381
 3647SOL     OW11839   2.671   5.408   5.948
 3647SOL    HW111840   2.692   5.321   5.992
 3647SOL    HW211841   2.606   5.393   5.874
 3648SOL     OW11842   3.954   4.884   1.913
 3648SOL    HW111843   3.865   4.858   1.877
 3648SOL    HW211844   3.964   4.984   1.906
 3649SOL     OW11845   5.124   3.061   1.553
 3649SOL    HW111846   5.055   3.101   1.493
 3649SOL    HW211847   5.184   3.134   1.588
 3650SOL     OW11848   6.635   5.729   1.421
 3650SOL    HW111849   6.729   5.713   1.452
 3650SOL    HW211850   6.579   5.756   1.499
 3651SOL     OW11851   0.815   6.781   4.630
 3651SOL    HW111852   0.744   6.794   4.700
 3651SOL    HW211853   0.905   6.779   4.674
 3652SOL     OW11854   5.680   6.618   3.194
 3652SOL    HW111855   5.672   6.697   3.132
 3652SOL    HW211856   5.668   6.649   3.288
 3653SOL     OW11857   0.757   1.670   3.798
 3653SOL    HW111858   0.778   1.676   3.896
 3653SOL    HW211859   0.716   1.756   3.768
 3654SOL     OW11860   3.301   4.354   0.683
 3654SOL    HW111861   3.265   4.442   0.652
 3654SOL    HW211862   3.267   4.335   0.775
 3655SOL     OW11863   2.088   6.064   4.143
 3655SOL    HW111864   2.038   6.116   4.074
 3655SOL    HW211865   2.098   6.119   4.226
 3656SOL     OW11866   0.005   4.277   1.293
 3656SOL    HW111867   7.005   4.267   1.196
 3656SOL    HW211868   0.044   4.191   1.326
 3657SOL     OW11869   5.569   5.883   5.970
 3657SOL    HW111870   5.598   5.978   5.983
 3657SOL    HW211871   5.483   5.867   6.018
 3658SOL     OW11872   1.780   5.155   6.158
 3658SOL    HW111873   1.831   5.221   6.213
 3658SOL    HW211874   1.837   5.075   6.140
 3659SOL     OW11875   2.385   3.642   6.456
 3659SOL    HW111876   2.484   3.627   6.468
 3659SOL    HW211877   2.356   3.717   6.516
 3660SOL     OW11878   5.635   6.200   3.500
 3660SOL    HW111879   5.537   6.184   3.484
 3660SOL    HW211880   5.652   6.215   3.597
 3661SOL     OW11881   5.901   0.296   5.099
 3661SOL    HW111882   6.001   0.297   5.090
 3661SOL    HW211883   5.863   0.236   5.028
 3662SOL     OW11884   3.472   0.621   3.900
 3662SOL    HW111885   3.434   0.620   3.808
 3662SOL    HW211886   3.424   0.690   3.955
 3663SOL     OW11887   1.919   2.039   0.023
 3663SOL    HW111888   1.977   2.118   0.044
 3663SOL    HW211889   1.946   2.001   6.959
 3664SOL     OW11890   5.027   2.608   1.429
 3664SOL    HW111891   5.090   2.685   1.419
 3664SOL    HW211892   5.039   2.568   1.520
 3665SOL     OW11893   1.553   6.652   4.800
 3665SOL    HW111894   1.634   6.628   4.746
 3665SOL    HW211895   1.523   6.573   4.852
 3666SOL     OW11896   0.604   3.480   3.255
 3666SOL    HW111897   0.664   3.401   3.240
 3666SOL    HW211898   0.604   3.504   3.352
 3667SOL     OW11899   0.890   1.471   3.672
 3667SOL    HW111900   0.846   1.543   3.726
 3667SOL    HW211901   0.956   1.512   3.610
 3668SOL     OW11902   1.463   1.012   0.993
 3668SOL    HW111903   1.418   0.923   0.980
 3668SOL    HW211904   1.552   0.999   1.037
 3669SOL     OW11905   5.290   1.692   3.483
 3669SOL    HW111906   5.208   1.638   3.502
 3669SOL    HW211907   5.294   1.716   3.386
 3670SOL     OW11908   1.696   5.384   0.194
 3670SOL    HW111909   1.783   5.426   0.221
 3670SOL    HW211910   1.639   5.370   0.275
 3671SOL     OW11911   0.042   2.071   4.353
 3671SOL    HW111912   7.017   2.067   4.440
 3671SOL    HW211913   0.083   1.982   4.334
 3672SOL     OW11914   4.886   1.723   1.723
 3672SOL    HW111915   4.985   1.707   1.722
 3672SOL    HW211916   4.865   1.807   1.673
 3673SOL     OW11917   3.735   6.310   6.829
 3673SOL    HW111918   3.658   6.248   6.815
 3673SOL    HW211919   3.701   6.396   6.869
 3674SOL     OW11920   1.120   5.119   5.952
 3674SOL    HW111921   1.211   5.149   5.979
 3674SOL    HW211922   1.072   5.193   5.904
 3675SOL     OW11923   2.106   3.171   3.981
 3675SOL    HW111924   2.130   3.077   4.004
 3675SOL    HW211925   2.120   3.230   4.060
 3676SOL     OW11926   5.689   4.903   3.147
 3676SOL    HW111927   5.659   4.992   3.181
 3676SOL    HW211928   5.650   4.831   3.203
 3677SOL     OW11929   2.523   5.953   3.840
 3677SOL    HW111930   2.558   6.036   3.796
 3677SOL    HW211931   2.446   5.977   3.899
 3678SOL     OW11932   0.358   1.769   4.528
 3678SOL    HW111933   0.363   1.848   4.467
 3678SOL    HW211934   0.419   1.782   4.606
 3679SOL     OW11935   0.583   0.678   3.675
 3679SOL    HW111936   0.545   0.647   3.762
 3679SOL    HW211937   0.513   0.729   3.625
 3680SOL     OW11938   5.077   3.207   4.000
 3680SOL    HW111939   5.158   3.180   4.052
 3680SOL    HW211940   5.069   3.150   3.918
 3681SOL     OW11941   0.355   0.947   6.458
 3681SOL    HW111942   0.399   0.892   6.529
 3681SOL    HW211943   0.370   1.044   6.477
 3682SOL     OW11944   5.277   2.189   6.739
 3682SOL    HW111945   5.375   2.209   6.738
 3682SOL    HW211946   5.232   2.246   6.808
 3683SOL     OW11947   6.866   1.517   3.827
 3683SOL    HW111948   6.940   1.454   3.850
 3683SOL    HW211949   6.858   1.587   3.898
 3684SOL     OW11950   1.189   4.679   0.049
 3684SOL    HW111951   1.222   4.657   0.140
 3684SOL    HW211952   1.256   4.736   0.001
 3685SOL     OW11953   1.561   6.153   6.461
 3685SOL    HW111954   1.606   6.228   6.511
 3685SOL    HW211955   1.497   6.192   6.394
 3686SOL     OW11956   5.192   5.647   4.189
 3686SOL    HW111957   5.135   5.657   4.271
 3686SOL    HW211958   5.133   5.638   4.109
 3687SOL     OW11959   3.670   5.785   4.432
 3687SOL    HW111960   3.588   5.841   4.433
 3687SOL    HW211961   3.746   5.835   4.473
 3688SOL     OW11962   0.649   3.514   6.729
 3688SOL    HW111963   0.731   3.557   6.767
 3688SOL    HW211964   0.582   3.585   6.706
 3689SOL     OW11965   2.200   6.965   5.608
 3689SOL    HW111966   2.228   6.905   5.533
 3689SOL    HW211967   2.131   6.919   5.664
 3690SOL     OW11968   4.414   6.071   0.275
 3690SOL    HW111969   4.498   6.043   0.227
 3690SOL    HW211970   4.359   5.990   0.295
 3691SOL     OW11971   2.407   1.563   5.903
 3691SOL    HW111972   2.417   1.663   5.910
 3691SOL    HW211973   2.451   1.520   5.982
 3692SOL     OW11974   6.897   5.505   5.433
 3692SOL    HW111975   6.856   5.463   5.351
 3692SOL    HW211976   6.903   5.604   5.419
 3693SOL     OW11977   2.145   3.640   3.084
 3693SOL    HW111978   2.148   3.566   3.016
 3693SOL    HW211979   2.141   3.600   3.175
 3694SOL     OW11980   1.184   6.705   2.636
 3694SOL    HW111981   1.224   6.679   2.548
 3694SOL    HW211982   1.156   6.801   2.632
 3695SOL     OW11983   5.417   3.686   1.942
 3695SOL    HW111984   5.362   3.763   1.908
 3695SOL    HW211985   5.470   3.648   1.866
 3696SOL     OW11986   3.865   6.641   4.420
 3696SOL    HW111987   3.845   6.706   4.494
 3696SOL    HW211988   3.783   6.626   4.365
 3697SOL     OW11989   0.173   6.532   2.585
 3697SOL    HW111990   0.175   6.628   2.613
 3697SOL    HW211991   0.079   6.508   2.560
 3698SOL     OW11992   3.075   0.913   4.534
 3698SOL    HW111993   3.120   0.985   4.586
 3698SOL    HW211994   3.090   0.929   4.436
 3699SOL     OW11995   1.472   2.735   4.511
 3699SOL    HW111996   1.376   2.754   4.532
 3699SOL    HW211997   1.478   2.653   4.455
 3700SOL     OW11998   0.807   5.107   4.731
 3700SOL    HW111999   0.757   5.035   4.777
 3700SOL    HW212000   0.793   5.101   4.632
 3701SOL     OW12001   1.473   1.220   4.327
 3701SOL    HW112002   1.510   1.284   4.395
 3701SOL    HW212003   1.458   1.269   4.241
 3702SOL     OW12004   5.677   0.019   3.338
 3702SOL    HW112005   5.671   0.105   3.388
 3702SOL    HW212006   5.773   7.017   3.328
 3703SOL     OW12007   5.526   0.511   5.540
 3703SOL    HW112008   5.595   0.527   5.470
 3703SOL    HW212009   5.537   0.418   5.577
 3704SOL     OW12010   3.899   1.386   0.915
 3704SOL    HW112011   3.862   1.296   0.891
 3704SOL    HW212012   3.858   1.455   0.857
 3705SOL     OW12013   4.826   4.453   4.304
 3705SOL    HW112014   4.794   4.545   4.328
 3705SOL    HW212015   4.925   4.447   4.319
 3706SOL     OW12016   1.420   3.936   0.221
 3706SOL    HW112017   1.366   3.968   0.143
 3706SOL    HW212018   1.517   3.938   0.198
 3707SOL     OW12019   5.363   4.514   3.918
 3707SOL    HW112020   5.288   4.460   3.880
 3707SOL    HW212021   5.425   4.540   3.845
 3708SOL     OW12022   6.778   0.681   6.632
 3708SOL    HW112023   6.832   0.727   6.702
 3708SOL    HW212024   6.732   0.601   6.672
 3709SOL     OW12025   3.384   0.745   1.218
 3709SOL    HW112026   3.369   0.827   1.274
 3709SOL    HW212027   3.374   0.663   1.276
 3710SOL     OW12028   6.128   5.575   5.446
 3710SOL    HW112029   6.226   5.594   5.443
 3710SOL    HW212030   6.077   5.660   5.431
 3711SOL     OW12031   0.714   6.564   4.509
 3711SOL    HW112032   0.767   6.521   4.436
 3711SOL    HW212033   0.758   6.649   4.536
 3712SOL     OW12034   0.642   5.053   5.608
 3712SOL    HW112035   0.689   5.136   5.579
 3712SOL    HW212036   0.567   5.032   5.546
 3713SOL     OW12037   0.860   6.392   5.972
 3713SOL    HW112038   0.953   6.354   5.976
 3713SOL    HW212039   0.802   6.332   5.917
 3714SOL     OW12040   5.749   5.441   6.198
 3714SOL    HW112041   5.706   5.352   6.183
 3714SOL    HW212042   5.706   5.485   6.277
 3715SOL     OW12043   0.691   4.063   2.236
 3715SOL    HW112044   0.715   4.142   2.180
 3715SOL    HW212045   0.766   3.997   2.236
 3716SOL     OW12046   6.021   6.724   4.181
 3716SOL    HW112047   6.083   6.778   4.124
 3716SOL    HW212048   6.069   6.692   4.262
 3717SOL     OW12049   0.024   6.591   6.833
 3717SOL    HW112050   0.122   6.571   6.841
 3717SOL    HW212051   7.024   6.593   6.736
 3718SOL     OW12052   0.933   0.745   6.569
 3718SOL    HW112053   0.849   0.711   6.526
 3718SOL    HW212054   0.920   0.750   6.668
 3719SOL     OW12055   5.201   4.182   1.603
 3719SOL    HW112056   5.129   4.133   1.652
 3719SOL    HW212057   5.291   4.149   1.634
 3720SOL     OW12058   5.887   2.787   6.623
 3720SOL    HW112059   5.824   2.856   6.589
 3720SOL    HW212060   5.945   2.826   6.694
 3721SOL     OW12061   5.906   4.488   1.385
 3721SOL    HW112062   5.834   4.545   1.346
 3721SOL    HW212063   5.968   4.545   1.440
 3722SOL     OW12064   5.847   5.895   0.612
 3722SOL    HW112065   5.916   5.930   0.548
 3722SOL    HW212066   5.811   5.808   0.578
 3723SOL     OW12067   5.634   5.461   1.164
 3723SOL    HW112068   5.605   5.471   1.069
 3723SOL    HW212069   5.682   5.374   1.176
 3724SOL     OW12070   2.125   4.508   4.631
 3724SOL    HW112071   2.187   4.430   4.635
 3724SOL    HW212072   2.031   4.477   4.646
 3725SOL     OW12073   6.942   5.502   0.240
 3725SOL    HW112074   7.011   5.474   0.307
 3725SOL    HW212075   6.886   5.574   0.279
 3726SOL     OW12076   6.086   3.159   0.686
 3726SOL    HW112077   6.058   3.068   0.656
 3726SOL    HW212078   6.006   3.218   0.695
 3727SOL     OW12079   6.524   1.558   5.266
 3727SOL    HW112080   6.620   1.565   5.236
 3727SOL    HW212081   6.515   1.480   5.328
 3728SOL     OW12082   1.474   3.508   6.467
 3728SOL    HW112083   1.570   3.506   6.494
 3728SOL    HW212084   1.424   3.571   6.527
 3729SOL     OW12085   1.513   2.582   4.305
 3729SOL    HW112086   1.486   2.664   4.254
 3729SOL    HW212087   1.529   2.507   4.241
 3730SOL     OW12088   2.477   5.549   5.317
 3730SOL    HW112089   2.429   5.583   5.398
 3730SOL    HW212090   2.455   5.452   5.304
 3731SOL     OW12091   0.495   1.301   0.583
 3731SOL    HW112092   0.562   1.311   0.656
 3731SOL    HW212093   0.424   1.237   0.612
 3732SOL     OW12094   2.949   1.687   0.223
 3732SOL    HW112095   2.905   1.640   0.146
 3732SOL    HW212096   2.883   1.748   0.266
 3733SOL     OW12097   1.673   3.272   3.098
 3733SOL    HW112098   1.652   3.369   3.108
 3733SOL    HW212099   1.594   3.217   3.126
 3734SOL     OW12100   5.204   0.381   1.212
 3734SOL    HW112101   5.247   0.464   1.175
 3734SOL    HW212102   5.113   0.404   1.247
 3735SOL     OW12103   2.501   1.296   2.904
 3735SOL    HW112104   2.577   1.330   2.848
 3735SOL    HW212105   2.443   1.237   2.847
 3736SOL     OW12106   6.937   2.100   1.225
 3736SOL    HW112107   7.005   2.170   1.205
 3736SOL    HW212108   6.976   2.009   1.211
 3737SOL     OW12109   5.404   1.264   3.796
 3737SOL    HW112110   5.386   1.181   3.849
 3737SOL    HW212111   5.457   1.240   3.715
 3738SOL     OW12112   0.424   0.261   2.117
 3738SOL    HW112113   0.504   0.308   2.080
 3738SOL    HW212114   0.343   0.320   2.107
 3739SOL     OW12115   1.860   5.274   0.590
 3739SOL    HW112116   1.919   5.195   0.608
 3739SOL    HW212117   1.820   5.266   0.499
 3740SOL     OW12118   6.426   0.601   0.615
 3740SOL    HW112119   6.448   0.641   0.703
 3740SOL    HW212120   6.479   0.517   0.602
 3741SOL     OW12121   5.086   3.155   6.445
 3741SOL    HW112122   5.008   3.166   6.506
 3741SOL    HW212123   5.126   3.245   6.426
 3742SOL     OW12124   2.756   2.456   6.721
 3742SOL    HW112125   2.783   2.406   6.803
 3742SOL    HW212126   2.673   2.415   6.683
 3743SOL     OW12127   5.664   3.547   0.678
 3743SOL    HW112128   5.599   3.472   0.664
 3743SOL    HW212129   5.646   3.619   0.611
 3744SOL     OW12130   1.653   6.148   1.883
 3744SOL    HW112131   1.741   6.115   1.849
 3744SOL    HW212132   1.616   6.216   1.820
 3745SOL     OW12133   4.281   4.979   1.965
 3745SOL    HW112134   4.353   5.044   1.941
 3745SOL    HW212135   4.257   4.989   2.061
 3746SOL     OW12136   5.570   0.837   3.802
 3746SOL    HW112137   5.665   0.831   3.770
 3746SOL    HW212138   5.532   0.745   3.809
 3747SOL     OW12139   2.565   6.026   5.039
 3747SOL    HW112140   2.647   6.048   5.093
 3747SOL    HW212141   2.542   5.930   5.051
 3748SOL     OW12142   5.935   1.062   1.593
 3748SOL    HW112143   5.953   1.047   1.690
 3748SOL    HW212144   5.988   1.140   1.560
 3749SOL     OW12145   2.070   5.329   3.729
 3749SOL    HW112146   2.044   5.369   3.817
 3749SOL    HW212147   2.160   5.363   3.703
 3750SOL     OW12148   7.023   4.599   1.064
 3750SOL    HW112149   0.084   4.647   1.080
 3750SOL    HW212150   6.984   4.571   1.152
 3751SOL     OW12151   6.523   3.434   1.386
 3751SOL    HW112152   6.540   3.523   1.344
 3751SOL    HW212153   6.446   3.442   1.449
 3752SOL     OW12154   6.111   6.707   0.541
 3752SOL    HW112155   6.029   6.693   0.597
 3752SOL    HW212156   6.192   6.704   0.599
 3753SOL     OW12157   6.719   0.361   3.789
 3753SOL    HW112158   6.629   0.321   3.777
 3753SOL    HW212159   6.717   0.458   3.764
 3754SOL     OW12160   3.503   0.332   0.862
 3754SOL    HW112161   3.583   0.285   0.900
 3754SOL    HW212162   3.505   0.428   0.889
 3755SOL     OW12163   4.685   5.356   4.646
 3755SOL    HW112164   4.784   5.356   4.637
 3755SOL    HW212165   4.652   5.450   4.657
 3756SOL     OW12166   2.436   5.637   6.952
 3756SOL    HW112167   2.453   5.733   6.932
 3756SOL    HW212168   2.338   5.619   6.950
 3757SOL     OW12169   4.731   6.285   6.581
 3757SOL    HW112170   4.769   6.197   6.552
 3757SOL    HW212171   4.715   6.284   6.679
 3758SOL     OW12172   2.430   1.201   5.008
 3758SOL    HW112173   2.501   1.269   4.992
 3758SOL    HW212174   2.356   1.242   5.063
 3759SOL     OW12175   4.872   6.467   6.411
 3759SOL    HW112176   4.813   6.421   6.478
 3759SOL    HW212177   4.958   6.418   6.402
 3760SOL     OW12178   1.845   0.851   4.456
 3760SOL    HW112179   1.847   0.754   4.480
 3760SOL    HW212180   1.919   0.899   4.503
 3761SOL     OW12181   1.373   1.015   4.881
 3761SOL    HW112182   1.434   1.089   4.850
 3761SOL    HW212183   1.280   1.035   4.853
 3762SOL     OW12184   0.892   3.992   0.952
 3762SOL    HW112185   0.975   3.967   1.002
 3762SOL    HW212186   0.916   4.026   0.861
 3763SOL     OW12187   6.617   3.723   0.986
 3763SOL    HW112188   6.712   3.698   0.966
 3763SOL    HW212189   6.580   3.778   0.911
 3764SOL     OW12190   1.899   0.187   2.634
 3764SOL    HW112191   1.993   0.207   2.661
 3764SOL    HW212192   1.892   0.186   2.534
 3765SOL     OW12193   5.267   1.352   0.827
 3765SOL    HW112194   5.320   1.272   0.854
 3765SOL    HW212195   5.301   1.432   0.877
 3766SOL     OW12196   1.623   1.450   3.982
 3766SOL    HW112197   1.706   1.446   4.037
 3766SOL    HW212198   1.628   1.383   3.908
 3767SOL     OW12199   1.908   4.619   0.212
 3767SOL    HW112200   1.917   4.680   0.291
 3767SOL    HW212201   1.816   4.580   0.210
 3768SOL     OW12202   1.645   6.552   4.401
 3768SOL    HW112203   1.709   6.538   4.476
 3768SOL    HW212204   1.688   6.608   4.330
 3769SOL     OW12205   6.534   6.214   5.387
 3769SOL    HW112206   6.596   6.149   5.343
 3769SOL    HW212207   6.569   6.307   5.374
 3770SOL     OW12208   1.519   1.394   6.358
 3770SOL    HW112209   1.530   1.493   6.360
 3770SOL    HW212210   1.574   1.353   6.430
 3771SOL     OW12211   5.457   3.219   0.003
 3771SOL    HW112212   5.497   3.131   0.029
 3771SOL    HW212213   5.358   3.212   0.001
 3772SOL     OW12214   0.318   1.208   6.162
 3772SOL    HW112215   0.259   1.250   6.231
 3772SOL    HW212216   0.367   1.279   6.112
 3773SOL     OW12217   6.117   2.855   6.204
 3773SOL    HW112218   6.153   2.850   6.110
 3773SOL    HW212219   6.019   2.876   6.201
 3774SOL     OW12220   0.034   6.011   0.862
 3774SOL    HW112221   7.003   5.946   0.913
 3774SOL    HW212222   0.033   6.100   0.908
 3775SOL     OW12223   4.216   5.498   2.129
 3775SOL    HW112224   4.176   5.419   2.175
 3775SOL    HW212225   4.311   5.479   2.107
 3776SOL     OW12226   4.488   1.380   0.074
 3776SOL    HW112227   4.391   1.368   0.098
 3776SOL    HW212228   4.522   1.295   0.034
 3777SOL     OW12229   3.374   5.717   3.716
 3777SOL    HW112230   3.362   5.700   3.814
 3777SOL    HW212231   3.461   5.679   3.685
 3778SOL     OW12232   3.218   4.885   2.426
 3778SOL    HW112233   3.141   4.924   2.375
 3778SOL    HW212234   3.183   4.836   2.506
 3779SOL     OW12235   1.358   4.357   0.494
 3779SOL    HW112236   1.333   4.268   0.456
 3779SOL    HW212237   1.364   4.349   0.594
 3780SOL     OW12238   6.087   5.052   5.045
 3780SOL    HW112239   6.173   5.005   5.064
 3780SOL    HW212240   6.051   5.022   4.957
 3781SOL     OW12241   0.963   5.605   4.553
 3781SOL    HW112242   0.983   5.646   4.463
 3781SOL    HW212243   0.952   5.506   4.543
 3782SOL     OW12244   2.356   0.345   3.693
 3782SOL    HW112245   2.445   0.388   3.676
 3782SOL    HW212246   2.364   0.283   3.771
 3783SOL     OW12247   5.674   5.684   3.214
 3783SOL    HW112248   5.736   5.685   3.292
 3783SOL    HW212249   5.650   5.778   3.189
 3784SOL     OW12250   4.831   2.716   3.284
 3784SOL    HW112251   4.823   2.640   3.219
 3784SOL    HW212252   4.910   2.701   3.342
 3785SOL     OW12253   2.175   2.632   6.105
 3785SOL    HW112254   2.184   2.708   6.041
 3785SOL    HW212255   2.082   2.631   6.142
 3786SOL     OW12256   1.993   5.421   2.991
 3786SOL    HW112257   2.023   5.360   3.064
 3786SOL    HW212258   1.903   5.458   3.014
 3787SOL     OW12259   5.857   1.426   2.617
 3787SOL    HW112260   5.868   1.469   2.528
 3787SOL    HW212261   5.892   1.487   2.689
 3788SOL     OW12262   0.507   4.571   4.419
 3788SOL    HW112263   0.518   4.602   4.324
 3788SOL    HW212264   0.587   4.517   4.445
 3789SOL     OW12265   0.442   2.883   4.696
 3789SOL    HW112266   0.394   2.895   4.783
 3789SOL    HW212267   0.539   2.869   4.713
 3790SOL     OW12268   1.265   4.562   5.658
 3790SOL    HW112269   1.210   4.613   5.724
 3790SOL    HW212270   1.304   4.481   5.701
 3791SOL     OW12271   5.196   1.145   6.573
 3791SOL    HW112272   5.178   1.068   6.635
 3791SOL    HW212273   5.133   1.219   6.595
 3792SOL     OW12274   1.154   2.497   4.931
 3792SOL    HW112275   1.087   2.514   4.859
 3792SOL    HW212276   1.110   2.505   5.021
 3793SOL     OW12277   5.021   6.764   2.444
 3793SOL    HW112278   5.041   6.677   2.488
 3793SOL    HW212279   4.951   6.751   2.374
 3794SOL     OW12280   2.338   3.297   0.994
 3794SOL    HW112281   2.349   3.383   0.944
 3794SOL    HW212282   2.425   3.247   0.993
 3795SOL     OW12283   4.093   6.350   6.825
 3795SOL    HW112284   4.146   6.284   6.877
 3795SOL    HW212285   4.086   6.320   6.730
 3796SOL     OW12286   3.250   2.164   2.613
 3796SOL    HW112287   3.274   2.156   2.516
 3796SOL    HW212288   3.151   2.173   2.622
 3797SOL     OW12289   6.926   3.677   1.530
 3797SOL    HW112290   6.982   3.712   1.605
 3797SOL    HW212291   6.946   3.729   1.447
 3798SOL     OW12292   2.758   5.643   2.891
 3798SOL    HW112293   2.827   5.603   2.830
 3798SOL    HW212294   2.765   5.742   2.888
 3799SOL     OW12295   0.025   2.651   3.956
 3799SOL    HW112296   0.091   2.705   4.007
 3799SOL    HW212297   0.064   2.562   3.933
 3800SOL     OW12298   5.871   3.588   3.912
 3800SOL    HW112299   5.850   3.559   3.819
 3800SOL    HW212300   5.939   3.527   3.951
 3801SOL     OW12301   6.058   0.156   2.214
 3801SOL    HW112302   6.123   0.106   2.157
 3801SOL    HW212303   5.966   0.148   2.176
 3802SOL     OW12304   0.981   2.158   2.408
 3802SOL    HW112305   0.936   2.130   2.493
 3802SOL    HW212306   0.921   2.137   2.331
 3803SOL     OW12307   3.463   2.587   1.547
 3803SOL    HW112308   3.373   2.627   1.563
 3803SOL    HW212309   3.516   2.588   1.632
 3804SOL     OW12310   4.863   1.659   4.068
 3804SOL    HW112311   4.768   1.638   4.091
 3804SOL    HW212312   4.923   1.587   4.105
 3805SOL     OW12313   2.723   2.685   1.586
 3805SOL    HW112314   2.703   2.604   1.640
 3805SOL    HW212315   2.703   2.667   1.490
 3806SOL     OW12316   3.402   3.799   6.533
 3806SOL    HW112317   3.414   3.719   6.593
 3806SOL    HW212318   3.376   3.768   6.442
 3807SOL     OW12319   1.533   6.087   2.736
 3807SOL    HW112320   1.509   6.126   2.825
 3807SOL    HW212321   1.496   6.145   2.663
 3808SOL     OW12322   4.644   1.107   0.745
 3808SOL    HW112323   4.710   1.113   0.669
 3808SOL    HW212324   4.670   1.033   0.806
 3809SOL     OW12325   5.168   3.127   1.216
 3809SOL    HW112326   5.099   3.160   1.281
 3809SOL    HW212327   5.145   3.033   1.189
 3810SOL     OW12328   4.428   2.461   3.587
 3810SOL    HW112329   4.354   2.401   3.558
 3810SOL    HW212330   4.450   2.525   3.513
 3811SOL     OW12331   1.186   4.515   4.235
 3811SOL    HW112332   1.095   4.502   4.275
 3811SOL    HW212333   1.224   4.602   4.265
 3812SOL     OW12334   5.002   5.920   4.674
 3812SOL    HW112335   5.006   5.826   4.707
 3812SOL    HW212336   4.996   5.983   4.752
 3813SOL     OW12337   5.043   4.082   0.942
 3813SOL    HW112338   5.013   3.987   0.940
 3813SOL    HW212339   5.114   4.093   1.012
 3814SOL     OW12340   7.017   0.088   6.914
 3814SOL    HW112341   0.012   0.156   6.843
 3814SOL    HW212342   0.068   0.085   6.979
 3815SOL     OW12343   4.630   2.267   0.436
 3815SOL    HW112344   4.666   2.182   0.396
 3815SOL    HW212345   4.556   2.244   0.500
 3816SOL     OW12346   0.947   6.057   0.436
 3816SOL    HW112347   1.039   6.057   0.398
 3816SOL    HW212348   0.932   5.972   0.487
 3817SOL     OW12349   5.224   4.161   2.810
 3817SOL    HW112350   5.129   4.177   2.839
 3817SOL    HW212351   5.243   4.216   2.729
 3818SOL     OW12352   6.363   0.846   6.721
 3818SOL    HW112353   6.395   0.930   6.676
 3818SOL    HW212354   6.395   0.846   6.816
 3819SOL     OW12355   5.449   5.118   1.953
 3819SOL    HW112356   5.450   5.021   1.979
 3819SOL    HW212357   5.363   5.159   1.982
 3820SOL     OW12358   5.379   6.614   3.858
 3820SOL    HW112359   5.423   6.689   3.907
 3820SOL    HW212360   5.377   6.634   3.760
 3821SOL     OW12361   2.373   1.543   0.984
 3821SOL    HW112362   2.439   1.470   0.996
 3821SOL    HW212363   2.293   1.509   0.935
 3822SOL     OW12364   2.019   0.418   1.082
 3822SOL    HW112365   2.043   0.496   1.141
 3822SOL    HW212366   2.103   0.380   1.041
 3823SOL     OW12367   3.405   3.451   5.888
 3823SOL    HW112368   3.443   3.543   5.876
 3823SOL    HW212369   3.305   3.456   5.879
 3824SOL     OW12370   6.606   2.142   0.714
 3824SOL    HW112371   6.659   2.207   0.659
 3824SOL    HW212372   6.668   2.082   0.764
 3825SOL     OW12373   0.758   5.740   0.780
 3825SOL    HW112374   0.794   5.752   0.872
 3825SOL    HW212375   0.669   5.694   0.784
 3826SOL     OW12376   0.982   3.077   6.571
 3826SOL    HW112377   1.077   3.057   6.545
 3826SOL    HW212378   0.974   3.175   6.592
 3827SOL     OW12379   2.136   2.190   1.441
 3827SOL    HW112380   2.133   2.259   1.369
 3827SOL    HW212381   2.230   2.183   1.476
 3828SOL     OW12382   3.932   2.866   1.899
 3828SOL    HW112383   3.928   2.794   1.969
 3828SOL    HW212384   3.935   2.956   1.944
 3829SOL     OW12385   1.707   4.555   3.603
 3829SOL    HW112386   1.753   4.529   3.688
 3829SOL    HW212387   1.692   4.473   3.547
 3830SOL     OW12388   0.794   1.505   4.521
 3830SOL    HW112389   0.789   1.464   4.612
 3830SOL    HW212390   0.702   1.530   4.491
 3831SOL     OW12391   4.770   2.098   1.806
 3831SOL    HW112392   4.779   2.045   1.722
 3831SOL    HW212393   4.836   2.065   1.873
 3832SOL     OW12394   5.908   0.950   2.716
 3832SOL    HW112395   5.881   1.046   2.721
 3832SOL    HW212396   6.002   0.940   2.750
 3833SOL     OW12397   0.673   6.257   5.829
 3833SOL    HW112398   0.708   6.176   5.783
 3833SOL    HW212399   0.584   6.237   5.869
 3834SOL     OW12400   4.803   3.915   1.844
 3834SOL    HW112401   4.742   3.919   1.765
 3834SOL    HW212402   4.801   4.002   1.892
 3835SOL     OW12403   3.336   5.518   4.411
 3835SOL    HW112404   3.305   5.423   4.419
 3835SOL    HW212405   3.397   5.539   4.488
 3836SOL     OW12406   1.822   4.196   6.135
 3836SOL    HW112407   1.866   4.202   6.045
 3836SOL    HW212408   1.734   4.148   6.125
 3837SOL     OW12409   4.779   4.699   6.389
 3837SOL    HW112410   4.705   4.713   6.323
 3837SOL    HW212411   4.825   4.786   6.406
 3838SOL     OW12412   0.073   3.817   4.798
 3838SOL    HW112413   0.039   3.792   4.707
 3838SOL    HW212414   0.114   3.908   4.794
 3839SOL     OW12415   4.606   0.810   3.194
 3839SOL    HW112416   4.603   0.717   3.159
 3839SOL    HW212417   4.515   0.851   3.189
 3840SOL     OW12418   2.101   0.743   5.900
 3840SOL    HW112419   2.198   0.757   5.882
 3840SOL    HW212420   2.057   0.831   5.919
 3841SOL     OW12421   0.288   3.296   5.393
 3841SOL    HW112422   0.363   3.340   5.345
 3841SOL    HW212423   0.270   3.345   5.479
 3842SOL     OW12424   1.820   3.549   6.870
 3842SOL    HW112425   1.778   3.576   6.783
 3842SOL    HW212426   1.899   3.490   6.852
 3843SOL     OW12427   6.324   4.363   2.799
 3843SOL    HW112428   6.277   4.289   2.749
 3843SOL    HW212429   6.400   4.325   2.851
 3844SOL     OW12430   0.888   2.613   6.171
 3844SOL    HW112431   0.809   2.597   6.229
 3844SOL    HW212432   0.897   2.538   6.105
 3845SOL     OW12433   3.837   3.288   4.047
 3845SOL    HW112434   3.829   3.365   3.983
 3845SOL    HW212435   3.770   3.217   4.023
 3846SOL     OW12436   0.739   5.569   3.802
 3846SOL    HW112437   0.809   5.501   3.782
 3846SOL    HW212438   0.649   5.530   3.783
 3847SOL     OW12439   6.365   0.816   4.358
 3847SOL    HW112440   6.411   0.802   4.445
 3847SOL    HW212441   6.398   0.748   4.292
 3848SOL     OW12442   3.385   5.637   2.951
 3848SOL    HW112443   3.327   5.574   2.899
 3848SOL    HW212444   3.456   5.585   2.998
 3849SOL     OW12445   1.118   1.608   5.536
 3849SOL    HW112446   1.213   1.636   5.547
 3849SOL    HW212447   1.071   1.670   5.473
 3850SOL     OW12448   2.556   3.094   1.025
 3850SOL    HW112449   2.521   3.036   1.098
 3850SOL    HW212450   2.619   3.042   0.967
 3851SOL     OW12451   1.902   4.605   2.634
 3851SOL    HW112452   1.859   4.561   2.713
 3851SOL    HW212453   1.832   4.623   2.565
 3852SOL     OW12454   4.566   6.749   3.814
 3852SOL    HW112455   4.626   6.672   3.835
 3852SOL    HW212456   4.488   6.749   3.877
 3853SOL     OW12457   0.927   3.500   3.131
 3853SOL    HW112458   0.899   3.592   3.160
 3853SOL    HW212459   0.873   3.432   3.181
 3854SOL     OW12460   1.349   3.290   2.196
 3854SOL    HW112461   1.334   3.364   2.131
 3854SOL    HW212462   1.435   3.306   2.245
 3855SOL     OW12463   5.213   6.511   6.643
 3855SOL    HW112464   5.262   6.444   6.588
 3855SOL    HW212465   5.269   6.593   6.655
 3856SOL     OW12466   0.135   6.491   5.411
 3856SOL    HW112467   0.160   6.568   5.470
 3856SOL    HW212468   0.041   6.504   5.377
 3857SOL     OW12469   0.688   5.824   6.006
 3857SOL    HW112470   0.700   5.745   6.066
 3857SOL    HW212471   0.755   5.894   6.030
 3858SOL     OW12472   1.605   6.941   5.648
 3858SOL    HW112473   1.681   7.005   5.655
 3858SOL    HW212474   1.521   6.992   5.630
 3859SOL     OW12475   6.635   2.157   3.390
 3859SOL    HW112476   6.599   2.150   3.483
 3859SOL    HW212477   6.628   2.251   3.359
 3860SOL     OW12478   2.177   0.337   5.497
 3860SOL    HW112479   2.081   0.330   5.471
 3860SOL    HW212480   2.192   0.422   5.547
 3861SOL     OW12481   4.632   4.468   3.483
 3861SOL    HW112482   4.547   4.502   3.443
 3861SOL    HW212483   4.657   4.382   3.440
 3862SOL     OW12484   1.237   0.229   4.809
 3862SOL    HW112485   1.282   0.292   4.746
 3862SOL    HW212486   1.212   0.278   4.893
 3863SOL     OW12487   4.436   2.793   6.078
 3863SOL    HW112488   4.483   2.873   6.042
 3863SOL    HW212489   4.408   2.734   6.002
 3864SOL     OW12490   2.712   0.610   5.600
 3864SOL    HW112491   2.636   0.600   5.537
 3864SOL    HW212492   2.681   0.592   5.693
 3865SOL     OW12493   3.450   6.278   0.127
 3865SOL    HW112494   3.486   6.283   0.034
 3865SOL    HW212495   3.508   6.333   0.188
 3866SOL     OW12496   4.112   1.312   1.586
 3866SOL    HW112497   4.022   1.341   1.618
 3866SOL    HW212498   4.121   1.335   1.489
 3867SOL     OW12499   1.507   4.179   3.981
 3867SOL    HW112500   1.512   4.079   3.975
 3867SOL    HW212501   1.415   4.206   4.009
 3868SOL     OW12502   3.393   6.914   0.490
 3868SOL    HW112503   3.347   6.887   0.405
 3868SOL    HW212504   3.399   7.014   0.493
 3869SOL     OW12505   6.593   3.361   5.400
 3869SOL    HW112506   6.539   3.431   5.448
 3869SOL    HW212507   6.531   3.293   5.361
 3870SOL     OW12508   4.551   5.236   0.268
 3870SOL    HW112509   4.606   5.288   0.203
 3870SOL    HW212510   4.455   5.238   0.240
 3871SOL     OW12511   4.208   0.285   2.718
 3871SOL    HW112512   4.182   0.326   2.631
 3871SOL    HW212513   4.228   0.358   2.784
 3872SOL     OW12514   3.747   3.325   2.412
 3872SOL    HW112515   3.801   3.314   2.329
 3872SOL    HW212516   3.804   3.361   2.486
 3873SOL     OW12517   6.586   4.103   1.186
 3873SOL    HW112518   6.614   4.195   1.158
 3873SOL    HW212519   6.529   4.063   1.115
 3874SOL     OW12520   3.747   5.990   6.412
 3874SOL    HW112521   3.676   5.921   6.397
 3874SOL    HW212522   3.765   6.039   6.327
 3875SOL     OW12523   1.609   2.849   1.821
 3875SOL    HW112524   1.525   2.831   1.769
 3875SOL    HW212525   1.593   2.834   1.918
 3876SOL     OW12526   5.928   4.566   6.980
 3876SOL    HW112527   5.960   4.660   6.983
 3876SOL    HW212528   5.855   4.558   6.912
 3877SOL     OW12529   6.896   2.798   0.159
 3877SOL    HW112530   6.816   2.785   0.218
 3877SOL    HW212531   6.876   2.868   0.091
 3878SOL     OW12532   2.536   6.458   5.045
 3878SOL    HW112533   2.470   6.529   5.019
 3878SOL    HW212534   2.548   6.394   4.969
 3879SOL     OW12535   5.343   6.813   1.560
 3879SOL    HW112536   5.406   6.761   1.503
 3879SOL    HW212537   5.395   6.881   1.612
 3880SOL     OW12538   6.163   4.717   3.736
 3880SOL    HW112539   6.258   4.695   3.716
 3880SOL    HW212540   6.142   4.696   3.831
 3881SOL     OW12541   1.176   4.825   0.970
 3881SOL    HW112542   1.271   4.800   0.948
 3881SOL    HW212543   1.176   4.907   1.027
 3882SOL     OW12544   6.766   1.543   4.584
 3882SOL    HW112545   6.763   1.444   4.572
 3882SOL    HW212546   6.678   1.583   4.556
 3883SOL     OW12547   4.593   1.585   3.439
 3883SOL    HW112548   4.686   1.577   3.403
 3883SOL    HW212549   4.552   1.494   3.445
 3884SOL     OW12550   1.358   5.539   3.562
 3884SOL    HW112551   1.377   5.442   3.558
 3884SOL    HW212552   1.444   5.591   3.566
 3885SOL     OW12553   6.461   0.810   3.670
 3885SOL    HW112554   6.487   0.873   3.597
 3885SOL    HW212555   6.489   0.847   3.758
 3886SOL     OW12556   6.640   5.435   5.094
 3886SOL    HW112557   6.722   5.385   5.120
 3886SOL    HW212558   6.664   5.531   5.077
 3887SOL     OW12559   5.690   1.055   5.339
 3887SOL    HW112560   5.706   1.017   5.247
 3887SOL    HW212561   5.698   1.155   5.335
 3888SOL     OW12562   0.621   0.399   6.608
 3888SOL    HW112563   0.623   0.480   6.667
 3888SOL    HW212564   0.533   0.354   6.618
 3889SOL     OW12565   6.835   2.576   6.205
 3889SOL    HW112566   6.785   2.656   6.238
 3889SOL    HW212567   6.818   2.499   6.266
 3890SOL     OW12568   6.170   5.531   2.682
 3890SOL    HW112569   6.152   5.548   2.585
 3890SOL    HW212570   6.259   5.486   2.692
 3891SOL     OW12571   5.569   5.081   4.319
 3891SOL    HW112572   5.511   5.053   4.243
 3891SOL    HW212573   5.574   5.007   4.386
 3892SOL     OW12574   0.202   2.203   2.277
 3892SOL    HW112575   0.294   2.165   2.269
 3892SOL    HW212576   0.142   2.136   2.320
 3893SOL     OW12577   2.799   5.645   1.671
 3893SOL    HW112578   2.797   5.663   1.770
 3893SOL    HW212579   2.772   5.551   1.654
 3894SOL     OW12580   2.645   2.047   1.026
 3894SOL    HW112581   2.732   2.016   1.063
 3894SOL    HW212582   2.660   2.124   0.965
 3895SOL     OW12583   1.561   0.149   5.194
 3895SOL    HW112584   1.527   0.057   5.213
 3895SOL    HW212585   1.603   0.150   5.103
 3896SOL     OW12586   0.179   2.085   6.359
 3896SOL    HW112587   0.140   2.014   6.300
 3896SOL    HW212588   0.204   2.046   6.447
 3897SOL     OW12589   3.702   0.028   1.926
 3897SOL    HW112590   3.655   0.102   1.975
 3897SOL    HW212591   3.755   6.998   1.990
 3898SOL     OW12592   3.303   3.866   3.769
 3898SOL    HW112593   3.353   3.793   3.723
 3898SOL    HW212594   3.243   3.828   3.839
 3899SOL     OW12595   4.712   0.801   4.131
 3899SOL    HW112596   4.700   0.869   4.058
 3899SOL    HW212597   4.692   0.844   4.219
 3900SOL     OW12598   4.991   2.883   2.810
 3900SOL    HW112599   4.994   2.895   2.711
 3900SOL    HW212600   5.085   2.876   2.846
 3901SOL     OW12601   2.909   6.596   5.825
 3901SOL    HW112602   2.974   6.538   5.778
 3901SOL    HW212603   2.953   6.638   5.905
 3902SOL     OW12604   5.836   3.510   1.635
 3902SOL    HW112605   5.873   3.459   1.712
 3902SOL    HW212606   5.904   3.576   1.602
 3903SOL     OW12607   4.861   4.099   6.549
 3903SOL    HW112608   4.908   4.090   6.637
 3903SOL    HW212609   4.763   4.088   6.562
 3904SOL     OW12610   2.266   6.914   6.048
 3904SOL    HW112611   2.288   6.973   5.970
 3904SOL    HW212612   2.176   6.873   6.034
 3905SOL     OW12613   5.882   6.648   6.002
 3905SOL    HW112614   5.895   6.551   5.984
 3905SOL    HW212615   5.894   6.666   6.100
 3906SOL     OW12616   1.804   4.818   5.612
 3906SOL    HW112617   1.865   4.875   5.557
 3906SOL    HW212618   1.853   4.737   5.644
 3907SOL     OW12619   6.596   0.766   4.098
 3907SOL    HW112620   6.653   0.805   4.171
 3907SOL    HW212621   6.540   0.692   4.136
 3908SOL     OW12622   1.808   1.036   0.057
 3908SOL    HW112623   1.832   1.133   0.063
 3908SOL    HW212624   1.814   1.006   6.986
 3909SOL     OW12625   6.993   4.512   6.665
 3909SOL    HW112626   7.000   4.435   6.729
 3909SOL    HW212627   0.040   4.579   6.685
 3910SOL     OW12628   3.344   3.747   1.952
 3910SOL    HW112629   3.429   3.722   1.905
 3910SOL    HW212630   3.311   3.669   2.004
 3911SOL     OW12631   5.222   1.239   0.351
 3911SOL    HW112632   5.312   1.206   0.322
 3911SOL    HW212633   5.232   1.300   0.429
 3912SOL     OW12634   3.716   0.968   6.237
 3912SOL    HW112635   3.723   0.902   6.312
 3912SOL    HW212636   3.688   1.057   6.274
 3913SOL     OW12637   2.869   6.344   0.016
 3913SOL    HW112638   2.932   6.367   0.090
 3913SOL    HW212639   2.861   6.421   6.978
 3914SOL     OW12640   5.026   1.162   1.283
 3914SOL    HW112641   4.933   1.137   1.257
 3914SOL    HW212642   5.080   1.079   1.298
 3915SOL     OW12643   4.766   6.701   0.303
 3915SOL    HW112644   4.792   6.657   0.217
 3915SOL    HW212645   4.673   6.672   0.327
 3916SOL     OW12646   2.359   6.787   2.655
 3916SOL    HW112647   2.286   6.804   2.589
 3916SOL    HW212648   2.392   6.874   2.692
 3917SOL     OW12649   0.895   4.175   1.460
 3917SOL    HW112650   0.933   4.166   1.552
 3917SOL    HW212651   0.896   4.271   1.433
 3918SOL     OW12652   3.713   6.727   1.238
 3918SOL    HW112653   3.631   6.672   1.226
 3918SOL    HW212654   3.747   6.717   1.332
 3919SOL     OW12655   3.364   0.458   6.759
 3919SOL    HW112656   3.432   0.386   6.772
 3919SOL    HW212657   3.300   0.457   6.836
 3920SOL     OW12658   3.066   0.731   6.485
 3920SOL    HW112659   2.986   0.729   6.425
 3920SOL    HW212660   3.048   0.794   6.561
 3921SOL     OW12661   0.155   2.146   0.052
 3921SOL    HW112662   0.249   2.111   0.054
 3921SOL    HW212663   0.152   2.235   0.096
 3922SOL     OW12664   4.487   5.246   1.415
 3922SOL    HW112665   4.527   5.313   1.478
 3922SOL    HW212666   4.389   5.265   1.403
 3923SOL     OW12667   5.987   2.105   0.952
 3923SOL    HW112668   5.986   2.204   0.949
 3923SOL    HW212669   5.944   2.073   1.036
 3924SOL     OW12670   0.389   5.316   2.912
 3924SOL    HW112671   0.453   5.270   2.974
 3924SOL    HW212672   0.327   5.374   2.965
 3925SOL     OW12673   4.412   4.645   1.147
 3925SOL    HW112674   4.402   4.740   1.174
 3925SOL    HW212675   4.453   4.593   1.222
 3926SOL     OW12676   0.136   0.249   4.796
 3926SOL    HW112677   0.173   0.200   4.717
 3926SOL    HW212678   0.201   0.321   4.823
 3927SOL     OW12679   0.154   2.832   4.869
 3927SOL    HW112680   0.235   2.865   4.917
 3927SOL    HW212681   0.182   2.774   4.792
 3928SOL     OW12682   3.156   5.849   3.631
 3928SOL    HW112683   3.204   5.897   3.557
 3928SOL    HW212684   3.216   5.778   3.668
 3929SOL     OW12685   7.014   1.555   6.609
 3929SOL    HW112686   0.085   1.541   6.637
 3929SOL    HW212687   6.964   1.599   6.683
 3930SOL     OW12688   0.897   2.034   3.603
 3930SOL    HW112689   0.862   1.945   3.573
 3930SOL    HW212690   0.819   2.093   3.626
 3931SOL     OW12691   2.092   1.477   2.044
 3931SOL    HW112692   2.128   1.389   2.075
 3931SOL    HW212693   2.166   1.533   2.006
 3932SOL     OW12694   2.262   4.894   3.706
 3932SOL    HW112695   2.189   4.963   3.713
 3932SOL    HW212696   2.221   4.804   3.691
 3933SOL     OW12697   1.697   6.831   0.120
 3933SOL    HW112698   1.771   6.831   0.187
 3933SOL    HW212699   1.704   6.913   0.063
 3934SOL     OW12700   6.770   1.178   2.923
 3934SOL    HW112701   6.679   1.216   2.943
 3934SOL    HW212702   6.819   1.241   2.863
 3935SOL     OW12703   1.119   1.627   5.903
 3935SOL    HW112704   1.175   1.671   5.833
 3935SOL    HW212705   1.044   1.688   5.928
 3936SOL     OW12706   0.168   5.853   5.012
 3936SOL    HW112707   0.250   5.798   5.027
 3936SOL    HW212708   0.172   5.934   5.070
 3937SOL     OW12709   6.768   6.340   2.177
 3937SOL    HW112710   6.746   6.422   2.229
 3937SOL    HW212711   6.820   6.277   2.234
 3938SOL     OW12712   6.069   4.359   4.129
 3938SOL    HW112713   5.981   4.397   4.158
 3938SOL    HW212714   6.068   4.344   4.031
 3939SOL     OW12715   2.912   1.355   3.468
 3939SOL    HW112716   2.883   1.450   3.452
 3939SOL    HW212717   2.849   1.312   3.533
 3940SOL     OW12718   2.912   4.799   1.599
 3940SOL    HW112719   2.998   4.764   1.635
 3940SOL    HW212720   2.897   4.764   1.507
 3941SOL     OW12721   5.888   0.125   4.706
 3941SOL    HW112722   5.891   0.198   4.638
 3941SOL    HW212723   5.854   0.041   4.663
 3942SOL     OW12724   0.428   6.115   5.626
 3942SOL    HW112725   0.343   6.151   5.665
 3942SOL    HW212726   0.407   6.037   5.567
 3943SOL     OW12727   0.768   3.208   2.618
 3943SOL    HW112728   0.733   3.285   2.564
 3943SOL    HW212729   0.842   3.240   2.678
 3944SOL     OW12730   6.108   3.786   6.257
 3944SOL    HW112731   6.024   3.787   6.203
 3944SOL    HW212732   6.126   3.693   6.290
 3945SOL     OW12733   1.113   2.553   3.166
 3945SOL    HW112734   1.048   2.493   3.212
 3945SOL    HW212735   1.096   2.552   3.068
 3946SOL     OW12736   0.443   3.705   6.703
 3946SOL    HW112737   0.357   3.668   6.669
 3946SOL    HW212738   0.437   3.717   6.802
 3947SOL     OW12739   5.914   5.071   0.620
 3947SOL    HW112740   5.921   5.163   0.661
 3947SOL    HW212741   5.828   5.029   0.648
 3948SOL     OW12742   1.314   3.655   0.005
 3948SOL    HW112743   1.396   3.648   0.061
 3948SOL    HW212744   1.304   3.571   6.975
 3949SOL     OW12745   6.817   6.977   3.718
 3949SOL    HW112746   6.782   6.903   3.660
 3949SOL    HW212747   6.749   6.999   3.788
 3950SOL     OW12748   3.916   4.023   1.625
 3950SOL    HW112749   3.880   3.948   1.569
 3950SOL    HW212750   3.984   3.987   1.689
 3951SOL     OW12751   0.658   1.304   0.053
 3951SOL    HW112752   0.751   1.300   0.090
 3951SOL    HW212753   0.610   1.219   0.077
 3952SOL     OW12754   6.160   3.081   4.376
 3952SOL    HW112755   6.110   3.034   4.303
 3952SOL    HW212756   6.128   3.047   4.465
 3953SOL     OW12757   3.449   3.945   6.094
 3953SOL    HW112758   3.502   3.863   6.115
 3953SOL    HW212759   3.502   4.006   6.035
 3954SOL     OW12760   5.751   5.137   5.628
 3954SOL    HW112761   5.662   5.132   5.583
 3954SOL    HW212762   5.823   5.135   5.559
 3955SOL     OW12763   5.207   6.567   6.980
 3955SOL    HW112764   5.186   6.579   0.053
 3955SOL    HW212765   5.158   6.637   6.927
 3956SOL     OW12766   1.056   2.469   5.175
 3956SOL    HW112767   1.130   2.414   5.213
 3956SOL    HW212768   0.968   2.425   5.193
 3957SOL     OW12769   3.754   6.514   3.442
 3957SOL    HW112770   3.743   6.507   3.343
 3957SOL    HW212771   3.826   6.580   3.463
 3958SOL     OW12772   6.481   6.245   6.823
 3958SOL    HW112773   6.447   6.157   6.857
 3958SOL    HW212774   6.427   6.273   6.743
 3959SOL     OW12775   3.510   6.551   1.193
 3959SOL    HW112776   3.422   6.597   1.181
 3959SOL    HW212777   3.511   6.503   1.281
 3960SOL     OW12778   5.546   2.441   5.958
 3960SOL    HW112779   5.504   2.369   5.901
 3960SOL    HW212780   5.604   2.399   6.027
 3961SOL     OW12781   5.180   1.705   1.722
 3961SOL    HW112782   5.163   1.779   1.787
 3961SOL    HW212783   5.218   1.626   1.771
 3962SOL     OW12784   0.661   5.962   0.048
 3962SOL    HW112785   0.724   6.024   0.001
 3962SOL    HW212786   0.641   5.997   0.140
 3963SOL     OW12787   5.315   5.180   3.644
 3963SOL    HW112788   5.252   5.119   3.596
 3963SOL    HW212789   5.406   5.175   3.602
 3964SOL     OW12790   4.134   4.855   4.917
 3964SOL    HW112791   4.219   4.822   4.958
 3964SOL    HW212792   4.059   4.846   4.982
 3965SOL     OW12793   3.543   4.660   6.350
 3965SOL    HW112794   3.620   4.696   6.298
 3965SOL    HW212795   3.457   4.690   6.308
 3966SOL     OW12796   6.528   4.770   0.142
 3966SOL    HW112797   6.577   4.783   0.056
 3966SOL    HW212798   6.440   4.725   0.124
 3967SOL     OW12799   1.005   5.115   2.359
 3967SOL    HW112800   1.069   5.172   2.410
 3967SOL    HW212801   1.045   5.024   2.345
 3968SOL     OW12802   6.140   0.882   1.139
 3968SOL    HW112803   6.226   0.918   1.174
 3968SOL    HW212804   6.157   0.834   1.053
 3969SOL     OW12805   0.320   4.006   2.670
 3969SOL    HW112806   0.393   3.996   2.603
 3969SOL    HW212807   0.231   3.998   2.624
 3970SOL     OW12808   5.065   5.396   3.738
 3970SOL    HW112809   4.978   5.412   3.786
 3970SOL    HW212810   5.083   5.298   3.735
 3971SOL     OW12811   2.687   5.196   1.830
 3971SOL    HW112812   2.679   5.181   1.929
 3971SOL    HW212813   2.685   5.294   1.811
 3972SOL     OW12814   0.954   5.664   1.452
 3972SOL    HW112815   1.030   5.601   1.436
 3972SOL    HW212816   0.966   5.708   1.541
 3973SOL     OW12817   2.998   3.322   5.027
 3973SOL    HW112818   2.976   3.230   5.060
 3973SOL    HW212819   3.093   3.324   4.995
 3974SOL     OW12820   0.771   0.450   5.848
 3974SOL    HW112821   0.721   0.367   5.823
 3974SOL    HW212822   0.837   0.472   5.776
 3975SOL     OW12823   5.900   0.263   6.018
 3975SOL    HW112824   5.979   0.317   5.991
 3975SOL    HW212825   5.917   0.166   5.999
 3976SOL     OW12826   1.278   5.170   0.983
 3976SOL    HW112827   1.362   5.115   0.980
 3976SOL    HW212828   1.300   5.265   0.964
 3977SOL     OW12829   3.160   4.867   6.090
 3977SOL    HW112830   3.180   4.869   5.992
 3977SOL    HW212831   3.099   4.791   6.110
 3978SOL     OW12832   5.069   6.817   4.440
 3978SOL    HW112833   5.008   6.787   4.367
 3978SOL    HW212834   5.076   6.917   4.438
 3979SOL     OW12835   2.173   6.114   1.543
 3979SOL    HW112836   2.260   6.066   1.530
 3979SOL    HW212837   2.170   6.193   1.482
 3980SOL     OW12838   0.111   4.468   5.923
 3980SOL    HW112839   0.071   4.421   6.002
 3980SOL    HW212840   0.153   4.554   5.953
 3981SOL     OW12841   1.133   2.200   6.344
 3981SOL    HW112842   1.153   2.103   6.327
 3981SOL    HW212843   1.213   2.255   6.322
 3982SOL     OW12844   2.365   0.523   4.042
 3982SOL    HW112845   2.426   0.596   4.011
 3982SOL    HW212846   2.376   0.510   4.141
 3983SOL     OW12847   3.389   5.965   4.148
 3983SOL    HW112848   3.325   5.963   4.071
 3983SOL    HW212849   3.427   5.873   4.162
 3984SOL     OW12850   2.255   0.791   1.874
 3984SOL    HW112851   2.353   0.809   1.865
 3984SOL    HW212852   2.206   0.877   1.887
 3985SOL     OW12853   2.382   4.229   0.108
 3985SOL    HW112854   2.465   4.283   0.090
 3985SOL    HW212855   2.403   4.132   0.096
 3986SOL     OW12856   0.525   1.893   3.247
 3986SOL    HW112857   0.472   1.978   3.250
 3986SOL    HW212858   0.502   1.837   3.327
 3987SOL     OW12859   1.376   5.083   4.735
 3987SOL    HW112860   1.387   5.102   4.832
 3987SOL    HW212861   1.433   5.145   4.682
 3988SOL     OW12862   3.566   1.841   5.708
 3988SOL    HW112863   3.562   1.861   5.805
 3988SOL    HW212864   3.475   1.855   5.667
 3989SOL     OW12865   5.850   0.664   6.330
 3989SOL    HW112866   5.840   0.708   6.420
 3989SOL    HW212867   5.767   0.679   6.277
 3990SOL     OW12868   6.159   1.735   3.948
 3990SOL    HW112869   6.223   1.660   3.928
 3990SOL    HW212870   6.130   1.728   4.044
 3991SOL     OW12871   6.733   2.442   3.792
 3991SOL    HW112872   6.695   2.483   3.874
 3991SOL    HW212873   6.727   2.342   3.799
 3992SOL     OW12874   4.593   1.798   6.371
 3992SOL    HW112875   4.614   1.809   6.468
 3992SOL    HW212876   4.549   1.882   6.337
 3993SOL     OW12877   1.794   1.849   3.571
 3993SOL    HW112878   1.767   1.757   3.599
 3993SOL    HW212879   1.844   1.844   3.484
 3994SOL     OW12880   1.771   2.452   4.570
 3994SOL    HW112881   1.741   2.385   4.638
 3994SOL    HW212882   1.761   2.413   4.479
 3995SOL     OW12883   2.394   4.399   3.998
 3995SOL    HW112884   2.325   4.469   4.016
 3995SOL    HW212885   2.484   4.443   3.987
 3996SOL     OW12886   1.436   0.782   5.052
 3996SOL    HW112887   1.436   0.793   5.151
 3996SOL    HW212888   1.433   0.872   5.008
 3997SOL     OW12889   5.108   3.596   3.630
 3997SOL    HW112890   5.086   3.678   3.683
 3997SOL    HW212891   5.166   3.536   3.686
 3998SOL     OW12892   5.277   1.870   2.143
 3998SOL    HW112893   5.206   1.902   2.205
 3998SOL    HW212894   5.338   1.807   2.191
 3999SOL     OW12895   5.758   3.756   3.361
 3999SOL    HW112896   5.684   3.813   3.397
 3999SOL    HW212897   5.846   3.791   3.394
 4000SOL     OW12898   3.271   5.765   2.630
 4000SOL    HW112899   3.263   5.847   2.573
 4000SOL    HW212900   3.184   5.747   2.675
 4001SOL     OW12901   2.352   2.561   4.952
 4001SOL    HW112902   2.349   2.498   4.875
 4001SOL    HW212903   2.317   2.651   4.922
 4002SOL     OW12904   3.584   3.715   6.113
 4002SOL    HW112905   3.654   3.652   6.147
 4002SOL    HW212906   3.578   3.709   6.013
 4003SOL     OW12907   2.395   0.760   5.949
 4003SOL    HW112908   2.432   0.710   6.028
 4003SOL    HW212909   2.420   0.856   5.955
 4004SOL     OW12910   5.997   2.942   4.178
 4004SOL    HW112911   5.969   3.038   4.172
 4004SOL    HW212912   5.919   2.886   4.205
 4005SOL     OW12913   4.948   5.072   1.414
 4005SOL    HW112914   4.908   5.162   1.397
 4005SOL    HW212915   5.035   5.082   1.462
 4006SOL     OW12916   4.466   4.761   2.294
 4006SOL    HW112917   4.429   4.676   2.330
 4006SOL    HW212918   4.555   4.780   2.335
 4007SOL     OW12919   0.457   2.635   2.154
 4007SOL    HW112920   0.409   2.607   2.238
 4007SOL    HW212921   0.499   2.724   2.168
 4008SOL     OW12922   3.824   1.265   5.965
 4008SOL    HW112923   3.840   1.176   5.924
 4008SOL    HW212924   3.910   1.316   5.972
 4009SOL     OW12925   4.434   2.639   0.533
 4009SOL    HW112926   4.457   2.676   0.443
 4009SOL    HW212927   4.494   2.679   0.602
 4010SOL     OW12928   2.367   3.092   1.698
 4010SOL    HW112929   2.453   3.042   1.692
 4010SOL    HW212930   2.382   3.188   1.673
 4011SOL     OW12931   1.021   6.909   2.526
 4011SOL    HW112932   1.041   6.867   2.438
 4011SOL    HW212933   0.949   6.858   2.572
 4012SOL     OW12934   4.423   5.299   2.296
 4012SOL    HW112935   4.451   5.363   2.368
 4012SOL    HW212936   4.332   5.264   2.316
 4013SOL     OW12937   2.922   0.595   0.861
 4013SOL    HW112938   2.949   0.538   0.783
 4013SOL    HW212939   2.979   0.572   0.940
 4014SOL     OW12940   4.001   5.299   4.064
 4014SOL    HW112941   3.930   5.271   3.999
 4014SOL    HW212942   3.967   5.289   4.157
 4015SOL     OW12943   4.187   4.694   6.306
 4015SOL    HW112944   4.098   4.655   6.333
 4015SOL    HW212945   4.171   4.772   6.245
 4016SOL     OW12946   1.607   5.243   7.019
 4016SOL    HW112947   1.644   5.286   0.077
 4016SOL    HW212948   1.510   5.267   7.010
 4017SOL     OW12949   0.436   6.225   6.530
 4017SOL    HW112950   0.422   6.236   6.432
 4017SOL    HW212951   0.528   6.188   6.546
 4018SOL     OW12952   5.206   6.272   0.982
 4018SOL    HW112953   5.286   6.230   0.939
 4018SOL    HW212954   5.235   6.334   1.054
 4019SOL     OW12955   6.275   3.783   2.716
 4019SOL    HW112956   6.266   3.823   2.625
 4019SOL    HW212957   6.303   3.855   2.781
 4020SOL     OW12958   0.472   2.802   5.834
 4020SOL    HW112959   0.542   2.840   5.774
 4020SOL    HW212960   0.421   2.731   5.785
 4021SOL     OW12961   3.178   3.701   5.153
 4021SOL    HW112962   3.118   3.623   5.170
 4021SOL    HW212963   3.122   3.784   5.143
 4022SOL     OW12964   4.551   0.003   6.474
 4022SOL    HW112965   4.594   6.945   6.438
 4022SOL    HW212966   4.556   0.075   6.405
 4023SOL     OW12967   6.861   0.558   4.019
 4023SOL    HW112968   6.813   0.566   3.932
 4023SOL    HW212969   6.938   0.622   4.020
 4024SOL     OW12970   1.961   5.506   4.222
 4024SOL    HW112971   1.947   5.409   4.206
 4024SOL    HW212972   1.894   5.559   4.169
 4025SOL     OW12973   0.460   6.364   4.303
 4025SOL    HW112974   0.463   6.278   4.354
 4025SOL    HW212975   0.532   6.365   4.234
 4026SOL     OW12976   6.330   0.130   2.901
 4026SOL    HW112977   6.323   0.058   2.832
 4026SOL    HW212978   6.268   0.109   2.977
 4027SOL     OW12979   3.130   2.706   0.973
 4027SOL    HW112980   3.145   2.754   0.887
 4027SOL    HW212981   3.037   2.669   0.975
 4028SOL     OW12982   2.689   2.104   3.090
 4028SOL    HW112983   2.592   2.102   3.066
 4028SOL    HW212984   2.733   2.021   3.056
 4029SOL     OW12985   3.175   4.844   5.780
 4029SOL    HW112986   3.150   4.791   5.700
 4029SOL    HW212987   3.261   4.809   5.819
 4030SOL     OW12988   1.320   1.503   1.651
 4030SOL    HW112989   1.389   1.514   1.722
 4030SOL    HW212990   1.355   1.535   1.563
 4031SOL     OW12991   5.036   6.172   3.375
 4031SOL    HW112992   4.978   6.190   3.454
 4031SOL    HW212993   5.087   6.087   3.389
 4032SOL     OW12994   6.161   0.523   2.645
 4032SOL    HW112995   6.080   0.478   2.607
 4032SOL    HW212996   6.229   0.453   2.669
 4033SOL     OW12997   2.312   3.583   1.410
 4033SOL    HW112998   2.240   3.635   1.456
 4033SOL    HW212999   2.386   3.645   1.385
 4034SOL     OW13000   6.767   1.325   4.427
 4034SOL    HW113001   6.694   1.372   4.378
 4034SOL    HW213002   6.741   1.230   4.443
 4035SOL     OW13003   6.204   2.349   0.593
 4035SOL    HW113004   6.234   2.282   0.660
 4035SOL    HW213005   6.114   2.385   0.619
 4036SOL     OW13006   4.862   5.809   2.532
 4036SOL    HW113007   4.913   5.867   2.470
 4036SOL    HW213008   4.878   5.713   2.509
 4037SOL     OW13009   2.468   1.548   0.519
 4037SOL    HW113010   2.478   1.639   0.479
 4037SOL    HW213011   2.556   1.501   0.517
 4038SOL     OW13012   4.507   3.399   1.690
 4038SOL    HW113013   4.606   3.389   1.698
 4038SOL    HW213014   4.481   3.403   1.594
 4039SOL     OW13015   4.898   4.424   1.721
 4039SOL    HW113016   4.908   4.465   1.812
 4039SOL    HW213017   4.811   4.373   1.718
 4040SOL     OW13018   3.623   0.012   6.038
 4040SOL    HW113019   3.689   0.067   6.089
 4040SOL    HW213020   3.600   6.954   6.091
 4041SOL     OW13021   1.465   4.838   1.499
 4041SOL    HW113022   1.484   4.831   1.401
 4041SOL    HW213023   1.393   4.905   1.515
 4042SOL     OW13024   6.242   5.821   3.181
 4042SOL    HW113025   6.172   5.754   3.157
 4042SOL    HW213026   6.332   5.784   3.160
 4043SOL     OW13027   5.715   1.632   4.507
 4043SOL    HW113028   5.661   1.689   4.569
 4043SOL    HW213029   5.813   1.651   4.521
 4044SOL     OW13030   4.799   7.011   3.467
 4044SOL    HW113031   4.820   0.045   3.389
 4044SOL    HW213032   4.705   0.002   3.496
 4045SOL     OW13033   2.940   5.828   5.365
 4045SOL    HW113034   2.968   5.824   5.269
 4045SOL    HW213035   2.850   5.787   5.376
 4046SOL     OW13036   1.186   1.993   4.180
 4046SOL    HW113037   1.226   1.953   4.262
 4046SOL    HW213038   1.097   2.033   4.202
 4047SOL     OW13039   1.677   2.027   0.888
 4047SOL    HW113040   1.700   2.109   0.941
 4047SOL    HW213041   1.646   1.955   0.950
 4048SOL     OW13042   5.172   1.896   1.900
 4048SOL    HW113043   5.146   1.991   1.882
 4048SOL    HW213044   5.195   1.886   1.997
 4049SOL     OW13045   5.971   4.912   6.255
 4049SOL    HW113046   6.065   4.929   6.225
 4049SOL    HW213047   5.908   4.964   6.199
 4050SOL     OW13048   1.241   6.823   1.178
 4050SOL    HW113049   1.267   6.897   1.116
 4050SOL    HW213050   1.316   6.803   1.241
 4051SOL     OW13051   3.870   2.019   6.729
 4051SOL    HW113052   3.966   2.027   6.701
 4051SOL    HW213053   3.812   2.069   6.664
 4052SOL     OW13054   6.973   1.023   2.682
 4052SOL    HW113055   6.896   1.016   2.618
 4052SOL    HW213056   0.027   1.065   2.636
 4053SOL     OW13057   3.114   5.471   4.157
 4053SOL    HW113058   3.169   5.390   4.139
 4053SOL    HW213059   3.066   5.461   4.244
 4054SOL     OW13060   6.243   3.579   1.768
 4054SOL    HW113061   6.307   3.547   1.700
 4054SOL    HW213062   6.158   3.527   1.762
 4055SOL     OW13063   3.140   3.275   6.487
 4055SOL    HW113064   3.128   3.338   6.564
 4055SOL    HW213065   3.180   3.189   6.520
 4056SOL     OW13066   3.439   4.062   1.154
 4056SOL    HW113067   3.379   4.039   1.078
 4056SOL    HW213068   3.423   3.999   1.230
 4057SOL     OW13069   5.636   2.733   1.694
 4057SOL    HW113070   5.679   2.811   1.740
 4057SOL    HW213071   5.560   2.765   1.638
 4058SOL     OW13072   2.076   0.174   3.948
 4058SOL    HW113073   2.087   0.241   4.021
 4058SOL    HW213074   2.024   0.215   3.873
 4059SOL     OW13075   1.510   2.329   3.563
 4059SOL    HW113076   1.438   2.290   3.619
 4059SOL    HW213077   1.490   2.425   3.544
 4060SOL     OW13078   5.303   5.707   4.671
 4060SOL    HW113079   5.384   5.648   4.658
 4060SOL    HW213080   5.231   5.654   4.715
 4061SOL     OW13081   3.074   5.025   1.638
 4061SOL    HW113082   3.020   4.941   1.639
 4061SOL    HW213083   3.153   5.012   1.579
 4062SOL     OW13084   2.090   2.560   2.206
 4062SOL    HW113085   2.027   2.637   2.205
 4062SOL    HW213086   2.060   2.491   2.140
 4063SOL     OW13087   6.450   5.570   6.109
 4063SOL    HW113088   6.486   5.550   6.018
 4063SOL    HW213089   6.356   5.603   6.101
 4064SOL     OW13090   2.140   6.661   3.604
 4064SOL    HW113091   2.177   6.754   3.599
 4064SOL    HW213092   2.070   6.657   3.674
 4065SOL     OW13093   0.169   0.022   0.970
 4065SOL    HW113094   0.133   6.962   0.931
 4065SOL    HW213095   0.269   0.022   0.966
 4066SOL     OW13096   5.238   5.807   3.157
 4066SOL    HW113097   5.146   5.846   3.159
 4066SOL    HW213098   5.272   5.797   3.250
 4067SOL     OW13099   6.281   3.092   3.200
 4067SOL    HW113100   6.234   3.066   3.116
 4067SOL    HW213101   6.367   3.041   3.207
 4068SOL     OW13102   3.242   0.770   4.808
 4068SOL    HW113103   3.242   0.747   4.906
 4068SOL    HW213104   3.247   0.869   4.797
 4069SOL     OW13105   3.011   5.080   5.826
 4069SOL    HW113106   3.062   5.017   5.767
 4069SOL    HW213107   2.988   5.163   5.774
 4070SOL     OW13108   0.292   3.023   2.109
 4070SOL    HW113109   0.357   3.030   2.033
 4070SOL    HW213110   0.255   2.931   2.113
 4071SOL     OW13111   1.345   0.472   5.484
 4071SOL    HW113112   1.427   0.421   5.457
 4071SOL    HW213113   1.287   0.488   5.404
 4072SOL     OW13114   0.369   5.970   4.286
 4072SOL    HW113115   0.369   5.995   4.190
 4072SOL    HW213116   0.281   5.929   4.310
 4073SOL     OW13117   2.312   6.264   6.222
 4073SOL    HW113118   2.308   6.254   6.122
 4073SOL    HW213119   2.227   6.304   6.255
 4074SOL     OW13120   6.484   2.817   1.915
 4074SOL    HW113121   6.528   2.907   1.923
 4074SOL    HW213122   6.538   2.759   1.854
 4075SOL     OW13123   3.916   1.877   2.718
 4075SOL    HW113124   3.936   1.974   2.707
 4075SOL    HW213125   3.841   1.865   2.784
 4076SOL     OW13126   2.876   3.125   5.757
 4076SOL    HW113127   2.908   3.031   5.749
 4076SOL    HW213128   2.954   3.186   5.771
 4077SOL     OW13129   3.959   0.629   0.425
 4077SOL    HW113130   4.012   0.712   0.443
 4077SOL    HW213131   3.889   0.618   0.496
 4078SOL     OW13132   6.800   5.657   2.059
 4078SOL    HW113133   6.834   5.582   2.001
 4078SOL    HW213134   6.833   5.744   2.024
 4079SOL     OW13135   1.023   2.142   4.330
 4079SOL    HW113136   1.059   2.229   4.297
 4079SOL    HW213137   0.925   2.152   4.350
 4080SOL     OW13138   2.919   4.081   6.795
 4080SOL    HW113139   2.897   4.002   6.852
 4080SOL    HW213140   2.975   4.052   6.718
 4081SOL     OW13141   2.245   1.832   4.744
 4081SOL    HW113142   2.190   1.770   4.688
 4081SOL    HW213143   2.334   1.790   4.762
 4082SOL     OW13144   1.720   3.326   0.181
 4082SOL    HW113145   1.684   3.309   0.273
 4082SOL    HW213146   1.707   3.244   0.125
 4083SOL     OW13147   6.785   4.504   1.735
 4083SOL    HW113148   6.782   4.412   1.776
 4083SOL    HW213149   6.863   4.510   1.673
 4084SOL     OW13150   4.477   2.466   3.245
 4084SOL    HW113151   4.393   2.447   3.196
 4084SOL    HW213152   4.528   2.381   3.260
 4085SOL     OW13153   2.444   5.999   0.563
 4085SOL    HW113154   2.452   5.972   0.659
 4085SOL    HW213155   2.532   6.032   0.529
 4086SOL     OW13156   0.791   5.186   1.778
 4086SOL    HW113157   0.787   5.245   1.697
 4086SOL    HW213158   0.778   5.241   1.860
 4087SOL     OW13159   1.471   1.881   3.392
 4087SOL    HW113160   1.406   1.831   3.449
 4087SOL    HW213161   1.522   1.946   3.449
 4088SOL     OW13162   6.116   0.933   6.645
 4088SOL    HW113163   6.206   0.893   6.665
 4088SOL    HW213164   6.087   0.989   6.722
 4089SOL     OW13165   5.534   4.696   3.719
 4089SOL    HW113166   5.582   4.690   3.806
 4089SOL    HW213167   5.448   4.744   3.731
 4090SOL     OW13168   1.235   4.937   5.052
 4090SOL    HW113169   1.225   5.036   5.040
 4090SOL    HW213170   1.318   4.918   5.104
 4091SOL     OW13171   0.525   6.306   6.898
 4091SOL    HW113172   0.565   6.366   6.967
 4091SOL    HW213173   0.597   6.268   6.840
 4092SOL     OW13174   5.529   2.868   4.407
 4092SOL    HW113175   5.561   2.774   4.420
 4092SOL    HW213176   5.487   2.877   4.316
 4093SOL     OW13177   4.603   6.094   2.022
 4093SOL    HW113178   4.635   6.125   2.111
 4093SOL    HW213179   4.678   6.052   1.971
 4094SOL     OW13180   1.778   5.269   5.900
 4094SOL    HW113181   1.877   5.268   5.887
 4094SOL    HW213182   1.756   5.235   5.992
 4095SOL     OW13183   0.484   4.464   0.688
 4095SOL    HW113184   0.410   4.399   0.708
 4095SOL    HW213185   0.446   4.548   0.650
 4096SOL     OW13186   4.878   0.661   6.175
 4096SOL    HW113187   4.858   0.622   6.265
 4096SOL    HW213188   4.903   0.757   6.185
 4097SOL     OW13189   4.116   4.868   4.642
 4097SOL    HW113190   4.019   4.879   4.620
 4097SOL    HW213191   4.128   4.872   4.742
 4098SOL     OW13192   0.366   2.198   2.009
 4098SOL    HW113193   0.350   2.118   1.951
 4098SOL    HW213194   0.279   2.230   2.047
 4099SOL     OW13195   3.824   5.192   1.520
 4099SOL    HW113196   3.895   5.141   1.471
 4099SOL    HW213197   3.743   5.199   1.463
 4100SOL     OW13198   6.910   6.590   4.320
 4100SOL    HW113199   6.896   6.495   4.292
 4100SOL    HW213200   6.821   6.632   4.341
 4101SOL     OW13201   6.842   0.898   6.806
 4101SOL    HW113202   6.818   0.982   6.757
 4101SOL    HW213203   6.880   0.922   6.895
 4102SOL     OW13204   0.239   1.002   0.420
 4102SOL    HW113205   0.325   0.995   0.369
 4102SOL    HW213206   0.179   1.068   0.374
 4103SOL     OW13207   0.534   6.855   0.213
 4103SOL    HW113208   0.590   6.897   0.141
 4103SOL    HW213209   0.552   6.901   0.300
 4104SOL     OW13210   6.995   5.316   3.036
 4104SOL    HW113211   6.974   5.279   2.946
 4104SOL    HW213212   6.911   5.342   3.083
 4105SOL     OW13213   5.283   0.188   2.104
 4105SOL    HW113214   5.328   0.146   2.182
 4105SOL    HW213215   5.293   0.129   2.024
 4106SOL     OW13216   6.615   3.080   2.919
 4106SOL    HW113217   6.587   3.086   3.014
 4106SOL    HW213218   6.554   3.018   2.869
 4107SOL     OW13219   1.072   5.090   1.145
 4107SOL    HW113220   1.147   5.143   1.105
 4107SOL    HW213221   1.014   5.151   1.198
 4108SOL     OW13222   6.536   5.459   4.478
 4108SOL    HW113223   6.594   5.540   4.463
 4108SOL    HW213224   6.472   5.478   4.552
 4109SOL     OW13225   6.467   6.584   4.526
 4109SOL    HW113226   6.520   6.609   4.607
 4109SOL    HW213227   6.439   6.488   4.532
 4110SOL     OW13228   4.363   3.957   5.392
 4110SOL    HW113229   4.457   3.979   5.415
 4110SOL    HW213230   4.302   3.990   5.465
 4111SOL     OW13231   5.297   4.001   6.816
 4111SOL    HW113232   5.394   4.025   6.816
 4111SOL    HW213233   5.282   3.924   6.878
 4112SOL     OW13234   5.020   6.097   4.883
 4112SOL    HW113235   5.005   6.196   4.878
 4112SOL    HW213236   4.977   6.060   4.965
 4113SOL     OW13237   5.333   5.736   5.264
 4113SOL    HW113238   5.402   5.763   5.196
 4113SOL    HW213239   5.376   5.733   5.354
 4114SOL     OW13240   4.418   2.463   4.289
 4114SOL    HW113241   4.375   2.410   4.216
 4114SOL    HW213242   4.366   2.452   4.374
 4115SOL     OW13243   3.223   5.241   2.140
 4115SOL    HW113244   3.176   5.187   2.069
 4115SOL    HW213245   3.321   5.223   2.136
 4116SOL     OW13246   3.652   1.689   2.471
 4116SOL    HW113247   3.749   1.710   2.465
 4116SOL    HW213248   3.598   1.762   2.428
 4117SOL     OW13249   1.431   3.357   2.579
 4117SOL    HW113250   1.481   3.331   2.497
 4117SOL    HW213251   1.423   3.278   2.640
 4118SOL     OW13252   4.973   5.854   0.814
 4118SOL    HW113253   4.934   5.787   0.877
 4118SOL    HW213254   5.031   5.918   0.864
 4119SOL     OW13255   3.960   1.532   4.091
 4119SOL    HW113256   3.887   1.594   4.121
 4119SOL    HW213257   4.007   1.573   4.012
 4120SOL     OW13258   4.199   0.614   6.207
 4120SOL    HW113259   4.239   0.634   6.297
 4120SOL    HW213260   4.261   0.554   6.156
 4121SOL     OW13261   6.427   0.303   4.306
 4121SOL    HW113262   6.354   0.302   4.375
 4121SOL    HW213263   6.503   0.245   4.337
 4122SOL     OW13264   1.068   6.151   3.999
 4122SOL    HW113265   1.063   6.115   4.092
 4122SOL    HW213266   1.029   6.084   3.935
 4123SOL     OW13267   4.407   4.562   5.385
 4123SOL    HW113268   4.325   4.614   5.361
 4123SOL    HW213269   4.408   4.546   5.484
 4124SOL     OW13270   6.666   6.533   0.681
 4124SOL    HW113271   6.734   6.578   0.624
 4124SOL    HW213272   6.618   6.601   0.737
 4125SOL     OW13273   4.603   1.585   2.271
 4125SOL    HW113274   4.618   1.588   2.172
 4125SOL    HW213275   4.690   1.602   2.318
 4126SOL     OW13276   1.734   3.793   3.880
 4126SOL    HW113277   1.727   3.804   3.781
 4126SOL    HW213278   1.818   3.837   3.912
 4127SOL     OW13279   5.624   4.388   5.338
 4127SOL    HW113280   5.697   4.326   5.366
 4127SOL    HW213281   5.536   4.352   5.370
 4128SOL     OW13282   0.856   2.800   1.283
 4128SOL    HW113283   0.922   2.868   1.315
 4128SOL    HW213284   0.904   2.722   1.245
 4129SOL     OW13285   4.026   1.002   6.923
 4129SOL    HW113286   4.028   0.934   6.849
 4129SOL    HW213287   3.936   0.999   6.967
 4130SOL     OW13288   6.382   2.811   0.639
 4130SOL    HW113289   6.417   2.720   0.619
 4130SOL    HW213290   6.424   2.844   0.724
 4131SOL     OW13291   0.243   1.679   4.079
 4131SOL    HW113292   0.153   1.643   4.053
 4131SOL    HW213293   0.311   1.651   4.011
 4132SOL     OW13294   4.796   4.177   3.798
 4132SOL    HW113295   4.740   4.187   3.715
 4132SOL    HW213296   4.798   4.264   3.847
 4133SOL     OW13297   3.303   6.195   1.327
 4133SOL    HW113298   3.334   6.104   1.301
 4133SOL    HW213299   3.214   6.189   1.372
 4134SOL     OW13300   2.558   4.045   1.058
 4134SOL    HW113301   2.498   4.093   0.993
 4134SOL    HW213302   2.642   4.097   1.069
 4135SOL     OW13303   0.428   2.074   2.372
 4135SOL    HW113304   0.517   2.108   2.340
 4135SOL    HW213305   0.435   1.977   2.394
 4136SOL     OW13306   1.502   3.031   3.210
 4136SOL    HW113307   1.552   2.989   3.286
 4136SOL    HW213308   1.422   2.975   3.187
 4137SOL     OW13309   0.948   3.598   1.828
 4137SOL    HW113310   0.924   3.667   1.896
 4137SOL    HW213311   0.947   3.639   1.737
 4138SOL     OW13312   4.490   5.795   2.782
 4138SOL    HW113313   4.431   5.729   2.827
 4138SOL    HW213314   4.435   5.865   2.736
 4139SOL     OW13315   2.274   1.835   5.743
 4139SOL    HW113316   2.188   1.882   5.728
 4139SOL    HW213317   2.300   1.842   5.839
 4140SOL     OW13318   3.025   0.194   5.653
 4140SOL    HW113319   3.021   0.180   5.752
 4140SOL    HW213320   3.113   0.232   5.628
 4141SOL     OW13321   5.172   6.896   1.302
 4141SOL    HW113322   5.076   6.894   1.274
 4141SOL    HW213323   5.177   6.914   1.401
 4142SOL     OW13324   6.746   4.545   0.760
 4142SOL    HW113325   6.723   4.583   0.850
 4142SOL    HW213326   6.760   4.446   0.768
 4143SOL     OW13327   5.379   1.790   0.973
 4143SOL    HW113328   5.360   1.705   0.923
 4143SOL    HW213329   5.322   1.793   1.055
 4144SOL     OW13330   5.340   1.482   0.267
 4144SOL    HW113331   5.417   1.431   0.229
 4144SOL    HW213332   5.259   1.424   0.268
 4145SOL     OW13333   0.295   6.454   1.938
 4145SOL    HW113334   0.291   6.519   1.862
 4145SOL    HW213335   0.206   6.452   1.984
 4146SOL     OW13336   7.022   0.753   2.734
 4146SOL    HW113337   6.981   0.723   2.820
 4146SOL    HW213338   7.009   0.851   2.723
 4147SOL     OW13339   4.948   4.621   6.135
 4147SOL    HW113340   5.000   4.551   6.183
 4147SOL    HW213341   4.875   4.655   6.194
 4148SOL     OW13342   1.383   0.564   4.922
 4148SOL    HW113343   1.407   0.648   4.970
 4148SOL    HW213344   1.450   0.547   4.849
 4149SOL     OW13345   7.023   4.148   1.048
 4149SOL    HW113346   0.086   4.101   1.036
 4149SOL    HW213347   6.953   4.080   1.073
 4150SOL     OW13348   0.629   0.033   5.905
 4150SOL    HW113349   0.715   0.068   5.869
 4150SOL    HW213350   0.553   0.074   5.855
 4151SOL     OW13351   3.318   6.490   5.916
 4151SOL    HW113352   3.246   6.488   5.847
 4151SOL    HW213353   3.358   6.398   5.926
 4152SOL     OW13354   4.532   5.949   0.857
 4152SOL    HW113355   4.531   6.039   0.901
 4152SOL    HW213356   4.499   5.880   0.922
 4153SOL     OW13357   5.622   5.158   0.559
 4153SOL    HW113358   5.543   5.206   0.520
 4153SOL    HW213359   5.625   5.065   0.523
 4154SOL     OW13360   0.085   5.122   3.471
 4154SOL    HW113361   7.015   5.132   3.502
 4154SOL    HW213362   0.096   5.168   3.383
 4155SOL     OW13363   0.143   1.494   2.552
 4155SOL    HW113364   0.162   1.589   2.577
 4155SOL    HW213365   0.056   1.490   2.501
 4156SOL     OW13366   5.937   5.903   4.849
 4156SOL    HW113367   5.944   5.907   4.749
 4156SOL    HW213368   5.899   5.815   4.876
 4157SOL     OW13369   5.035   5.359   4.204
 4157SOL    HW113370   4.970   5.435   4.212
 4157SOL    HW213371   5.016   5.291   4.274
 4158SOL     OW13372   6.801   3.283   1.264
 4158SOL    HW113373   6.765   3.356   1.322
 4158SOL    HW213374   6.793   3.196   1.312
 4159SOL     OW13375   2.079   3.501   3.304
 4159SOL    HW113376   2.114   3.428   3.247
 4159SOL    HW213377   2.030   3.463   3.382
 4160SOL     OW13378   5.931   0.635   0.211
 4160SOL    HW113379   5.960   0.562   0.273
 4160SOL    HW213380   5.871   0.698   0.261
 4161SOL     OW13381   1.015   1.787   0.957
 4161SOL    HW113382   1.072   1.869   0.966
 4161SOL    HW213383   0.920   1.814   0.939
 4162SOL     OW13384   6.782   5.766   0.324
 4162SOL    HW113385   6.684   5.767   0.343
 4162SOL    HW213386   6.799   5.810   0.236
 4163SOL     OW13387   4.438   0.122   3.368
 4163SOL    HW113388   4.417   0.191   3.299
 4163SOL    HW213389   4.431   0.031   3.328
 4164SOL     OW13390   1.505   6.696   5.618
 4164SOL    HW113391   1.557   6.620   5.654
 4164SOL    HW213392   1.529   6.780   5.667
 4165SOL     OW13393   4.113   0.423   5.959
 4165SOL    HW113394   4.141   0.502   6.014
 4165SOL    HW213395   4.152   0.430   5.867
 4166SOL     OW13396   5.615   2.605   0.405
 4166SOL    HW113397   5.646   2.675   0.470
 4166SOL    HW213398   5.642   2.631   0.313
 4167SOL     OW13399   1.749   4.071   1.192
 4167SOL    HW113400   1.782   3.978   1.173
 4167SOL    HW213401   1.806   4.137   1.145
 4168SOL     OW13402   0.011   4.361   0.874
 4168SOL    HW113403   0.006   4.281   0.935
 4168SOL    HW213404   7.010   4.443   0.925
 4169SOL     OW13405   6.038   4.234   4.821
 4169SOL    HW113406   6.017   4.320   4.869
 4169SOL    HW213407   6.093   4.253   4.740
 4170SOL     OW13408   4.283   3.965   5.889
 4170SOL    HW113409   4.242   4.043   5.842
 4170SOL    HW213410   4.296   3.987   5.986
 4171SOL     OW13411   6.064   6.158   0.695
 4171SOL    HW113412   6.131   6.123   0.760
 4171SOL    HW213413   6.021   6.240   0.732
 4172SOL     OW13414   1.388   1.746   5.636
 4172SOL    HW113415   1.405   1.707   5.726
 4172SOL    HW213416   1.473   1.748   5.583
 4173SOL     OW13417   5.089   3.940   5.142
 4173SOL    HW113418   5.049   3.865   5.089
 4173SOL    HW213419   5.079   3.922   5.239
 4174SOL     OW13420   5.075   1.573   3.182
 4174SOL    HW113421   5.099   1.480   3.211
 4174SOL    HW213422   5.021   1.569   3.099
 4175SOL     OW13423   2.225   5.494   4.601
 4175SOL    HW113424   2.175   5.428   4.545
 4175SOL    HW213425   2.221   5.467   4.697
 4176SOL     OW13426   2.890   5.818   2.018
 4176SOL    HW113427   2.985   5.845   2.037
 4176SOL    HW213428   2.848   5.885   1.957
 4177SOL     OW13429   6.435   4.579   5.071
 4177SOL    HW113430   6.531   4.586   5.095
 4177SOL    HW213431   6.399   4.491   5.101
 4178SOL     OW13432   4.693   0.505   4.181
 4178SOL    HW113433   4.719   0.601   4.169
 4178SOL    HW213434   4.774   0.447   4.174
 4179SOL     OW13435   5.107   2.998   3.488
 4179SOL    HW113436   5.088   3.045   3.574
 4179SOL    HW213437   5.121   3.065   3.416
 4180SOL     OW13438   5.328   4.634   0.902
 4180SOL    HW113439   5.245   4.644   0.847
 4180SOL    HW213440   5.404   4.606   0.843
 4181SOL     OW13441   2.783   1.261   0.692
 4181SOL    HW113442   2.759   1.355   0.717
 4181SOL    HW213443   2.880   1.257   0.668
 4182SOL     OW13444   0.827   6.794   3.607
 4182SOL    HW113445   0.784   6.731   3.542
 4182SOL    HW213446   0.894   6.744   3.661
 4183SOL     OW13447   2.850   1.539   0.002
 4183SOL    HW113448   2.800   1.579   6.950
 4183SOL    HW213449   2.804   1.456   0.032
 4184SOL     OW13450   4.749   5.657   1.355
 4184SOL    HW113451   4.769   5.567   1.315
 4184SOL    HW213452   4.651   5.674   1.351
 4185SOL     OW13453   0.264   4.942   2.120
 4185SOL    HW113454   0.255   4.984   2.210
 4185SOL    HW213455   0.235   4.846   2.125
 4186SOL     OW13456   2.098   5.051   0.008
 4186SOL    HW113457   2.084   5.103   6.948
 4186SOL    HW213458   2.039   4.970   0.008
 4187SOL     OW13459   3.494   2.928   5.622
 4187SOL    HW113460   3.422   2.879   5.672
 4187SOL    HW213461   3.454   3.007   5.576
 4188SOL     OW13462   4.610   6.734   4.658
 4188SOL    HW113463   4.565   6.663   4.712
 4188SOL    HW213464   4.665   6.690   4.586
 4189SOL     OW13465   2.593   5.089   5.387
 4189SOL    HW113466   2.558   5.027   5.317
 4189SOL    HW213467   2.564   5.183   5.368
 4190SOL     OW13468   0.926   0.769   6.834
 4190SOL    HW113469   0.996   0.714   6.880
 4190SOL    HW213470   0.873   0.820   6.902
 4191SOL     OW13471   4.701   4.210   3.397
 4191SOL    HW113472   4.715   4.236   3.302
 4191SOL    HW213473   4.729   4.115   3.410
 4192SOL     OW13474   1.080   0.815   4.343
 4192SOL    HW113475   1.004   0.847   4.287
 4192SOL    HW213476   1.158   0.877   4.334
 4193SOL     OW13477   0.996   0.947   1.750
 4193SOL    HW113478   0.920   0.972   1.809
 4193SOL    HW213479   0.986   0.993   1.661
 4194SOL     OW13480   5.331   0.547   4.546
 4194SOL    HW113481   5.290   0.496   4.622
 4194SOL    HW213482   5.429   0.555   4.561
 4195SOL     OW13483   3.486   6.853   1.977
 4195SOL    HW113484   3.554   6.921   1.947
 4195SOL    HW213485   3.531   6.785   2.034
 4196SOL     OW13486   5.578   2.202   3.478
 4196SOL    HW113487   5.665   2.200   3.527
 4196SOL    HW213488   5.517   2.269   3.520
 4197SOL     OW13489   5.292   5.833   6.217
 4197SOL    HW113490   5.319   5.775   6.294
 4197SOL    HW213491   5.221   5.787   6.164
 4198SOL     OW13492   5.843   2.254   0.070
 4198SOL    HW113493   5.829   2.155   0.065
 4198SOL    HW213494   5.755   2.300   0.070
 4199SOL     OW13495   2.204   2.837   5.904
 4199SOL    HW113496   2.268   2.914   5.913
 4199SOL    HW213497   2.205   2.804   5.810
 4200SOL     OW13498   3.934   6.622   6.108
 4200SOL    HW113499   3.918   6.700   6.168
 4200SOL    HW213500   3.855   6.607   6.049
 4201SOL     OW13501   5.757   5.937   3.710
 4201SOL    HW113502   5.825   5.984   3.654
 4201SOL    HW213503   5.799   5.857   3.754
 4202SOL     OW13504   4.165   5.261   5.915
 4202SOL    HW113505   4.143   5.301   6.004
 4202SOL    HW213506   4.083   5.215   5.879
 4203SOL     OW13507   4.805   5.013   0.467
 4203SOL    HW113508   4.731   4.998   0.401
 4203SOL    HW213509   4.793   4.950   0.544
 4204SOL     OW13510   4.012   3.796   2.766
 4204SOL    HW113511   3.950   3.865   2.730
 4204SOL    HW213512   4.068   3.759   2.692
 4205SOL     OW13513   3.657   5.640   3.580
 4205SOL    HW113514   3.712   5.598   3.653
 4205SOL    HW213515   3.625   5.569   3.518
 4206SOL     OW13516   6.881   0.038   6.124
 4206SOL    HW113517   6.827   0.065   6.204
 4206SOL    HW213518   6.822   0.041   6.043
 4207SOL     OW13519   1.619   1.699   0.868
 4207SOL    HW113520   1.593   1.711   0.963
 4207SOL    HW213521   1.538   1.708   0.809
 4208SOL     OW13522   0.685   3.338   5.881
 4208SOL    HW113523   0.735   3.410   5.930
 4208SOL    HW213524   0.589   3.340   5.908
 4209SOL     OW13525   0.666   0.684   4.999
 4209SOL    HW113526   0.660   0.612   5.069
 4209SOL    HW213527   0.730   0.755   5.029
 4210SOL     OW13528   2.900   3.233   2.538
 4210SOL    HW113529   2.971   3.163   2.540
 4210SOL    HW213530   2.817   3.196   2.495
 4211SOL     OW13531   4.289   5.658   5.836
 4211SOL    HW113532   4.243   5.634   5.751
 4211SOL    HW213533   4.301   5.757   5.841
 4212SOL     OW13534   5.723   1.992   3.057
 4212SOL    HW113535   5.654   2.027   2.994
 4212SOL    HW213536   5.814   2.010   3.020
 4213SOL     OW13537   2.336   1.185   1.550
 4213SOL    HW113538   2.390   1.269   1.554
 4213SOL    HW213539   2.252   1.196   1.604
 4214SOL     OW13540   1.724   4.554   5.108
 4214SOL    HW113541   1.630   4.526   5.128
 4214SOL    HW213542   1.724   4.647   5.072
 4215SOL     OW13543   6.610   6.052   5.105
 4215SOL    HW113544   6.525   6.059   5.054
 4215SOL    HW213545   6.688   6.066   5.043
 4216SOL     OW13546   1.023   1.423   2.682
 4216SOL    HW113547   1.066   1.340   2.648
 4216SOL    HW213548   1.093   1.485   2.718
 4217SOL     OW13549   0.986   0.777   2.246
 4217SOL    HW113550   1.038   0.854   2.209
 4217SOL    HW213551   0.890   0.787   2.222
 4218SOL     OW13552   4.488   0.914   1.827
 4218SOL    HW113553   4.453   0.838   1.772
 4218SOL    HW213554   4.480   0.890   1.924
 4219SOL     OW13555   2.980   5.217   3.691
 4219SOL    HW113556   2.938   5.248   3.606
 4219SOL    HW213557   3.066   5.266   3.706
 4220SOL     OW13558   5.095   2.870   3.956
 4220SOL    HW113559   5.040   2.843   4.035
 4220SOL    HW213560   5.189   2.840   3.969
 4221SOL     OW13561   6.355   5.151   6.740
 4221SOL    HW113562   6.274   5.209   6.733
 4221SOL    HW213563   6.388   5.128   6.649
 4222SOL     OW13564   6.015   1.456   3.527
 4222SOL    HW113565   5.996   1.554   3.521
 4222SOL    HW213566   5.963   1.407   3.457
 4223SOL     OW13567   3.543   3.326   6.096
 4223SOL    HW113568   3.502   3.234   6.100
 4223SOL    HW213569   3.499   3.379   6.024
 4224SOL     OW13570   5.273   3.409   3.461
 4224SOL    HW113571   5.200   3.377   3.522
 4224SOL    HW213572   5.244   3.495   3.417
 4225SOL     OW13573   3.971   0.688   5.855
 4225SOL    HW113574   4.010   0.734   5.935
 4225SOL    HW213575   3.910   0.615   5.886
 4226SOL     OW13576   0.929   0.307   2.375
 4226SOL    HW113577   0.883   0.354   2.449
 4226SOL    HW213578   0.964   0.374   2.309
 4227SOL     OW13579   3.669   4.721   0.460
 4227SOL    HW113580   3.601   4.720   0.387
 4227SOL    HW213581   3.649   4.648   0.525
 4228SOL     OW13582   0.859   3.573   4.939
 4228SOL    HW113583   0.867   3.567   4.840
 4228SOL    HW213584   0.763   3.590   4.964
 4229SOL     OW13585   4.862   5.471   5.615
 4229SOL    HW113586   4.951   5.495   5.576
 4229SOL    HW213587   4.791   5.526   5.572
 4230SOL     OW13588   1.249   6.816   3.262
 4230SOL    HW113589   1.264   6.885   3.192
 4230SOL    HW213590   1.338   6.781   3.294
 4231SOL     OW13591   6.251   6.039   5.208
 4231SOL    HW113592   6.292   6.046   5.117
 4231SOL    HW213593   6.176   5.974   5.206
 4232SOL     OW13594   6.600   4.862   2.541
 4232SOL    HW113595   6.631   4.832   2.451
 4232SOL    HW213596   6.668   4.836   2.610
 4233SOL     OW13597   6.706   6.995   6.339
 4233SOL    HW113598   6.663   6.904   6.343
 4233SOL    HW213599   6.640   0.036   6.302
 4234SOL     OW13600   2.324   6.873   5.365
 4234SOL    HW113601   2.409   6.825   5.342
 4234SOL    HW213602   2.264   6.875   5.285
 4235SOL     OW13603   5.800   3.394   6.221
 4235SOL    HW113604   5.727   3.448   6.264
 4235SOL    HW213605   5.777   3.378   6.125
 4236SOL     OW13606   0.012   3.832   2.882
 4236SOL    HW113607   0.023   3.888   2.799
 4236SOL    HW213608   7.017   3.892   2.960
 4237SOL     OW13609   6.136   5.332   2.900
 4237SOL    HW113610   6.088   5.358   2.817
 4237SOL    HW213611   6.081   5.358   2.980
 4238SOL     OW13612   3.103   5.235   2.544
 4238SOL    HW113613   3.051   5.251   2.460
 4238SOL    HW213614   3.045   5.186   2.610
 4239SOL     OW13615   5.487   1.552   2.978
 4239SOL    HW113616   5.403   1.578   2.931
 4239SOL    HW213617   5.504   1.615   3.054
 4240SOL     OW13618   2.272   0.323   0.226
 4240SOL    HW113619   2.173   0.332   0.230
 4240SOL    HW213620   2.305   0.282   0.311
 4241SOL     OW13621   6.148   0.516   6.971
 4241SOL    HW113622   6.180   0.585   0.012
 4241SOL    HW213623   6.048   0.510   6.974
 4242SOL     OW13624   2.184   0.544   3.254
 4242SOL    HW113625   2.176   0.583   3.346
 4242SOL    HW213626   2.123   0.592   3.191
 4243SOL     OW13627   6.172   3.495   3.354
 4243SOL    HW113628   6.267   3.470   3.340
 4243SOL    HW213629   6.143   3.558   3.282
 4244SOL     OW13630   4.846   4.654   1.938
 4244SOL    HW113631   4.758   4.609   1.923
 4244SOL    HW213632   4.872   4.706   1.857
 4245SOL     OW13633   6.633   0.955   6.013
 4245SOL    HW113634   6.560   1.020   6.035
 4245SOL    HW213635   6.658   0.903   6.094
 4246SOL     OW13636   6.282   3.363   2.672
 4246SOL    HW113637   6.192   3.403   2.689
 4246SOL    HW213638   6.307   3.304   2.748
 4247SOL     OW13639   2.318   4.610   3.435
 4247SOL    HW113640   2.263   4.526   3.428
 4247SOL    HW213641   2.299   4.669   3.356
 4248SOL     OW13642   2.144   1.615   3.835
 4248SOL    HW113643   2.110   1.653   3.749
 4248SOL    HW213644   2.110   1.522   3.845
 4249SOL     OW13645   5.451   1.815   4.297
 4249SOL    HW113646   5.430   1.747   4.367
 4249SOL    HW213647   5.467   1.769   4.209
 4250SOL     OW13648   0.147   5.910   3.830
 4250SOL    HW113649   0.097   5.987   3.792
 4250SOL    HW213650   0.119   5.826   3.785
 4251SOL     OW13651   5.803   3.856   1.466
 4251SOL    HW113652   5.781   3.908   1.383
 4251SOL    HW213653   5.746   3.774   1.469
 4252SOL     OW13654   6.632   6.706   6.348
 4252SOL    HW113655   6.604   6.660   6.264
 4252SOL    HW213656   6.602   6.652   6.427
 4253SOL     OW13657   3.132   6.455   0.716
 4253SOL    HW113658   3.190   6.385   0.759
 4253SOL    HW213659   3.054   6.411   0.673
 4254SOL     OW13660   1.073   3.240   2.681
 4254SOL    HW113661   1.123   3.318   2.719
 4254SOL    HW213662   1.087   3.236   2.582
 4255SOL     OW13663   6.817   4.573   3.932
 4255SOL    HW113664   6.866   4.531   3.856
 4255SOL    HW213665   6.845   4.668   3.942
 4256SOL     OW13666   1.490   6.118   1.037
 4256SOL    HW113667   1.395   6.140   1.059
 4256SOL    HW213668   1.493   6.058   0.957
 4257SOL     OW13669   3.337   0.831   4.032
 4257SOL    HW113670   3.296   0.921   4.017
 4257SOL    HW213671   3.289   0.784   4.107
 4258SOL     OW13672   3.390   5.864   1.279
 4258SOL    HW113673   3.466   5.928   1.275
 4258SOL    HW213674   3.411   5.784   1.222
 4259SOL     OW13675   1.814   0.607   0.927
 4259SOL    HW113676   1.774   0.698   0.911
 4259SOL    HW213677   1.742   0.540   0.936
 4260SOL     OW13678   5.922   0.405   2.559
 4260SOL    HW113679   5.879   0.336   2.618
 4260SOL    HW213680   5.852   0.470   2.529
 4261SOL     OW13681   1.923   1.043   2.483
 4261SOL    HW113682   1.949   1.057   2.579
 4261SOL    HW213683   1.845   1.101   2.460
 4262SOL     OW13684   0.754   3.855   6.865
 4262SOL    HW113685   0.655   3.859   6.849
 4262SOL    HW213686   0.776   3.773   6.918
 4263SOL     OW13687   2.805   0.681   3.028
 4263SOL    HW113688   2.840   0.730   2.948
 4263SOL    HW213689   2.802   0.743   3.106
 4264SOL     OW13690   6.370   1.903   4.468
 4264SOL    HW113691   6.367   1.830   4.400
 4264SOL    HW213692   6.400   1.988   4.425
 4265SOL     OW13693   4.213   0.803   0.377
 4265SOL    HW113694   4.209   0.857   0.292
 4265SOL    HW213695   4.238   0.709   0.356
 4266SOL     OW13696   1.592   6.473   6.260
 4266SOL    HW113697   1.585   6.435   6.167
 4266SOL    HW213698   1.500   6.488   6.296
 4267SOL     OW13699   2.166   3.810   3.712
 4267SOL    HW113700   2.104   3.740   3.746
 4267SOL    HW213701   2.200   3.784   3.621
 4268SOL     OW13702   1.379   5.928   6.645
 4268SOL    HW113703   1.395   5.960   6.738
 4268SOL    HW213704   1.447   5.969   6.584
 4269SOL     OW13705   3.059   0.344   2.464
 4269SOL    HW113706   2.981   0.407   2.465
 4269SOL    HW213707   3.025   0.251   2.475
 4270SOL     OW13708   4.088   3.681   3.005
 4270SOL    HW113709   4.049   3.727   2.925
 4270SOL    HW213710   4.146   3.605   2.975
 4271SOL     OW13711   6.343   1.188   6.925
 4271SOL    HW113712   6.325   1.094   6.951
 4271SOL    HW213713   6.258   1.231   6.892
 4272SOL     OW13714   6.874   1.877   4.543
 4272SOL    HW113715   6.879   1.783   4.577
 4272SOL    HW213716   6.782   1.896   4.510
 4273SOL     OW13717   3.888   6.791   5.279
 4273SOL    HW113718   3.982   6.803   5.247
 4273SOL    HW213719   3.866   6.861   5.346
 4274SOL     OW13720   0.923   0.231   1.322
 4274SOL    HW113721   0.930   0.287   1.239
 4274SOL    HW213722   0.834   0.245   1.365
 4275SOL     OW13723   6.519   2.117   4.599
 4275SOL    HW113724   6.551   2.068   4.518
 4275SOL    HW213725   6.563   2.079   4.680
 4276SOL     OW13726   2.710   5.319   3.706
 4276SOL    HW113727   2.686   5.382   3.779
 4276SOL    HW213728   2.777   5.363   3.645
 4277SOL     OW13729   6.323   4.709   3.339
 4277SOL    HW113730   6.364   4.673   3.256
 4277SOL    HW213731   6.291   4.633   3.397
 4278SOL     OW13732   0.251   6.594   4.793
 4278SOL    HW113733   0.220   6.537   4.869
 4278SOL    HW213734   0.209   6.562   4.708
 4279SOL     OW13735   3.383   0.990   3.432
 4279SOL    HW113736   3.400   0.923   3.360
 4279SOL    HW213737   3.405   0.949   3.521
 4280SOL     OW13738   5.563   6.981   5.999
 4280SOL    HW113739   5.658   6.999   5.976
 4280SOL    HW213740   5.557   6.898   6.055
 4281SOL     OW13741   6.795   4.638   2.932
 4281SOL    HW113742   6.762   4.727   2.902
 4281SOL    HW213743   6.883   4.649   2.978
 4282SOL     OW13744   3.510   4.704   0.247
 4282SOL    HW113745   3.453   4.756   0.184
 4282SOL    HW213746   3.569   4.642   0.195
 4283SOL     OW13747   1.924   0.606   3.423
 4283SOL    HW113748   1.923   0.698   3.463
 4283SOL    HW213749   1.831   0.579   3.399
 4284SOL     OW13750   3.622   3.717   1.270
 4284SOL    HW113751   3.660   3.642   1.325
 4284SOL    HW213752   3.648   3.704   1.174
 4285SOL     OW13753   1.917   0.619   5.715
 4285SOL    HW113754   1.930   0.697   5.653
 4285SOL    HW213755   1.976   0.629   5.795
 4286SOL     OW13756   5.594   6.424   5.971
 4286SOL    HW113757   5.677   6.476   5.990
 4286SOL    HW213758   5.527   6.483   5.925
 4287SOL     OW13759   5.515   0.507   6.036
 4287SOL    HW113760   5.565   0.592   6.027
 4287SOL    HW213761   5.557   0.437   5.978
 4288SOL     OW13762   0.665   5.757   2.689
 4288SOL    HW113763   0.728   5.782   2.762
 4288SOL    HW213764   0.648   5.837   2.631
 4289SOL     OW13765   6.570   3.402   6.554
 4289SOL    HW113766   6.476   3.382   6.526
 4289SOL    HW213767   6.573   3.414   6.653
 4290SOL     OW13768   1.566   6.664   3.868
 4290SOL    HW113769   1.628   6.595   3.905
 4290SOL    HW213770   1.617   6.727   3.810
 4291SOL     OW13771   4.509   3.993   0.314
 4291SOL    HW113772   4.438   4.003   0.384
 4291SOL    HW213773   4.582   3.934   0.348
 4292SOL     OW13774   6.102   3.012   0.265
 4292SOL    HW113775   6.043   2.935   0.242
 4292SOL    HW213776   6.195   2.995   0.231
 4293SOL     OW13777   2.868   3.062   6.846
 4293SOL    HW113778   2.863   2.996   6.771
 4293SOL    HW213779   2.814   3.143   6.822
 4294SOL     OW13780   2.347   1.506   6.267
 4294SOL    HW113781   2.363   1.462   6.355
 4294SOL    HW213782   2.422   1.486   6.205
 4295SOL     OW13783   3.585   6.115   4.919
 4295SOL    HW113784   3.548   6.051   4.851
 4295SOL    HW213785   3.536   6.104   5.006
 4296SOL     OW13786   3.421   6.685   0.641
 4296SOL    HW113787   3.430   6.720   0.734
 4296SOL    HW213788   3.432   6.759   0.575
 4297SOL     OW13789   5.362   0.270   1.010
 4297SOL    HW113790   5.283   0.268   1.072
 4297SOL    HW213791   5.353   0.198   0.942
 4298SOL     OW13792   4.368   5.307   0.836
 4298SOL    HW113793   4.308   5.262   0.903
 4298SOL    HW213794   4.404   5.239   0.773
 4299SOL     OW13795   1.730   3.358   6.495
 4299SOL    HW113796   1.697   3.291   6.429
 4299SOL    HW213797   1.749   3.313   6.582
 4300SOL     OW13798   3.149   6.669   0.316
 4300SOL    HW113799   3.152   6.683   0.415
 4300SOL    HW213800   3.221   6.723   0.273
 4301SOL     OW13801   4.644   0.244   1.409
 4301SOL    HW113802   4.655   0.145   1.418
 4301SOL    HW213803   4.682   0.289   1.490
 4302SOL     OW13804   0.264   0.109   5.959
 4302SOL    HW113805   0.225   0.035   5.904
 4302SOL    HW213806   0.195   0.145   6.021
 4303SOL     OW13807   0.020   4.828   3.903
 4303SOL    HW113808   0.114   4.800   3.882
 4303SOL    HW213809   0.008   4.925   3.882
 4304SOL     OW13810   3.296   2.910   2.651
 4304SOL    HW113811   3.277   2.866   2.563
 4304SOL    HW213812   3.380   2.871   2.690
 4305SOL     OW13813   0.771   6.645   5.878
 4305SOL    HW113814   0.783   6.695   5.963
 4305SOL    HW213815   0.774   6.546   5.897
 4306SOL     OW13816   4.300   5.078   4.959
 4306SOL    HW113817   4.396   5.052   4.949
 4306SOL    HW213818   4.244   4.996   4.970
 4307SOL     OW13819   5.909   3.626   6.061
 4307SOL    HW113820   5.810   3.617   6.047
 4307SOL    HW213821   5.936   3.573   6.141
 4308SOL     OW13822   6.050   4.784   1.201
 4308SOL    HW113823   5.978   4.723   1.235
 4308SOL    HW213824   6.011   4.874   1.182
 4309SOL     OW13825   1.066   1.369   0.600
 4309SOL    HW113826   1.152   1.338   0.559
 4309SOL    HW213827   1.061   1.469   0.595
 4310SOL     OW13828   1.828   2.403   2.088
 4310SOL    HW113829   1.742   2.353   2.090
 4310SOL    HW213830   1.905   2.339   2.089
 4311SOL     OW13831   1.616   6.597   2.684
 4311SOL    HW113832   1.596   6.620   2.589
 4311SOL    HW213833   1.705   6.552   2.690
 4312SOL     OW13834   1.141   6.278   2.040
 4312SOL    HW113835   1.145   6.210   2.113
 4312SOL    HW213836   1.052   6.272   1.994
 4313SOL     OW13837   4.957   1.810   1.060
 4313SOL    HW113838   4.876   1.768   1.101
 4313SOL    HW213839   4.969   1.774   0.968
 4314SOL     OW13840   5.914   1.137   4.310
 4314SOL    HW113841   5.998   1.121   4.257
 4314SOL    HW213842   5.934   1.198   4.387
 4315SOL     OW13843   1.991   0.309   3.050
 4315SOL    HW113844   1.905   0.359   3.059
 4315SOL    HW213845   2.022   0.280   3.140
 4316SOL     OW13846   5.058   1.092   1.771
 4316SOL    HW113847   5.115   1.126   1.696
 4316SOL    HW213848   4.976   1.148   1.779
 4317SOL     OW13849   5.292   2.378   5.604
 4317SOL    HW113850   5.380   2.411   5.569
 4317SOL    HW213851   5.256   2.307   5.543
 4318SOL     OW13852   0.436   2.252   4.926
 4318SOL    HW113853   0.514   2.314   4.932
 4318SOL    HW213854   0.468   2.158   4.927
 4319SOL     OW13855   1.886   1.431   0.442
 4319SOL    HW113856   1.803   1.417   0.495
 4319SOL    HW213857   1.956   1.366   0.471
 4320SOL     OW13858   4.348   5.002   0.834
 4320SOL    HW113859   4.309   5.052   0.757
 4320SOL    HW213860   4.275   4.971   0.895
 4321SOL     OW13861   0.555   5.329   5.280
 4321SOL    HW113862   0.520   5.399   5.342
 4321SOL    HW213863   0.556   5.241   5.327
 4322SOL     OW13864   6.290   2.850   0.136
 4322SOL    HW113865   6.271   2.828   0.041
 4322SOL    HW213866   6.384   2.882   0.145
 4323SOL     OW13867   4.621   3.936   6.961
 4323SOL    HW113868   4.546   3.875   6.935
 4323SOL    HW213869   4.588   4.002   0.004
 4324SOL     OW13870   6.012   4.555   6.642
 4324SOL    HW113871   6.001   4.456   6.641
 4324SOL    HW213872   6.075   4.581   6.716
 4325SOL     OW13873   2.567   1.530   1.381
 4325SOL    HW113874   2.644   1.580   1.421
 4325SOL    HW213875   2.593   1.434   1.366
 4326SOL     OW13876   4.515   4.675   3.110
 4326SOL    HW113877   4.473   4.652   3.022
 4326SOL    HW213878   4.578   4.602   3.137
 4327SOL     OW13879   5.631   5.957   1.784
 4327SOL    HW113880   5.702   6.005   1.835
 4327SOL    HW213881   5.666   5.868   1.755
 4328SOL     OW13882   4.422   4.271   5.809
 4328SOL    HW113883   4.487   4.328   5.759
 4328SOL    HW213884   4.437   4.282   5.908
 4329SOL     OW13885   4.732   2.451   5.358
 4329SOL    HW113886   4.759   2.368   5.407
 4329SOL    HW213887   4.805   2.519   5.364
 4330SOL     OW13888   1.677   6.280   4.645
 4330SOL    HW113889   1.681   6.240   4.736
 4330SOL    HW213890   1.589   6.257   4.602
 4331SOL     OW13891   6.479   1.485   1.852
 4331SOL    HW113892   6.457   1.396   1.812
 4331SOL    HW213893   6.408   1.551   1.827
 4332SOL     OW13894   5.041   2.809   2.535
 4332SOL    HW113895   5.123   2.866   2.541
 4332SOL    HW213896   4.962   2.866   2.510
 4333SOL     OW13897   4.717   1.002   5.633
 4333SOL    HW113898   4.662   0.946   5.694
 4333SOL    HW213899   4.739   1.089   5.677
 4334SOL     OW13900   1.622   2.044   2.610
 4334SOL    HW113901   1.624   2.112   2.536
 4334SOL    HW213902   1.620   1.953   2.571
 4335SOL     OW13903   3.076   3.961   2.251
 4335SOL    HW113904   3.171   3.943   2.225
 4335SOL    HW213905   3.047   4.049   2.215
 4336SOL     OW13906   3.380   6.632   6.143
 4336SOL    HW113907   3.332   6.582   6.072
 4336SOL    HW213908   3.330   6.716   6.164
 4337SOL     OW13909   1.101   4.352   0.694
 4337SOL    HW113910   1.039   4.407   0.751
 4337SOL    HW213911   1.092   4.380   0.599
 4338SOL     OW13912   6.348   6.806   6.276
 4338SOL    HW113913   6.361   6.719   6.322
 4338SOL    HW213914   6.285   6.795   6.199
 4339SOL     OW13915   4.413   3.248   5.594
 4339SOL    HW113916   4.485   3.186   5.563
 4339SOL    HW213917   4.403   3.240   5.693
 4340SOL     OW13918   6.460   3.173   1.273
 4340SOL    HW113919   6.461   3.272   1.282
 4340SOL    HW213920   6.402   3.147   1.196
 4341SOL     OW13921   0.993   5.456   1.688
 4341SOL    HW113922   1.085   5.494   1.684
 4341SOL    HW213923   0.931   5.521   1.733
 4342SOL     OW13924   4.837   3.813   3.175
 4342SOL    HW113925   4.855   3.714   3.177
 4342SOL    HW213926   4.766   3.832   3.108
 4343SOL     OW13927   3.197   6.447   4.847
 4343SOL    HW113928   3.199   6.359   4.893
 4343SOL    HW213929   3.115   6.453   4.789
 4344SOL     OW13930   0.313   4.288   2.147
 4344SOL    HW113931   0.320   4.189   2.164
 4344SOL    HW213932   0.332   4.306   2.050
 4345SOL     OW13933   3.318   4.460   5.525
 4345SOL    HW113934   3.333   4.453   5.426
 4345SOL    HW213935   3.405   4.471   5.571
 4346SOL     OW13936   1.802   3.719   2.974
 4346SOL    HW113937   1.802   3.649   3.046
 4346SOL    HW213938   1.883   3.707   2.917
 4347SOL     OW13939   5.808   0.158   2.111
 4347SOL    HW113940   5.743   0.091   2.076
 4347SOL    HW213941   5.805   0.240   2.054
 4348SOL     OW13942   0.217   5.298   3.796
 4348SOL    HW113943   0.261   5.262   3.713
 4348SOL    HW213944   0.284   5.305   3.869
 4349SOL     OW13945   5.960   2.105   3.188
 4349SOL    HW113946   5.912   2.193   3.190
 4349SOL    HW213947   5.893   2.031   3.186
 4350SOL     OW13948   3.518   1.813   4.030
 4350SOL    HW113949   3.502   1.909   4.009
 4350SOL    HW213950   3.611   1.788   4.002
 4351SOL     OW13951   1.369   6.191   1.408
 4351SOL    HW113952   1.391   6.243   1.326
 4351SOL    HW213953   1.321   6.249   1.473
 4352SOL     OW13954   6.260   3.920   2.474
 4352SOL    HW113955   6.281   3.923   2.376
 4352SOL    HW213956   6.160   3.916   2.486
 4353SOL     OW13957   4.254   2.694   6.544
 4353SOL    HW113958   4.172   2.742   6.577
 4353SOL    HW213959   4.228   2.626   6.476
 4354SOL     OW13960   1.899   0.960   6.013
 4354SOL    HW113961   1.854   1.023   6.076
 4354SOL    HW213962   1.840   0.881   5.997
 4355SOL     OW13963   2.363   0.477   2.524
 4355SOL    HW113964   2.371   0.546   2.452
 4355SOL    HW213965   2.284   0.497   2.581
 4356SOL     OW13966   5.462   3.543   6.972
 4356SOL    HW113967   5.463   3.446   6.997
 4356SOL    HW213968   5.368   3.577   6.974
 4357SOL     OW13969   6.996   0.801   1.329
 4357SOL    HW113970   6.998   0.758   1.238
 4357SOL    HW213971   6.980   0.899   1.320
 4358SOL     OW13972   6.934   0.938   0.878
 4358SOL    HW113973   6.882   0.860   0.842
 4358SOL    HW213974   6.963   0.996   0.802
 4359SOL     OW13975   1.223   1.580   6.203
 4359SOL    HW113976   1.202   1.580   6.105
 4359SOL    HW213977   1.318   1.607   6.217
 4360SOL     OW13978   0.686   3.790   3.791
 4360SOL    HW113979   0.627   3.806   3.712
 4360SOL    HW213980   0.709   3.877   3.834
 4361SOL     OW13981   1.870   3.684   1.879
 4361SOL    HW113982   1.897   3.598   1.922
 4361SOL    HW213983   1.884   3.678   1.780
 4362SOL     OW13984   6.851   5.160   3.572
 4362SOL    HW113985   6.765   5.130   3.530
 4362SOL    HW213986   6.854   5.260   3.574
 4363SOL     OW13987   5.237   2.356   0.615
 4363SOL    HW113988   5.311   2.307   0.569
 4363SOL    HW213989   5.188   2.293   0.676
 4364SOL     OW13990   2.991   3.911   3.594
 4364SOL    HW113991   3.011   3.857   3.675
 4364SOL    HW213992   2.935   3.857   3.531
 4365SOL     OW13993   2.958   0.663   1.607
 4365SOL    HW113994   3.045   0.634   1.646
 4365SOL    HW213995   2.889   0.668   1.679
 4366SOL     OW13996   6.800   6.954   6.935
 4366SOL    HW113997   6.759   6.933   6.846
 4366SOL    HW213998   6.872   7.022   6.923
 4367SOL     OW13999   2.752   4.695   4.229
 4367SOL    HW114000   2.852   4.695   4.228
 4367SOL    HW214001   2.718   4.647   4.148
 4368SOL     OW14002   3.866   6.131   1.354
 4368SOL    HW114003   3.885   6.110   1.450
 4368SOL    HW214004   3.835   6.226   1.347
 4369SOL     OW14005   4.677   4.934   2.846
 4369SOL    HW114006   4.664   5.028   2.878
 4369SOL    HW214007   4.589   4.899   2.812
 4370SOL     OW14008   3.731   4.740   1.673
 4370SOL    HW114009   3.722   4.689   1.588
 4370SOL    HW214010   3.650   4.725   1.730
 4371SOL     OW14011   1.766   2.050   2.258
 4371SOL    HW114012   1.804   1.997   2.334
 4371SOL    HW214013   1.812   2.023   2.174
 4372SOL     OW14014   2.592   2.094   4.255
 4372SOL    HW114015   2.628   2.165   4.315
 4372SOL    HW214016   2.503   2.123   4.220
 4373SOL     OW14017   5.218   1.584   6.666
 4373SOL    HW114018   5.167   1.666   6.643
 4373SOL    HW214019   5.312   1.593   6.635
 4374SOL     OW14020   0.961   1.731   1.237
 4374SOL    HW114021   0.950   1.637   1.271
 4374SOL    HW214022   0.994   1.728   1.143
 4375SOL     OW14023   4.061   6.463   3.289
 4375SOL    HW114024   4.098   6.370   3.290
 4375SOL    HW214025   4.076   6.507   3.378
 4376SOL     OW14026   6.357   0.366   2.720
 4376SOL    HW114027   6.441   0.341   2.671
 4376SOL    HW214028   6.357   0.323   2.810
 4377SOL     OW14029   5.810   5.816   6.776
 4377SOL    HW114030   5.793   5.852   6.868
 4377SOL    HW214031   5.893   5.759   6.778
 4378SOL     OW14032   1.964   2.730   2.596
 4378SOL    HW114033   1.891   2.762   2.657
 4378SOL    HW214034   1.934   2.646   2.550
 4379SOL     OW14035   2.373   2.179   2.461
 4379SOL    HW114036   2.321   2.228   2.391
 4379SOL    HW214037   2.367   2.228   2.548
 4380SOL     OW14038   1.196   6.518   3.252
 4380SOL    HW114039   1.204   6.610   3.290
 4380SOL    HW214040   1.113   6.475   3.288
 4381SOL     OW14041   2.222   3.812   5.219
 4381SOL    HW114042   2.255   3.898   5.181
 4381SOL    HW214043   2.203   3.748   5.144
 4382SOL     OW14044   5.987   3.588   6.567
 4382SOL    HW114045   5.940   3.673   6.589
 4382SOL    HW214046   6.085   3.607   6.553
 4383SOL     OW14047   0.718   2.372   5.767
 4383SOL    HW114048   0.786   2.442   5.746
 4383SOL    HW214049   0.729   2.295   5.704
 4384SOL     OW14050   5.702   1.567   6.133
 4384SOL    HW114051   5.731   1.657   6.099
 4384SOL    HW214052   5.700   1.502   6.057
 4385SOL     OW14053   6.034   2.917   5.095
 4385SOL    HW114054   5.945   2.962   5.106
 4385SOL    HW214055   6.057   2.869   5.179
 4386SOL     OW14056   2.117   3.639   6.991
 4386SOL    HW114057   2.103   3.551   6.946
 4386SOL    HW214058   2.122   3.625   0.065
 4387SOL     OW14059   0.134   1.018   1.967
 4387SOL    HW114060   0.074   1.072   2.027
 4387SOL    HW214061   0.188   0.955   2.023
 4388SOL     OW14062   5.369   1.773   6.397
 4388SOL    HW114063   5.288   1.831   6.412
 4388SOL    HW214064   5.414   1.756   6.484
 4389SOL     OW14065   7.023   3.909   0.802
 4389SOL    HW114066   0.056   3.978   0.847
 4389SOL    HW214067   6.935   3.950   0.779
 4390SOL     OW14068   3.637   1.181   1.737
 4390SOL    HW114069   3.668   1.095   1.777
 4390SOL    HW214070   3.604   1.241   1.810
 4391SOL     OW14071   1.351   5.643   6.555
 4391SOL    HW114072   1.268   5.596   6.524
 4391SOL    HW214073   1.330   5.740   6.570
 4392SOL     OW14074   6.734   3.202   6.437
 4392SOL    HW114075   6.670   3.129   6.461
 4392SOL    HW214076   6.702   3.289   6.475
 4393SOL     OW14077   6.100   0.465   2.324
 4393SOL    HW114078   6.060   0.373   2.335
 4393SOL    HW214079   6.085   0.518   2.407
 4394SOL     OW14080   5.501   5.729   2.702
 4394SOL    HW114081   5.529   5.650   2.649
 4394SOL    HW214082   5.539   5.812   2.661
 4395SOL     OW14083   3.328   0.339   1.649
 4395SOL    HW114084   3.340   0.247   1.686
 4395SOL    HW214085   3.401   0.358   1.583
 4396SOL     OW14086   2.183   2.405   4.212
 4396SOL    HW114087   2.130   2.451   4.140
 4396SOL    HW214088   2.122   2.355   4.272
 4397SOL     OW14089   0.667   1.179   4.494
 4397SOL    HW114090   0.718   1.254   4.451
 4397SOL    HW214091   0.655   1.105   4.429
 4398SOL     OW14092   0.386   4.479   5.107
 4398SOL    HW114093   0.341   4.453   5.021
 4398SOL    HW214094   0.384   4.578   5.117
 4399SOL     OW14095   1.993   1.120   1.435
 4399SOL    HW114096   1.898   1.152   1.437
 4399SOL    HW214097   2.053   1.192   1.470
 4400SOL     OW14098   3.723   6.523   5.955
 4400SOL    HW114099   3.769   6.453   5.900
 4400SOL    HW214100   3.630   6.536   5.920
 4401SOL     OW14101   4.954   6.645   6.749
 4401SOL    HW114102   4.969   6.741   6.726
 4401SOL    HW214103   5.021   6.588   6.701
 4402SOL     OW14104   2.761   0.096   1.013
 4402SOL    HW114105   2.771   0.036   1.092
 4402SOL    HW214106   2.751   0.191   1.044
 4403SOL     OW14107   0.972   0.484   3.639
 4403SOL    HW114108   1.006   0.402   3.592
 4403SOL    HW214109   0.899   0.457   3.702
 4404SOL     OW14110   0.305   4.066   5.893
 4404SOL    HW114111   0.349   4.048   5.981
 4404SOL    HW214112   0.332   4.157   5.860
 4405SOL     OW14113   1.443   4.376   1.687
 4405SOL    HW114114   1.407   4.305   1.626
 4405SOL    HW214115   1.394   4.462   1.671
 4406SOL     OW14116   6.957   3.832   0.425
 4406SOL    HW114117   0.029   3.808   0.422
 4406SOL    HW214118   6.941   3.898   0.498
 4407SOL     OW14119   6.824   4.870   0.948
 4407SOL    HW114120   6.879   4.948   0.917
 4407SOL    HW214121   6.825   4.868   1.048
 4408SOL     OW14122   3.148   1.416   1.460
 4408SOL    HW114123   3.062   1.368   1.442
 4408SOL    HW214124   3.215   1.391   1.390
 4409SOL     OW14125   4.825   0.087   2.376
 4409SOL    HW114126   4.776   0.005   2.348
 4409SOL    HW214127   4.778   0.129   2.454
 4410SOL     OW14128   1.151   5.892   6.527
 4410SOL    HW114129   1.082   5.880   6.598
 4410SOL    HW214130   1.236   5.923   6.569
 4411SOL     OW14131   3.167   4.050   3.985
 4411SOL    HW114132   3.123   3.982   4.044
 4411SOL    HW214133   3.107   4.069   3.907
 4412SOL     OW14134   4.013   6.542   4.875
 4412SOL    HW114135   3.995   6.473   4.806
 4412SOL    HW214136   3.935   6.546   4.938
 4413SOL     OW14137   5.814   5.674   5.012
 4413SOL    HW114138   5.834   5.596   5.072
 4413SOL    HW214139   5.812   5.642   4.917
 4414SOL     OW14140   3.561   4.208   1.592
 4414SOL    HW114141   3.638   4.268   1.610
 4414SOL    HW214142   3.506   4.245   1.517
 4415SOL     OW14143   3.953   3.142   0.196
 4415SOL    HW114144   4.041   3.105   0.228
 4415SOL    HW214145   3.930   3.101   0.108
 4416SOL     OW14146   2.001   0.572   4.200
 4416SOL    HW114147   1.991   0.619   4.112
 4416SOL    HW214148   2.035   0.479   4.185
 4417SOL     OW14149   5.980   4.406   3.313
 4417SOL    HW114150   6.030   4.469   3.373
 4417SOL    HW214151   5.896   4.376   3.359
 4418SOL     OW14152   5.897   1.581   2.396
 4418SOL    HW114153   5.827   1.600   2.328
 4418SOL    HW214154   5.986   1.573   2.351
 4419SOL     OW14155   6.035   5.839   0.010
 4419SOL    HW114156   5.996   5.762   0.061
 4419SOL    HW214157   6.097   5.890   0.069
 4420SOL     OW14158   5.231   1.167   1.982
 4420SOL    HW114159   5.279   1.099   2.037
 4420SOL    HW214160   5.176   1.121   1.912
 4421SOL     OW14161   1.662   0.664   5.353
 4421SOL    HW114162   1.685   0.734   5.286
 4421SOL    HW214163   1.661   0.574   5.308
 4422SOL     OW14164   3.302   4.391   6.247
 4422SOL    HW114165   3.397   4.414   6.229
 4422SOL    HW214166   3.290   4.372   6.344
 4423SOL     OW14167   1.689   2.885   5.603
 4423SOL    HW114168   1.660   2.810   5.662
 4423SOL    HW214169   1.711   2.965   5.660
 4424SOL     OW14170   5.123   0.892   4.028
 4424SOL    HW114171   5.062   0.861   4.101
 4424SOL    HW214172   5.194   0.824   4.012
 4425SOL     OW14173   3.373   5.126   0.337
 4425SOL    HW114174   3.458   5.075   0.348
 4425SOL    HW214175   3.363   5.190   0.413
 4426SOL     OW14176   0.359   0.825   4.646
 4426SOL    HW114177   0.383   0.902   4.587
 4426SOL    HW214178   0.272   0.786   4.616
 4427SOL     OW14179   0.472   6.105   2.499
 4427SOL    HW114180   0.404   6.111   2.427
 4427SOL    HW214181   0.564   6.112   2.460
 4428SOL     OW14182   2.814   6.967   2.333
 4428SOL    HW114183   2.734   6.942   2.386
 4428SOL    HW214184   2.792   0.020   2.273
 4429SOL     OW14185   2.986   0.073   2.514
 4429SOL    HW114186   2.932   0.005   2.463
 4429SOL    HW214187   2.949   0.081   2.607
 4430SOL     OW14188   5.180   3.718   4.750
 4430SOL    HW114189   5.201   3.816   4.742
 4430SOL    HW214190   5.265   3.667   4.763
 4431SOL     OW14191   2.168   0.975   2.379
 4431SOL    HW114192   2.078   0.999   2.414
 4431SOL    HW214193   2.157   0.913   2.301
 4432SOL     OW14194   3.448   3.675   4.878
 4432SOL    HW114195   3.442   3.633   4.787
 4432SOL    HW214196   3.443   3.603   4.948
 4433SOL     OW14197   4.571   0.999   4.747
 4433SOL    HW114198   4.670   0.996   4.739
 4433SOL    HW214199   4.532   1.042   4.666
 4434SOL     OW14200   4.570   2.118   4.330
 4434SOL    HW114201   4.637   2.079   4.394
 4434SOL    HW214202   4.614   2.191   4.277
 4435SOL     OW14203   4.525   3.118   1.431
 4435SOL    HW114204   4.497   3.211   1.408
 4435SOL    HW214205   4.508   3.101   1.528
 4436SOL     OW14206   4.438   1.161   0.916
 4436SOL    HW114207   4.508   1.132   0.850
 4436SOL    HW214208   4.400   1.248   0.887
 4437SOL     OW14209   5.904   1.709   3.096
 4437SOL    HW114210   5.918   1.797   3.050
 4437SOL    HW214211   5.916   1.721   3.195
 4438SOL     OW14212   5.255   0.260   0.062
 4438SOL    HW114213   5.311   0.342   0.050
 4438SOL    HW214214   5.189   0.274   0.135
 4439SOL     OW14215   0.480   5.479   1.807
 4439SOL    HW114216   0.488   5.577   1.825
 4439SOL    HW214217   0.554   5.430   1.853
 4440SOL     OW14218   2.097   5.441   0.557
 4440SOL    HW114219   2.098   5.511   0.629
 4440SOL    HW214220   2.010   5.393   0.559
 4441SOL     OW14221   6.970   1.842   3.073
 4441SOL    HW114222   6.889   1.876   3.121
 4441SOL    HW214223   6.940   1.791   2.991
 4442SOL     OW14224   2.765   5.804   4.834
 4442SOL    HW114225   2.742   5.900   4.820
 4442SOL    HW214226   2.692   5.746   4.796
 4443SOL     OW14227   0.180   2.674   0.406
 4443SOL    HW114228   0.190   2.674   0.306
 4443SOL    HW214229   0.084   2.690   0.430
 4444SOL     OW14230   3.202   5.087   6.240
 4444SOL    HW114231   3.219   5.023   6.315
 4444SOL    HW214232   3.186   5.036   6.156
 4445SOL     OW14233   0.316   0.317   0.971
 4445SOL    HW114234   0.222   0.304   1.002
 4445SOL    HW214235   0.367   0.372   1.038
 4446SOL     OW14236   5.855   1.302   2.308
 4446SOL    HW114237   5.837   1.215   2.261
 4446SOL    HW214238   5.898   1.283   2.397
 4447SOL     OW14239   5.253   3.639   6.088
 4447SOL    HW114240   5.294   3.625   5.998
 4447SOL    HW214241   5.268   3.557   6.144
 4448SOL     OW14242   2.852   3.902   1.115
 4448SOL    HW114243   2.938   3.927   1.159
 4448SOL    HW214244   2.814   3.820   1.160
 4449SOL     OW14245   5.371   0.133   5.878
 4449SOL    HW114246   5.311   0.175   5.946
 4449SOL    HW214247   5.453   0.098   5.923
 4450SOL     OW14248   3.802   2.972   4.174
 4450SOL    HW114249   3.881   3.032   4.179
 4450SOL    HW214250   3.808   2.902   4.245
 4451SOL     OW14251   5.878   4.662   3.766
 4451SOL    HW114252   5.831   4.740   3.808
 4451SOL    HW214253   5.976   4.675   3.772
 4452SOL     OW14254   5.442   6.193   4.512
 4452SOL    HW114255   5.381   6.215   4.587
 4452SOL    HW214256   5.469   6.097   4.518
 4453SOL     OW14257   0.401   2.556   1.899
 4453SOL    HW114258   0.399   2.568   1.998
 4453SOL    HW214259   0.460   2.479   1.876
 4454SOL     OW14260   1.329   2.259   6.970
 4454SOL    HW114261   1.299   2.246   6.875
 4454SOL    HW214262   1.254   2.234   0.007
 4455SOL     OW14263   4.119   6.134   6.322
 4455SOL    HW114264   4.193   6.067   6.329
 4455SOL    HW214265   4.100   6.152   6.225
 4456SOL     OW14266   3.626   6.131   2.219
 4456SOL    HW114267   3.546   6.075   2.243
 4456SOL    HW214268   3.597   6.226   2.205
 4457SOL     OW14269   4.909   1.973   1.596
 4457SOL    HW114270   4.845   2.010   1.529
 4457SOL    HW214271   4.997   2.019   1.587
 4458SOL     OW14272   1.298   2.879   6.532
 4458SOL    HW114273   1.326   2.815   6.460
 4458SOL    HW214274   1.266   2.964   6.491
 4459SOL     OW14275   3.649   0.183   4.855
 4459SOL    HW114276   3.732   0.177   4.911
 4459SOL    HW214277   3.653   0.116   4.782
 4460SOL     OW14278   3.353   2.665   5.649
 4460SOL    HW114279   3.330   2.664   5.552
 4460SOL    HW214280   3.441   2.618   5.663
 4461SOL     OW14281   1.609   1.016   1.756
 4461SOL    HW114282   1.616   0.952   1.832
 4461SOL    HW214283   1.515   1.051   1.751
 4462SOL     OW14284   6.034   4.645   2.171
 4462SOL    HW114285   6.081   4.698   2.241
 4462SOL    HW214286   5.938   4.675   2.166
 4463SOL     OW14287   5.750   2.083   6.213
 4463SOL    HW114288   5.732   2.180   6.198
 4463SOL    HW214289   5.665   2.031   6.197
 4464SOL     OW14290   6.563   4.983   0.978
 4464SOL    HW114291   6.485   4.921   0.965
 4464SOL    HW214292   6.644   4.944   0.933
 4465SOL     OW14293   2.880   5.449   1.272
 4465SOL    HW114294   2.782   5.432   1.276
 4465SOL    HW214295   2.917   5.409   1.188
 4466SOL     OW14296   1.735   2.068   3.172
 4466SOL    HW114297   1.825   2.076   3.129
 4466SOL    HW214298   1.728   2.132   3.248
 4467SOL     OW14299   1.975   6.885   2.663
 4467SOL    HW114300   1.882   6.921   2.675
 4467SOL    HW214301   2.022   6.887   2.751
 4468SOL     OW14302   2.097   2.877   0.886
 4468SOL    HW114303   2.071   2.815   0.960
 4468SOL    HW214304   2.038   2.860   0.806
 4469SOL     OW14305   4.328   0.702   1.416
 4469SOL    HW114306   4.333   0.791   1.371
 4469SOL    HW214307   4.379   0.635   1.362
 4470SOL     OW14308   6.059   2.401   2.450
 4470SOL    HW114309   6.044   2.464   2.526
 4470SOL    HW214310   5.984   2.409   2.384
 4471SOL     OW14311   0.609   1.753   6.920
 4471SOL    HW114312   0.619   1.840   6.968
 4471SOL    HW214313   0.513   1.724   6.922
 4472SOL     OW14314   1.314   2.919   3.461
 4472SOL    HW114315   1.385   2.859   3.498
 4472SOL    HW214316   1.314   3.005   3.513
 4473SOL     OW14317   6.699   2.366   4.899
 4473SOL    HW114318   6.632   2.350   4.971
 4473SOL    HW214319   6.738   2.458   4.909
 4474SOL     OW14320   3.004   1.157   1.418
 4474SOL    HW114321   3.001   1.169   1.318
 4474SOL    HW214322   3.042   1.067   1.440
 4475SOL     OW14323   1.378   4.216   2.915
 4475SOL    HW114324   1.332   4.300   2.887
 4475SOL    HW214325   1.356   4.196   3.011
 4476SOL     OW14326   3.513   7.016   3.544
 4476SOL    HW114327   3.486   0.028   3.456
 4476SOL    HW214328   3.432   7.004   3.602
 4477SOL     OW14329   1.585   6.791   5.068
 4477SOL    HW114330   1.555   6.748   4.983
 4477SOL    HW214331   1.655   6.860   5.048
 4478SOL     OW14332   3.834   0.013   2.741
 4478SOL    HW114333   3.775   0.087   2.707
 4478SOL    HW214334   3.791   6.950   2.720
 4479SOL     OW14335   1.112   0.602   1.582
 4479SOL    HW114336   1.091   0.506   1.567
 4479SOL    HW214337   1.058   0.636   1.659
 4480SOL     OW14338   2.231   4.155   5.976
 4480SOL    HW114339   2.264   4.246   6.000
 4480SOL    HW214340   2.133   4.159   5.957
 4481SOL     OW14341   2.616   6.302   5.253
 4481SOL    HW114342   2.706   6.280   5.216
 4481SOL    HW214343   2.560   6.345   5.181
 4482SOL     OW14344   1.025   4.232   4.392
 4482SOL    HW114345   1.027   4.282   4.305
 4482SOL    HW214346   1.088   4.154   4.386
 4483SOL     OW14347   5.346   3.208   1.645
 4483SOL    HW114348   5.422   3.166   1.694
 4483SOL    HW214349   5.327   3.298   1.684
 4484SOL     OW14350   3.126   3.138   6.051
 4484SOL    HW114351   3.060   3.169   6.119
 4484SOL    HW214352   3.095   3.051   6.012
 4485SOL     OW14353   5.438   1.689   5.121
 4485SOL    HW114354   5.423   1.658   5.215
 4485SOL    HW214355   5.374   1.762   5.099
 4486SOL     OW14356   5.211   4.777   4.995
 4486SOL    HW114357   5.279   4.709   5.023
 4486SOL    HW214358   5.183   4.759   4.901
 4487SOL     OW14359   2.327   3.068   6.145
 4487SOL    HW114360   2.386   3.065   6.225
 4487SOL    HW214361   2.378   3.037   6.065
 4488SOL     OW14362   6.547   3.000   6.497
 4488SOL    HW114363   6.451   2.989   6.471
 4488SOL    HW214364   6.562   2.958   6.587
 4489SOL     OW14365   6.092   6.086   3.969
 4489SOL    HW114366   6.009   6.033   3.987
 4489SOL    HW214367   6.129   6.061   3.879
 4490SOL     OW14368   6.173   2.524   3.169
 4490SOL    HW114369   6.227   2.541   3.087
 4490SOL    HW214370   6.128   2.609   3.198
 4491SOL     OW14371   6.703   2.005   4.792
 4491SOL    HW114372   6.794   2.006   4.750
 4491SOL    HW214373   6.689   1.918   4.840
 4492SOL     OW14374   5.689   4.076   1.657
 4492SOL    HW114375   5.749   4.110   1.730
 4492SOL    HW214376   5.744   4.034   1.585
 4493SOL     OW14377   4.509   5.658   5.215
 4493SOL    HW114378   4.540   5.714   5.292
 4493SOL    HW214379   4.420   5.691   5.183
 4494SOL     OW14380   6.822   1.165   5.979
 4494SOL    HW114381   6.911   1.160   6.024
 4494SOL    HW214382   6.763   1.092   6.012
 4495SOL     OW14383   3.975   6.403   4.112
 4495SOL    HW114384   4.025   6.363   4.188
 4495SOL    HW214385   3.937   6.492   4.139
 4496SOL     OW14386   5.515   5.746   1.181
 4496SOL    HW114387   5.489   5.787   1.269
 4496SOL    HW214388   5.567   5.663   1.198
 4497SOL     OW14389   4.517   1.149   6.713
 4497SOL    HW114390   4.561   1.162   6.802
 4497SOL    HW214391   4.422   1.179   6.719
 4498SOL     OW14392   6.740   3.684   0.426
 4498SOL    HW114393   6.800   3.764   0.428
 4498SOL    HW214394   6.747   3.634   0.512
 4499SOL     OW14395   6.480   3.480   4.699
 4499SOL    HW114396   6.443   3.426   4.775
 4499SOL    HW214397   6.538   3.553   4.736
 4500SOL     OW14398   3.208   3.449   3.638
 4500SOL    HW114399   3.292   3.485   3.598
 4500SOL    HW214400   3.209   3.466   3.737
 4501SOL     OW14401   0.232   3.619   4.512
 4501SOL    HW114402   0.178   3.577   4.438
 4501SOL    HW214403   0.236   3.556   4.589
 4502SOL     OW14404   0.686   3.073   6.917
 4502SOL    HW114405   0.780   3.038   6.912
 4502SOL    HW214406   0.648   3.079   6.825
 4503SOL     OW14407   3.156   6.933   1.853
 4503SOL    HW114408   3.254   6.935   1.832
 4503SOL    HW214409   3.107   6.993   1.790
 4504SOL     OW14410   6.690   0.499   4.584
 4504SOL    HW114411   6.644   0.499   4.496
 4504SOL    HW214412   6.703   0.404   4.614
 4505SOL     OW14413   5.659   5.313   1.957
 4505SOL    HW114414   5.602   5.232   1.971
 4505SOL    HW214415   5.755   5.285   1.947
 4506SOL     OW14416   4.224   2.299   3.491
 4506SOL    HW114417   4.181   2.214   3.522
 4506SOL    HW214418   4.223   2.303   3.391
 4507SOL     OW14419   5.383   4.818   2.246
 4507SOL    HW114420   5.469   4.868   2.256
 4507SOL    HW214421   5.369   4.760   2.327
 4508SOL     OW14422   0.802   4.648   6.604
 4508SOL    HW114423   0.827   4.602   6.519
 4508SOL    HW214424   0.808   4.747   6.592
 4509SOL     OW14425   4.802   2.203   2.735
 4509SOL    HW114426   4.732   2.133   2.745
 4509SOL    HW214427   4.835   2.231   2.825
 4510SOL     OW14428   4.113   0.874   4.118
 4510SOL    HW114429   4.155   0.943   4.059
 4510SOL    HW214430   4.124   0.784   4.077
 4511SOL     OW14431   6.940   3.144   0.274
 4511SOL    HW114432   6.918   3.116   0.367
 4511SOL    HW214433   7.013   3.086   0.238
 4512SOL     OW14434   2.933   0.689   5.265
 4512SOL    HW114435   2.933   0.607   5.207
 4512SOL    HW214436   2.885   0.763   5.218
 4513SOL     OW14437   5.941   4.974   0.318
 4513SOL    HW114438   6.009   4.901   0.309
 4513SOL    HW214439   5.962   5.030   0.398
 4514SOL     OW14440   4.281   1.254   6.741
 4514SOL    HW114441   4.215   1.241   6.815
 4514SOL    HW214442   4.236   1.237   6.653
 4515SOL     OW14443   7.010   1.832   5.873
 4515SOL    HW114444   0.080   1.862   5.873
 4515SOL    HW214445   6.949   1.911   5.880
 4516SOL     OW14446   2.208   0.184   7.004
 4516SOL    HW114447   2.244   0.213   0.068
 4516SOL    HW214448   2.227   0.253   6.935
 4517SOL     OW14449   4.230   0.665   6.596
 4517SOL    HW114450   4.280   0.752   6.599
 4517SOL    HW214451   4.294   0.590   6.580
 4518SOL     OW14452   6.904   0.599   2.517
 4518SOL    HW114453   6.965   0.665   2.562
 4518SOL    HW214454   6.959   0.536   2.462
 4519SOL     OW14455   6.721   0.962   1.301
 4519SOL    HW114456   6.627   0.929   1.304
 4519SOL    HW214457   6.766   0.941   1.388
 4520SOL     OW14458   4.504   6.507   4.802
 4520SOL    HW114459   4.431   6.498   4.870
 4520SOL    HW214460   4.470   6.478   4.713
 4521SOL     OW14461   6.032   1.824   4.195
 4521SOL    HW114462   5.937   1.801   4.176
 4521SOL    HW214463   6.075   1.749   4.246
 4522SOL     OW14464   6.409   6.713   3.163
 4522SOL    HW114465   6.356   6.688   3.243
 4522SOL    HW214466   6.361   6.684   3.080
 4523SOL     OW14467   0.583   4.134   0.490
 4523SOL    HW114468   0.487   4.160   0.482
 4523SOL    HW214469   0.619   4.167   0.578
 4524SOL     OW14470   6.090   2.358   3.702
 4524SOL    HW114471   6.178   2.388   3.666
 4524SOL    HW214472   6.105   2.300   3.783
 4525SOL     OW14473   5.244   1.307   4.495
 4525SOL    HW114474   5.293   1.238   4.547
 4525SOL    HW214475   5.254   1.396   4.541
 4526SOL     OW14476   6.593   0.625   1.260
 4526SOL    HW114477   6.500   0.621   1.224
 4526SOL    HW214478   6.591   0.651   1.357
 4527SOL     OW14479   5.210   1.089   3.597
 4527SOL    HW114480   5.250   1.059   3.683
 4527SOL    HW214481   5.120   1.047   3.586
 4528SOL     OW14482   4.868   0.232   0.103
 4528SOL    HW114483   4.947   0.225   0.164
 4528SOL    HW214484   4.786   0.202   0.152
 4529SOL     OW14485   3.181   0.893   5.430
 4529SOL    HW114486   3.234   0.825   5.380
 4529SOL    HW214487   3.085   0.888   5.403
 4530SOL     OW14488   2.078   4.199   6.270
 4530SOL    HW114489   2.102   4.117   6.323
 4530SOL    HW214490   2.002   4.178   6.209
 4531SOL     OW14491   0.357   3.405   4.668
 4531SOL    HW114492   0.450   3.432   4.645
 4531SOL    HW214493   0.345   3.404   4.767
 4532SOL     OW14494   5.967   2.022   3.575
 4532SOL    HW114495   5.869   2.003   3.578
 4532SOL    HW214496   6.007   2.006   3.665
 4533SOL     OW14497   1.235   1.037   1.842
 4533SOL    HW114498   1.155   1.002   1.794
 4533SOL    HW214499   1.281   1.106   1.786
 4534SOL     OW14500   4.846   4.131   4.541
 4534SOL    HW114501   4.786   4.205   4.510
 4534SOL    HW214502   4.803   4.084   4.618
 4535SOL     OW14503   4.253   1.148   2.430
 4535SOL    HW114504   4.253   1.058   2.385
 4535SOL    HW214505   4.179   1.203   2.392
 4536SOL     OW14506   4.014   1.201   3.708
 4536SOL    HW114507   3.960   1.284   3.693
 4536SOL    HW214508   4.110   1.221   3.689
 4537SOL     OW14509   3.927   3.263   6.433
 4537SOL    HW114510   3.986   3.183   6.417
 4537SOL    HW214511   3.832   3.233   6.443
 4538SOL     OW14512   2.148   0.305   4.176
 4538SOL    HW114513   2.216   0.337   4.242
 4538SOL    HW214514   2.102   0.224   4.213
 4539SOL     OW14515   2.548   0.564   4.875
 4539SOL    HW114516   2.569   0.493   4.808
 4539SOL    HW214517   2.632   0.608   4.905
 4540SOL     OW14518   3.352   2.236   5.562
 4540SOL    HW114519   3.369   2.280   5.474
 4540SOL    HW214520   3.314   2.304   5.626
 4541SOL     OW14521   6.156   2.117   0.732
 4541SOL    HW114522   6.143   2.046   0.663
 4541SOL    HW214523   6.099   2.097   0.812
 4542SOL     OW14524   6.921   1.418   2.450
 4542SOL    HW114525   6.834   1.429   2.499
 4542SOL    HW214526   6.957   1.326   2.466
 4543SOL     OW14527   5.152   2.188   1.302
 4543SOL    HW114528   5.080   2.156   1.241
 4543SOL    HW214529   5.172   2.117   1.370
 4544SOL     OW14530   3.012   6.342   6.057
 4544SOL    HW114531   2.913   6.342   6.073
 4544SOL    HW214532   3.058   6.381   6.136
 4545SOL     OW14533   5.288   4.046   4.915
 4545SOL    HW114534   5.265   4.018   5.008
 4545SOL    HW214535   5.379   4.087   4.914
 4546SOL     OW14536   1.410   1.224   6.183
 4546SOL    HW114537   1.392   1.259   6.091
 4546SOL    HW214538   1.472   1.286   6.231
 4547SOL     OW14539   5.674   2.306   3.163
 4547SOL    HW114540   5.594   2.255   3.195
 4547SOL    HW214541   5.648   2.362   3.084
 4548SOL     OW14542   0.805   4.031   4.245
 4548SOL    HW114543   0.787   4.128   4.228
 4548SOL    HW214544   0.846   3.990   4.163
 4549SOL     OW14545   6.331   4.516   1.505
 4549SOL    HW114546   6.425   4.526   1.539
 4549SOL    HW214547   6.331   4.460   1.422
 4550SOL     OW14548   1.082   5.548   3.098
 4550SOL    HW114549   1.123   5.629   3.141
 4550SOL    HW214550   0.986   5.566   3.079
 4551SOL     OW14551   0.263   1.777   5.481
 4551SOL    HW114552   0.214   1.823   5.407
 4551SOL    HW214553   0.208   1.702   5.516
 4552SOL     OW14554   6.572   3.207   0.845
 4552SOL    HW114555   6.590   3.193   0.748
 4552SOL    HW214556   6.484   3.165   0.869
 4553SOL     OW14557   3.651   4.794   6.812
 4553SOL    HW114558   3.602   4.874   6.776
 4553SOL    HW214559   3.587   4.717   6.820
 4554SOL     OW14560   5.539   0.695   0.901
 4554SOL    HW114561   5.626   0.737   0.874
 4554SOL    HW214562   5.558   0.611   0.951
 4555SOL     OW14563   3.132   2.052   6.012
 4555SOL    HW114564   3.091   1.990   5.945
 4555SOL    HW214565   3.082   2.139   6.011
 4556SOL     OW14566   4.792   2.882   4.009
 4556SOL    HW114567   4.766   2.786   3.997
 4556SOL    HW214568   4.848   2.891   4.091
 4557SOL     OW14569   4.620   5.863   5.435
 4557SOL    HW114570   4.659   5.913   5.512
 4557SOL    HW214571   4.580   5.927   5.370
 4558SOL     OW14572   0.612   4.509   4.839
 4558SOL    HW114573   0.524   4.533   4.798
 4558SOL    HW214574   0.686   4.540   4.779
 4559SOL     OW14575   0.032   4.183   1.835
 4559SOL    HW114576   6.959   4.194   1.855
 4559SOL    HW214577   0.047   4.193   1.736
 4560SOL     OW14578   5.090   4.497   2.066
 4560SOL    HW114579   5.082   4.409   2.113
 4560SOL    HW214580   5.003   4.545   2.071
 4561SOL     OW14581   2.126   1.731   2.353
 4561SOL    HW114582   2.153   1.652   2.298
 4561SOL    HW214583   2.171   1.813   2.319
 4562SOL     OW14584   3.211   6.195   4.957
 4562SOL    HW114585   3.119   6.162   4.937
 4562SOL    HW214586   3.271   6.117   4.974
 4563SOL     OW14587   0.081   3.101   1.089
 4563SOL    HW114588   0.095   3.005   1.065
 4563SOL    HW214589   0.159   3.133   1.143
 4564SOL     OW14590   6.918   6.349   1.218
 4564SOL    HW114591   6.953   6.436   1.184
 4564SOL    HW214592   6.979   6.315   1.290
 4565SOL     OW14593   0.853   1.236   5.315
 4565SOL    HW114594   0.942   1.279   5.305
 4565SOL    HW214595   0.865   1.141   5.346
 4566SOL     OW14596   6.782   2.411   0.986
 4566SOL    HW114597   6.758   2.321   0.951
 4566SOL    HW214598   6.700   2.468   0.989
 4567SOL     OW14599   6.266   0.573   6.728
 4567SOL    HW114600   6.212   0.541   6.806
 4567SOL    HW214601   6.289   0.669   6.740
 4568SOL     OW14602   2.355   4.167   5.746
 4568SOL    HW114603   2.305   4.124   5.671
 4568SOL    HW214604   2.323   4.130   5.833
 4569SOL     OW14605   1.689   1.784   3.252
 4569SOL    HW114606   1.612   1.802   3.314
 4569SOL    HW214607   1.694   1.858   3.184
 4570SOL     OW14608   0.663   6.578   4.022
 4570SOL    HW114609   0.646   6.648   3.952
 4570SOL    HW214610   0.741   6.606   4.078
 4571SOL     OW14611   4.084   3.980   6.157
 4571SOL    HW114612   4.094   4.074   6.191
 4571SOL    HW214613   4.063   3.982   6.060
 4572SOL     OW14614   1.417   6.571   6.702
 4572SOL    HW114615   1.387   6.573   6.607
 4572SOL    HW214616   1.492   6.635   6.715
 4573SOL     OW14617   6.280   7.006   0.842
 4573SOL    HW114618   6.348   0.023   0.901
 4573SOL    HW214619   6.198   6.984   0.895
 4574SOL     OW14620   6.092   3.590   0.673
 4574SOL    HW114621   6.022   3.590   0.744
 4574SOL    HW214622   6.177   3.629   0.709
 4575SOL     OW14623   6.235   1.674   6.067
 4575SOL    HW114624   6.306   1.713   6.125
 4575SOL    HW214625   6.180   1.747   6.027
 4576SOL     OW14626   2.447   6.501   5.905
 4576SOL    HW114627   2.431   6.546   5.993
 4576SOL    HW214628   2.544   6.505   5.882
 4577SOL     OW14629   1.220   1.966   4.480
 4577SOL    HW114630   1.148   2.025   4.442
 4577SOL    HW214631   1.268   2.015   4.553
 4578SOL     OW14632   0.613   3.501   4.746
 4578SOL    HW114633   0.593   3.501   4.844
 4578SOL    HW214634   0.709   3.522   4.731
 4579SOL     OW14635   4.244   1.146   3.031
 4579SOL    HW114636   4.199   1.123   2.945
 4579SOL    HW214637   4.271   1.243   3.029
 4580SOL     OW14638   5.039   5.121   0.518
 4580SOL    HW114639   4.951   5.089   0.483
 4580SOL    HW214640   5.108   5.050   0.505
 4581SOL     OW14641   2.460   4.481   2.633
 4581SOL    HW114642   2.481   4.506   2.538
 4581SOL    HW214643   2.362   4.467   2.643
 4582SOL     OW14644   5.742   6.903   4.709
 4582SOL    HW114645   5.703   6.855   4.630
 4582SOL    HW214646   5.689   6.881   4.791
 4583SOL     OW14647   2.470   2.349   5.875
 4583SOL    HW114648   2.434   2.363   5.967
 4583SOL    HW214649   2.428   2.415   5.813
 4584SOL     OW14650   0.059   4.966   5.903
 4584SOL    HW114651   6.990   4.999   5.892
 4584SOL    HW214652   0.106   4.969   5.815
 4585SOL     OW14653   2.506   6.574   2.808
 4585SOL    HW114654   2.569   6.513   2.759
 4585SOL    HW214655   2.470   6.643   2.745
 4586SOL     OW14656   3.416   5.280   0.879
 4586SOL    HW114657   3.516   5.278   0.885
 4586SOL    HW214658   3.379   5.324   0.961
 4587SOL     OW14659   3.371   3.721   2.633
 4587SOL    HW114660   3.322   3.642   2.598
 4587SOL    HW214661   3.379   3.790   2.560
 4588SOL     OW14662   3.526   3.904   5.071
 4588SOL    HW114663   3.625   3.914   5.079
 4588SOL    HW214664   3.504   3.852   4.988
 4589SOL     OW14665   6.068   0.764   2.461
 4589SOL    HW114666   6.120   0.749   2.545
 4589SOL    HW214667   5.977   0.725   2.471
 4590SOL     OW14668   5.277   5.727   1.047
 4590SOL    HW114669   5.371   5.741   1.079
 4590SOL    HW214670   5.215   5.729   1.126
 4591SOL     OW14671   0.753   5.799   4.759
 4591SOL    HW114672   0.784   5.888   4.726
 4591SOL    HW214673   0.819   5.729   4.732
 4592SOL     OW14674   2.901   1.782   1.742
 4592SOL    HW114675   2.899   1.702   1.801
 4592SOL    HW214676   2.989   1.786   1.694
 4593SOL     OW14677   4.630   5.314   3.315
 4593SOL    HW114678   4.599   5.257   3.391
 4593SOL    HW214679   4.717   5.280   3.281
 4594SOL     OW14680   2.980   1.468   2.476
 4594SOL    HW114681   3.067   1.437   2.516
 4594SOL    HW214682   2.938   1.394   2.426
 4595SOL     OW14683   3.968   2.717   6.590
 4595SOL    HW114684   3.946   2.631   6.544
 4595SOL    HW214685   3.939   2.793   6.533
 4596SOL     OW14686   6.073   6.827   2.142
 4596SOL    HW114687   6.017   6.880   2.079
 4596SOL    HW214688   6.153   6.880   2.168
 4597SOL     OW14689   4.114   4.952   6.197
 4597SOL    HW114690   4.197   4.938   6.143
 4597SOL    HW214691   4.137   4.996   6.284
 4598SOL     OW14692   2.312   5.996   6.498
 4598SOL    HW114693   2.369   6.045   6.432
 4598SOL    HW214694   2.251   5.933   6.449
 4599SOL     OW14695   0.722   5.545   1.324
 4599SOL    HW114696   0.800   5.603   1.347
 4599SOL    HW214697   0.749   5.449   1.326
 4600SOL     OW14698   1.450   5.177   5.444
 4600SOL    HW114699   1.459   5.133   5.355
 4600SOL    HW214700   1.538   5.173   5.492
 4601SOL     OW14701   2.250   0.428   5.246
 4601SOL    HW114702   2.187   0.372   5.193
 4601SOL    HW214703   2.244   0.402   5.343
 4602SOL     OW14704   1.553   5.936   1.408
 4602SOL    HW114705   1.541   6.024   1.454
 4602SOL    HW214706   1.628   5.944   1.342
 4603SOL     OW14707   2.905   6.291   0.670
 4603SOL    HW114708   2.851   6.343   0.736
 4603SOL    HW214709   2.850   6.215   0.634
 4604SOL     OW14710   4.476   0.460   0.785
 4604SOL    HW114711   4.546   0.459   0.713
 4604SOL    HW214712   4.398   0.515   0.754
 4605SOL     OW14713   3.161   0.506   3.055
 4605SOL    HW114714   3.081   0.552   3.017
 4605SOL    HW214715   3.139   0.410   3.073
 4606SOL     OW14716   1.091   6.786   1.638
 4606SOL    HW114717   1.133   6.876   1.630
 4606SOL    HW214718   1.009   6.792   1.695
 4607SOL     OW14719   2.148   2.499   1.337
 4607SOL    HW114720   2.063   2.551   1.328
 4607SOL    HW214721   2.204   2.540   1.410
 4608SOL     OW14722   0.913   6.142   3.674
 4608SOL    HW114723   0.880   6.233   3.699
 4608SOL    HW214724   0.999   6.151   3.625
 4609SOL     OW14725   4.639   5.199   6.987
 4609SOL    HW114726   4.726   5.241   6.964
 4609SOL    HW214727   4.570   5.269   7.004
 4610SOL     OW14728   5.573   2.982   0.647
 4610SOL    HW114729   5.553   2.888   0.676
 4610SOL    HW214730   5.549   3.045   0.721
 4611SOL     OW14731   0.305   5.794   6.058
 4611SOL    HW114732   0.241   5.724   6.027
 4611SOL    HW214733   0.354   5.831   5.979
 4612SOL     OW14734   1.397   5.793   0.015
 4612SOL    HW114735   1.453   5.860   0.063
 4612SOL    HW214736   1.456   5.734   6.984
 4613SOL     OW14737   2.656   6.339   1.903
 4613SOL    HW114738   2.593   6.299   1.836
 4613SOL    HW214739   2.674   6.434   1.879
 4614SOL     OW14740   6.866   3.224   5.028
 4614SOL    HW114741   6.962   3.237   5.006
 4614SOL    HW214742   6.858   3.169   5.111
 4615SOL     OW14743   2.218   6.940   0.030
 4615SOL    HW114744   2.192   6.884   6.976
 4615SOL    HW214745   2.216   0.012   0.005
 4616SOL     OW14746   6.764   0.186   5.182
 4616SOL    HW114747   6.772   0.089   5.160
 4616SOL    HW214748   6.815   0.240   5.114
 4617SOL     OW14749   0.716   2.549   2.073
 4617SOL    HW114750   0.776   2.611   2.123
 4617SOL    HW214751   0.621   2.577   2.086
 4618SOL     OW14752   2.109   2.998   5.141
 4618SOL    HW114753   2.197   3.023   5.103
 4618SOL    HW214754   2.078   2.912   5.101
 4619SOL     OW14755   3.341   6.457   3.320
 4619SOL    HW114756   3.386   6.409   3.396
 4619SOL    HW214757   3.242   6.461   3.338
 4620SOL     OW14758   2.008   4.516   0.539
 4620SOL    HW114759   1.930   4.460   0.568
 4620SOL    HW214760   1.974   4.603   0.503
 4621SOL     OW14761   5.463   1.325   2.284
 4621SOL    HW114762   5.537   1.389   2.261
 4621SOL    HW214763   5.375   1.373   2.277
 4622SOL     OW14764   2.129   4.692   0.718
 4622SOL    HW114765   2.112   4.628   0.643
 4622SOL    HW214766   2.196   4.761   0.690
 4623SOL     OW14767   5.449   6.625   0.238
 4623SOL    HW114768   5.514   6.637   0.162
 4623SOL    HW214769   5.411   6.532   0.234
 4624SOL     OW14770   4.952   6.489   3.407
 4624SOL    HW114771   5.021   6.482   3.335
 4624SOL    HW214772   4.862   6.500   3.366
 4625SOL     OW14773   2.115   3.721   1.111
 4625SOL    HW114774   2.105   3.633   1.065
 4625SOL    HW214775   2.167   3.708   1.196
 4626SOL     OW14776   5.135   4.935   2.653
 4626SOL    HW114777   5.206   4.968   2.715
 4626SOL    HW214778   5.163   4.951   2.558
 4627SOL     OW14779   2.534   4.698   4.526
 4627SOL    HW114780   2.516   4.601   4.543
 4627SOL    HW214781   2.478   4.753   4.588
 4628SOL     OW14782   6.176   4.686   4.001
 4628SOL    HW114783   6.273   4.683   4.023
 4628SOL    HW214784   6.122   4.685   4.085
 4629SOL     OW14785   2.001   5.203   5.283
 4629SOL    HW114786   1.991   5.297   5.317
 4629SOL    HW214787   2.074   5.200   5.215
 4630SOL     OW14788   3.043   5.399   2.302
 4630SOL    HW114789   3.097   5.326   2.259
 4630SOL    HW214790   2.946   5.377   2.295
 4631SOL     OW14791   2.066   6.236   2.450
 4631SOL    HW114792   2.121   6.233   2.534
 4631SOL    HW214793   1.981   6.185   2.465
 4632SOL     OW14794   3.525   4.890   2.438
 4632SOL    HW114795   3.522   4.943   2.522
 4632SOL    HW214796   3.434   4.887   2.397
 4633SOL     OW14797   4.781   0.118   4.530
 4633SOL    HW114798   4.863   0.171   4.510
 4633SOL    HW214799   4.799   0.055   4.606
 4634SOL     OW14800   2.830   5.176   6.059
 4634SOL    HW114801   2.870   5.187   6.150
 4634SOL    HW214802   2.904   5.169   5.991
 4635SOL     OW14803   5.258   4.193   1.353
 4635SOL    HW114804   5.226   4.177   1.446
 4635SOL    HW214805   5.284   4.289   1.343
 4636SOL     OW14806   1.727   4.498   6.913
 4636SOL    HW114807   1.736   4.450   7.000
 4636SOL    HW214808   1.810   4.550   6.894
 4637SOL     OW14809   1.182   7.001   0.738
 4637SOL    HW114810   1.176   6.921   0.798
 4637SOL    HW214811   1.103   7.005   0.678
 4638SOL     OW14812   5.207   3.874   6.563
 4638SOL    HW114813   5.234   3.911   6.652
 4638SOL    HW214814   5.169   3.948   6.507
 4639SOL     OW14815   2.979   4.422   6.211
 4639SOL    HW114816   2.913   4.392   6.279
 4639SOL    HW214817   3.062   4.454   6.256
 4640SOL     OW14818   4.879   3.850   3.700
 4640SOL    HW114819   4.872   3.860   3.600
 4640SOL    HW214820   4.862   3.755   3.726
 4641SOL     OW14821   2.092   6.861   5.212
 4641SOL    HW114822   2.071   6.764   5.220
 4641SOL    HW214823   2.058   6.910   5.292
 4642SOL     OW14824   0.384   5.353   4.006
 4642SOL    HW114825   0.474   5.309   3.996
 4642SOL    HW214826   0.355   5.348   4.102
 4643SOL     OW14827   6.169   2.834   1.311
 4643SOL    HW114828   6.177   2.864   1.216
 4643SOL    HW214829   6.103   2.758   1.316
 4644SOL     OW14830   6.833   5.012   5.040
 4644SOL    HW114831   6.931   5.009   5.018
 4644SOL    HW214832   6.788   4.932   5.001
 4645SOL     OW14833   0.951   0.714   4.554
 4645SOL    HW114834   1.011   0.740   4.478
 4645SOL    HW214835   1.006   0.668   4.625
 4646SOL     OW14836   1.833   5.882   3.438
 4646SOL    HW114837   1.883   5.843   3.361
 4646SOL    HW214838   1.889   5.951   3.483
 4647SOL     OW14839   1.696   0.779   3.183
 4647SOL    HW114840   1.621   0.787   3.249
 4647SOL    HW214841   1.765   0.849   3.202
 4648SOL     OW14842   3.758   0.835   2.211
 4648SOL    HW114843   3.794   0.926   2.191
 4648SOL    HW214844   3.712   0.835   2.300
 4649SOL     OW14845   5.539   6.861   6.541
 4649SOL    HW114846   5.543   6.855   6.441
 4649SOL    HW214847   5.570   6.951   6.571
 4650SOL     OW14848   4.450   5.358   2.740
 4650SOL    HW114849   4.465   5.388   2.834
 4650SOL    HW214850   4.469   5.260   2.733
 4651SOL     OW14851   6.930   2.619   0.473
 4651SOL    HW114852   6.927   2.566   0.388
 4651SOL    HW214853   6.841   2.661   0.489
 4652SOL     OW14854   6.428   0.092   3.913
 4652SOL    HW114855   6.514   0.063   3.955
 4652SOL    HW214856   6.397   0.022   3.848
 4653SOL     OW14857   5.689   4.889   0.678
 4653SOL    HW114858   5.713   4.798   0.646
 4653SOL    HW214859   5.652   4.884   0.770
 4654SOL     OW14860   1.213   6.789   0.232
 4654SOL    HW114861   1.164   6.794   0.146
 4654SOL    HW214862   1.305   6.753   0.217
 4655SOL     OW14863   5.124   4.439   1.552
 4655SOL    HW114864   5.037   4.446   1.600
 4655SOL    HW214865   5.164   4.349   1.568
 4656SOL     OW14866   1.127   0.924   3.167
 4656SOL    HW114867   1.185   0.871   3.105
 4656SOL    HW214868   1.043   0.872   3.187
 4657SOL     OW14869   4.908   6.309   1.710
 4657SOL    HW114870   4.815   6.310   1.674
 4657SOL    HW214871   4.970   6.271   1.641
 4658SOL     OW14872   3.559   1.286   2.628
 4658SOL    HW114873   3.496   1.356   2.661
 4658SOL    HW214874   3.585   1.225   2.703
 4659SOL     OW14875   3.037   4.772   5.269
 4659SOL    HW114876   3.084   4.814   5.191
 4659SOL    HW214877   3.020   4.675   5.249
 4660SOL     OW14878   1.187   4.274   6.238
 4660SOL    HW114879   1.264   4.247   6.295
 4660SOL    HW214880   1.218   4.341   6.170
 4661SOL     OW14881   3.339   4.141   5.563
 4661SOL    HW114882   3.431   4.151   5.525
 4661SOL    HW214883   3.283   4.086   5.500
 4662SOL     OW14884   3.376   0.412   5.580
 4662SOL    HW114885   3.313   0.479   5.618
 4662SOL    HW214886   3.331   0.362   5.505
 4663SOL     OW14887   0.340   2.416   2.499
 4663SOL    HW114888   0.372   2.330   2.538
 4663SOL    HW214889   0.285   2.397   2.417
 4664SOL     OW14890   1.391   1.416   0.969
 4664SOL    HW114891   1.339   1.341   1.009
 4664SOL    HW214892   1.441   1.464   1.041
 4665SOL     OW14893   3.263   6.859   6.565
 4665SOL    HW114894   3.321   6.922   6.515
 4665SOL    HW214895   3.208   6.909   6.631
 4666SOL     OW14896   1.509   2.295   0.549
 4666SOL    HW114897   1.487   2.202   0.577
 4666SOL    HW214898   1.512   2.301   0.449
 4667SOL     OW14899   6.128   3.562   2.767
 4667SOL    HW114900   6.174   3.534   2.851
 4667SOL    HW214901   6.177   3.639   2.726
 4668SOL     OW14902   4.216   1.915   2.453
 4668SOL    HW114903   4.166   1.989   2.407
 4668SOL    HW214904   4.314   1.923   2.433
 4669SOL     OW14905   5.209   5.954   6.473
 4669SOL    HW114906   5.210   5.875   6.412
 4669SOL    HW214907   5.119   5.998   6.468
 4670SOL     OW14908   3.122   2.220   5.403
 4670SOL    HW114909   3.151   2.280   5.329
 4670SOL    HW214910   3.200   2.167   5.436
 4671SOL     OW14911   6.559   2.597   1.740
 4671SOL    HW114912   6.478   2.556   1.782
 4671SOL    HW214913   6.531   2.658   1.666
 4672SOL     OW14914   2.731   4.873   6.255
 4672SOL    HW114915   2.661   4.939   6.282
 4672SOL    HW214916   2.772   4.901   6.169
 4673SOL     OW14917   5.072   0.315   1.702
 4673SOL    HW114918   5.138   0.249   1.667
 4673SOL    HW214919   5.016   0.349   1.627
 4674SOL     OW14920   5.319   6.779   6.056
 4674SOL    HW114921   5.320   6.812   5.961
 4674SOL    HW214922   5.257   6.836   6.110
 4675SOL     OW14923   1.632   1.679   6.388
 4675SOL    HW114924   1.623   1.767   6.342
 4675SOL    HW214925   1.698   1.622   6.339
 4676SOL     OW14926   0.390   6.420   3.656
 4676SOL    HW114927   0.451   6.441   3.733
 4676SOL    HW214928   0.391   6.321   3.639
 4677SOL     OW14929   2.684   1.623   6.509
 4677SOL    HW114930   2.776   1.658   6.491
 4677SOL    HW214931   2.680   1.526   6.483
 4678SOL     OW14932   1.513   4.689   3.144
 4678SOL    HW114933   1.585   4.730   3.201
 4678SOL    HW214934   1.539   4.696   3.048
 4679SOL     OW14935   4.032   0.369   0.349
 4679SOL    HW114936   3.987   0.446   0.394
 4679SOL    HW214937   4.024   0.287   0.406
 4680SOL     OW14938   3.226   1.649   0.248
 4680SOL    HW114939   3.287   1.722   0.278
 4680SOL    HW214940   3.133   1.685   0.239
 4681SOL     OW14941   5.256   5.385   6.809
 4681SOL    HW114942   5.242   5.295   6.769
 4681SOL    HW214943   5.254   5.378   6.909
 4682SOL     OW14944   4.849   4.146   5.580
 4682SOL    HW114945   4.755   4.180   5.593
 4682SOL    HW214946   4.884   4.178   5.492
 4683SOL     OW14947   4.196   4.680   2.399
 4683SOL    HW114948   4.166   4.721   2.313
 4683SOL    HW214949   4.127   4.694   2.469
 4684SOL     OW14950   5.801   0.598   5.130
 4684SOL    HW114951   5.862   0.661   5.081
 4684SOL    HW214952   5.844   0.508   5.135
 4685SOL     OW14953   0.866   5.864   5.475
 4685SOL    HW114954   0.860   5.916   5.390
 4685SOL    HW214955   0.962   5.849   5.499
 4686SOL     OW14956   4.337   4.980   0.461
 4686SOL    HW114957   4.407   4.909   0.470
 4686SOL    HW214958   4.337   5.037   0.543
 4687SOL     OW14959   6.252   3.476   4.213
 4687SOL    HW114960   6.255   3.540   4.289
 4687SOL    HW214961   6.297   3.391   4.239
 4688SOL     OW14962   5.699   4.160   4.830
 4688SOL    HW114963   5.666   4.086   4.773
 4688SOL    HW214964   5.770   4.212   4.780
 4689SOL     OW14965   4.992   1.078   0.291
 4689SOL    HW114966   5.031   1.012   0.227
 4689SOL    HW214967   5.064   1.139   0.324
 4690SOL     OW14968   1.144   0.639   6.941
 4690SOL    HW114969   1.200   0.610   7.018
 4690SOL    HW214970   1.200   0.696   6.880
 4691SOL     OW14971   2.702   4.927   1.677
 4691SOL    HW114972   2.792   4.886   1.663
 4691SOL    HW214973   2.713   5.021   1.710
 4692SOL     OW14974   6.056   5.966   1.714
 4692SOL    HW114975   6.130   5.920   1.763
 4692SOL    HW214976   5.971   5.958   1.766
 4693SOL     OW14977   1.152   2.076   3.507
 4693SOL    HW114978   1.145   2.123   3.418
 4693SOL    HW214979   1.060   2.055   3.540
 4694SOL     OW14980   2.294   1.090   0.120
 4694SOL    HW114981   2.252   1.048   0.200
 4694SOL    HW214982   2.246   1.060   0.038
 4695SOL     OW14983   0.959   3.423   2.264
 4695SOL    HW114984   0.867   3.395   2.238
 4695SOL    HW214985   1.004   3.349   2.313
 4696SOL     OW14986   0.084   4.205   0.121
 4696SOL    HW114987   0.164   4.260   0.100
 4696SOL    HW214988   0.109   4.135   0.188
 4697SOL     OW14989   1.648   3.420   0.687
 4697SOL    HW114990   1.601   3.508   0.691
 4697SOL    HW214991   1.735   3.427   0.737
 4698SOL     OW14992   4.368   4.995   2.666
 4698SOL    HW114993   4.350   5.064   2.596
 4698SOL    HW214994   4.447   4.940   2.639
 4699SOL     OW14995   1.530   6.589   2.404
 4699SOL    HW114996   1.502   6.680   2.375
 4699SOL    HW214997   1.453   6.526   2.395
 4700SOL     OW14998   0.101   1.328   3.410
 4700SOL    HW114999   0.011   1.299   3.376
 4700SOL    HW215000   0.147   1.382   3.339
 4701SOL     OW15001   2.462   2.540   0.623
 4701SOL    HW115002   2.405   2.622   0.627
 4701SOL    HW215003   2.414   2.468   0.573
 4702SOL     OW15004   4.903   4.896   0.161
 4702SOL    HW115005   4.831   4.892   0.231
 4702SOL    HW215006   4.952   4.983   0.169
 4703SOL     OW15007   0.616   1.653   1.686
 4703SOL    HW115008   0.573   1.715   1.621
 4703SOL    HW215009   0.581   1.671   1.778
 4704SOL     OW15010   0.507   6.298   0.223
 4704SOL    HW115011   0.473   6.372   0.281
 4704SOL    HW215012   0.528   6.218   0.279
 4705SOL     OW15013   3.570   2.875   1.801
 4705SOL    HW115014   3.490   2.870   1.861
 4705SOL    HW215015   3.606   2.783   1.786
 4706SOL     OW15016   3.221   0.094   0.169
 4706SOL    HW115017   3.121   0.092   0.173
 4706SOL    HW215018   3.251   0.169   0.109
 4707SOL     OW15019   1.596   6.816   1.124
 4707SOL    HW115020   1.558   6.732   1.084
 4707SOL    HW215021   1.526   6.888   1.122
 4708SOL     OW15022   1.217   1.932   6.332
 4708SOL    HW115023   1.144   1.865   6.322
 4708SOL    HW215024   1.248   1.934   6.427
 4709SOL     OW15025   4.598   5.635   5.579
 4709SOL    HW115026   4.585   5.716   5.521
 4709SOL    HW215027   4.527   5.568   5.559
 4710SOL     OW15028   5.014   6.694   5.276
 4710SOL    HW115029   5.025   6.743   5.189
 4710SOL    HW215030   5.010   6.760   5.351
 4711SOL     OW15031   6.152   1.344   1.748
 4711SOL    HW115032   6.081   1.406   1.780
 4711SOL    HW215033   6.173   1.277   1.819
 4712SOL     OW15034   2.813   4.403   0.355
 4712SOL    HW115035   2.879   4.361   0.294
 4712SOL    HW215036   2.791   4.495   0.324
 4713SOL     OW15037   3.854   3.980   1.222
 4713SOL    HW115038   3.953   3.967   1.216
 4713SOL    HW215039   3.819   4.008   1.133
 4714SOL     OW15040   0.533   1.877   6.269
 4714SOL    HW115041   0.511   1.968   6.235
 4714SOL    HW215042   0.556   1.882   6.366
 4715SOL     OW15043   5.701   2.539   2.573
 4715SOL    HW115044   5.655   2.524   2.485
 4715SOL    HW215045   5.766   2.614   2.564
 4716SOL     OW15046   4.384   6.354   6.702
 4716SOL    HW115047   4.334   6.402   6.630
 4716SOL    HW215048   4.352   6.260   6.707
 4717SOL     OW15049   6.690   0.016   3.985
 4717SOL    HW115050   6.715   6.964   4.045
 4717SOL    HW215051   6.769   0.078   3.976
 4718SOL     OW15052   5.338   2.205   1.691
 4718SOL    HW115053   5.379   2.296   1.694
 4718SOL    HW215054   5.411   2.136   1.693
 4719SOL     OW15055   4.797   3.045   1.683
 4719SOL    HW115056   4.723   3.030   1.749
 4719SOL    HW215057   4.785   2.983   1.606
 4720SOL     OW15058   2.365   5.309   5.941
 4720SOL    HW115059   2.438   5.249   5.972
 4720SOL    HW215060   2.371   5.396   5.990
 4721SOL     OW15061   6.516   2.154   2.456
 4721SOL    HW115062   6.599   2.179   2.506
 4721SOL    HW215063   6.436   2.177   2.511
 4722SOL     OW15064   1.050   6.152   6.608
 4722SOL    HW115065   1.078   6.153   6.704
 4722SOL    HW215066   1.079   6.066   6.565
 4723SOL     OW15067   2.782   3.498   5.830
 4723SOL    HW115068   2.843   3.459   5.899
 4723SOL    HW215069   2.794   3.597   5.828
 4724SOL     OW15070   5.979   6.730   2.892
 4724SOL    HW115071   5.995   6.759   2.987
 4724SOL    HW215072   6.064   6.693   2.854
 4725SOL     OW15073   6.546   5.213   1.221
 4725SOL    HW115074   6.610   5.213   1.145
 4725SOL    HW215075   6.529   5.308   1.250
 4726SOL     OW15076   1.033   2.835   6.236
 4726SOL    HW115077   1.099   2.787   6.294
 4726SOL    HW215078   0.975   2.768   6.189
 4727SOL     OW15079   1.201   6.000   1.175
 4727SOL    HW115080   1.272   5.937   1.207
 4727SOL    HW215081   1.204   6.083   1.231
 4728SOL     OW15082   5.803   0.804   1.860
 4728SOL    HW115083   5.776   0.794   1.956
 4728SOL    HW215084   5.833   0.898   1.844
 4729SOL     OW15085   3.437   1.707   0.562
 4729SOL    HW115086   3.481   1.619   0.549
 4729SOL    HW215087   3.368   1.721   0.491
 4730SOL     OW15088   3.329   5.847   5.669
 4730SOL    HW115089   3.277   5.928   5.695
 4730SOL    HW215090   3.410   5.840   5.727
 4731SOL     OW15091   4.078   0.665   6.837
 4731SOL    HW115092   3.982   0.636   6.838
 4731SOL    HW215093   4.111   0.669   6.743
 4732SOL     OW15094   1.256   4.021   5.774
 4732SOL    HW115095   1.233   3.971   5.858
 4732SOL    HW215096   1.236   4.118   5.786
 4733SOL     OW15097   1.049   3.916   3.838
 4733SOL    HW115098   1.074   3.919   3.934
 4733SOL    HW215099   1.003   4.001   3.813
 4734SOL     OW15100   3.769   2.686   0.010
 4734SOL    HW115101   3.813   2.716   6.950
 4734SOL    HW215102   3.838   2.670   0.080
 4735SOL     OW15103   6.203   5.532   3.852
 4735SOL    HW115104   6.262   5.476   3.910
 4735SOL    HW215105   6.109   5.500   3.859
 4736SOL     OW15106   6.566   1.830   5.342
 4736SOL    HW115107   6.555   1.731   5.333
 4736SOL    HW215108   6.587   1.853   5.437
 4737SOL     OW15109   2.593   4.537   1.791
 4737SOL    HW115110   2.507   4.555   1.838
 4737SOL    HW215111   2.669   4.569   1.848
 4738SOL     OW15112   0.735   6.345   3.048
 4738SOL    HW115113   0.708   6.269   2.988
 4738SOL    HW215114   0.779   6.416   2.993
 4739SOL     OW15115   4.010   1.043   3.099
 4739SOL    HW115116   4.107   1.056   3.076
 4739SOL    HW215117   3.959   1.126   3.076
 4740SOL     OW15118   0.968   1.531   1.452
 4740SOL    HW115119   1.025   1.581   1.517
 4740SOL    HW215120   0.889   1.492   1.500
 4741SOL     OW15121   4.843   3.498   0.700
 4741SOL    HW115122   4.747   3.480   0.720
 4741SOL    HW215123   4.851   3.541   0.610
 4742SOL     OW15124   3.268   6.884   6.140
 4742SOL    HW115125   3.281   6.943   6.220
 4742SOL    HW215126   3.216   6.933   6.071
 4743SOL     OW15127   1.842   3.374   4.107
 4743SOL    HW115128   1.780   3.295   4.106
 4743SOL    HW215129   1.813   3.440   4.038
 4744SOL     OW15130   1.793   4.061   0.614
 4744SOL    HW115131   1.819   4.060   0.518
 4744SOL    HW215132   1.731   3.984   0.633
 4745SOL     OW15133   3.097   5.069   0.048
 4745SOL    HW115134   3.097   5.165   0.020
 4745SOL    HW215135   3.052   5.060   0.137
 4746SOL     OW15136   5.384   5.616   2.038
 4746SOL    HW115137   5.367   5.533   2.091
 4746SOL    HW215138   5.464   5.603   1.980
 4747SOL     OW15139   1.523   3.763   6.755
 4747SOL    HW115140   1.483   3.682   6.797
 4747SOL    HW215141   1.593   3.736   6.689
 4748SOL     OW15142   1.110   5.182   0.752
 4748SOL    HW115143   1.117   5.281   0.745
 4748SOL    HW215144   1.166   5.150   0.829
 4749SOL     OW15145   2.504   6.206   5.633
 4749SOL    HW115146   2.586   6.221   5.577
 4749SOL    HW215147   2.531   6.174   5.724
 4750SOL     OW15148   0.202   4.089   4.079
 4750SOL    HW115149   0.161   4.057   3.994
 4750SOL    HW215150   0.245   4.011   4.126
 4751SOL     OW15151   4.141   1.857   1.820
 4751SOL    HW115152   4.090   1.943   1.813
 4751SOL    HW215153   4.130   1.819   1.911
 4752SOL     OW15154   4.100   0.833   6.045
 4752SOL    HW115155   4.140   0.796   6.129
 4752SOL    HW215156   4.065   0.925   6.063
 4753SOL     OW15157   5.552   0.336   4.272
 4753SOL    HW115158   5.535   0.274   4.196
 4753SOL    HW215159   5.568   0.283   4.355
 4754SOL     OW15160   5.756   6.109   4.918
 4754SOL    HW115161   5.811   6.033   4.884
 4754SOL    HW215162   5.718   6.085   5.008
 4755SOL     OW15163   2.089   0.656   0.857
 4755SOL    HW115164   2.138   0.720   0.916
 4755SOL    HW215165   2.009   0.621   0.905
 4756SOL     OW15166   5.936   2.792   0.361
 4756SOL    HW115167   5.993   2.710   0.371
 4756SOL    HW215168   5.886   2.808   0.446
 4757SOL     OW15169   2.275   1.738   0.828
 4757SOL    HW115170   2.196   1.791   0.859
 4757SOL    HW215171   2.296   1.667   0.895
 4758SOL     OW15172   2.295   5.949   3.983
 4758SOL    HW115173   2.231   5.987   4.050
 4758SOL    HW215174   2.247   5.880   3.928
 4759SOL     OW15175   6.118   4.636   5.455
 4759SOL    HW115176   6.108   4.637   5.356
 4759SOL    HW215177   6.031   4.615   5.498
 4760SOL     OW15178   2.036   2.245   0.705
 4760SOL    HW115179   2.058   2.299   0.786
 4760SOL    HW215180   1.969   2.295   0.649
 4761SOL     OW15181   0.864   6.531   0.120
 4761SOL    HW115182   0.885   6.570   0.210
 4761SOL    HW215183   0.949   6.504   0.074
 4762SOL     OW15184   0.703   6.143   2.323
 4762SOL    HW115185   0.673   6.055   2.286
 4762SOL    HW215186   0.698   6.213   2.252
 4763SOL     OW15187   6.265   0.142   3.168
 4763SOL    HW115188   6.170   0.148   3.140
 4763SOL    HW215189   6.280   0.199   3.249
 4764SOL     OW15190   4.894   3.827   4.360
 4764SOL    HW115191   4.889   3.927   4.366
 4764SOL    HW215192   4.988   3.800   4.338
 4765SOL     OW15193   4.939   1.059   3.863
 4765SOL    HW115194   4.994   0.993   3.915
 4765SOL    HW215195   4.958   1.151   3.898
 4766SOL     OW15196   5.296   6.047   4.155
 4766SOL    HW115197   5.259   6.106   4.084
 4766SOL    HW215198   5.232   6.042   4.231
 4767SOL     OW15199   3.130   5.685   5.534
 4767SOL    HW115200   3.189   5.755   5.572
 4767SOL    HW215201   3.055   5.728   5.483
 4768SOL     OW15202   4.294   2.166   6.256
 4768SOL    HW115203   4.345   2.081   6.257
 4768SOL    HW215204   4.355   2.243   6.274
 4769SOL     OW15205   5.142   4.202   6.731
 4769SOL    HW115206   5.100   4.239   6.814
 4769SOL    HW215207   5.190   4.118   6.753
 4770SOL     OW15208   0.355   1.072   4.387
 4770SOL    HW115209   0.291   1.068   4.310
 4770SOL    HW215210   0.440   1.026   4.362
 4771SOL     OW15211   2.804   6.036   5.210
 4771SOL    HW115212   2.860   6.119   5.216
 4771SOL    HW215213   2.863   5.958   5.188
 4772SOL     OW15214   4.053   5.067   1.425
 4772SOL    HW115215   4.094   5.142   1.373
 4772SOL    HW215216   4.037   4.989   1.365
 4773SOL     OW15217   6.879   5.414   3.584
 4773SOL    HW115218   6.867   5.458   3.673
 4773SOL    HW215219   6.963   5.447   3.542
 4774SOL     OW15220   1.507   3.043   1.469
 4774SOL    HW115221   1.572   3.083   1.533
 4774SOL    HW215222   1.459   3.116   1.420
 4775SOL     OW15223   5.315   6.662   2.611
 4775SOL    HW115224   5.326   6.664   2.511
 4775SOL    HW215225   5.257   6.585   2.637
 4776SOL     OW15226   1.173   6.484   5.289
 4776SOL    HW115227   1.090   6.464   5.237
 4776SOL    HW215228   1.197   6.404   5.345
 4777SOL     OW15229   2.140   5.179   1.082
 4777SOL    HW115230   2.102   5.244   1.016
 4777SOL    HW215231   2.196   5.229   1.149
 4778SOL     OW15232   6.286   2.307   3.932
 4778SOL    HW115233   6.336   2.388   3.901
 4778SOL    HW215234   6.245   2.325   4.021
 4779SOL     OW15235   6.255   5.875   2.158
 4779SOL    HW115236   6.295   5.908   2.244
 4779SOL    HW215237   6.161   5.908   2.150
 4780SOL     OW15238   5.905   0.943   0.096
 4780SOL    HW115239   5.845   0.893   0.159
 4780SOL    HW215240   5.906   1.040   0.122
 4781SOL     OW15241   2.299   5.376   2.344
 4781SOL    HW115242   2.199   5.383   2.338
 4781SOL    HW215243   2.341   5.456   2.301
 4782SOL     OW15244   5.382   5.664   0.483
 4782SOL    HW115245   5.467   5.622   0.453
 4782SOL    HW215246   5.394   5.705   0.573
 4783SOL     OW15247   4.297   3.911   6.771
 4783SOL    HW115248   4.332   3.979   6.706
 4783SOL    HW215249   4.368   3.845   6.792
 4784SOL     OW15250   6.174   3.931   6.865
 4784SOL    HW115251   6.227   3.970   6.941
 4784SOL    HW215252   6.144   3.839   6.890
 4785SOL     OW15253   1.245   6.706   2.893
 4785SOL    HW115254   1.225   6.702   2.795
 4785SOL    HW215255   1.195   6.783   2.934
 4786SOL     OW15256   2.705   1.287   0.076
 4786SOL    HW115257   2.642   1.281   0.153
 4786SOL    HW215258   2.783   1.226   0.093
 4787SOL     OW15259   4.179   1.449   2.246
 4787SOL    HW115260   4.202   1.413   2.156
 4787SOL    HW215261   4.174   1.549   2.241
 4788SOL     OW15262   0.299   5.806   6.457
 4788SOL    HW115263   0.257   5.884   6.504
 4788SOL    HW215264   0.388   5.833   6.419
 4789SOL     OW15265   4.964   2.065   1.136
 4789SOL    HW115266   4.947   1.967   1.122
 4789SOL    HW215267   4.933   2.116   1.055
 4790SOL     OW15268   6.309   2.253   5.341
 4790SOL    HW115269   6.387   2.316   5.334
 4790SOL    HW215270   6.269   2.261   5.433
 4791SOL     OW15271   0.248   2.803   1.522
 4791SOL    HW115272   0.149   2.797   1.507
 4791SOL    HW215273   0.273   2.748   1.601
 4792SOL     OW15274   1.948   4.110   3.657
 4792SOL    HW115275   2.046   4.095   3.643
 4792SOL    HW215276   1.929   4.208   3.658
 4793SOL     OW15277   1.885   3.153   5.201
 4793SOL    HW115278   1.832   3.118   5.279
 4793SOL    HW215279   1.971   3.103   5.194
 4794SOL     OW15280   4.436   0.326   4.525
 4794SOL    HW115281   4.440   0.415   4.479
 4794SOL    HW215282   4.474   0.334   4.617
 4795SOL     OW15283   6.094   2.079   4.203
 4795SOL    HW115284   6.073   1.981   4.202
 4795SOL    HW215285   6.192   2.092   4.211
 4796SOL     OW15286   4.840   1.946   5.163
 4796SOL    HW115287   4.849   2.044   5.142
 4796SOL    HW215288   4.909   1.895   5.113
 4797SOL     OW15289   0.962   6.349   5.506
 4797SOL    HW115290   0.877   6.314   5.545
 4797SOL    HW215291   0.960   6.449   5.506
 4798SOL     OW15292   0.967   4.221   5.107
 4798SOL    HW115293   0.898   4.153   5.082
 4798SOL    HW215294   1.024   4.241   5.027
 4799SOL     OW15295   4.904   1.762   0.534
 4799SOL    HW115296   4.938   1.815   0.456
 4799SOL    HW215297   4.851   1.684   0.501
 4800SOL     OW15298   3.231   2.819   6.120
 4800SOL    HW115299   3.263   2.818   6.025
 4800SOL    HW215300   3.139   2.858   6.123
 4801SOL     OW15301   2.951   2.355   6.571
 4801SOL    HW115302   2.874   2.413   6.596
 4801SOL    HW215303   2.967   2.288   6.643
 4802SOL     OW15304   1.206   6.750   1.972
 4802SOL    HW115305   1.273   6.823   1.984
 4802SOL    HW215306   1.160   6.761   1.883
 4803SOL     OW15307   0.102   4.974   0.415
 4803SOL    HW115308   0.164   4.917   0.361
 4803SOL    HW215309   0.057   4.918   0.485
 4804SOL     OW15310   5.918   6.002   1.239
 4804SOL    HW115311   5.893   6.081   1.183
 4804SOL    HW215312   6.018   5.998   1.248
 4805SOL     OW15313   6.217   2.200   2.547
 4805SOL    HW115314   6.222   2.211   2.646
 4805SOL    HW215315   6.184   2.284   2.505
 4806SOL     OW15316   1.356   4.482   2.883
 4806SOL    HW115317   1.410   4.484   2.799
 4806SOL    HW215318   1.314   4.572   2.898
 4807SOL     OW15319   1.097   4.937   0.611
 4807SOL    HW115320   1.129   5.025   0.646
 4807SOL    HW215321   1.174   4.886   0.572
 4808SOL     OW15322   5.416   4.607   0.112
 4808SOL    HW115323   5.498   4.551   0.115
 4808SOL    HW215324   5.338   4.554   0.147
 4809SOL     OW15325   3.650   4.922   0.636
 4809SOL    HW115326   3.693   4.876   0.714
 4809SOL    HW215327   3.644   4.859   0.559
 4810SOL     OW15328   1.643   5.216   2.509
 4810SOL    HW115329   1.601   5.280   2.573
 4810SOL    HW215330   1.740   5.238   2.498
 4811SOL     OW15331   2.521   4.128   1.543
 4811SOL    HW115332   2.616   4.130   1.513
 4811SOL    HW215333   2.499   4.036   1.577
 4812SOL     OW15334   0.087   5.100   2.481
 4812SOL    HW115335   0.003   5.149   2.457
 4812SOL    HW215336   0.164   5.140   2.430
 4813SOL     OW15337   6.044   2.395   0.179
 4813SOL    HW115338   5.968   2.341   0.144
 4813SOL    HW215339   6.104   2.423   0.104
 4814SOL     OW15340   7.006   3.368   1.106
 4814SOL    HW115341   6.938   3.335   1.171
 4814SOL    HW215342   0.025   3.290   1.061
 4815SOL     OW15343   5.684   4.018   2.313
 4815SOL    HW115344   5.699   4.022   2.214
 4815SOL    HW215345   5.688   3.922   2.343
 4816SOL     OW15346   2.067   4.436   1.145
 4816SOL    HW115347   2.025   4.441   1.236
 4816SOL    HW215348   1.998   4.414   1.077
 4817SOL     OW15349   1.225   1.631   6.734
 4817SOL    HW115350   1.207   1.571   6.657
 4817SOL    HW215351   1.147   1.692   6.748
 4818SOL     OW15352   0.880   6.195   4.238
 4818SOL    HW115353   0.936   6.259   4.291
 4818SOL    HW215354   0.929   6.108   4.229
 4819SOL     OW15355   1.585   2.307   0.286
 4819SOL    HW115356   1.595   2.228   0.347
 4819SOL    HW215357   1.654   2.301   0.213
 4820SOL     OW15358   6.173   2.670   2.617
 4820SOL    HW115359   6.171   2.652   2.519
 4820SOL    HW215360   6.119   2.601   2.665
 4821SOL     OW15361   0.761   6.402   2.669
 4821SOL    HW115362   0.854   6.437   2.676
 4821SOL    HW215363   0.724   6.421   2.578
 4822SOL     OW15364   2.159   3.379   4.741
 4822SOL    HW115365   2.127   3.472   4.761
 4822SOL    HW215366   2.102   3.340   4.668
 4823SOL     OW15367   1.919   0.307   4.489
 4823SOL    HW115368   1.933   0.240   4.416
 4823SOL    HW215369   1.955   0.272   4.575
 4824SOL     OW15370   5.300   1.891   4.653
 4824SOL    HW115371   5.350   1.947   4.587
 4824SOL    HW215372   5.227   1.945   4.694
 4825SOL     OW15373   1.846   3.065   3.977
 4825SOL    HW115374   1.937   3.107   3.981
 4825SOL    HW215375   1.855   2.966   3.987
 4826SOL     OW15376   6.188   1.301   6.740
 4826SOL    HW115377   6.209   1.374   6.676
 4826SOL    HW215378   6.109   1.249   6.706
 4827SOL     OW15379   6.190   1.570   0.599
 4827SOL    HW115380   6.237   1.594   0.514
 4827SOL    HW215381   6.251   1.514   0.655
 4828SOL     OW15382   5.756   2.784   0.564
 4828SOL    HW115383   5.722   2.859   0.621
 4828SOL    HW215384   5.824   2.731   0.615
 4829SOL     OW15385   3.959   7.022   6.415
 4829SOL    HW115386   4.038   0.030   6.363
 4829SOL    HW215387   3.921   6.941   6.369
 4830SOL     OW15388   4.334   6.474   3.904
 4830SOL    HW115389   4.309   6.377   3.913
 4830SOL    HW215390   4.251   6.530   3.906
 4831SOL     OW15391   0.126   4.492   6.417
 4831SOL    HW115392   0.066   4.470   6.339
 4831SOL    HW215393   0.071   4.499   6.500
 4832SOL     OW15394   3.823   3.529   3.905
 4832SOL    HW115395   3.772   3.558   3.824
 4832SOL    HW215396   3.817   3.600   3.975
 4833SOL     OW15397   4.762   2.141   3.039
 4833SOL    HW115398   4.694   2.086   2.991
 4833SOL    HW215399   4.851   2.097   3.032
 4834SOL     OW15400   3.819   6.302   0.986
 4834SOL    HW115401   3.871   6.352   1.055
 4834SOL    HW215402   3.760   6.235   1.031
 4835SOL     OW15403   5.840   1.600   6.888
 4835SOL    HW115404   5.779   1.537   6.839
 4835SOL    HW215405   5.917   1.549   6.926
 4836SOL     OW15406   5.275   3.183   4.826
 4836SOL    HW115407   5.272   3.251   4.899
 4836SOL    HW215408   5.205   3.113   4.843
 4837SOL     OW15409   6.465   4.224   3.011
 4837SOL    HW115410   6.390   4.170   3.048
 4837SOL    HW215411   6.540   4.163   2.986
 4838SOL     OW15412   0.736   5.201   0.430
 4838SOL    HW115413   0.701   5.283   0.385
 4838SOL    HW215414   0.714   5.120   0.376
 4839SOL     OW15415   2.069   3.437   6.821
 4839SOL    HW115416   2.055   3.338   6.828
 4839SOL    HW215417   2.126   3.456   6.741
 4840SOL     OW15418   6.561   4.365   6.510
 4840SOL    HW115419   6.492   4.299   6.480
 4840SOL    HW215420   6.616   4.324   6.583
 4841SOL     OW15421   2.412   5.527   1.836
 4841SOL    HW115422   2.485   5.462   1.856
 4841SOL    HW215423   2.356   5.491   1.760
 4842SOL     OW15424   3.441   5.235   2.915
 4842SOL    HW115425   3.344   5.218   2.901
 4842SOL    HW215426   3.492   5.206   2.834
 4843SOL     OW15427   6.663   3.026   1.385
 4843SOL    HW115428   6.597   3.081   1.334
 4843SOL    HW215429   6.623   2.998   1.472
 4844SOL     OW15430   0.930   3.332   6.675
 4844SOL    HW115431   0.964   3.394   6.604
 4844SOL    HW215432   0.836   3.306   6.654
 4845SOL     OW15433   5.606   5.419   0.209
 4845SOL    HW115434   5.586   5.504   0.161
 4845SOL    HW215435   5.641   5.351   0.144
 4846SOL     OW15436   6.688   3.094   3.763
 4846SOL    HW115437   6.592   3.115   3.780
 4846SOL    HW215438   6.695   3.010   3.710
 4847SOL     OW15439   2.340   0.482   6.498
 4847SOL    HW115440   2.276   0.435   6.437
 4847SOL    HW215441   2.429   0.436   6.495
 4848SOL     OW15442   1.437   0.798   4.643
 4848SOL    HW115443   1.473   0.850   4.565
 4848SOL    HW215444   1.457   0.847   4.728
 4849SOL     OW15445   0.912   6.000   6.913
 4849SOL    HW115446   0.924   6.099   6.906
 4849SOL    HW215447   0.986   5.962   6.969
 4850SOL     OW15448   3.911   1.374   1.897
 4850SOL    HW115449   4.007   1.349   1.908
 4850SOL    HW215450   3.857   1.334   1.970
 4851SOL     OW15451   4.002   6.947   5.658
 4851SOL    HW115452   3.993   6.975   5.753
 4851SOL    HW215453   4.009   6.847   5.653
 4852SOL     OW15454   1.178   6.128   5.084
 4852SOL    HW115455   1.180   6.200   5.015
 4852SOL    HW215456   1.098   6.069   5.067
 4853SOL     OW15457   3.611   0.642   3.080
 4853SOL    HW115458   3.664   0.562   3.108
 4853SOL    HW215459   3.673   0.720   3.070
 4854SOL     OW15460   4.161   6.688   1.763
 4854SOL    HW115461   4.170   6.723   1.670
 4854SOL    HW215462   4.203   6.752   1.827
 4855SOL     OW15463   6.043   2.702   4.451
 4855SOL    HW115464   6.089   2.791   4.457
 4855SOL    HW215465   6.068   2.646   4.530
 4856SOL     OW15466   1.323   2.834   3.121
 4856SOL    HW115467   1.324   2.746   3.170
 4856SOL    HW215468   1.228   2.861   3.105
 4857SOL     OW15469   3.739   1.709   4.213
 4857SOL    HW115470   3.674   1.784   4.197
 4857SOL    HW215471   3.809   1.738   4.277
 4858SOL     OW15472   0.540   0.393   4.644
 4858SOL    HW115473   0.632   0.431   4.650
 4858SOL    HW215474   0.541   0.311   4.588
 4859SOL     OW15475   0.963   6.536   4.335
 4859SOL    HW115476   1.007   6.513   4.422
 4859SOL    HW215477   1.008   6.486   4.261
 4860SOL     OW15478   4.268   4.404   1.717
 4860SOL    HW115479   4.326   4.339   1.767
 4860SOL    HW215480   4.299   4.411   1.622
 4861SOL     OW15481   6.082   5.324   0.219
 4861SOL    HW115482   6.127   5.401   0.174
 4861SOL    HW215483   6.094   5.331   0.318
 4862SOL     OW15484   2.454   4.432   4.955
 4862SOL    HW115485   2.385   4.387   4.898
 4862SOL    HW215486   2.463   4.383   5.041
 4863SOL     OW15487   4.922   3.828   1.240
 4863SOL    HW115488   4.923   3.734   1.274
 4863SOL    HW215489   4.915   3.828   1.141
 4864SOL     OW15490   4.171   1.710   2.264
 4864SOL    HW115491   4.075   1.697   2.238
 4864SOL    HW215492   4.179   1.791   2.322
 4865SOL     OW15493   2.600   6.404   4.260
 4865SOL    HW115494   2.557   6.439   4.177
 4865SOL    HW215495   2.645   6.317   4.240
 4866SOL     OW15496   6.714   4.199   1.552
 4866SOL    HW115497   6.717   4.277   1.489
 4866SOL    HW215498   6.621   4.163   1.555
 4867SOL     OW15499   4.143   5.742   2.307
 4867SOL    HW115500   4.219   5.678   2.294
 4867SOL    HW215501   4.068   5.716   2.247
 4868SOL     OW15502   6.496   5.042   2.328
 4868SOL    HW115503   6.481   5.046   2.427
 4868SOL    HW215504   6.464   4.954   2.294
 4869SOL     OW15505   0.747   1.301   1.186
 4869SOL    HW115506   0.825   1.251   1.223
 4869SOL    HW215507   0.663   1.250   1.203
 4870SOL     OW15508   0.120   6.124   1.621
 4870SOL    HW115509   0.052   6.051   1.617
 4870SOL    HW215510   0.136   6.151   1.716
 4871SOL     OW15511   1.169   0.894   5.191
 4871SOL    HW115512   1.139   0.913   5.285
 4871SOL    HW215513   1.185   0.979   5.143
 4872SOL     OW15514   6.500   5.650   3.820
 4872SOL    HW115515   6.570   5.580   3.802
 4872SOL    HW215516   6.452   5.628   3.905
 4873SOL     OW15517   6.706   5.017   3.843
 4873SOL    HW115518   6.787   5.056   3.800
 4873SOL    HW215519   6.695   4.922   3.813
 4874SOL     OW15520   5.938   3.023   3.191
 4874SOL    HW115521   6.007   3.038   3.120
 4874SOL    HW215522   5.972   3.060   3.278
 4875SOL     OW15523   6.058   3.170   1.510
 4875SOL    HW115524   5.966   3.145   1.540
 4875SOL    HW215525   6.117   3.089   1.509
 4876SOL     OW15526   5.556   1.374   4.025
 4876SOL    HW115527   5.533   1.337   4.115
 4876SOL    HW215528   5.473   1.386   3.971
 4877SOL     OW15529   1.033   1.791   6.834
 4877SOL    HW115530   0.958   1.734   6.868
 4877SOL    HW215531   0.999   1.882   6.811
 4878SOL     OW15532   6.765   0.405   2.751
 4878SOL    HW115533   6.734   0.389   2.845
 4878SOL    HW215534   6.725   0.490   2.717
 4879SOL     OW15535   4.533   5.112   3.466
 4879SOL    HW115536   4.566   5.063   3.385
 4879SOL    HW215537   4.466   5.055   3.514
 4880SOL     OW15538   5.738   3.435   0.087
 4880SOL    HW115539   5.669   3.397   0.149
 4880SOL    HW215540   5.829   3.411   0.121
 4881SOL     OW15541   1.777   0.996   6.809
 4881SOL    HW115542   1.753   0.920   6.749
 4881SOL    HW215543   1.697   1.053   6.825
 4882SOL     OW15544   4.986   1.782   4.975
 4882SOL    HW115545   4.939   1.847   4.915
 4882SOL    HW215546   4.934   1.696   4.978
 4883SOL     OW15547   5.561   4.729   1.909
 4883SOL    HW115548   5.480   4.766   1.954
 4883SOL    HW215549   5.541   4.637   1.876
 4884SOL     OW15550   3.568   0.378   1.505
 4884SOL    HW115551   3.565   0.279   1.512
 4884SOL    HW215552   3.647   0.406   1.451
 4885SOL     OW15553   1.564   5.442   2.650
 4885SOL    HW115554   1.563   5.515   2.581
 4885SOL    HW215555   1.621   5.471   2.727
 4886SOL     OW15556   0.326   6.113   1.001
 4886SOL    HW115557   0.235   6.150   1.022
 4886SOL    HW215558   0.379   6.105   1.086
 4887SOL     OW15559   0.819   0.484   2.976
 4887SOL    HW115560   0.873   0.451   3.053
 4887SOL    HW215561   0.735   0.430   2.968
 4888SOL     OW15562   2.307   6.351   4.279
 4888SOL    HW115563   2.398   6.314   4.259
 4888SOL    HW215564   2.255   6.283   4.331
 4889SOL     OW15565   6.374   0.998   6.387
 4889SOL    HW115566   6.320   1.073   6.425
 4889SOL    HW215567   6.463   0.995   6.434
 4890SOL     OW15568   0.617   2.071   6.515
 4890SOL    HW115569   0.528   2.102   6.547
 4890SOL    HW215570   0.663   2.021   6.588
 4891SOL     OW15571   1.387   4.841   6.910
 4891SOL    HW115572   1.446   4.776   6.863
 4891SOL    HW215573   1.342   4.900   6.843
 4892SOL     OW15574   3.493   6.009   1.666
 4892SOL    HW115575   3.406   5.966   1.643
 4892SOL    HW215576   3.478   6.081   1.734
 4893SOL     OW15577   6.965   3.879   1.733
 4893SOL    HW115578   6.968   3.974   1.765
 4893SOL    HW215579   6.924   3.877   1.642
 4894SOL     OW15580   2.076   2.019   2.808
 4894SOL    HW115581   2.018   1.941   2.785
 4894SOL    HW215582   2.170   1.989   2.821
 4895SOL     OW15583   0.813   5.543   2.956
 4895SOL    HW115584   0.825   5.635   2.918
 4895SOL    HW215585   0.772   5.483   2.888
 4896SOL     OW15586   1.978   5.751   1.797
 4896SOL    HW115587   1.904   5.770   1.861
 4896SOL    HW215588   1.944   5.692   1.723
 4897SOL     OW15589   2.539   4.462   6.327
 4897SOL    HW115590   2.547   4.461   6.227
 4897SOL    HW215591   2.459   4.408   6.354
 4898SOL     OW15592   3.537   1.525   4.074
 4898SOL    HW115593   3.633   1.518   4.100
 4898SOL    HW215594   3.514   1.621   4.057
 4899SOL     OW15595   6.518   5.217   2.947
 4899SOL    HW115596   6.602   5.176   2.912
 4899SOL    HW215597   6.439   5.168   2.910
 4900SOL     OW15598   1.685   5.579   4.370
 4900SOL    HW115599   1.764   5.637   4.388
 4900SOL    HW215600   1.630   5.620   4.297
 4901SOL     OW15601   3.616   6.504   6.196
 4901SOL    HW115602   3.530   6.551   6.174
 4901SOL    HW215603   3.663   6.479   6.111
 4902SOL     OW15604   2.553   1.718   4.736
 4902SOL    HW115605   2.602   1.674   4.810
 4902SOL    HW215606   2.594   1.808   4.718
 4903SOL     OW15607   2.849   5.872   6.723
 4903SOL    HW115608   2.779   5.906   6.786
 4903SOL    HW215609   2.900   5.798   6.767
 4904SOL     OW15610   1.417   0.278   4.197
 4904SOL    HW115611   1.468   0.213   4.254
 4904SOL    HW215612   1.479   0.319   4.131
 4905SOL     OW15613   4.065   0.650   2.322
 4905SOL    HW115614   4.019   0.604   2.245
 4905SOL    HW215615   4.149   0.600   2.345
 4906SOL     OW15616   4.672   2.182   5.886
 4906SOL    HW115617   4.712   2.090   5.881
 4906SOL    HW215618   4.572   2.175   5.884
 4907SOL     OW15619   4.138   6.040   0.938
 4907SOL    HW115620   4.230   6.069   0.963
 4907SOL    HW215621   4.082   6.030   1.021
 4908SOL     OW15622   5.049   4.886   6.615
 4908SOL    HW115623   4.970   4.896   6.555
 4908SOL    HW215624   5.019   4.873   6.709
 4909SOL     OW15625   6.483   0.031   4.662
 4909SOL    HW115626   6.525   7.000   4.590
 4909SOL    HW215627   6.384   0.036   4.646
 4910SOL     OW15628   5.260   6.477   4.578
 4910SOL    HW115629   5.328   6.463   4.650
 4910SOL    HW215630   5.169   6.459   4.616
 4911SOL     OW15631   0.992   3.615   4.134
 4911SOL    HW115632   1.031   3.638   4.045
 4911SOL    HW215633   0.898   3.649   4.140
 4912SOL     OW15634   5.311   1.769   0.281
 4912SOL    HW115635   5.327   1.670   0.285
 4912SOL    HW215636   5.356   1.806   0.200
 4913SOL     OW15637   3.709   3.334   4.583
 4913SOL    HW115638   3.667   3.421   4.611
 4913SOL    HW215639   3.719   3.275   4.663
 4914SOL     OW15640   3.738   6.623   5.445
 4914SOL    HW115641   3.787   6.695   5.397
 4914SOL    HW215642   3.803   6.568   5.499
 4915SOL     OW15643   4.189   0.572   4.521
 4915SOL    HW115644   4.213   0.547   4.615
 4915SOL    HW215645   4.136   0.498   4.479
 4916SOL     OW15646   1.697   1.025   3.790
 4916SOL    HW115647   1.698   0.988   3.883
 4916SOL    HW215648   1.789   1.019   3.751
 4917SOL     OW15649   1.474   4.737   1.226
 4917SOL    HW115650   1.449   4.735   1.129
 4917SOL    HW215651   1.540   4.664   1.244
 4918SOL     OW15652   3.580   6.608   2.357
 4918SOL    HW115653   3.655   6.546   2.380
 4918SOL    HW215654   3.496   6.578   2.402
 4919SOL     OW15655   2.781   2.332   6.955
 4919SOL    HW115656   2.713   2.356   7.024
 4919SOL    HW215657   2.854   2.279   6.997
 4920SOL     OW15658   5.266   0.477   5.213
 4920SOL    HW115659   5.243   0.496   5.118
 4920SOL    HW215660   5.361   0.503   5.231
 4921SOL     OW15661   1.601   4.421   0.386
 4921SOL    HW115662   1.513   4.375   0.397
 4921SOL    HW215663   1.586   4.517   0.365
 4922SOL     OW15664   1.898   3.065   4.886
 4922SOL    HW115665   1.959   3.072   4.965
 4922SOL    HW215666   1.807   3.035   4.916
 4923SOL     OW15667   3.577   1.465   0.568
 4923SOL    HW115668   3.675   1.447   0.558
 4923SOL    HW215669   3.539   1.402   0.636
 4924SOL     OW15670   2.342   1.605   5.558
 4924SOL    HW115671   2.324   1.619   5.656
 4924SOL    HW215672   2.408   1.531   5.546
 4925SOL     OW15673   5.785   6.877   1.936
 4925SOL    HW115674   5.707   6.936   1.956
 4925SOL    HW215675   5.780   6.795   1.993
 4926SOL     OW15676   5.237   1.941   0.465
 4926SOL    HW115677   5.247   1.872   0.392
 4926SOL    HW215678   5.173   2.011   0.435
 4927SOL     OW15679   4.094   3.490   3.969
 4927SOL    HW115680   4.122   3.528   4.058
 4927SOL    HW215681   4.012   3.537   3.937
 4928SOL     OW15682   1.056   0.387   6.875
 4928SOL    HW115683   1.070   0.480   6.909
 4928SOL    HW215684   0.995   0.388   6.796
 4929SOL     OW15685   1.266   4.754   4.349
 4929SOL    HW115686   1.202   4.750   4.426
 4929SOL    HW215687   1.359   4.767   4.384
 4930SOL     OW15688   4.519   0.678   2.935
 4930SOL    HW115689   4.591   0.714   2.877
 4930SOL    HW215690   4.436   0.733   2.922
 4931SOL     OW15691   6.868   7.016   0.640
 4931SOL    HW115692   6.786   0.018   0.588
 4931SOL    HW215693   6.916   6.943   0.591
 4932SOL     OW15694   2.413   3.407   1.632
 4932SOL    HW115695   2.383   3.466   1.557
 4932SOL    HW215696   2.362   3.430   1.715
 4933SOL     OW15697   2.226   0.264   3.457
 4933SOL    HW115698   2.276   0.279   3.543
 4933SOL    HW215699   2.266   0.185   3.410
 4934SOL     OW15700   2.632   5.220   2.638
 4934SOL    HW115701   2.677   5.147   2.690
 4934SOL    HW215702   2.584   5.281   2.701
 4935SOL     OW15703   1.470   1.497   6.676
 4935SOL    HW115704   1.425   1.567   6.731
 4935SOL    HW215705   1.403   1.453   6.616
 4936SOL     OW15706   1.983   4.774   1.167
 4936SOL    HW115707   2.001   4.692   1.221
 4936SOL    HW215708   1.938   4.749   1.082
 4937SOL     OW15709   6.804   2.364   6.367
 4937SOL    HW115710   6.711   2.355   6.403
 4937SOL    HW215711   6.866   2.307   6.420
 4938SOL     OW15712   2.517   6.151   6.355
 4938SOL    HW115713   2.602   6.162   6.303
 4938SOL    HW215714   2.443   6.199   6.308
 4939SOL     OW15715   6.611   2.011   4.348
 4939SOL    HW115716   6.663   2.041   4.268
 4939SOL    HW215717   6.618   1.911   4.356
 4940SOL     OW15718   0.843   1.127   5.055
 4940SOL    HW115719   0.804   1.190   5.121
 4940SOL    HW215720   0.939   1.151   5.038
 4941SOL     OW15721   4.640   3.095   5.482
 4941SOL    HW115722   4.596   3.132   5.401
 4941SOL    HW215723   4.724   3.147   5.501
 4942SOL     OW15724   5.487   2.992   5.972
 4942SOL    HW115725   5.400   3.039   5.958
 4942SOL    HW215726   5.471   2.894   5.981
 4943SOL     OW15727   4.552   3.579   6.066
 4943SOL    HW115728   4.483   3.625   6.122
 4943SOL    HW215729   4.522   3.577   5.971
 4944SOL     OW15730   2.304   4.313   1.686
 4944SOL    HW115731   2.356   4.257   1.622
 4944SOL    HW215732   2.294   4.406   1.649
 4945SOL     OW15733   1.146   6.949   4.243
 4945SOL    HW115734   1.196   6.868   4.273
 4945SOL    HW215735   1.101   6.992   4.321
 4946SOL     OW15736   1.118   5.370   0.196
 4946SOL    HW115737   1.038   5.347   0.139
 4946SOL    HW215738   1.116   5.313   0.278
 4947SOL     OW15739   2.153   0.561   0.466
 4947SOL    HW115740   2.129   0.622   0.390
 4947SOL    HW215741   2.202   0.481   0.431
 4948SOL     OW15742   1.962   3.006   2.865
 4948SOL    HW115743   1.891   2.937   2.850
 4948SOL    HW215744   1.944   3.052   2.952
 4949SOL     OW15745   6.028   4.371   5.752
 4949SOL    HW115746   6.112   4.400   5.798
 4949SOL    HW215747   5.982   4.451   5.713
 4950SOL     OW15748   1.761   4.890   4.758
 4950SOL    HW115749   1.782   4.829   4.682
 4950SOL    HW215750   1.799   4.981   4.740
 4951SOL     OW15751   5.573   0.680   4.832
 4951SOL    HW115752   5.585   0.602   4.894
 4951SOL    HW215753   5.485   0.724   4.850
 4952SOL     OW15754   0.164   0.420   5.908
 4952SOL    HW115755   0.110   0.342   5.941
 4952SOL    HW215756   0.171   0.416   5.808
 4953SOL     OW15757   2.010   0.098   3.239
 4953SOL    HW115758   2.014   0.106   3.339
 4953SOL    HW215759   1.917   0.071   3.212
 4954SOL     OW15760   3.597   3.059   0.292
 4954SOL    HW115761   3.661   3.070   0.215
 4954SOL    HW215762   3.506   3.039   0.257
 4955SOL     OW15763   3.164   6.395   6.737
 4955SOL    HW115764   3.156   6.295   6.739
 4955SOL    HW215765   3.196   6.427   6.827
 4956SOL     OW15766   2.266   6.544   4.980
 4956SOL    HW115767   2.194   6.567   5.045
 4956SOL    HW215768   2.237   6.466   4.925
 4957SOL     OW15769   5.504   2.763   1.960
 4957SOL    HW115770   5.470   2.805   1.876
 4957SOL    HW215771   5.510   2.664   1.948
 4958SOL     OW15772   0.198   5.251   5.574
 4958SOL    HW115773   0.246   5.251   5.486
 4958SOL    HW215774   0.188   5.158   5.607
 4959SOL     OW15775   5.921   1.910   0.200
 4959SOL    HW115776   5.993   1.899   0.132
 4959SOL    HW215777   5.924   2.003   0.237
 4960SOL     OW15778   3.681   4.893   3.461
 4960SOL    HW115779   3.666   4.886   3.363
 4960SOL    HW215780   3.595   4.880   3.509
 4961SOL     OW15781   3.909   1.014   5.824
 4961SOL    HW115782   3.831   0.968   5.867
 4961SOL    HW215783   3.942   0.958   5.748
 4962SOL     OW15784   5.578   2.365   0.011
 4962SOL    HW115785   5.594   2.438   6.970
 4962SOL    HW215786   5.501   2.389   0.070
 4963SOL     OW15787   6.751   6.280   0.746
 4963SOL    HW115788   6.728   6.367   0.700
 4963SOL    HW215789   6.846   6.284   0.777
 4964SOL     OW15790   3.027   1.031   4.176
 4964SOL    HW115791   3.055   0.935   4.182
 4964SOL    HW215792   3.097   1.082   4.126
 4965SOL     OW15793   0.357   1.190   2.124
 4965SOL    HW115794   0.264   1.194   2.088
 4965SOL    HW215795   0.357   1.142   2.212
 4966SOL     OW15796   2.958   6.260   5.222
 4966SOL    HW115797   2.939   6.358   5.231
 4966SOL    HW215798   3.043   6.247   5.171
 4967SOL     OW15799   3.947   4.879   5.167
 4967SOL    HW115800   3.850   4.889   5.143
 4967SOL    HW215801   3.975   4.956   5.224
 4968SOL     OW15802   6.879   2.021   4.094
 4968SOL    HW115803   6.955   2.076   4.127
 4968SOL    HW215804   6.799   2.079   4.079
 4969SOL     OW15805   2.535   5.661   3.031
 4969SOL    HW115806   2.619   5.637   2.982
 4969SOL    HW215807   2.456   5.630   2.978
 4970SOL     OW15808   2.440   2.612   2.534
 4970SOL    HW115809   2.505   2.540   2.510
 4970SOL    HW215810   2.411   2.600   2.629
 4971SOL     OW15811   5.614   5.942   3.198
 4971SOL    HW115812   5.707   5.955   3.232
 4971SOL    HW215813   5.589   6.019   3.139
 4972SOL     OW15814   0.690   3.837   0.900
 4972SOL    HW115815   0.614   3.884   0.855
 4972SOL    HW215816   0.760   3.903   0.924
 4973SOL     OW15817   1.380   6.881   2.343
 4973SOL    HW115818   1.294   6.832   2.332
 4973SOL    HW215819   1.428   6.884   2.255
 4974SOL     OW15820   6.577   4.231   0.768
 4974SOL    HW115821   6.672   4.201   0.774
 4974SOL    HW215822   6.521   4.176   0.830
 4975SOL     OW15823   6.248   3.548   5.754
 4975SOL    HW115824   6.258   3.545   5.853
 4975SOL    HW215825   6.261   3.642   5.722
 4976SOL     OW15826   2.084   1.305   3.589
 4976SOL    HW115827   2.087   1.397   3.550
 4976SOL    HW215828   2.157   1.249   3.548
 4977SOL     OW15829   4.108   4.800   6.857
 4977SOL    HW115830   4.033   4.733   6.861
 4977SOL    HW215831   4.150   4.799   6.767
 4978SOL     OW15832   6.911   4.429   5.011
 4978SOL    HW115833   6.990   4.370   5.031
 4978SOL    HW215834   6.900   4.438   4.912
 4979SOL     OW15835   6.952   6.852   6.666
 4979SOL    HW115836   6.945   6.850   6.765
 4979SOL    HW215837   6.963   6.758   6.632
 4980SOL     OW15838   5.354   6.269   3.067
 4980SOL    HW115839   5.405   6.354   3.081
 4980SOL    HW215840   5.266   6.289   3.025
 4981SOL     OW15841   4.831   5.288   0.327
 4981SOL    HW115842   4.775   5.208   0.348
 4981SOL    HW215843   4.822   5.356   0.399
 4982SOL     OW15844   2.964   1.016   5.327
 4982SOL    HW115845   2.907   0.966   5.263
 4982SOL    HW215846   3.003   1.096   5.282
 4983SOL     OW15847   6.020   3.780   5.478
 4983SOL    HW115848   5.976   3.695   5.507
 4983SOL    HW215849   6.062   3.767   5.388
 4984SOL     OW15850   5.106   3.786   3.418
 4984SOL    HW115851   5.153   3.745   3.497
 4984SOL    HW215852   5.119   3.727   3.338
 4985SOL     OW15853   5.957   0.082   3.488
 4985SOL    HW115854   6.038   0.047   3.534
 4985SOL    HW215855   5.946   0.179   3.509
 4986SOL     OW15856   6.771   4.238   1.806
 4986SOL    HW115857   6.743   4.221   1.711
 4986SOL    HW215858   6.732   4.167   1.865
 4987SOL     OW15859   1.275   0.514   2.368
 4987SOL    HW115860   1.277   0.415   2.375
 4987SOL    HW215861   1.275   0.554   2.460
 4988SOL     OW15862   5.256   0.795   2.396
 4988SOL    HW115863   5.171   0.840   2.421
 4988SOL    HW215864   5.331   0.830   2.453
 4989SOL     OW15865   4.974   6.931   1.636
 4989SOL    HW115866   5.069   6.955   1.622
 4989SOL    HW215867   4.940   6.974   1.719
 4990SOL     OW15868   2.619   2.346   5.464
 4990SOL    HW115869   2.675   2.263   5.462
 4990SOL    HW215870   2.674   2.423   5.497
 4991SOL     OW15871   6.056   5.197   3.709
 4991SOL    HW115872   6.034   5.101   3.692
 4991SOL    HW215873   5.996   5.232   3.781
 4992SOL     OW15874   4.799   1.024   3.210
 4992SOL    HW115875   4.722   0.965   3.182
 4992SOL    HW215876   4.880   0.967   3.226
 4993SOL     OW15877   2.705   5.651   4.189
 4993SOL    HW115878   2.617   5.633   4.143
 4993SOL    HW215879   2.688   5.698   4.276
 4994SOL     OW15880   1.948   1.063   3.721
 4994SOL    HW115881   1.978   1.046   3.815
 4994SOL    HW215882   1.997   1.142   3.684
 4995SOL     OW15883   0.361   2.600   5.691
 4995SOL    HW115884   0.293   2.576   5.760
 4995SOL    HW215885   0.411   2.518   5.663
 4996SOL     OW15886   0.492   1.409   2.770
 4996SOL    HW115887   0.584   1.370   2.769
 4996SOL    HW215888   0.468   1.439   2.678
 4997SOL     OW15889   5.304   2.892   2.633
 4997SOL    HW115890   5.311   2.988   2.607
 4997SOL    HW215891   5.265   2.885   2.724
 4998SOL     OW15892   2.236   4.284   4.909
 4998SOL    HW115893   2.259   4.199   4.956
 4998SOL    HW215894   2.198   4.349   4.975
 4999SOL     OW15895   6.143   3.814   0.362
 4999SOL    HW115896   6.219   3.776   0.310
 4999SOL    HW215897   6.077   3.742   0.382
 5000SOL     OW15898   3.228   6.982   3.411
 5000SOL    HW115899   3.185   6.914   3.470
 5000SOL    HW215900   3.255   6.940   3.324
 5001SOL     OW15901   6.909   3.710   0.972
 5001SOL    HW115902   6.971   3.680   1.044
 5001SOL    HW215903   6.947   3.790   0.926
 5002SOL     OW15904   0.425   3.184   2.860
 5002SOL    HW115905   0.339   3.233   2.853
 5002SOL    HW215906   0.414   3.106   2.923
 5003SOL     OW15907   2.788   6.199   2.492
 5003SOL    HW115908   2.697   6.158   2.489
 5003SOL    HW215909   2.854   6.131   2.524
 5004SOL     OW15910   2.907   5.589   5.660
 5004SOL    HW115911   2.916   5.494   5.691
 5004SOL    HW215912   2.998   5.627   5.644
 5005SOL     OW15913   3.194   2.899   0.748
 5005SOL    HW115914   3.138   2.979   0.773
 5005SOL    HW215915   3.176   2.875   0.653
 5006SOL     OW15916   5.170   0.490   0.347
 5006SOL    HW115917   5.186   0.556   0.420
 5006SOL    HW215918   5.248   0.491   0.285
 5007SOL     OW15919   1.297   0.204   0.827
 5007SOL    HW115920   1.256   0.268   0.762
 5007SOL    HW215921   1.285   0.111   0.793
 5008SOL     OW15922   6.184   0.169   1.912
 5008SOL    HW115923   6.124   0.107   1.863
 5008SOL    HW215924   6.143   0.260   1.916
 5009SOL     OW15925   1.015   0.350   1.080
 5009SOL    HW115926   1.005   0.449   1.069
 5009SOL    HW215927   0.996   0.304   0.993
 5010SOL     OW15928   4.095   3.656   2.523
 5010SOL    HW115929   4.080   3.565   2.563
 5010SOL    HW215930   4.157   3.648   2.445
 5011SOL     OW15931   1.704   3.856   2.022
 5011SOL    HW115932   1.746   3.783   1.969
 5011SOL    HW215933   1.721   3.944   1.977
 5012SOL     OW15934   6.011   3.888   5.983
 5012SOL    HW115935   5.958   3.956   6.034
 5012SOL    HW215936   5.961   3.801   5.983
 5013SOL     OW15937   5.015   1.321   6.310
 5013SOL    HW115938   5.009   1.321   6.410
 5013SOL    HW215939   4.940   1.265   6.273
 5014SOL     OW15940   5.935   4.391   0.658
 5014SOL    HW115941   5.959   4.331   0.581
 5014SOL    HW215942   5.949   4.486   0.632
 5015SOL     OW15943   5.109   2.071   4.742
 5015SOL    HW115944   5.027   2.128   4.742
 5015SOL    HW215945   5.190   2.129   4.735
 5016SOL     OW15946   2.168   2.691   0.008
 5016SOL    HW115947   2.088   2.716   6.979
 5016SOL    HW215948   2.159   2.725   0.102
 5017SOL     OW15949   1.896   2.797   0.275
 5017SOL    HW115950   1.981   2.823   0.231
 5017SOL    HW215951   1.895   2.832   0.369
 5018SOL     OW15952   0.158   4.049   2.429
 5018SOL    HW115953   0.090   4.014   2.365
 5018SOL    HW215954   0.152   4.148   2.434
 5019SOL     OW15955   1.178   4.589   6.390
 5019SOL    HW115956   1.206   4.598   6.485
 5019SOL    HW215957   1.078   4.586   6.384
 5020SOL     OW15958   4.950   0.272   6.215
 5020SOL    HW115959   5.014   0.323   6.272
 5020SOL    HW215960   4.997   0.239   6.133
 5021SOL     OW15961   0.554   1.413   6.106
 5021SOL    HW115962   0.562   1.383   6.011
 5021SOL    HW215963   0.598   1.347   6.166
 5022SOL     OW15964   0.840   1.686   6.530
 5022SOL    HW115965   0.797   1.755   6.588
 5022SOL    HW215966   0.793   1.598   6.542
 5023SOL     OW15967   6.706   2.752   1.416
 5023SOL    HW115968   6.712   2.848   1.389
 5023SOL    HW215969   6.738   2.742   1.510
 5024SOL     OW15970   6.043   5.339   1.735
 5024SOL    HW115971   6.107   5.413   1.753
 5024SOL    HW215972   5.950   5.369   1.758
 5025SOL     OW15973   3.248   1.645   2.281
 5025SOL    HW115974   3.276   1.713   2.348
 5025SOL    HW215975   3.225   1.690   2.194
 5026SOL     OW15976   6.352   5.962   6.042
 5026SOL    HW115977   6.310   5.875   6.069
 5026SOL    HW215978   6.314   5.992   5.954
 5027SOL     OW15979   0.147   6.576   2.243
 5027SOL    HW115980   0.200   6.499   2.279
 5027SOL    HW215981   0.092   6.615   2.317
 5028SOL     OW15982   0.219   1.731   2.685
 5028SOL    HW115983   0.192   1.678   2.766
 5028SOL    HW215984   0.319   1.733   2.679
 5029SOL     OW15985   6.469   2.597   2.683
 5029SOL    HW115986   6.534   2.671   2.670
 5029SOL    HW215987   6.376   2.631   2.670
 5030SOL     OW15988   6.879   0.184   0.283
 5030SOL    HW115989   6.881   0.279   0.316
 5030SOL    HW215990   6.972   0.148   0.281
 5031SOL     OW15991   5.721   0.145   4.946
 5031SOL    HW115992   5.717   0.067   5.008
 5031SOL    HW215993   5.761   0.117   4.859
 5032SOL     OW15994   2.067   2.667   1.080
 5032SOL    HW115995   2.156   2.621   1.082
 5032SOL    HW215996   1.999   2.609   1.125
 5033SOL     OW15997   2.737   6.372   5.503
 5033SOL    HW115998   2.716   6.458   5.551
 5033SOL    HW215999   2.688   6.370   5.416
 5034SOL     OW16000   5.103   0.615   3.097
 5034SOL    HW116001   5.165   0.637   3.022
 5034SOL    HW216002   5.093   0.516   3.105
 5035SOL     OW16003   0.392   4.073   0.217
 5035SOL    HW116004   0.433   3.987   0.185
 5035SOL    HW216005   0.454   4.149   0.195
 5036SOL     OW16006   0.622   4.983   0.279
 5036SOL    HW116007   0.630   4.936   0.367
 5036SOL    HW216008   0.569   5.067   0.291
 5037SOL     OW16009   5.182   3.231   3.274
 5037SOL    HW116010   5.238   3.284   3.338
 5037SOL    HW216011   5.142   3.293   3.207
 5038SOL     OW16012   2.597   3.942   6.482
 5038SOL    HW116013   2.621   3.847   6.461
 5038SOL    HW216014   2.622   4.000   6.405
 5039SOL     OW16015   3.081   4.373   5.314
 5039SOL    HW116016   3.008   4.420   5.264
 5039SOL    HW216017   3.056   4.277   5.327
 5040SOL     OW16018   1.766   5.584   6.106
 5040SOL    HW116019   1.857   5.627   6.102
 5040SOL    HW216020   1.777   5.485   6.114
 5041SOL     OW16021   1.457   1.273   2.310
 5041SOL    HW116022   1.551   1.284   2.342
 5041SOL    HW216023   1.399   1.343   2.352
 5042SOL     OW16024   6.712   2.923   0.700
 5042SOL    HW116025   6.662   2.994   0.651
 5042SOL    HW216026   6.775   2.966   0.765
 5043SOL     OW16027   3.359   0.363   6.095
 5043SOL    HW116028   3.386   0.309   6.175
 5043SOL    HW216029   3.432   0.361   6.027
 5044SOL     OW16030   0.652   6.703   0.440
 5044SOL    HW116031   0.744   6.711   0.401
 5044SOL    HW216032   0.611   6.793   0.449
 5045SOL     OW16033   5.415   1.273   6.478
 5045SOL    HW116034   5.319   1.247   6.492
 5045SOL    HW216035   5.438   1.263   6.381
 5046SOL     OW16036   3.273   4.116   2.580
 5046SOL    HW116037   3.241   4.201   2.538
 5046SOL    HW216038   3.312   4.136   2.670
 5047SOL     OW16039   6.684   3.475   2.563
 5047SOL    HW116040   6.675   3.438   2.471
 5047SOL    HW216041   6.595   3.505   2.596
 5048SOL     OW16042   0.511   1.455   2.181
 5048SOL    HW116043   0.606   1.426   2.186
 5048SOL    HW216044   0.459   1.387   2.129
 5049SOL     OW16045   6.396   2.137   5.666
 5049SOL    HW116046   6.330   2.062   5.653
 5049SOL    HW216047   6.484   2.112   5.626
 5050SOL     OW16048   1.564   0.750   0.937
 5050SOL    HW116049   1.561   0.754   1.037
 5050SOL    HW216050   1.490   0.692   0.904
 5051SOL     OW16051   4.684   4.779   1.213
 5051SOL    HW116052   4.621   4.833   1.157
 5051SOL    HW216053   4.662   4.682   1.205
 5052SOL     OW16054   2.295   0.023   6.292
 5052SOL    HW116055   2.262   7.000   6.210
 5052SOL    HW216056   2.343   6.983   6.351
 5053SOL     OW16057   2.050   4.004   2.839
 5053SOL    HW116058   1.954   4.032   2.841
 5053SOL    HW216059   2.056   3.908   2.811
 5054SOL     OW16060   3.668   6.322   4.464
 5054SOL    HW116061   3.668   6.389   4.389
 5054SOL    HW216062   3.652   6.231   4.427
 5055SOL     OW16063   1.958   0.838   5.576
 5055SOL    HW116064   1.937   0.815   5.481
 5055SOL    HW216065   1.955   0.937   5.588
 5056SOL     OW16066   6.734   4.782   0.329
 5056SOL    HW116067   6.717   4.712   0.398
 5056SOL    HW216068   6.661   4.779   0.260
 5057SOL     OW16069   6.838   5.997   4.944
 5057SOL    HW116070   6.879   5.906   4.940
 5057SOL    HW216071   6.875   6.055   4.872
 5058SOL     OW16072   2.829   3.309   5.404
 5058SOL    HW116073   2.796   3.220   5.373
 5058SOL    HW216074   2.784   3.334   5.490
 5059SOL     OW16075   5.792   1.709   3.588
 5059SOL    HW116076   5.702   1.747   3.567
 5059SOL    HW216077   5.807   1.711   3.687
 5060SOL     OW16078   1.464   1.755   5.292
 5060SOL    HW116079   1.559   1.777   5.270
 5060SOL    HW216080   1.426   1.695   5.221
 5061SOL     OW16081   3.945   3.610   2.185
 5061SOL    HW116082   3.946   3.510   2.183
 5061SOL    HW216083   3.925   3.641   2.278
 5062SOL     OW16084   5.428   1.186   3.445
 5062SOL    HW116085   5.339   1.164   3.484
 5062SOL    HW216086   5.499   1.133   3.492
 5063SOL     OW16087   1.165   0.264   2.642
 5063SOL    HW116088   1.177   0.173   2.681
 5063SOL    HW216089   1.073   0.298   2.662
 5064SOL     OW16090   4.715   3.991   1.591
 5064SOL    HW116091   4.617   4.014   1.590
 5064SOL    HW216092   4.757   4.019   1.505
 5065SOL     OW16093   1.493   1.800   3.759
 5065SOL    HW116094   1.519   1.890   3.726
 5065SOL    HW216095   1.395   1.786   3.744
 5066SOL     OW16096   4.078   4.858   1.220
 5066SOL    HW116097   4.117   4.794   1.286
 5066SOL    HW216098   4.148   4.882   1.152
 5067SOL     OW16099   3.579   0.802   2.007
 5067SOL    HW116100   3.564   0.816   2.105
 5067SOL    HW216101   3.662   0.852   1.979
 5068SOL     OW16102   2.644   5.089   6.417
 5068SOL    HW116103   2.639   5.040   6.504
 5068SOL    HW216104   2.693   5.176   6.431
 5069SOL     OW16105   2.366   3.297   5.775
 5069SOL    HW116106   2.279   3.264   5.810
 5069SOL    HW216107   2.394   3.241   5.697
 5070SOL     OW16108   4.674   4.651   4.025
 5070SOL    HW116109   4.705   4.701   4.106
 5070SOL    HW216110   4.698   4.704   3.943
 5071SOL     OW16111   4.128   1.407   3.093
 5071SOL    HW116112   4.054   1.376   3.033
 5071SOL    HW216113   4.107   1.498   3.128
 5072SOL     OW16114   1.073   0.711   1.331
 5072SOL    HW116115   1.080   0.659   1.416
 5072SOL    HW216116   1.131   0.792   1.336
 5073SOL     OW16117   0.785   5.325   1.532
 5073SOL    HW116118   0.861   5.359   1.588
 5073SOL    HW216119   0.716   5.396   1.523
 5074SOL     OW16120   3.455   2.401   1.141
 5074SOL    HW116121   3.424   2.447   1.058
 5074SOL    HW216122   3.530   2.454   1.182
 5075SOL     OW16123   0.952   2.719   6.865
 5075SOL    HW116124   0.863   2.675   6.880
 5075SOL    HW216125   1.024   2.662   6.905
 5076SOL     OW16126   5.191   0.666   0.565
 5076SOL    HW116127   5.103   0.711   0.584
 5076SOL    HW216128   5.208   0.596   0.634
 5077SOL     OW16129   2.233   4.051   5.531
 5077SOL    HW116130   2.306   3.983   5.534
 5077SOL    HW216131   2.221   4.082   5.436
 5078SOL     OW16132   0.415   1.386   4.008
 5078SOL    HW116133   0.416   1.362   4.105
 5078SOL    HW216134   0.495   1.345   3.964
 5079SOL     OW16135   2.171   3.360   5.167
 5079SOL    HW116136   2.175   3.331   5.071
 5079SOL    HW216137   2.251   3.325   5.215
 5080SOL     OW16138   6.104   6.418   6.264
 5080SOL    HW116139   6.088   6.324   6.292
 5080SOL    HW216140   6.032   6.477   6.302
 5081SOL     OW16141   3.499   3.484   5.107
 5081SOL    HW116142   3.522   3.535   5.190
 5081SOL    HW216143   3.550   3.398   5.105
 5082SOL     OW16144   5.306   5.578   1.513
 5082SOL    HW116145   5.316   5.643   1.588
 5082SOL    HW216146   5.287   5.627   1.428
 5083SOL     OW16147   2.850   0.066   2.770
 5083SOL    HW116148   2.771   0.042   2.714
 5083SOL    HW216149   2.878   7.012   2.825
 5084SOL     OW16150   0.204   4.444   3.682
 5084SOL    HW116151   0.142   4.522   3.692
 5084SOL    HW216152   0.222   4.428   3.586
 5085SOL     OW16153   5.981   2.661   6.413
 5085SOL    HW116154   5.971   2.718   6.332
 5085SOL    HW216155   5.942   2.709   6.492
 5086SOL     OW16156   1.202   5.721   3.291
 5086SOL    HW116157   1.185   5.744   3.386
 5086SOL    HW216158   1.250   5.633   3.285
 5087SOL     OW16159   1.722   5.515   2.849
 5087SOL    HW116160   1.672   5.542   2.931
 5087SOL    HW216161   1.795   5.580   2.831
 5088SOL     OW16162   6.074   0.474   4.278
 5088SOL    HW116163   6.028   0.557   4.310
 5088SOL    HW216164   6.113   0.426   4.356
 5089SOL     OW16165   5.364   3.928   4.053
 5089SOL    HW116166   5.443   3.961   4.002
 5089SOL    HW216167   5.390   3.849   4.108
 5090SOL     OW16168   2.229   3.897   2.331
 5090SOL    HW116169   2.321   3.859   2.320
 5090SOL    HW216170   2.222   3.943   2.420
 5091SOL     OW16171   0.785   0.969   1.935
 5091SOL    HW116172   0.738   1.057   1.933
 5091SOL    HW216173   0.798   0.941   2.030
 5092SOL     OW16174   3.574   3.791   2.835
 5092SOL    HW116175   3.481   3.785   2.798
 5092SOL    HW216176   3.575   3.855   2.912
 5093SOL     OW16177   2.984   1.396   0.901
 5093SOL    HW116178   3.049   1.369   0.831
 5093SOL    HW216179   3.013   1.483   0.941
 5094SOL     OW16180   2.532   5.332   5.719
 5094SOL    HW116181   2.482   5.293   5.797
 5094SOL    HW216182   2.474   5.330   5.638
 5095SOL     OW16183   6.349   2.060   3.843
 5095SOL    HW116184   6.333   2.147   3.889
 5095SOL    HW216185   6.404   2.001   3.901
 5096SOL     OW16186   4.263   5.164   0.286
 5096SOL    HW116187   4.225   5.233   0.346
 5096SOL    HW216188   4.295   5.086   0.340
 5097SOL     OW16189   1.408   0.292   6.494
 5097SOL    HW116190   1.371   0.277   6.586
 5097SOL    HW216191   1.394   0.388   6.468
 5098SOL     OW16192   2.489   0.024   2.038
 5098SOL    HW116193   2.526   0.083   1.966
 5098SOL    HW216194   2.491   0.073   2.125
 5099SOL     OW16195   0.997   0.070   0.317
 5099SOL    HW116196   1.019   0.117   0.232
 5099SOL    HW216197   1.080   0.032   0.357
 5100SOL     OW16198   3.163   5.760   4.782
 5100SOL    HW116199   3.127   5.682   4.731
 5100SOL    HW216200   3.222   5.728   4.855
 5101SOL     OW16201   5.076   0.218   0.292
 5101SOL    HW116202   5.103   0.168   0.375
 5101SOL    HW216203   5.086   0.316   0.308
 5102SOL     OW16204   5.555   6.596   4.124
 5102SOL    HW116205   5.588   6.515   4.076
 5102SOL    HW216206   5.610   6.611   4.206
 5103SOL     OW16207   0.371   0.693   3.348
 5103SOL    HW116208   0.342   0.622   3.411
 5103SOL    HW216209   0.334   0.781   3.377
 5104SOL     OW16210   1.870   6.482   2.672
 5104SOL    HW116211   1.966   6.474   2.696
 5104SOL    HW216212   1.862   6.530   2.584
 5105SOL     OW16213   3.105   3.134   0.851
 5105SOL    HW116214   3.045   3.209   0.823
 5105SOL    HW216215   3.060   3.079   0.920
 5106SOL     OW16216   4.440   1.712   0.211
 5106SOL    HW116217   4.420   1.696   0.115
 5106SOL    HW216218   4.419   1.630   0.264
 5107SOL     OW16219   3.227   1.411   0.441
 5107SOL    HW116220   3.277   1.332   0.406
 5107SOL    HW216221   3.240   1.489   0.380
 5108SOL     OW16222   3.314   3.890   4.515
 5108SOL    HW116223   3.265   3.805   4.496
 5108SOL    HW216224   3.381   3.875   4.588
 5109SOL     OW16225   1.097   1.634   0.617
 5109SOL    HW116226   1.190   1.636   0.580
 5109SOL    HW216227   1.083   1.714   0.675
 5110SOL     OW16228   0.533   0.729   6.118
 5110SOL    HW116229   0.614   0.704   6.171
 5110SOL    HW216230   0.498   0.649   6.070
 5111SOL     OW16231   1.753   0.896   4.901
 5111SOL    HW116232   1.664   0.850   4.894
 5111SOL    HW216233   1.741   0.985   4.944
 5112SOL     OW16234   2.150   1.206   3.010
 5112SOL    HW116235   2.107   1.121   3.040
 5112SOL    HW216236   2.220   1.233   3.076
 5113SOL     OW16237   1.882   0.186   1.126
 5113SOL    HW116238   1.919   0.279   1.126
 5113SOL    HW216239   1.847   0.165   1.035
 5114SOL     OW16240   3.271   1.007   6.777
 5114SOL    HW116241   3.258   1.087   6.720
 5114SOL    HW216242   3.334   0.943   6.732
 5115SOL     OW16243   1.898   4.748   3.863
 5115SOL    HW116244   1.948   4.811   3.922
 5115SOL    HW216245   1.863   4.672   3.918
 5116SOL     OW16246   0.136   0.374   5.652
 5116SOL    HW116247   0.132   0.276   5.672
 5116SOL    HW216248   0.192   0.389   5.570
 5117SOL     OW16249   2.289   4.271   4.598
 5117SOL    HW116250   2.249   4.220   4.522
 5117SOL    HW216251   2.256   4.234   4.685
 5118SOL     OW16252   5.135   0.139   6.861
 5118SOL    HW116253   5.174   0.201   6.930
 5118SOL    HW216254   5.198   0.063   6.845
 5119SOL     OW16255   5.185   0.565   2.232
 5119SOL    HW116256   5.182   0.511   2.316
 5119SOL    HW216257   5.228   0.653   2.251
 5120SOL     OW16258   3.454   0.849   3.682
 5120SOL    HW116259   3.540   0.893   3.709
 5120SOL    HW216260   3.470   0.788   3.605
 5121SOL     OW16261   2.491   2.195   6.329
 5121SOL    HW116262   2.523   2.106   6.360
 5121SOL    HW216263   2.393   2.191   6.310
 5122SOL     OW16264   3.692   6.804   2.670
 5122SOL    HW116265   3.654   6.718   2.702
 5122SOL    HW216266   3.711   6.798   2.572
 5123SOL     OW16267   4.883   2.178   5.015
 5123SOL    HW116268   4.847   2.267   4.987
 5123SOL    HW216269   4.850   2.107   4.953
 5124SOL     OW16270   2.261   5.477   5.168
 5124SOL    HW116271   2.324   5.534   5.222
 5124SOL    HW216272   2.313   5.406   5.121
 5125SOL     OW16273   5.995   3.358   4.552
 5125SOL    HW116274   6.052   3.329   4.475
 5125SOL    HW216275   6.019   3.305   4.633
 5126SOL     OW16276   6.285   4.833   5.089
 5126SOL    HW116277   6.242   4.840   4.999
 5126SOL    HW216278   6.349   4.757   5.090
 5127SOL     OW16279   0.976   3.846   0.229
 5127SOL    HW116280   1.018   3.785   0.295
 5127SOL    HW216281   0.993   3.813   0.136
 5128SOL     OW16282   6.577   0.170   6.167
 5128SOL    HW116283   6.557   0.263   6.197
 5128SOL    HW216284   6.513   0.143   6.095
 5129SOL     OW16285   5.739   0.034   2.505
 5129SOL    HW116286   5.839   0.027   2.504
 5129SOL    HW216287   5.699   6.967   2.505
 5130SOL     OW16288   0.995   5.976   3.400
 5130SOL    HW116289   1.071   6.022   3.354
 5130SOL    HW216290   1.031   5.909   3.466
 5131SOL     OW16291   2.682   5.097   3.580
 5131SOL    HW116292   2.685   5.182   3.631
 5131SOL    HW216293   2.649   5.115   3.487
 5132SOL     OW16294   3.380   2.581   5.964
 5132SOL    HW116295   3.408   2.558   5.871
 5132SOL    HW216296   3.458   2.620   6.013
 5133SOL     OW16297   1.273   5.411   6.757
 5133SOL    HW116298   1.288   5.508   6.740
 5133SOL    HW216299   1.344   5.357   6.712
 5134SOL     OW16300   6.872   2.076   2.202
 5134SOL    HW116301   6.929   2.052   2.280
 5134SOL    HW216302   6.915   2.043   2.118
 5135SOL     OW16303   5.742   3.618   4.158
 5135SOL    HW116304   5.699   3.528   4.166
 5135SOL    HW216305   5.771   3.632   4.063
 5136SOL     OW16306   5.071   0.515   6.580
 5136SOL    HW116307   5.111   0.504   6.489
 5136SOL    HW216308   5.033   0.428   6.610
 5137SOL     OW16309   4.237   4.159   5.613
 5137SOL    HW116310   4.299   4.187   5.687
 5137SOL    HW216311   4.257   4.212   5.531
 5138SOL     OW16312   3.936   2.816   5.566
 5138SOL    HW116313   3.875   2.892   5.590
 5138SOL    HW216314   3.897   2.731   5.601
 5139SOL     OW16315   1.265   1.534   3.611
 5139SOL    HW116316   1.317   1.536   3.526
 5139SOL    HW216317   1.268   1.442   3.651
 5140SOL     OW16318   3.988   2.293   5.737
 5140SOL    HW116319   3.981   2.268   5.834
 5140SOL    HW216320   3.997   2.211   5.682
 5141SOL     OW16321   5.872   3.597   0.861
 5141SOL    HW116322   5.793   3.555   0.816
 5141SOL    HW216323   5.854   3.695   0.875
 5142SOL     OW16324   5.610   6.818   2.588
 5142SOL    HW116325   5.654   6.836   2.676
 5142SOL    HW216326   5.516   6.786   2.603
 5143SOL     OW16327   6.478   4.419   4.502
 5143SOL    HW116328   6.495   4.515   4.480
 5143SOL    HW216329   6.556   4.364   4.472
 5144SOL     OW16330   0.860   4.889   5.359
 5144SOL    HW116331   0.846   4.794   5.386
 5144SOL    HW216332   0.914   4.936   5.428
 5145SOL     OW16333   3.918   5.520   6.172
 5145SOL    HW116334   3.965   5.453   6.230
 5145SOL    HW216335   3.838   5.477   6.130
 5146SOL     OW16336   2.963   3.891   5.456
 5146SOL    HW116337   2.918   3.805   5.480
 5146SOL    HW216338   3.061   3.877   5.450
 5147SOL     OW16339   6.473   5.668   3.112
 5147SOL    HW116340   6.430   5.579   3.095
 5147SOL    HW216341   6.556   5.676   3.057
 5148SOL     OW16342   6.280   0.840   1.962
 5148SOL    HW116343   6.316   0.851   2.055
 5148SOL    HW216344   6.355   0.824   1.899
 5149SOL     OW16345   6.283   6.208   3.397
 5149SOL    HW116346   6.228   6.283   3.433
 5149SOL    HW216347   6.233   6.161   3.324
 5150SOL     OW16348   2.320   5.516   3.174
 5150SOL    HW116349   2.406   5.553   3.139
 5150SOL    HW216350   2.252   5.589   3.180
 5151SOL     OW16351   6.510   3.474   2.241
 5151SOL    HW116352   6.524   3.560   2.193
 5151SOL    HW216353   6.587   3.413   2.225
 5152SOL     OW16354   1.758   5.023   0.079
 5152SOL    HW116355   1.713   5.107   0.048
 5152SOL    HW216356   1.782   4.968   7.024
 5153SOL     OW16357   1.434   1.484   0.449
 5153SOL    HW116358   1.494   1.432   0.388
 5153SOL    HW216359   1.445   1.450   0.542
 5154SOL     OW16360   1.279   2.585   5.898
 5154SOL    HW116361   1.270   2.587   5.799
 5154SOL    HW216362   1.272   2.677   5.935
 5155SOL     OW16363   4.437   0.192   2.308
 5155SOL    HW116364   4.366   0.125   2.287
 5155SOL    HW216365   4.489   0.161   2.387
 5156SOL     OW16366   5.254   3.882   5.750
 5156SOL    HW116367   5.157   3.906   5.748
 5156SOL    HW216368   5.299   3.928   5.827
 5157SOL     OW16369   3.637   1.966   3.527
 5157SOL    HW116370   3.565   1.898   3.512
 5157SOL    HW216371   3.639   1.991   3.623
 5158SOL     OW16372   3.913   2.036   1.076
 5158SOL    HW116373   3.870   1.947   1.069
 5158SOL    HW216374   3.919   2.063   1.172
 5159SOL     OW16375   6.157   3.361   5.597
 5159SOL    HW116376   6.201   3.428   5.657
 5159SOL    HW216377   6.089   3.407   5.540
 5160SOL     OW16378   0.687   5.021   2.899
 5160SOL    HW116379   0.644   5.032   2.810
 5160SOL    HW216380   0.671   4.929   2.934
 5161SOL     OW16381   2.185   3.728   6.273
 5161SOL    HW116382   2.263   3.712   6.333
 5161SOL    HW216383   2.150   3.641   6.239
 5162SOL     OW16384   0.820   5.575   2.583
 5162SOL    HW116385   0.890   5.625   2.531
 5162SOL    HW216386   0.745   5.637   2.605
 5163SOL     OW16387   3.002   6.451   0.219
 5163SOL    HW116388   3.058   6.534   0.229
 5163SOL    HW216389   3.016   6.392   0.299
 5164SOL     OW16390   4.277   1.960   6.908
 5164SOL    HW116391   4.273   1.976   6.810
 5164SOL    HW216392   4.215   2.024   6.955
 5165SOL     OW16393   0.322   4.026   5.597
 5165SOL    HW116394   0.304   4.076   5.682
 5165SOL    HW216395   0.393   4.074   5.545
 5166SOL     OW16396   0.659   5.352   2.322
 5166SOL    HW116397   0.720   5.293   2.271
 5166SOL    HW216398   0.653   5.320   2.417
 5167SOL     OW16399   6.571   5.012   5.866
 5167SOL    HW116400   6.572   5.104   5.907
 5167SOL    HW216401   6.482   4.995   5.825
 5168SOL     OW16402   4.880   3.564   1.665
 5168SOL    HW116403   4.800   3.620   1.643
 5168SOL    HW216404   4.852   3.484   1.716
 5169SOL     OW16405   4.269   2.291   4.149
 5169SOL    HW116406   4.265   2.191   4.153
 5169SOL    HW216407   4.191   2.325   4.095
 5170SOL     OW16408   1.060   4.020   5.287
 5170SOL    HW116409   1.048   4.095   5.221
 5170SOL    HW216410   0.976   3.966   5.291
 5171SOL     OW16411   0.654   4.644   5.089
 5171SOL    HW116412   0.748   4.623   5.115
 5171SOL    HW216413   0.633   4.601   5.001
 5172SOL     OW16414   1.502   3.067   2.631
 5172SOL    HW116415   1.422   3.036   2.579
 5172SOL    HW216416   1.501   3.028   2.722
 5173SOL     OW16417   4.856   5.098   4.786
 5173SOL    HW116418   4.870   5.022   4.849
 5173SOL    HW216419   4.930   5.165   4.796
 5174SOL     OW16420   2.506   5.188   2.909
 5174SOL    HW116421   2.474   5.219   2.999
 5174SOL    HW216422   2.444   5.118   2.874
 5175SOL     OW16423   2.139   4.065   6.905
 5175SOL    HW116424   2.224   4.014   6.892
 5175SOL    HW216425   2.159   4.161   6.921
 5176SOL     OW16426   5.184   3.194   7.020
 5176SOL    HW116427   5.125   3.114   7.013
 5176SOL    HW216428   5.147   3.257   0.065
 5177SOL     OW16429   5.919   0.164   0.199
 5177SOL    HW116430   5.915   0.066   0.215
 5177SOL    HW216431   5.966   0.182   0.113
 5178SOL     OW16432   0.840   3.661   2.525
 5178SOL    HW116433   0.916   3.650   2.462
 5178SOL    HW216434   0.873   3.651   2.619
 5179SOL     OW16435   4.560   4.963   4.236
 5179SOL    HW116436   4.580   5.037   4.301
 5179SOL    HW216437   4.644   4.934   4.191
 5180SOL     OW16438   2.725   2.280   0.847
 5180SOL    HW116439   2.655   2.351   0.859
 5180SOL    HW216440   2.703   2.225   0.767
 5181SOL     OW16441   5.142   1.111   3.112
 5181SOL    HW116442   5.138   1.018   3.147
 5181SOL    HW216443   5.131   1.110   3.012
 5182SOL     OW16444   3.979   4.302   1.596
 5182SOL    HW116445   4.058   4.324   1.652
 5182SOL    HW216446   3.969   4.202   1.590
 5183SOL     OW16447   3.951   2.137   2.597
 5183SOL    HW116448   4.037   2.161   2.641
 5183SOL    HW216449   3.966   2.118   2.500
 5184SOL     OW16450   0.546   1.539   4.450
 5184SOL    HW116451   0.469   1.585   4.494
 5184SOL    HW216452   0.516   1.451   4.414
 5185SOL     OW16453   5.758   0.817   2.980
 5185SOL    HW116454   5.720   0.900   2.940
 5185SOL    HW216455   5.854   0.809   2.956
 5186SOL     OW16456   6.673   2.734   0.293
 5186SOL    HW116457   6.619   2.661   0.251
 5186SOL    HW216458   6.669   2.725   0.393
 5187SOL     OW16459   1.393   6.351   4.203
 5187SOL    HW116460   1.357   6.337   4.295
 5187SOL    HW216461   1.490   6.329   4.202
 5188SOL     OW16462   0.170   5.821   1.268
 5188SOL    HW116463   0.250   5.857   1.221
 5188SOL    HW216464   0.118   5.897   1.308
 5189SOL     OW16465   3.984   5.432   0.946
 5189SOL    HW116466   4.027   5.422   0.857
 5189SOL    HW216467   4.018   5.515   0.991
 5190SOL     OW16468   0.685   2.404   4.905
 5190SOL    HW116469   0.686   2.503   4.923
 5190SOL    HW216470   0.684   2.389   4.807
 5191SOL     OW16471   4.262   0.080   2.031
 5191SOL    HW116472   4.176   0.125   2.007
 5191SOL    HW216473   4.333   0.108   1.966
 5192SOL     OW16474   2.045   5.343   1.652
 5192SOL    HW116475   1.978   5.416   1.640
 5192SOL    HW216476   2.039   5.306   1.745
 5193SOL     OW16477   4.839   4.951   4.530
 5193SOL    HW116478   4.764   4.995   4.481
 5193SOL    HW216479   4.868   5.011   4.605
 5194SOL     OW16480   4.121   2.062   6.654
 5194SOL    HW116481   4.133   2.008   6.572
 5194SOL    HW216482   4.170   2.149   6.644
 5195SOL     OW16483   6.640   6.368   3.954
 5195SOL    HW116484   6.545   6.337   3.953
 5195SOL    HW216485   6.644   6.463   3.986
 5196SOL     OW16486   3.963   6.463   1.179
 5196SOL    HW116487   3.953   6.467   1.279
 5196SOL    HW216488   3.929   6.547   1.138
 5197SOL     OW16489   2.443   4.418   5.813
 5197SOL    HW116490   2.418   4.445   5.906
 5197SOL    HW216491   2.408   4.326   5.794
 5198SOL     OW16492   4.641   6.111   3.169
 5198SOL    HW116493   4.611   6.135   3.262
 5198SOL    HW216494   4.636   6.012   3.157
 5199SOL     OW16495   1.637   5.750   0.444
 5199SOL    HW116496   1.538   5.750   0.431
 5199SOL    HW216497   1.671   5.845   0.439
 5200SOL     OW16498   1.230   3.500   5.396
 5200SOL    HW116499   1.149   3.446   5.418
 5200SOL    HW216500   1.251   3.490   5.299
 5201SOL     OW16501   0.229   0.269   2.810
 5201SOL    HW116502   0.223   0.212   2.892
 5201SOL    HW216503   0.139   0.307   2.789
 5202SOL     OW16504   6.298   3.397   6.512
 5202SOL    HW116505   6.310   3.434   6.420
 5202SOL    HW216506   6.246   3.311   6.506
 5203SOL     OW16507   2.611   2.409   0.217
 5203SOL    HW116508   2.562   2.479   0.165
 5203SOL    HW216509   2.709   2.431   0.218
 5204SOL     OW16510   3.932   5.423   6.954
 5204SOL    HW116511   3.888   5.462   0.011
 5204SOL    HW216512   3.904   5.327   6.945
 5205SOL     OW16513   0.896   6.026   0.764
 5205SOL    HW116514   0.842   6.103   0.730
 5205SOL    HW216515   0.856   5.941   0.730
 5206SOL     OW16516   0.767   4.919   5.942
 5206SOL    HW116517   0.772   5.015   5.971
 5206SOL    HW216518   0.746   4.915   5.845
 5207SOL     OW16519   1.285   5.954   3.773
 5207SOL    HW116520   1.322   6.034   3.820
 5207SOL    HW216521   1.306   5.960   3.676
 5208SOL     OW16522   4.076   2.521   6.086
 5208SOL    HW116523   4.102   2.547   5.993
 5208SOL    HW216524   4.018   2.439   6.083
 5209SOL     OW16525   5.887   6.345   2.684
 5209SOL    HW116526   5.807   6.295   2.718
 5209SOL    HW216527   5.856   6.427   2.635
 5210SOL     OW16528   4.569   2.563   6.217
 5210SOL    HW116529   4.507   2.614   6.157
 5210SOL    HW216530   4.653   2.616   6.231
 5211SOL     OW16531   3.565   2.775   5.401
 5211SOL    HW116532   3.581   2.856   5.345
 5211SOL    HW216533   3.549   2.802   5.496
 5212SOL     OW16534   7.019   2.696   0.761
 5212SOL    HW116535   6.964   2.778   0.773
 5212SOL    HW216536   7.016   2.667   0.665
 5213SOL     OW16537   4.741   3.752   6.180
 5213SOL    HW116538   4.756   3.797   6.092
 5213SOL    HW216539   4.682   3.673   6.168
 5214SOL     OW16540   5.129   1.330   5.827
 5214SOL    HW116541   5.090   1.363   5.741
 5214SOL    HW216542   5.105   1.393   5.901
 5215SOL     OW16543   6.735   4.665   4.236
 5215SOL    HW116544   6.814   4.621   4.278
 5215SOL    HW216545   6.765   4.747   4.187
 5216SOL     OW16546   5.179   5.193   2.081
 5216SOL    HW116547   5.178   5.253   2.161
 5216SOL    HW216548   5.117   5.116   2.097
 5217SOL     OW16549   4.232   5.253   4.468
 5217SOL    HW116550   4.224   5.314   4.388
 5217SOL    HW216551   4.155   5.189   4.468
 5218SOL     OW16552   0.937   0.886   3.624
 5218SOL    HW116553   0.876   0.838   3.560
 5218SOL    HW216554   0.883   0.927   3.697
 5219SOL     OW16555   4.416   1.203   4.868
 5219SOL    HW116556   4.418   1.185   4.966
 5219SOL    HW216557   4.480   1.141   4.822
 5220SOL     OW16558   0.674   6.097   2.907
 5220SOL    HW116559   0.594   6.100   2.847
 5220SOL    HW216560   0.711   6.004   2.908
 5221SOL     OW16561   5.770   2.430   4.473
 5221SOL    HW116562   5.843   2.385   4.421
 5221SOL    HW216563   5.759   2.384   4.561
 5222SOL     OW16564   3.598   5.958   2.972
 5222SOL    HW116565   3.695   5.960   2.949
 5222SOL    HW216566   3.562   5.866   2.958
 5223SOL     OW16567   6.386   2.288   0.801
 5223SOL    HW116568   6.473   2.247   0.775
 5223SOL    HW216569   6.313   2.220   0.794
 5224SOL     OW16570   6.920   2.219   4.959
 5224SOL    HW116571   6.828   2.257   4.946
 5224SOL    HW216572   6.954   2.184   4.871
 5225SOL     OW16573   0.856   0.516   3.277
 5225SOL    HW116574   0.836   0.429   3.322
 5225SOL    HW216575   0.843   0.591   3.341
 5226SOL     OW16576   6.943   5.738   4.935
 5226SOL    HW116577   6.936   5.668   4.864
 5226SOL    HW216578   0.014   5.762   4.951
 5227SOL     OW16579   0.662   3.417   4.449
 5227SOL    HW116580   0.656   3.346   4.519
 5227SOL    HW216581   0.632   3.504   4.487
 5228SOL     OW16582   6.180   2.395   1.419
 5228SOL    HW116583   6.187   2.368   1.323
 5228SOL    HW216584   6.084   2.409   1.443
 5229SOL     OW16585   1.843   6.039   6.870
 5229SOL    HW116586   1.768   6.078   6.923
 5229SOL    HW216587   1.816   5.949   6.835
 5230SOL     OW16588   0.625   5.805   1.753
 5230SOL    HW116589   0.565   5.779   1.829
 5230SOL    HW216590   0.617   5.739   1.679
 5231SOL     OW16591   4.755   3.022   5.163
 5231SOL    HW116592   4.828   2.992   5.225
 5231SOL    HW216593   4.784   3.106   5.117
 5232SOL     OW16594   2.992   2.921   5.930
 5232SOL    HW116595   3.053   2.877   5.864
 5232SOL    HW216596   2.935   2.852   5.974
 5233SOL     OW16597   4.989   1.013   2.498
 5233SOL    HW116598   4.956   1.107   2.512
 5233SOL    HW216599   4.998   0.995   2.401
 5234SOL     OW16600   2.561   1.139   6.422
 5234SOL    HW116601   2.545   1.041   6.433
 5234SOL    HW216602   2.549   1.164   6.326
 5235SOL     OW16603   1.653   2.581   0.373
 5235SOL    HW116604   1.572   2.641   0.370
 5235SOL    HW216605   1.624   2.485   0.369
 5236SOL     OW16606   5.500   4.720   2.738
 5236SOL    HW116607   5.443   4.754   2.664
 5236SOL    HW216608   5.562   4.650   2.703
 5237SOL     OW16609   2.009   1.073   5.128
 5237SOL    HW116610   1.914   1.055   5.154
 5237SOL    HW216611   2.033   1.015   5.050
 5238SOL     OW16612   0.953   4.392   0.170
 5238SOL    HW116613   1.053   4.385   0.166
 5238SOL    HW216614   0.915   4.305   0.202
 5239SOL     OW16615   3.619   3.110   4.000
 5239SOL    HW116616   3.539   3.145   4.047
 5239SOL    HW216617   3.672   3.053   4.062
 5240SOL     OW16618   2.780   1.596   6.192
 5240SOL    HW116619   2.830   1.606   6.277
 5240SOL    HW216620   2.843   1.573   6.118
 5241SOL     OW16621   0.601   4.935   5.140
 5241SOL    HW116622   0.639   5.019   5.101
 5241SOL    HW216623   0.669   4.893   5.200
 5242SOL     OW16624   0.629   6.245   6.212
 5242SOL    HW116625   0.667   6.255   6.120
 5242SOL    HW216626   0.533   6.274   6.212
 5243SOL     OW16627   1.053   5.085   1.732
 5243SOL    HW116628   0.978   5.114   1.791
 5243SOL    HW216629   1.018   5.024   1.661
 5244SOL     OW16630   3.566   5.493   0.112
 5244SOL    HW116631   3.529   5.496   0.205
 5244SOL    HW216632   3.660   5.527   0.112
 5245SOL     OW16633   3.901   4.493   0.298
 5245SOL    HW116634   3.824   4.494   0.235
 5245SOL    HW216635   3.868   4.481   0.391
 5246SOL     OW16636   5.990   3.876   2.507
 5246SOL    HW116637   5.957   3.833   2.423
 5246SOL    HW216638   5.918   3.932   2.547
 5247SOL     OW16639   1.342   0.865   0.768
 5247SOL    HW116640   1.366   0.955   0.803
 5247SOL    HW216641   1.392   0.847   0.683
 5248SOL     OW16642   5.306   0.943   3.797
 5248SOL    HW116643   5.274   0.962   3.890
 5248SOL    HW216644   5.401   0.911   3.801
 5249SOL     OW16645   6.734   4.752   5.461
 5249SOL    HW116646   6.813   4.751   5.400
 5249SOL    HW216647   6.734   4.669   5.516
 5250SOL     OW16648   1.569   6.473   5.726
 5250SOL    HW116649   1.514   6.398   5.764
 5250SOL    HW216650   1.653   6.435   5.687
 5251SOL     OW16651   0.558   3.714   0.532
 5251SOL    HW116652   0.625   3.746   0.464
 5251SOL    HW216653   0.549   3.615   0.526
 5252SOL     OW16654   2.208   6.014   0.698
 5252SOL    HW116655   2.287   6.017   0.637
 5252SOL    HW216656   2.198   6.101   0.745
 5253SOL     OW16657   5.425   4.693   4.346
 5253SOL    HW116658   5.372   4.755   4.288
 5253SOL    HW216659   5.424   4.601   4.307
 5254SOL     OW16660   4.996   1.259   3.270
 5254SOL    HW116661   4.908   1.216   3.250
 5254SOL    HW216662   5.067   1.218   3.212
 5255SOL     OW16663   5.667   1.187   5.905
 5255SOL    HW116664   5.664   1.149   5.998
 5255SOL    HW216665   5.719   1.272   5.905
 5256SOL     OW16666   4.199   0.976   3.378
 5256SOL    HW116667   4.109   0.988   3.421
 5256SOL    HW216668   4.243   0.894   3.415
 5257SOL     OW16669   5.107   6.505   2.211
 5257SOL    HW116670   5.094   6.417   2.256
 5257SOL    HW216671   5.018   6.545   2.189
 5258SOL     OW16672   6.114   3.988   2.031
 5258SOL    HW116673   6.124   4.081   1.995
 5258SOL    HW216674   6.183   3.929   1.990
 5259SOL     OW16675   5.169   5.969   0.488
 5259SOL    HW116676   5.166   6.046   0.551
 5259SOL    HW216677   5.117   5.892   0.526
 5260SOL     OW16678   5.185   3.688   1.046
 5260SOL    HW116679   5.247   3.656   0.975
 5260SOL    HW216680   5.218   3.660   1.136
 5261SOL     OW16681   1.032   3.732   0.790
 5261SOL    HW116682   0.952   3.787   0.768
 5261SOL    HW216683   1.110   3.792   0.811
 5262SOL     OW16684   2.665   0.902   2.842
 5262SOL    HW116685   2.651   0.956   2.925
 5262SOL    HW216686   2.760   0.909   2.813
 5263SOL     OW16687   1.876   1.531   4.794
 5263SOL    HW116688   1.867   1.437   4.761
 5263SOL    HW216689   1.939   1.580   4.735
 5264SOL     OW16690   5.756   1.880   2.273
 5264SOL    HW116691   5.822   1.944   2.232
 5264SOL    HW216692   5.760   1.793   2.223
 5265SOL     OW16693   6.114   3.803   4.292
 5265SOL    HW116694   6.101   3.794   4.391
 5265SOL    HW216695   6.169   3.885   4.273
 5266SOL     OW16696   2.121   5.981   1.050
 5266SOL    HW116697   2.076   5.921   0.984
 5266SOL    HW216698   2.052   6.036   1.097
 5267SOL     OW16699   4.899   3.797   4.947
 5267SOL    HW116700   4.893   3.785   4.848
 5267SOL    HW216701   4.878   3.710   4.992
 5268SOL     OW16702   5.993   0.005   6.607
 5268SOL    HW116703   5.937   0.074   6.561
 5268SOL    HW216704   6.002   0.030   6.704
 5269SOL     OW16705   1.241   6.661   3.529
 5269SOL    HW116706   1.328   6.698   3.494
 5269SOL    HW216707   1.236   6.679   3.628
 5270SOL     OW16708   6.027   1.332   1.475
 5270SOL    HW116709   6.100   1.346   1.542
 5270SOL    HW216710   5.942   1.370   1.510
 5271SOL     OW16711   6.238   5.548   4.873
 5271SOL    HW116712   6.317   5.490   4.893
 5271SOL    HW216713   6.162   5.526   4.934
 5272SOL     OW16714   2.694   5.400   1.634
 5272SOL    HW116715   2.723   5.310   1.601
 5272SOL    HW216716   2.636   5.443   1.565
 5273SOL     OW16717   6.623   2.934   3.374
 5273SOL    HW116718   6.613   2.861   3.307
 5273SOL    HW216719   6.634   2.894   3.465
 5274SOL     OW16720   6.289   6.979   2.143
 5274SOL    HW116721   6.354   6.945   2.212
 5274SOL    HW216722   6.337   0.015   2.080
 5275SOL     OW16723   3.389   2.042   0.118
 5275SOL    HW116724   3.363   1.973   0.051
 5275SOL    HW216725   3.487   2.061   0.110
 5276SOL     OW16726   1.683   0.146   0.616
 5276SOL    HW116727   1.779   0.171   0.600
 5276SOL    HW216728   1.632   0.155   0.530
 5277SOL     OW16729   1.385   1.877   3.132
 5277SOL    HW116730   1.293   1.918   3.131
 5277SOL    HW216731   1.426   1.890   3.222
 5278SOL     OW16732   5.548   0.409   3.252
 5278SOL    HW116733   5.475   0.383   3.316
 5278SOL    HW216734   5.528   0.500   3.215
 5279SOL     OW16735   1.460   5.213   6.635
 5279SOL    HW116736   1.432   5.119   6.652
 5279SOL    HW216737   1.553   5.215   6.600
 5280SOL     OW16738   2.942   6.636   5.006
 5280SOL    HW116739   2.913   6.589   4.923
 5280SOL    HW216740   2.917   6.582   5.086
 5281SOL     OW16741   0.257   1.528   2.278
 5281SOL    HW116742   0.348   1.534   2.237
 5281SOL    HW216743   0.256   1.455   2.346
 5282SOL     OW16744   2.355   1.821   3.069
 5282SOL    HW116745   2.434   1.861   3.114
 5282SOL    HW216746   2.363   1.721   3.069
 5283SOL     OW16747   4.416   6.381   1.615
 5283SOL    HW116748   4.444   6.470   1.577
 5283SOL    HW216749   4.451   6.373   1.708
 5284SOL     OW16750   5.477   3.637   3.412
 5284SOL    HW116751   5.462   3.549   3.366
 5284SOL    HW216752   5.437   3.710   3.357
 5285SOL     OW16753   2.438   4.755   3.855
 5285SOL    HW116754   2.389   4.815   3.792
 5285SOL    HW216755   2.449   4.665   3.813
 5286SOL     OW16756   1.469   3.232   1.283
 5286SOL    HW116757   1.391   3.293   1.271
 5286SOL    HW216758   1.498   3.197   1.194
 5287SOL     OW16759   2.162   6.365   1.184
 5287SOL    HW116760   2.203   6.451   1.153
 5287SOL    HW216761   2.187   6.349   1.279
 5288SOL     OW16762   4.099   0.233   1.798
 5288SOL    HW116763   4.142   0.240   1.708
 5288SOL    HW216764   4.070   0.324   1.828
 5289SOL     OW16765   1.417   5.140   5.958
 5289SOL    HW116766   1.404   5.202   5.880
 5289SOL    HW216767   1.494   5.079   5.939
 5290SOL     OW16768   1.763   4.579   5.370
 5290SOL    HW116769   1.768   4.572   5.270
 5290SOL    HW216770   1.855   4.574   5.408
 5291SOL     OW16771   2.294   5.645   5.496
 5291SOL    HW116772   2.271   5.741   5.480
 5291SOL    HW216773   2.217   5.599   5.539
 5292SOL     OW16774   6.651   4.000   0.200
 5292SOL    HW116775   6.700   4.082   0.169
 5292SOL    HW216776   6.691   3.919   0.157
 5293SOL     OW16777   1.399   1.035   3.906
 5293SOL    HW116778   1.341   0.954   3.899
 5293SOL    HW216779   1.482   1.012   3.957
 5294SOL     OW16780   4.457   3.558   5.786
 5294SOL    HW116781   4.397   3.616   5.731
 5294SOL    HW216782   4.409   3.474   5.810
 5295SOL     OW16783   5.070   0.232   2.386
 5295SOL    HW116784   5.147   0.190   2.436
 5295SOL    HW216785   5.005   0.161   2.362
 5296SOL     OW16786   1.431   5.126   0.412
 5296SOL    HW116787   1.524   5.116   0.377
 5296SOL    HW216788   1.379   5.042   0.395
 5297SOL     OW16789   3.426   2.061   1.245
 5297SOL    HW116790   3.517   2.095   1.219
 5297SOL    HW216791   3.436   1.978   1.300
 5298SOL     OW16792   1.188   5.859   6.257
 5298SOL    HW116793   1.155   5.883   6.348
 5298SOL    HW216794   1.252   5.782   6.264
 5299SOL     OW16795   2.657   2.532   1.149
 5299SOL    HW116796   2.743   2.481   1.139
 5299SOL    HW216797   2.581   2.475   1.119
 5300SOL     OW16798   0.059   6.212   2.111
 5300SOL    HW116799   0.063   6.310   2.092
 5300SOL    HW216800   0.081   6.160   2.029
 5301SOL     OW16801   4.302   3.055   0.691
 5301SOL    HW116802   4.258   2.986   0.633
 5301SOL    HW216803   4.368   3.011   0.751
 5302SOL     OW16804   6.407   4.617   2.437
 5302SOL    HW116805   6.315   4.578   2.438
 5302SOL    HW216806   6.469   4.559   2.489
 5303SOL     OW16807   6.616   6.022   3.037
 5303SOL    HW116808   6.577   5.957   2.973
 5303SOL    HW216809   6.544   6.075   3.081
 5304SOL     OW16810   6.573   1.459   6.468
 5304SOL    HW116811   6.560   1.511   6.384
 5304SOL    HW216812   6.611   1.520   6.539
 5305SOL     OW16813   1.032   5.676   4.287
 5305SOL    HW116814   1.121   5.630   4.291
 5305SOL    HW216815   1.000   5.679   4.192
 5306SOL     OW16816   0.742   5.210   5.093
 5306SOL    HW116817   0.738   5.250   5.002
 5306SOL    HW216818   0.678   5.259   5.153
 5307SOL     OW16819   4.446   0.029   6.962
 5307SOL    HW116820   4.413   0.122   6.971
 5307SOL    HW216821   4.469   0.011   6.866
 5308SOL     OW16822   1.008   5.955   3.827
 5308SOL    HW116823   1.100   5.936   3.793
 5308SOL    HW216824   0.962   6.017   3.764
 5309SOL     OW16825   3.460   4.189   1.853
 5309SOL    HW116826   3.493   4.182   1.759
 5309SOL    HW216827   3.400   4.269   1.861
 5310SOL     OW16828   5.908   2.562   1.688
 5310SOL    HW116829   5.916   2.527   1.594
 5310SOL    HW216830   5.937   2.657   1.691
 5311SOL     OW16831   0.008   6.035   1.322
 5311SOL    HW116832   0.061   6.118   1.305
 5311SOL    HW216833   6.956   6.056   1.382
 5312SOL     OW16834   0.353   3.756   2.026
 5312SOL    HW116835   0.428   3.690   2.036
 5312SOL    HW216836   0.313   3.775   2.115
 5313SOL     OW16837   1.219   3.451   6.911
 5313SOL    HW116838   1.163   3.368   6.914
 5313SOL    HW216839   1.307   3.430   6.868
 5314SOL     OW16840   3.253   5.653   0.114
 5314SOL    HW116841   3.251   5.661   0.014
 5314SOL    HW216842   3.303   5.570   0.139
 5315SOL     OW16843   3.940   3.336   1.340
 5315SOL    HW116844   3.954   3.301   1.247
 5315SOL    HW216845   4.025   3.326   1.393
 5316SOL     OW16846   7.007   4.611   4.384
 5316SOL    HW116847   0.026   4.684   4.436
 5316SOL    HW216848   0.053   4.557   4.337
 5317SOL     OW16849   6.892   0.690   4.790
 5317SOL    HW116850   6.813   0.743   4.820
 5317SOL    HW216851   6.976   0.735   4.820
 5318SOL     OW16852   0.389   1.686   5.864
 5318SOL    HW116853   0.296   1.664   5.835
 5318SOL    HW216854   0.396   1.681   5.964
 5319SOL     OW16855   4.636   6.728   6.560
 5319SOL    HW116856   4.609   6.642   6.516
 5319SOL    HW216857   4.713   6.768   6.511
 5320SOL     OW16858   5.801   4.769   6.789
 5320SOL    HW116859   5.897   4.796   6.783
 5320SOL    HW216860   5.768   4.784   6.882
 5321SOL     OW16861   0.711   4.072   2.843
 5321SOL    HW116862   0.699   3.974   2.829
 5321SOL    HW216863   0.807   4.091   2.863
 5322SOL     OW16864   3.743   5.705   5.941
 5322SOL    HW116865   3.706   5.679   6.030
 5322SOL    HW216866   3.838   5.675   5.934
 5323SOL     OW16867   4.286   3.153   0.269
 5323SOL    HW116868   4.372   3.188   0.233
 5323SOL    HW216869   4.268   3.195   0.358
 5324SOL     OW16870   3.896   2.396   1.663
 5324SOL    HW116871   3.829   2.355   1.725
 5324SOL    HW216872   3.988   2.385   1.701
 5325SOL     OW16873   5.745   6.653   3.806
 5325SOL    HW116874   5.812   6.695   3.745
 5325SOL    HW216875   5.790   6.624   3.890
 5326SOL     OW16876   0.057   6.029   3.446
 5326SOL    HW116877   6.983   6.013   3.446
 5326SOL    HW216878   0.082   6.082   3.526
 5327SOL     OW16879   6.516   4.610   4.798
 5327SOL    HW116880   6.441   4.640   4.739
 5327SOL    HW216881   6.494   4.630   4.893
 5328SOL     OW16882   4.626   2.754   5.819
 5328SOL    HW116883   4.622   2.655   5.828
 5328SOL    HW216884   4.615   2.779   5.722
 5329SOL     OW16885   0.736   3.778   0.325
 5329SOL    HW116886   0.797   3.829   0.265
 5329SOL    HW216887   0.753   3.680   0.315
 5330SOL     OW16888   3.943   4.087   6.858
 5330SOL    HW116889   4.011   4.117   6.791
 5330SOL    HW216890   3.971   3.999   6.897
 5331SOL     OW16891   5.535   0.555   1.376
 5331SOL    HW116892   5.633   0.571   1.386
 5331SOL    HW216893   5.514   0.461   1.403
 5332SOL     OW16894   0.481   4.671   0.415
 5332SOL    HW116895   0.392   4.717   0.412
 5332SOL    HW216896   0.508   4.644   0.323
 5333SOL     OW16897   0.835   0.663   3.894
 5333SOL    HW116898   0.817   0.569   3.866
 5333SOL    HW216899   0.749   0.715   3.893
 5334SOL     OW16900   2.926   5.827   5.097
 5334SOL    HW116901   2.944   5.845   5.001
 5334SOL    HW216902   2.849   5.763   5.106
 5335SOL     OW16903   0.055   4.886   1.879
 5335SOL    HW116904   0.038   4.789   1.892
 5335SOL    HW216905   0.143   4.900   1.835
 5336SOL     OW16906   2.376   1.760   3.454
 5336SOL    HW116907   2.350   1.666   3.476
 5336SOL    HW216908   2.383   1.814   3.538
 5337SOL     OW16909   5.031   4.948   2.081
 5337SOL    HW116910   5.097   4.876   2.060
 5337SOL    HW216911   4.938   4.912   2.073
 5338SOL     OW16912   6.055   0.871   5.935
 5338SOL    HW116913   6.057   0.855   6.033
 5338SOL    HW216914   5.987   0.941   5.913
 5339SOL     OW16915   5.969   1.407   3.083
 5339SOL    HW116916   5.930   1.450   3.001
 5339SOL    HW216917   5.909   1.424   3.161
 5340SOL     OW16918   5.732   4.003   1.269
 5340SOL    HW116919   5.635   3.996   1.293
 5340SOL    HW216920   5.746   3.965   1.178
 5341SOL     OW16921   2.827   5.193   5.128
 5341SOL    HW116922   2.842   5.278   5.179
 5341SOL    HW216923   2.845   5.115   5.188
 5342SOL     OW16924   5.417   6.388   4.801
 5342SOL    HW116925   5.514   6.361   4.801
 5342SOL    HW216926   5.360   6.306   4.794
 5343SOL     OW16927   4.232   3.545   5.034
 5343SOL    HW116928   4.331   3.549   5.022
 5343SOL    HW216929   4.205   3.599   5.113
 5344SOL     OW16930   1.373   1.901   0.965
 5344SOL    HW116931   1.312   1.830   0.930
 5344SOL    HW216932   1.427   1.938   0.890
 5345SOL     OW16933   5.582   6.610   7.019
 5345SOL    HW116934   5.563   6.556   6.937
 5345SOL    HW216935   5.599   6.705   6.994
 5346SOL     OW16936   2.738   5.641   3.777
 5346SOL    HW116937   2.648   5.616   3.815
 5346SOL    HW216938   2.810   5.616   3.842
 5347SOL     OW16939   0.442   3.212   2.453
 5347SOL    HW116940   0.496   3.285   2.495
 5347SOL    HW216941   0.459   3.210   2.355
 5348SOL     OW16942   6.624   1.203   6.942
 5348SOL    HW116943   6.629   1.182   0.015
 5348SOL    HW216944   6.529   1.196   6.912
 5349SOL     OW16945   2.323   3.629   0.620
 5349SOL    HW116946   2.363   3.703   0.566
 5349SOL    HW216947   2.249   3.586   0.567
 5350SOL     OW16948   1.976   0.185   4.744
 5350SOL    HW116949   2.067   0.216   4.774
 5350SOL    HW216950   1.973   0.085   4.749
 5351SOL     OW16951   0.217   5.409   2.201
 5351SOL    HW116952   0.260   5.496   2.227
 5351SOL    HW216953   0.264   5.334   2.247
 5352SOL     OW16954   2.368   4.755   2.770
 5352SOL    HW116955   2.338   4.788   2.859
 5352SOL    HW216956   2.436   4.682   2.781
 5353SOL     OW16957   3.842   5.552   4.415
 5353SOL    HW116958   3.772   5.614   4.451
 5353SOL    HW216959   3.911   5.536   4.485
 5354SOL     OW16960   2.159   4.144   1.188
 5354SOL    HW116961   2.156   4.212   1.115
 5354SOL    HW216962   2.250   4.143   1.229
 5355SOL     OW16963   5.815   4.908   3.896
 5355SOL    HW116964   5.863   4.915   3.984
 5355SOL    HW216965   5.718   4.925   3.909
 5356SOL     OW16966   6.711   3.668   3.102
 5356SOL    HW116967   6.729   3.714   3.189
 5356SOL    HW216968   6.770   3.587   3.094
 5357SOL     OW16969   3.062   5.588   0.693
 5357SOL    HW116970   3.119   5.586   0.775
 5357SOL    HW216971   3.062   5.681   0.656
 5358SOL     OW16972   4.456   1.933   1.031
 5358SOL    HW116973   4.376   1.900   1.081
 5358SOL    HW216974   4.426   1.970   0.943
 5359SOL     OW16975   2.764   2.017   6.240
 5359SOL    HW116976   2.732   1.951   6.172
 5359SOL    HW216977   2.713   2.003   6.325
 5360SOL     OW16978   4.071   6.480   3.582
 5360SOL    HW116979   4.022   6.548   3.637
 5360SOL    HW216980   4.032   6.389   3.598
 5361SOL     OW16981   2.675   6.920   4.606
 5361SOL    HW116982   2.748   6.855   4.588
 5361SOL    HW216983   2.587   6.878   4.585
 5362SOL     OW16984   6.740   5.798   2.545
 5362SOL    HW116985   6.791   5.856   2.609
 5362SOL    HW216986   6.735   5.705   2.581
 5363SOL     OW16987   6.368   6.173   6.256
 5363SOL    HW116988   6.368   6.086   6.208
 5363SOL    HW216989   6.314   6.240   6.205
 5364SOL     OW16990   6.197   0.423   1.346
 5364SOL    HW116991   6.235   0.422   1.438
 5364SOL    HW216992   6.097   0.421   1.351
 5365SOL     OW16993   3.564   3.040   2.071
 5365SOL    HW116994   3.562   2.958   2.013
 5365SOL    HW216995   3.587   3.013   2.165
 5366SOL     OW16996   6.257   6.212   1.845
 5366SOL    HW116997   6.312   6.132   1.819
 5366SOL    HW216998   6.285   6.291   1.790
 5367SOL     OW16999   0.318   6.883   1.808
 5367SOL    HW117000   0.384   6.958   1.799
 5367SOL    HW217001   0.320   6.848   1.902
 5368SOL     OW17002   6.059   0.116   2.494
 5368SOL    HW117003   6.056   0.137   2.396
 5368SOL    HW217004   6.123   0.041   2.510
 5369SOL     OW17005   2.468   6.635   0.912
 5369SOL    HW117006   2.444   6.611   0.818
 5369SOL    HW217007   2.394   6.608   0.974
 5370SOL     OW17008   4.575   3.637   0.766
 5370SOL    HW117009   4.641   3.586   0.822
 5370SOL    HW217010   4.546   3.719   0.814
 5371SOL     OW17011   1.312   4.758   5.471
 5371SOL    HW117012   1.319   4.675   5.527
 5371SOL    HW217013   1.262   4.828   5.522
 5372SOL     OW17014   1.121   6.302   2.912
 5372SOL    HW117015   1.073   6.362   2.849
 5372SOL    HW217016   1.196   6.352   2.956
 5373SOL     OW17017   3.950   6.076   5.214
 5373SOL    HW117018   4.018   6.150   5.209
 5373SOL    HW217019   3.866   6.112   5.255
 5374SOL     OW17020   2.287   4.760   1.004
 5374SOL    HW117021   2.298   4.661   0.998
 5374SOL    HW217022   2.307   4.801   0.916
 5375SOL     OW17023   0.211   5.959   5.551
 5375SOL    HW117024   0.133   5.914   5.594
 5375SOL    HW217025   0.192   5.972   5.454
 5376SOL     OW17026   1.243   2.702   1.517
 5376SOL    HW117027   1.332   2.701   1.472
 5376SOL    HW217028   1.192   2.783   1.487
 5377SOL     OW17029   0.909   0.282   2.759
 5377SOL    HW117030   0.916   0.303   2.857
 5377SOL    HW217031   0.857   0.197   2.748
 5378SOL     OW17032   6.601   6.608   2.541
 5378SOL    HW117033   6.559   6.518   2.532
 5378SOL    HW217034   6.584   6.644   2.632
 5379SOL     OW17035   1.267   3.432   4.811
 5379SOL    HW117036   1.274   3.357   4.877
 5379SOL    HW217037   1.223   3.399   4.728
 5380SOL     OW17038   3.041   0.111   1.655
 5380SOL    HW117039   3.090   0.197   1.669
 5380SOL    HW217040   3.078   0.064   1.575
 5381SOL     OW17041   6.853   5.910   1.907
 5381SOL    HW117042   6.791   5.982   1.937
 5381SOL    HW217043   6.869   5.919   1.808
 5382SOL     OW17044   3.044   2.073   2.123
 5382SOL    HW117045   3.000   2.154   2.084
 5382SOL    HW217046   2.979   2.023   2.181
 5383SOL     OW17047   1.470   3.076   4.591
 5383SOL    HW117048   1.544   3.010   4.606
 5383SOL    HW217049   1.501   3.167   4.617
 5384SOL     OW17050   5.030   6.718   4.690
 5384SOL    HW117051   4.943   6.761   4.716
 5384SOL    HW217052   5.049   6.737   4.593
 5385SOL     OW17053   3.949   3.271   5.173
 5385SOL    HW117054   3.947   3.369   5.192
 5385SOL    HW217055   3.951   3.256   5.074
 5386SOL     OW17056   5.037   1.900   3.948
 5386SOL    HW117057   4.995   1.862   3.865
 5386SOL    HW217058   5.016   1.840   4.026
 5387SOL     OW17059   2.119   6.457   2.715
 5387SOL    HW117060   2.197   6.412   2.671
 5387SOL    HW217061   2.148   6.543   2.757
 5388SOL     OW17062   0.897   0.783   3.177
 5388SOL    HW117063   0.885   0.684   3.185
 5388SOL    HW217064   0.868   0.813   3.087
 5389SOL     OW17065   3.922   0.989   3.848
 5389SOL    HW117066   4.001   0.982   3.909
 5389SOL    HW217067   3.920   1.079   3.806
 5390SOL     OW17068   5.752   4.038   3.194
 5390SOL    HW117069   5.668   4.062   3.243
 5390SOL    HW217070   5.743   3.946   3.157
 5391SOL     OW17071   2.145   2.054   0.527
 5391SOL    HW117072   2.202   1.972   0.527
 5391SOL    HW217073   2.155   2.102   0.614
 5392SOL     OW17074   5.788   3.818   1.032
 5392SOL    HW117075   5.737   3.766   1.101
 5392SOL    HW217076   5.730   3.832   0.952
 5393SOL     OW17077   4.232   0.458   4.784
 5393SOL    HW117078   4.158   0.416   4.731
 5393SOL    HW217079   4.307   0.393   4.795
 5394SOL     OW17080   0.844   5.743   1.043
 5394SOL    HW117081   0.860   5.662   1.099
 5394SOL    HW217082   0.797   5.812   1.096
 5395SOL     OW17083   4.905   0.407   1.221
 5395SOL    HW117084   4.842   0.349   1.169
 5395SOL    HW217085   4.882   0.503   1.204
 5396SOL     OW17086   5.278   5.088   1.345
 5396SOL    HW117087   5.304   5.182   1.320
 5396SOL    HW217088   5.246   5.040   1.263
 5397SOL     OW17089   0.498   2.130   1.276
 5397SOL    HW117090   0.489   2.056   1.209
 5397SOL    HW217091   0.411   2.179   1.282
 5398SOL     OW17092   3.510   2.097   4.364
 5398SOL    HW117093   3.418   2.087   4.325
 5398SOL    HW217094   3.577   2.102   4.290
 5399SOL     OW17095   2.363   6.652   6.114
 5399SOL    HW117096   2.311   6.626   6.196
 5399SOL    HW217097   2.347   6.749   6.094
 5400SOL     OW17098   2.839   4.024   0.098
 5400SOL    HW117099   2.807   4.107   0.054
 5400SOL    HW217100   2.911   4.046   0.164
 5401SOL     OW17101   5.627   4.308   2.183
 5401SOL    HW117102   5.666   4.327   2.093
 5401SOL    HW217103   5.701   4.300   2.250
 5402SOL     OW17104   3.286   6.259   0.882
 5402SOL    HW117105   3.273   6.160   0.876
 5402SOL    HW217106   3.257   6.291   0.972
 5403SOL     OW17107   4.978   3.368   6.171
 5403SOL    HW117108   4.938   3.381   6.262
 5403SOL    HW217109   4.906   3.376   6.102
 5404SOL     OW17110   1.018   0.662   1.814
 5404SOL    HW117111   1.093   0.632   1.873
 5404SOL    HW217112   0.995   0.757   1.835
 5405SOL     OW17113   5.699   4.789   0.025
 5405SOL    HW117114   5.728   4.791   0.120
 5405SOL    HW217115   5.637   4.711   0.010
 5406SOL     OW17116   1.960   0.585   5.125
 5406SOL    HW117117   1.908   0.528   5.061
 5406SOL    HW217118   1.900   0.656   5.163
 5407SOL     OW17119   3.268   2.150   1.031
 5407SOL    HW117120   3.333   2.116   1.099
 5407SOL    HW217121   3.318   2.196   0.957
 5408SOL     OW17122   3.849   0.489   4.764
 5408SOL    HW117123   3.910   0.418   4.731
 5408SOL    HW217124   3.754   0.456   4.762
 5409SOL     OW17125   0.079   1.899   3.338
 5409SOL    HW117126   0.051   1.835   3.266
 5409SOL    HW217127   7.023   1.943   3.376
 5410SOL     OW17128   0.663   2.289   6.303
 5410SOL    HW117129   0.749   2.309   6.255
 5410SOL    HW217130   0.678   2.215   6.369
 5411SOL     OW17131   5.612   5.103   6.278
 5411SOL    HW117132   5.652   5.067   6.194
 5411SOL    HW217133   5.680   5.157   6.328
 5412SOL     OW17134   2.853   1.390   6.760
 5412SOL    HW117135   2.843   1.490   6.752
 5412SOL    HW217136   2.849   1.364   6.856
 5413SOL     OW17137   0.318   0.481   6.626
 5413SOL    HW117138   0.241   0.511   6.570
 5413SOL    HW217139   0.288   0.408   6.688
 5414SOL     OW17140   6.554   4.317   4.776
 5414SOL    HW117141   6.527   4.400   4.726
 5414SOL    HW217142   6.501   4.239   4.741
 5415SOL     OW17143   2.255   6.787   1.500
 5415SOL    HW117144   2.204   6.862   1.541
 5415SOL    HW217145   2.194   6.708   1.488
 5416SOL     OW17146   2.855   4.989   5.345
 5416SOL    HW117147   2.841   4.900   5.301
 5416SOL    HW217148   2.771   5.017   5.391
 5417SOL     OW17149   4.188   6.637   4.467
 5417SOL    HW117150   4.173   6.724   4.515
 5417SOL    HW217151   4.120   6.570   4.497
 5418SOL     OW17152   5.688   6.678   5.070
 5418SOL    HW117153   5.629   6.607   5.109
 5418SOL    HW217154   5.711   6.654   4.976
 5419SOL     OW17155   3.482   5.766   0.799
 5419SOL    HW117156   3.499   5.680   0.750
 5419SOL    HW217157   3.569   5.811   0.819
 5420SOL     OW17158   1.841   2.306   1.726
 5420SOL    HW117159   1.861   2.382   1.664
 5420SOL    HW217160   1.921   2.246   1.731
 5421SOL     OW17161   3.126   5.035   1.947
 5421SOL    HW117162   3.034   5.019   1.982
 5421SOL    HW217163   3.129   5.010   1.850
 5422SOL     OW17164   0.502   4.642   4.142
 5422SOL    HW117165   0.436   4.715   4.156
 5422SOL    HW217166   0.463   4.572   4.082
 5423SOL     OW17167   5.177   4.846   0.529
 5423SOL    HW117168   5.249   4.785   0.561
 5423SOL    HW217169   5.090   4.796   0.525
 5424SOL     OW17170   5.518   4.255   4.389
 5424SOL    HW117171   5.585   4.210   4.331
 5424SOL    HW217172   5.461   4.315   4.332
 5425SOL     OW17173   5.563   1.988   5.291
 5425SOL    HW117174   5.554   2.062   5.358
 5425SOL    HW217175   5.589   2.026   5.202
 5426SOL     OW17176   6.026   5.724   2.837
 5426SOL    HW117177   6.106   5.666   2.825
 5426SOL    HW217178   5.992   5.754   2.747
 5427SOL     OW17179   4.877   3.600   0.442
 5427SOL    HW117180   4.910   3.571   0.352
 5427SOL    HW217181   4.786   3.640   0.433
 5428SOL     OW17182   5.588   0.011   2.041
 5428SOL    HW117183   5.546   0.032   2.129
 5428SOL    HW217184   5.578   0.089   1.979
 5429SOL     OW17185   2.443   0.754   6.247
 5429SOL    HW117186   2.345   0.744   6.226
 5429SOL    HW217187   2.453   0.798   6.337
 5430SOL     OW17188   2.105   2.778   5.625
 5430SOL    HW117189   2.064   2.866   5.600
 5430SOL    HW217190   2.152   2.740   5.546
 5431SOL     OW17191   2.909   4.111   6.345
 5431SOL    HW117192   2.823   4.101   6.296
 5431SOL    HW217193   2.919   4.206   6.376
 5432SOL     OW17194   3.866   5.154   6.900
 5432SOL    HW117195   3.808   5.157   6.819
 5432SOL    HW217196   3.860   5.064   6.942
 5433SOL     OW17197   0.715   1.256   2.694
 5433SOL    HW117198   0.657   1.177   2.712
 5433SOL    HW217199   0.729   1.266   2.595
 5434SOL     OW17200   4.066   0.809   4.477
 5434SOL    HW117201   4.122   0.726   4.481
 5434SOL    HW217202   4.020   0.822   4.564
 5435SOL     OW17203   6.688   2.665   0.573
 5435SOL    HW117204   6.722   2.730   0.641
 5435SOL    HW217205   6.610   2.614   0.611
 5436SOL     OW17206   5.578   4.662   3.257
 5436SOL    HW117207   5.593   4.570   3.222
 5436SOL    HW217208   5.601   4.664   3.355
 5437SOL     OW17209   3.052   5.085   5.006
 5437SOL    HW117210   3.015   5.007   4.957
 5437SOL    HW217211   2.978   5.133   5.054
 5438SOL     OW17212   5.820   3.800   1.881
 5438SOL    HW117213   5.856   3.721   1.929
 5438SOL    HW217214   5.819   3.782   1.783
 5439SOL     OW17215   0.415   2.810   0.206
 5439SOL    HW117216   0.324   2.785   0.173
 5439SOL    HW217217   0.440   2.751   0.282
 5440SOL     OW17218   6.740   6.759   3.559
 5440SOL    HW117219   6.782   6.724   3.643
 5440SOL    HW217220   6.642   6.739   3.559
 5441SOL     OW17221   5.024   3.310   3.607
 5441SOL    HW117222   4.988   3.382   3.667
 5441SOL    HW217223   5.052   3.232   3.662
 5442SOL     OW17224   3.839   0.112   3.005
 5442SOL    HW117225   3.815   0.075   2.915
 5442SOL    HW217226   3.813   0.046   3.076
 5443SOL     OW17227   4.042   5.655   3.800
 5443SOL    HW117228   3.956   5.610   3.822
 5443SOL    HW217229   4.026   5.725   3.731
 5444SOL     OW17230   0.601   0.611   3.209
 5444SOL    HW117231   0.533   0.639   3.277
 5444SOL    HW217232   0.684   0.580   3.256
 5445SOL     OW17233   6.115   4.413   3.851
 5445SOL    HW117234   6.205   4.370   3.851
 5445SOL    HW217235   6.120   4.503   3.894
 5446SOL     OW17236   5.760   5.502   4.483
 5446SOL    HW117237   5.758   5.433   4.411
 5446SOL    HW217238   5.822   5.472   4.556
 5447SOL     OW17239   1.646   1.294   0.543
 5447SOL    HW117240   1.625   1.331   0.634
 5447SOL    HW217241   1.623   1.197   0.541
 5448SOL     OW17242   4.790   4.951   4.056
 5448SOL    HW117243   4.888   4.939   4.066
 5448SOL    HW217244   4.762   4.926   3.963
 5449SOL     OW17245   2.255   1.567   0.352
 5449SOL    HW117246   2.182   1.553   0.419
 5449SOL    HW217247   2.344   1.554   0.398
 5450SOL     OW17248   3.795   0.462   1.351
 5450SOL    HW117249   3.871   0.527   1.348
 5450SOL    HW217250   3.829   0.371   1.325
 5451SOL     OW17251   2.006   6.294   3.358
 5451SOL    HW117252   2.015   6.394   3.358
 5451SOL    HW217253   1.996   6.262   3.264
 5452SOL     OW17254   2.372   4.135   0.884
 5452SOL    HW117255   2.372   4.111   0.787
 5452SOL    HW217256   2.297   4.198   0.903
 5453SOL     OW17257   5.271   4.257   2.584
 5453SOL    HW117258   5.312   4.201   2.512
 5453SOL    HW217259   5.211   4.325   2.542
 5454SOL     OW17260   5.234   5.834   6.809
 5454SOL    HW117261   5.240   5.915   6.751
 5454SOL    HW217262   5.289   5.848   6.892
 5455SOL     OW17263   0.299   2.562   3.668
 5455SOL    HW117264   0.392   2.593   3.647
 5455SOL    HW217265   0.234   2.634   3.644
 5456SOL     OW17266   3.353   1.182   7.022
 5456SOL    HW117267   3.407   1.266   7.012
 5456SOL    HW217268   3.336   1.143   6.931
 5457SOL     OW17269   6.441   1.825   1.234
 5457SOL    HW117270   6.463   1.879   1.315
 5457SOL    HW217271   6.520   1.825   1.172
 5458SOL     OW17272   0.177   5.662   0.308
 5458SOL    HW117273   0.110   5.705   0.247
 5458SOL    HW217274   0.238   5.603   0.254
 5459SOL     OW17275   2.772   4.066   6.073
 5459SOL    HW117276   2.745   4.026   5.985
 5459SOL    HW217277   2.768   4.166   6.067
 5460SOL     OW17278   3.137   0.518   2.766
 5460SOL    HW117279   3.179   0.432   2.737
 5460SOL    HW217280   3.039   0.515   2.749
 5461SOL     OW17281   0.307   6.852   4.719
 5461SOL    HW117282   0.284   6.774   4.776
 5461SOL    HW217283   0.226   6.909   4.707
 5462SOL     OW17284   5.639   6.279   0.032
 5462SOL    HW117285   5.737   6.260   0.017
 5462SOL    HW217286   5.620   6.375   0.013
 5463SOL     OW17287   0.421   2.042   0.092
 5463SOL    HW117288   0.513   2.033   0.054
 5463SOL    HW217289   0.426   2.045   0.192
 5464SOL     OW17290   5.860   6.512   4.850
 5464SOL    HW117291   5.790   6.466   4.796
 5464SOL    HW217292   5.906   6.580   4.793
 5465SOL     OW17293   5.720   0.487   3.909
 5465SOL    HW117294   5.738   0.396   3.870
 5465SOL    HW217295   5.757   0.491   4.002
 5466SOL     OW17296   5.083   2.555   5.944
 5466SOL    HW117297   4.987   2.578   5.962
 5466SOL    HW217298   5.088   2.488   5.870
 5467SOL     OW17299   6.082   3.732   3.187
 5467SOL    HW117300   6.045   3.739   3.095
 5467SOL    HW217301   6.066   3.817   3.237
 5468SOL     OW17302   6.394   1.943   5.170
 5468SOL    HW117303   6.467   1.913   5.231
 5468SOL    HW217304   6.327   1.997   5.221
 5469SOL     OW17305   3.491   6.342   5.245
 5469SOL    HW117306   3.458   6.404   5.175
 5469SOL    HW217307   3.465   6.377   5.335
 5470SOL     OW17308   3.302   5.397   3.839
 5470SOL    HW117309   3.374   5.369   3.775
 5470SOL    HW217310   3.260   5.315   3.879
 5471SOL     OW17311   6.913   0.959   3.248
 5471SOL    HW117312   6.972   0.908   3.186
 5471SOL    HW217313   6.963   0.980   3.332
 5472SOL     OW17314   2.653   3.614   6.496
 5472SOL    HW117315   2.696   3.581   6.412
 5472SOL    HW217316   2.725   3.636   6.563
 5473SOL     OW17317   2.147   2.918   1.207
 5473SOL    HW117318   2.209   2.844   1.234
 5473SOL    HW217319   2.117   2.904   1.113
 5474SOL     OW17320   1.240   4.718   4.687
 5474SOL    HW117321   1.325   4.765   4.664
 5474SOL    HW217322   1.246   4.682   4.780
 5475SOL     OW17323   1.788   2.459   0.925
 5475SOL    HW117324   1.743   2.378   0.963
 5475SOL    HW217325   1.733   2.496   0.850
 5476SOL     OW17326   2.451   4.800   4.768
 5476SOL    HW117327   2.530   4.739   4.780
 5476SOL    HW217328   2.368   4.753   4.798
 5477SOL     OW17329   1.898   4.304   2.718
 5477SOL    HW117330   1.829   4.272   2.653
 5477SOL    HW217331   1.871   4.279   2.811
 5478SOL     OW17332   3.807   7.012   5.442
 5478SOL    HW117333   3.859   6.985   5.523
 5478SOL    HW217334   3.828   0.082   5.419
 5479SOL     OW17335   5.611   2.185   5.461
 5479SOL    HW117336   5.612   2.149   5.554
 5479SOL    HW217337   5.598   2.284   5.463
 5480SOL     OW17338   5.705   5.793   4.368
 5480SOL    HW117339   5.623   5.831   4.324
 5480SOL    HW217340   5.727   5.704   4.327
 5481SOL     OW17341   4.691   1.548   4.278
 5481SOL    HW117342   4.604   1.514   4.313
 5481SOL    HW217343   4.763   1.481   4.296
 5482SOL     OW17344   3.699   3.438   1.936
 5482SOL    HW117345   3.741   3.410   1.850
 5482SOL    HW217346   3.716   3.536   1.951
 5483SOL     OW17347   0.804   2.187   5.328
 5483SOL    HW117348   0.875   2.168   5.260
 5483SOL    HW217349   0.748   2.105   5.343
 5484SOL     OW17350   5.300   0.893   3.360
 5484SOL    HW117351   5.382   0.934   3.319
 5484SOL    HW217352   5.266   0.952   3.433
 5485SOL     OW17353   3.550   0.095   5.475
 5485SOL    HW117354   3.469   0.051   5.514
 5485SOL    HW217355   3.619   0.025   5.454
 5486SOL     OW17356   1.670   5.353   5.461
 5486SOL    HW117357   1.666   5.451   5.439
 5486SOL    HW217358   1.671   5.300   5.376
 5487SOL     OW17359   4.550   3.153   6.521
 5487SOL    HW117360   4.643   3.183   6.542
 5487SOL    HW217361   4.528   3.177   6.427
 5488SOL     OW17362   6.135   0.778   0.892
 5488SOL    HW117363   6.196   0.700   0.904
 5488SOL    HW217364   6.165   0.831   0.812
 5489SOL     OW17365   1.340   4.355   1.266
 5489SOL    HW117366   1.344   4.427   1.198
 5489SOL    HW217367   1.272   4.286   1.239
 5490SOL     OW17368   3.325   6.876   0.222
 5490SOL    HW117369   3.406   6.862   0.165
 5490SOL    HW217370   3.275   6.956   0.189
 5491SOL     OW17371   2.029   3.973   1.003
 5491SOL    HW117372   2.057   4.032   1.078
 5491SOL    HW217373   2.077   3.886   1.008
 5492SOL     OW17374   0.461   2.127   6.185
 5492SOL    HW117375   0.413   2.175   6.112
 5492SOL    HW217376   0.528   2.188   6.227
 5493SOL     OW17377   3.879   3.853   4.659
 5493SOL    HW117378   3.869   3.934   4.601
 5493SOL    HW217379   3.935   3.785   4.612
 5494SOL     OW17380   6.257   2.625   6.100
 5494SOL    HW117381   6.177   2.609   6.158
 5494SOL    HW217382   6.312   2.541   6.094
 5495SOL     OW17383   3.604   1.731   1.005
 5495SOL    HW117384   3.610   1.733   0.905
 5495SOL    HW217385   3.695   1.712   1.043
 5496SOL     OW17386   3.098   0.288   3.210
 5496SOL    HW117387   3.012   0.316   3.253
 5496SOL    HW217388   3.166   0.270   3.281
 5497SOL     OW17389   0.602   2.131   4.111
 5497SOL    HW117390   0.621   2.039   4.145
 5497SOL    HW217391   0.686   2.183   4.108
 5498SOL     OW17392   6.169   6.534   0.895
 5498SOL    HW117393   6.214   6.473   0.830
 5498SOL    HW217394   6.086   6.571   0.854
 5499SOL     OW17395   0.162   0.744   4.915
 5499SOL    HW117396   0.180   0.774   5.009
 5499SOL    HW217397   0.187   0.816   4.851
 5500SOL     OW17398   1.290   0.930   0.420
 5500SOL    HW117399   1.277   0.891   0.329
 5500SOL    HW217400   1.368   0.886   0.464
 5501SOL     OW17401   4.245   6.399   0.037
 5501SOL    HW117402   4.325   6.451   0.007
 5501SOL    HW217403   4.167   6.420   7.002
 5502SOL     OW17404   5.232   3.756   0.273
 5502SOL    HW117405   5.161   3.689   0.292
 5502SOL    HW217406   5.238   3.821   0.348
 5503SOL     OW17407   0.434   5.042   2.575
 5503SOL    HW117408   0.406   5.023   2.669
 5503SOL    HW217409   0.450   4.955   2.527
 5504SOL     OW17410   4.119   0.954   5.365
 5504SOL    HW117411   4.158   1.040   5.333
 5504SOL    HW217412   4.038   0.931   5.311
 5505SOL     OW17413   1.871   5.108   3.992
 5505SOL    HW117414   1.940   5.053   3.944
 5505SOL    HW217415   1.820   5.162   3.925
 5506SOL     OW17416   0.925   2.298   6.189
 5506SOL    HW117417   0.952   2.352   6.110
 5506SOL    HW217418   1.005   2.283   6.248
 5507SOL     OW17419   2.754   0.353   3.919
 5507SOL    HW117420   2.776   0.451   3.920
 5507SOL    HW217421   2.836   0.300   3.897
 5508SOL     OW17422   0.973   0.569   6.247
 5508SOL    HW117423   0.989   0.645   6.185
 5508SOL    HW217424   0.919   0.499   6.201
 5509SOL     OW17425   0.626   6.530   0.017
 5509SOL    HW117426   0.717   6.547   0.056
 5509SOL    HW217427   0.563   6.506   0.090
 5510SOL     OW17428   5.733   5.570   0.742
 5510SOL    HW117429   5.723   5.473   0.763
 5510SOL    HW217430   5.814   5.606   0.790
 5511SOL     OW17431   1.890   1.417   3.804
 5511SOL    HW117432   1.930   1.385   3.718
 5511SOL    HW217433   1.929   1.365   3.880
 5512SOL     OW17434   5.800   1.865   1.546
 5512SOL    HW117435   5.840   1.826   1.630
 5512SOL    HW217436   5.715   1.817   1.524
 5513SOL     OW17437   4.503   4.958   0.011
 5513SOL    HW117438   4.531   5.054   0.008
 5513SOL    HW217439   4.409   4.948   7.005
 5514SOL     OW17440   4.149   6.815   3.901
 5514SOL    HW117441   4.245   6.836   3.921
 5514SOL    HW217442   4.131   6.720   3.926
 5515SOL     OW17443   0.590   5.097   1.505
 5515SOL    HW117444   0.495   5.109   1.477
 5515SOL    HW217445   0.630   5.185   1.528
 5516SOL     OW17446   1.945   4.250   6.617
 5516SOL    HW117447   1.962   4.343   6.585
 5516SOL    HW217448   2.021   4.191   6.589
 5517SOL     OW17449   1.805   3.485   2.264
 5517SOL    HW117450   1.760   3.484   2.175
 5517SOL    HW217451   1.904   3.487   2.251
 5518SOL     OW17452   6.656   6.109   6.300
 5518SOL    HW117453   6.650   6.030   6.240
 5518SOL    HW217454   6.565   6.149   6.312
 5519SOL     OW17455   5.618   3.407   3.069
 5519SOL    HW117456   5.563   3.351   3.131
 5519SOL    HW217457   5.628   3.360   2.981
 5520SOL     OW17458   5.841   6.105   1.864
 5520SOL    HW117459   5.907   6.173   1.834
 5520SOL    HW217460   5.821   6.118   1.961
 5521SOL     OW17461   5.248   0.068   1.645
 5521SOL    HW117462   5.327   0.120   1.614
 5521SOL    HW217463   5.273   0.014   1.726
 5522SOL     OW17464   0.400   5.685   0.476
 5522SOL    HW117465   0.319   5.683   0.417
 5522SOL    HW217466   0.448   5.771   0.463
 5523SOL     OW17467   3.118   0.359   1.811
 5523SOL    HW117468   3.150   0.376   1.905
 5523SOL    HW217469   3.194   0.371   1.747
 5524SOL     OW17470   5.402   6.032   5.525
 5524SOL    HW117471   5.385   6.070   5.616
 5524SOL    HW217472   5.381   5.934   5.526
 5525SOL     OW17473   0.274   2.468   0.803
 5525SOL    HW117474   0.308   2.447   0.895
 5525SOL    HW217475   0.181   2.504   0.810
 5526SOL     OW17476   5.164   5.114   3.951
 5526SOL    HW117477   5.211   5.199   3.976
 5526SOL    HW217478   5.129   5.121   3.858
 5527SOL     OW17479   5.259   3.856   3.762
 5527SOL    HW117480   5.355   3.843   3.734
 5527SOL    HW217481   5.255   3.874   3.860
 5528SOL     OW17482   0.778   1.015   6.653
 5528SOL    HW117483   0.872   0.989   6.633
 5528SOL    HW217484   0.719   0.983   6.579
 5529SOL     OW17485   2.676   0.212   2.964
 5529SOL    HW117486   2.736   0.151   2.913
 5529SOL    HW217487   2.728   0.291   2.995
 5530SOL     OW17488   5.701   2.166   2.018
 5530SOL    HW117489   5.734   2.258   1.996
 5530SOL    HW217490   5.622   2.172   2.078
 5531SOL     OW17491   3.119   3.096   2.552
 5531SOL    HW117492   3.122   3.067   2.457
 5531SOL    HW217493   3.183   3.042   2.606
 5532SOL     OW17494   1.166   2.903   0.535
 5532SOL    HW117495   1.132   2.899   0.441
 5532SOL    HW217496   1.090   2.890   0.598
 5533SOL     OW17497   3.738   1.400   3.099
 5533SOL    HW117498   3.763   1.317   3.148
 5533SOL    HW217499   3.650   1.388   3.054
 5534SOL     OW17500   0.673   1.691   5.837
 5534SOL    HW117501   0.573   1.687   5.842
 5534SOL    HW217502   0.710   1.702   5.929
 5535SOL     OW17503   7.002   2.954   3.371
 5535SOL    HW117504   0.026   2.920   3.290
 5535SOL    HW217505   6.905   2.965   3.350
 5536SOL     OW17506   2.889   1.281   4.364
 5536SOL    HW117507   2.974   1.286   4.417
 5536SOL    HW217508   2.824   1.221   4.409
 5537SOL     OW17509   2.980   0.807   2.511
 5537SOL    HW117510   2.939   0.727   2.468
 5537SOL    HW217511   2.930   0.830   2.594
 5538SOL     OW17512   2.277   6.461   5.283
 5538SOL    HW117513   2.346   6.533   5.272
 5538SOL    HW217514   2.321   6.372   5.285
 5539SOL     OW17515   1.554   3.107   1.069
 5539SOL    HW117516   1.534   3.113   0.971
 5539SOL    HW217517   1.650   3.128   1.085
 5540SOL     OW17518   5.362   4.150   3.629
 5540SOL    HW117519   5.389   4.244   3.610
 5540SOL    HW217520   5.418   4.112   3.702
 5541SOL     OW17521   6.029   0.002   6.067
 5541SOL    HW117522   6.034   7.006   6.164
 5541SOL    HW217523   6.117   0.041   6.037
 5542SOL     OW17524   5.424   4.018   5.900
 5542SOL    HW117525   5.516   4.025   5.860
 5542SOL    HW217526   5.430   4.029   5.999
 5543SOL     OW17527   3.583   4.970   5.872
 5543SOL    HW117528   3.494   4.924   5.870
 5543SOL    HW217529   3.635   4.945   5.791
 5544SOL     OW17530   5.827   5.963   6.498
 5544SOL    HW117531   5.774   5.903   6.558
 5544SOL    HW217532   5.824   5.926   6.405
 5545SOL     OW17533   3.781   1.594   1.818
 5545SOL    HW117534   3.848   1.520   1.829
 5545SOL    HW217535   3.764   1.637   1.907
 5546SOL     OW17536   1.107   5.115   4.452
 5546SOL    HW117537   1.131   5.049   4.381
 5546SOL    HW217538   1.100   5.067   4.540
 5547SOL     OW17539   2.704   0.079   4.822
 5547SOL    HW117540   2.625   0.067   4.882
 5547SOL    HW217541   2.706   0.006   4.754
 5548SOL     OW17542   5.444   3.447   5.827
 5548SOL    HW117543   5.434   3.545   5.809
 5548SOL    HW217544   5.473   3.401   5.743
 5549SOL     OW17545   4.499   3.490   6.718
 5549SOL    HW117546   4.483   3.544   6.635
 5549SOL    HW217547   4.440   3.410   6.717
 5550SOL     OW17548   2.391   4.385   1.953
 5550SOL    HW117549   2.328   4.429   1.889
 5550SOL    HW217550   2.455   4.327   1.902
 5551SOL     OW17551   2.310   0.065   3.263
 5551SOL    HW117552   2.347   0.010   3.188
 5551SOL    HW217553   2.214   0.085   3.246
 5552SOL     OW17554   0.007   0.666   6.818
 5552SOL    HW117555   0.012   0.673   6.918
 5552SOL    HW217556   0.043   0.750   6.777
 5553SOL     OW17557   4.810   6.632   6.986
 5553SOL    HW117558   4.871   6.637   6.907
 5553SOL    HW217559   4.728   6.686   6.968
 5554SOL     OW17560   4.292   1.970   5.705
 5554SOL    HW117561   4.290   1.971   5.605
 5554SOL    HW217562   4.332   1.884   5.736
 5555SOL     OW17563   1.980   4.509   4.113
 5555SOL    HW117564   1.901   4.568   4.123
 5555SOL    HW217565   1.951   4.413   4.111
 5556SOL     OW17566   6.654   1.760   3.713
 5556SOL    HW117567   6.586   1.751   3.785
 5556SOL    HW217568   6.627   1.704   3.634
 5557SOL     OW17569   3.917   6.507   2.743
 5557SOL    HW117570   3.902   6.589   2.798
 5557SOL    HW217571   3.837   6.489   2.686
 5558SOL     OW17572   4.344   3.277   6.020
 5558SOL    HW117573   4.273   3.333   5.977
 5558SOL    HW217574   4.420   3.266   5.956
 5559SOL     OW17575   2.923   0.773   2.225
 5559SOL    HW117576   2.913   0.856   2.171
 5559SOL    HW217577   2.840   0.759   2.279
 5560SOL     OW17578   1.474   6.915   3.581
 5560SOL    HW117579   1.402   6.921   3.650
 5560SOL    HW217580   1.560   6.947   3.620
 5561SOL     OW17581   1.938   2.549   4.107
 5561SOL    HW117582   1.936   2.465   4.052
 5561SOL    HW217583   1.911   2.528   4.201
 5562SOL     OW17584   2.995   1.888   6.828
 5562SOL    HW117585   2.935   1.830   6.773
 5562SOL    HW217586   2.963   1.889   6.923
 5563SOL     OW17587   4.186   5.478   2.659
 5563SOL    HW117588   4.167   5.562   2.710
 5563SOL    HW217589   4.277   5.444   2.686
 5564SOL     OW17590   4.741   0.877   2.059
 5564SOL    HW117591   4.678   0.801   2.072
 5564SOL    HW217592   4.698   0.962   2.089
 5565SOL     OW17593   4.639   1.799   6.663
 5565SOL    HW117594   4.636   1.703   6.691
 5565SOL    HW217595   4.713   1.846   6.711
 5566SOL     OW17596   1.858   5.683   0.206
 5566SOL    HW117597   1.897   5.627   0.132
 5566SOL    HW217598   1.797   5.752   0.166
 5567SOL     OW17599   0.076   4.184   1.569
 5567SOL    HW117600   0.065   4.253   1.497
 5567SOL    HW217601   0.087   4.094   1.527
 5568SOL     OW17602   4.184   2.338   3.227
 5568SOL    HW117603   4.178   2.347   3.128
 5568SOL    HW217604   4.108   2.283   3.261
 5569SOL     OW17605   2.200   1.653   2.600
 5569SOL    HW117606   2.159   1.692   2.518
 5569SOL    HW217607   2.259   1.721   2.644
 5570SOL     OW17608   5.702   4.723   5.136
 5570SOL    HW117609   5.691   4.690   5.229
 5570SOL    HW217610   5.702   4.645   5.073
 5571SOL     OW17611   0.462   5.962   0.818
 5571SOL    HW117612   0.397   5.887   0.805
 5571SOL    HW217613   0.414   6.042   0.856
 5572SOL     OW17614   1.699   2.285   4.781
 5572SOL    HW117615   1.719   2.200   4.830
 5572SOL    HW217616   1.603   2.285   4.752
 5573SOL     OW17617   1.740   3.587   6.627
 5573SOL    HW117618   1.818   3.646   6.611
 5573SOL    HW217619   1.746   3.506   6.569
 5574SOL     OW17620   6.077   2.001   3.811
 5574SOL    HW117621   6.080   1.911   3.855
 5574SOL    HW217622   6.169   2.037   3.802
 5575SOL     OW17623   0.049   1.404   1.292
 5575SOL    HW117624   0.149   1.407   1.286
 5575SOL    HW217625   0.021   1.315   1.328
 5576SOL     OW17626   1.190   6.542   2.131
 5576SOL    HW117627   1.172   6.450   2.096
 5576SOL    HW217628   1.164   6.609   2.062
 5577SOL     OW17629   2.938   2.602   5.645
 5577SOL    HW117630   2.925   2.688   5.693
 5577SOL    HW217631   2.947   2.619   5.547
 5578SOL     OW17632   3.894   4.433   0.645
 5578SOL    HW117633   3.875   4.367   0.572
 5578SOL    HW217634   3.883   4.387   0.734
 5579SOL     OW17635   0.239   3.558   6.351
 5579SOL    HW117636   0.228   3.577   6.449
 5579SOL    HW217637   0.150   3.536   6.312
 5580SOL     OW17638   4.331   2.775   5.594
 5580SOL    HW117639   4.426   2.798   5.576
 5580SOL    HW217640   4.283   2.855   5.628
 5581SOL     OW17641   2.690   6.551   1.709
 5581SOL    HW117642   2.615   6.595   1.659
 5581SOL    HW217643   2.735   6.619   1.767
 5582SOL     OW17644   3.732   3.579   3.620
 5582SOL    HW117645   3.698   3.496   3.577
 5582SOL    HW217646   3.829   3.590   3.599
 5583SOL     OW17647   4.524   0.152   2.913
 5583SOL    HW117648   4.590   0.076   2.913
 5583SOL    HW217649   4.434   0.117   2.938
 5584SOL     OW17650   5.802   4.062   3.987
 5584SOL    HW117651   5.871   4.098   3.924
 5584SOL    HW217652   5.832   3.973   4.023
 5585SOL     OW17653   4.304   6.667   4.232
 5585SOL    HW117654   4.333   6.572   4.222
 5585SOL    HW217655   4.284   6.687   4.327
 5586SOL     OW17656   0.505   2.413   6.761
 5586SOL    HW117657   0.485   2.326   6.716
 5586SOL    HW217658   0.477   2.489   6.701
 5587SOL     OW17659   4.396   6.050   2.717
 5587SOL    HW117660   4.444   6.099   2.790
 5587SOL    HW217661   4.368   6.114   2.646
 5588SOL     OW17662   1.479   0.016   2.789
 5588SOL    HW117663   1.383   0.013   2.758
 5588SOL    HW217664   1.495   6.965   2.853
 5589SOL     OW17665   5.867   2.255   6.565
 5589SOL    HW117666   5.813   2.172   6.578
 5589SOL    HW217667   5.931   2.241   6.489
 5590SOL     OW17668   6.460   6.210   3.165
 5590SOL    HW117669   6.474   6.155   3.247
 5590SOL    HW217670   6.387   6.276   3.181
 5591SOL     OW17671   6.098   1.225   6.403
 5591SOL    HW117672   6.084   1.167   6.324
 5591SOL    HW217673   6.023   1.212   6.468
 5592SOL     OW17674   1.021   4.279   2.781
 5592SOL    HW117675   0.977   4.286   2.691
 5592SOL    HW217676   1.109   4.231   2.771
 5593SOL     OW17677   6.681   2.392   6.045
 5593SOL    HW117678   6.596   2.385   6.098
 5593SOL    HW217679   6.757   2.412   6.106
 5594SOL     OW17680   2.630   1.035   6.840
 5594SOL    HW117681   2.667   1.092   6.766
 5594SOL    HW217682   2.537   1.064   6.861
 5595SOL     OW17683   6.280   0.627   5.059
 5595SOL    HW117684   6.339   0.699   5.097
 5595SOL    HW217685   6.292   0.623   4.960
 5596SOL     OW17686   5.008   0.579   2.738
 5596SOL    HW117687   4.977   0.651   2.676
 5596SOL    HW217688   4.931   0.548   2.793
 5597SOL     OW17689   6.014   1.664   5.675
 5597SOL    HW117690   6.110   1.639   5.658
 5597SOL    HW217691   5.954   1.589   5.647
 5598SOL     OW17692   5.583   2.376   4.179
 5598SOL    HW117693   5.587   2.468   4.139
 5598SOL    HW217694   5.675   2.349   4.208
 5599SOL     OW17695   6.636   3.077   2.200
 5599SOL    HW117696   6.706   3.058   2.131
 5599SOL    HW217697   6.634   3.004   2.268
 5600SOL     OW17698   1.967   0.491   2.291
 5600SOL    HW117699   1.949   0.578   2.245
 5600SOL    HW217700   1.881   0.454   2.326
 5601SOL     OW17701   3.663   1.198   6.389
 5601SOL    HW117702   3.671   1.276   6.326
 5601SOL    HW217703   3.588   1.214   6.453
 5602SOL     OW17704   0.649   0.138   2.753
 5602SOL    HW117705   0.598   0.224   2.745
 5602SOL    HW217706   0.660   0.097   2.662
 5603SOL     OW17707   5.428   2.234   5.845
 5603SOL    HW117708   5.351   2.170   5.836
 5603SOL    HW217709   5.492   2.221   5.770
 5604SOL     OW17710   0.173   2.031   5.356
 5604SOL    HW117711   0.098   2.087   5.321
 5604SOL    HW217712   0.236   2.089   5.409
 5605SOL     OW17713   1.901   0.047   4.325
 5605SOL    HW117714   1.977   7.021   4.283
 5605SOL    HW217715   1.849   7.011   4.385
 5606SOL     OW17716   5.310   0.820   0.346
 5606SOL    HW117717   5.338   0.900   0.400
 5606SOL    HW217718   5.277   0.748   0.408
 5607SOL     OW17719   5.298   1.965   3.882
 5607SOL    HW117720   5.199   1.955   3.887
 5607SOL    HW217721   5.325   2.051   3.924
 5608SOL     OW17722   5.912   1.581   2.860
 5608SOL    HW117723   5.911   1.619   2.952
 5608SOL    HW217724   5.889   1.653   2.794
 5609SOL     OW17725   4.837   5.667   0.942
 5609SOL    HW117726   4.762   5.602   0.937
 5609SOL    HW217727   4.818   5.735   1.013
 5610SOL     OW17728   5.569   4.389   1.548
 5610SOL    HW117729   5.611   4.305   1.582
 5610SOL    HW217730   5.538   4.375   1.454
 5611SOL     OW17731   0.739   4.804   2.012
 5611SOL    HW117732   0.763   4.791   2.108
 5611SOL    HW217733   0.707   4.718   1.973
 5612SOL     OW17734   3.859   3.330   0.358
 5612SOL    HW117735   3.791   3.276   0.407
 5612SOL    HW217736   3.892   3.278   0.279
 5613SOL     OW17737   5.878   5.003   5.201
 5613SOL    HW117738   5.969   5.021   5.164
 5613SOL    HW217739   5.842   4.919   5.161
 5614SOL     OW17740   5.614   3.735   5.111
 5614SOL    HW117741   5.602   3.639   5.087
 5614SOL    HW217742   5.654   3.784   5.033
 5615SOL     OW17743   6.641   1.419   3.663
 5615SOL    HW117744   6.551   1.416   3.706
 5615SOL    HW217745   6.711   1.426   3.733
 5616SOL     OW17746   2.214   3.124   4.838
 5616SOL    HW117747   2.225   3.222   4.822
 5616SOL    HW217748   2.240   3.103   4.933
 5617SOL     OW17749   1.482   3.905   5.358
 5617SOL    HW117750   1.448   3.891   5.451
 5617SOL    HW217751   1.575   3.941   5.362
 5618SOL     OW17752   6.757   4.593   3.375
 5618SOL    HW117753   6.830   4.527   3.361
 5618SOL    HW217754   6.679   4.569   3.318
 5619SOL     OW17755   3.200   3.895   3.215
 5619SOL    HW117756   3.101   3.892   3.197
 5619SOL    HW217757   3.222   3.835   3.292
 5620SOL     OW17758   4.573   3.902   6.549
 5620SOL    HW117759   4.487   3.852   6.549
 5620SOL    HW217760   4.567   3.980   6.611
 5621SOL     OW17761   1.291   3.370   6.001
 5621SOL    HW117762   1.325   3.444   5.942
 5621SOL    HW217763   1.308   3.393   6.096
 5622SOL     OW17764   4.867   6.430   5.640
 5622SOL    HW117765   4.936   6.419   5.712
 5622SOL    HW217766   4.891   6.373   5.562
 5623SOL     OW17767   4.724   6.247   5.123
 5623SOL    HW117768   4.787   6.173   5.100
 5623SOL    HW217769   4.735   6.322   5.057
 5624SOL     OW17770   0.677   4.927   4.003
 5624SOL    HW117771   0.717   4.892   3.918
 5624SOL    HW217772   0.721   4.884   4.081
 5625SOL     OW17773   0.192   5.461   5.302
 5625SOL    HW117774   0.178   5.374   5.255
 5625SOL    HW217775   0.105   5.496   5.336
 5626SOL     OW17776   2.568   5.466   3.932
 5626SOL    HW117777   2.589   5.401   4.006
 5626SOL    HW217778   2.522   5.546   3.970
 5627SOL     OW17779   0.027   4.729   6.016
 5627SOL    HW117780   0.017   4.819   5.974
 5627SOL    HW217781   0.116   4.723   6.061
 5628SOL     OW17782   2.466   2.345   1.017
 5628SOL    HW117783   2.419   2.270   0.970
 5628SOL    HW217784   2.469   2.326   1.115
 5629SOL     OW17785   5.125   3.002   2.169
 5629SOL    HW117786   5.114   3.055   2.085
 5629SOL    HW217787   5.040   3.005   2.222
 5630SOL     OW17788   1.753   4.042   6.582
 5630SOL    HW117789   1.828   4.108   6.583
 5630SOL    HW217790   1.719   4.028   6.676
 5631SOL     OW17791   5.383   1.038   1.135
 5631SOL    HW117792   5.425   1.126   1.117
 5631SOL    HW217793   5.452   0.974   1.171
 5632SOL     OW17794   3.987   1.901   5.257
 5632SOL    HW117795   3.932   1.844   5.196
 5632SOL    HW217796   3.935   1.982   5.284
 5633SOL     OW17797   6.174   4.208   4.553
 5633SOL    HW117798   6.257   4.170   4.595
 5633SOL    HW217799   6.149   4.152   4.474
 5634SOL     OW17800   2.362   4.860   4.115
 5634SOL    HW117801   2.332   4.797   4.187
 5634SOL    HW217802   2.369   4.810   4.029
 5635SOL     OW17803   1.971   6.053   6.329
 5635SOL    HW117804   2.045   5.985   6.321
 5635SOL    HW217805   2.010   6.142   6.352
 5636SOL     OW17806   5.865   6.920   5.341
 5636SOL    HW117807   5.797   6.988   5.370
 5636SOL    HW217808   5.887   6.935   5.245
 5637SOL     OW17809   3.155   6.778   3.543
 5637SOL    HW117810   3.079   6.779   3.608
 5637SOL    HW217811   3.214   6.700   3.562
 5638SOL     OW17812   6.398   4.442   0.774
 5638SOL    HW117813   6.476   4.379   0.766
 5638SOL    HW217814   6.389   4.495   0.690
 5639SOL     OW17815   2.431   0.438   1.944
 5639SOL    HW117816   2.455   0.520   1.892
 5639SOL    HW217817   2.340   0.407   1.917
 5640SOL     OW17818   2.949   0.901   2.796
 5640SOL    HW117819   3.043   0.878   2.822
 5640SOL    HW217820   2.949   0.985   2.742
 5641SOL     OW17821   0.512   4.605   5.721
 5641SOL    HW117822   0.569   4.678   5.684
 5641SOL    HW217823   0.451   4.642   5.791
 5642SOL     OW17824   1.037   5.206   5.135
 5642SOL    HW117825   1.047   5.207   5.036
 5642SOL    HW217826   0.954   5.155   5.159
 5643SOL     OW17827   3.693   1.036   4.204
 5643SOL    HW117828   3.683   0.948   4.251
 5643SOL    HW217829   3.785   1.071   4.219
 5644SOL     OW17830   3.496   0.419   4.079
 5644SOL    HW117831   3.462   0.496   4.025
 5644SOL    HW217832   3.435   0.402   4.157
 5645SOL     OW17833   6.045   4.631   2.835
 5645SOL    HW117834   5.987   4.670   2.907
 5645SOL    HW217835   6.141   4.650   2.855
 5646SOL     OW17836   0.916   5.962   3.101
 5646SOL    HW117837   0.940   6.053   3.135
 5646SOL    HW217838   0.883   5.905   3.177
 5647SOL     OW17839   5.764   6.531   0.570
 5647SOL    HW117840   5.795   6.576   0.486
 5647SOL    HW217841   5.687   6.581   0.608
 5648SOL     OW17842   1.655   1.516   3.522
 5648SOL    HW117843   1.667   1.558   3.612
 5648SOL    HW217844   1.744   1.485   3.488
 5649SOL     OW17845   6.711   6.870   5.324
 5649SOL    HW117846   6.675   6.791   5.372
 5649SOL    HW217847   6.636   6.932   5.301
 5650SOL     OW17848   0.951   5.508   1.144
 5650SOL    HW117849   1.048   5.532   1.154
 5650SOL    HW217850   0.934   5.421   1.189
 5651SOL     OW17851   0.456   1.057   1.499
 5651SOL    HW117852   0.459   0.964   1.461
 5651SOL    HW217853   0.367   1.073   1.541
 5652SOL     OW17854   5.985   0.011   1.815
 5652SOL    HW117855   5.920   6.989   1.875
 5652SOL    HW217856   5.945   0.023   1.724
 5653SOL     OW17857   0.674   5.956   6.439
 5653SOL    HW117858   0.747   6.010   6.398
 5653SOL    HW217859   0.610   5.928   6.367
 5654SOL     OW17860   6.498   6.621   5.505
 5654SOL    HW117861   6.420   6.604   5.565
 5654SOL    HW217862   6.583   6.608   5.556
 5655SOL     OW17863   1.965   3.847   5.286
 5655SOL    HW117864   2.063   3.828   5.278
 5655SOL    HW217865   1.945   3.935   5.243
 5656SOL     OW17866   0.582   3.127   0.647
 5656SOL    HW117867   0.647   3.178   0.590
 5656SOL    HW217868   0.609   3.031   0.652
 5657SOL     OW17869   5.764   0.814   0.311
 5657SOL    HW117870   5.686   0.756   0.337
 5657SOL    HW217871   5.770   0.891   0.374
 5658SOL     OW17872   3.655   5.246   5.744
 5658SOL    HW117873   3.571   5.283   5.704
 5658SOL    HW217874   3.638   5.155   5.781
 5659SOL     OW17875   3.999   3.634   3.586
 5659SOL    HW117876   4.037   3.668   3.500
 5659SOL    HW217877   4.010   3.705   3.657
 5660SOL     OW17878   5.678   0.193   5.644
 5660SOL    HW117879   5.772   0.159   5.640
 5660SOL    HW217880   5.614   0.116   5.641
 5661SOL     OW17881   1.339   4.330   4.805
 5661SOL    HW117882   1.290   4.404   4.852
 5661SOL    HW217883   1.279   4.288   4.737
 5662SOL     OW17884   3.206   5.316   3.550
 5662SOL    HW117885   3.283   5.307   3.613
 5662SOL    HW217886   3.194   5.413   3.526
 5663SOL     OW17887   2.203   2.973   6.725
 5663SOL    HW117888   2.206   2.880   6.762
 5663SOL    HW217889   2.296   3.006   6.709
 5664SOL     OW17890   6.525   4.074   4.386
 5664SOL    HW117891   6.584   4.000   4.353
 5664SOL    HW217892   6.578   4.158   4.394
 5665SOL     OW17893   1.608   2.552   0.027
 5665SOL    HW117894   1.560   2.512   6.974
 5665SOL    HW217895   1.668   2.484   0.068
 5666SOL     OW17896   5.968   5.727   1.318
 5666SOL    HW117897   5.918   5.814   1.315
 5666SOL    HW217898   6.061   5.741   1.286
 5667SOL     OW17899   1.143   4.682   3.745
 5667SOL    HW117900   1.186   4.738   3.674
 5667SOL    HW217901   1.207   4.611   3.774
 5668SOL     OW17902   5.103   2.312   5.328
 5668SOL    HW117903   5.056   2.244   5.384
 5668SOL    HW217904   5.036   2.363   5.274
 5669SOL     OW17905   0.646   2.934   0.124
 5669SOL    HW117906   0.619   2.998   0.052
 5669SOL    HW217907   0.568   2.878   0.150
 5670SOL     OW17908   6.400   2.514   3.800
 5670SOL    HW117909   6.391   2.614   3.794
 5670SOL    HW217910   6.401   2.476   3.708
 5671SOL     OW17911   0.623   5.668   0.007
 5671SOL    HW117912   0.667   5.757   0.020
 5671SOL    HW217913   0.591   5.661   6.937
 5672SOL     OW17914   4.168   5.091   6.435
 5672SOL    HW117915   4.256   5.110   6.478
 5672SOL    HW217916   4.102   5.062   6.504
 5673SOL     OW17917   0.884   6.746   1.808
 5673SOL    HW117918   0.796   6.791   1.797
 5673SOL    HW217919   0.874   6.648   1.792
 5674SOL     OW17920   0.179   4.757   4.621
 5674SOL    HW117921   0.208   4.804   4.538
 5674SOL    HW217922   0.081   4.767   4.633
 5675SOL     OW17923   4.489   2.146   5.536
 5675SOL    HW117924   4.428   2.199   5.595
 5675SOL    HW217925   4.457   2.151   5.441
 5676SOL     OW17926   2.219   2.821   2.574
 5676SOL    HW117927   2.135   2.768   2.581
 5676SOL    HW217928   2.297   2.759   2.568
 5677SOL     OW17929   0.307   1.248   2.561
 5677SOL    HW117930   0.296   1.347   2.573
 5677SOL    HW217931   0.404   1.226   2.553
 5678SOL     OW17932   3.526   6.320   2.843
 5678SOL    HW117933   3.625   6.311   2.835
 5678SOL    HW217934   3.502   6.342   2.937
 5679SOL     OW17935   0.937   1.024   4.109
 5679SOL    HW117936   0.923   0.926   4.124
 5679SOL    HW217937   0.930   1.044   4.011
 5680SOL     OW17938   1.354   5.337   0.019
 5680SOL    HW117939   1.326   5.320   6.949
 5680SOL    HW217940   1.274   5.337   0.079
 5681SOL     OW17941   0.474   4.343   0.060
 5681SOL    HW117942   0.390   4.362   0.009
 5681SOL    HW217943   0.552   4.344   7.022
 5682SOL     OW17944   2.284   4.404   6.126
 5682SOL    HW117945   2.349   4.481   6.130
 5682SOL    HW217946   2.261   4.375   6.218
 5683SOL     OW17947   4.089   0.615   0.077
 5683SOL    HW117948   4.086   0.635   7.004
 5683SOL    HW217949   4.123   0.523   0.092
 5684SOL     OW17950   3.150   2.979   4.753
 5684SOL    HW117951   3.191   3.012   4.838
 5684SOL    HW217952   3.078   2.913   4.774
 5685SOL     OW17953   1.734   3.213   2.626
 5685SOL    HW117954   1.820   3.164   2.610
 5685SOL    HW217955   1.662   3.147   2.648
 5686SOL     OW17956   2.452   0.268   6.275
 5686SOL    HW117957   2.440   0.169   6.264
 5686SOL    HW217958   2.363   0.312   6.281
 5687SOL     OW17959   0.464   4.484   6.123
 5687SOL    HW117960   0.497   4.517   6.211
 5687SOL    HW217961   0.538   4.436   6.075
 5688SOL     OW17962   0.431   2.380   0.172
 5688SOL    HW117963   0.343   2.397   0.217
 5688SOL    HW217964   0.492   2.331   0.234
 5689SOL     OW17965   4.700   0.883   0.863
 5689SOL    HW117966   4.618   0.852   0.911
 5689SOL    HW217967   4.776   0.823   0.886
 5690SOL     OW17968   2.806   6.072   1.168
 5690SOL    HW117969   2.851   6.147   1.120
 5690SOL    HW217970   2.804   5.991   1.109
 5691SOL     OW17971   2.791   6.770   1.866
 5691SOL    HW117972   2.885   6.792   1.892
 5691SOL    HW217973   2.729   6.800   1.938
 5692SOL     OW17974   6.567   2.949   0.131
 5692SOL    HW117975   6.593   2.914   0.041
 5692SOL    HW217976   6.619   2.901   0.201
 5693SOL     OW17977   5.618   2.267   2.628
 5693SOL    HW117978   5.651   2.361   2.623
 5693SOL    HW217979   5.531   2.260   2.580
 5694SOL     OW17980   0.999   2.228   3.938
 5694SOL    HW117981   0.945   2.144   3.943
 5694SOL    HW217982   1.093   2.208   3.968
 5695SOL     OW17983   0.999   2.516   2.919
 5695SOL    HW117984   1.049   2.499   2.835
 5695SOL    HW217985   0.934   2.590   2.904
 5696SOL     OW17986   1.494   0.956   2.966
 5696SOL    HW117987   1.510   0.892   2.891
 5696SOL    HW217988   1.475   0.904   3.050
 5697SOL     OW17989   6.002   2.092   1.480
 5697SOL    HW117990   6.061   2.017   1.510
 5697SOL    HW217991   5.908   2.059   1.470
 5698SOL     OW17992   0.330   3.506   3.096
 5698SOL    HW117993   0.267   3.573   3.137
 5698SOL    HW217994   0.408   3.492   3.157
 5699SOL     OW17995   6.625   2.554   2.928
 5699SOL    HW117996   6.599   2.532   2.834
 5699SOL    HW217997   6.706   2.501   2.953
 5700SOL     OW17998   6.697   6.315   4.358
 5700SOL    HW117999   6.775   6.281   4.306
 5700SOL    HW218000   6.729   6.366   4.437
 5701SOL     OW18001   1.499   0.490   3.037
 5701SOL    HW118002   1.526   0.528   2.948
 5701SOL    HW218003   1.428   0.421   3.023
 5702SOL     OW18004   2.366   6.214   5.356
 5702SOL    HW118005   2.383   6.200   5.453
 5702SOL    HW218006   2.453   6.209   5.306
 5703SOL     OW18007   6.104   4.635   1.631
 5703SOL    HW118008   6.170   4.578   1.583
 5703SOL    HW218009   6.122   4.631   1.730
 5704SOL     OW18010   4.115   4.969   2.459
 5704SOL    HW118011   4.175   4.923   2.525
 5704SOL    HW218012   4.021   4.941   2.474
 5705SOL     OW18013   4.823   0.818   1.413
 5705SOL    HW118014   4.911   0.865   1.421
 5705SOL    HW218015   4.798   0.778   1.501
 5706SOL     OW18016   6.616   3.176   0.588
 5706SOL    HW118017   6.714   3.192   0.582
 5706SOL    HW218018   6.572   3.208   0.504
 5707SOL     OW18019   6.908   6.851   0.415
 5707SOL    HW118020   6.905   6.751   0.419
 5707SOL    HW218021   6.981   6.880   0.352
 5708SOL     OW18022   4.910   6.053   1.249
 5708SOL    HW118023   5.006   6.042   1.223
 5708SOL    HW218024   4.882   6.147   1.232
 5709SOL     OW18025   1.517   0.561   2.768
 5709SOL    HW118026   1.566   0.480   2.736
 5709SOL    HW218027   1.427   0.565   2.724
 5710SOL     OW18028   2.437   3.099   6.726
 5710SOL    HW118029   2.518   3.057   6.685
 5710SOL    HW218030   2.446   3.199   6.722
 5711SOL     OW18031   4.912   1.485   2.932
 5711SOL    HW118032   4.815   1.475   2.952
 5711SOL    HW218033   4.935   1.433   2.850
 5712SOL     OW18034   1.002   6.009   5.905
 5712SOL    HW118035   0.945   5.992   5.985
 5712SOL    HW218036   1.025   5.921   5.862
 5713SOL     OW18037   2.605   2.929   1.648
 5713SOL    HW118038   2.677   2.997   1.633
 5713SOL    HW218039   2.646   2.840   1.663
 5714SOL     OW18040   0.791   5.593   6.702
 5714SOL    HW118041   0.694   5.586   6.727
 5714SOL    HW218042   0.812   5.688   6.677
 5715SOL     OW18043   0.771   6.624   3.408
 5715SOL    HW118044   0.681   6.586   3.386
 5715SOL    HW218045   0.843   6.563   3.374
 5716SOL     OW18046   1.367   4.069   6.990
 5716SOL    HW118047   1.454   4.115   7.005
 5716SOL    HW218048   1.361   4.038   6.895
 5717SOL     OW18049   1.713   6.017   1.178
 5717SOL    HW118050   1.636   6.077   1.159
 5717SOL    HW218051   1.798   6.068   1.166
 5718SOL     OW18052   1.162   2.835   5.594
 5718SOL    HW118053   1.079   2.883   5.625
 5718SOL    HW218054   1.234   2.902   5.576
 5719SOL     OW18055   3.202   1.570   6.279
 5719SOL    HW118056   3.201   1.483   6.231
 5719SOL    HW218057   3.181   1.555   6.375
 5720SOL     OW18058   1.506   5.351   3.870
 5720SOL    HW118059   1.601   5.322   3.865
 5720SOL    HW218060   1.448   5.282   3.825
 5721SOL     OW18061   0.117   4.024   1.353
 5721SOL    HW118062   0.195   3.968   1.379
 5721SOL    HW218063   0.036   3.967   1.343
 5722SOL     OW18064   6.429   1.445   5.520
 5722SOL    HW118065   6.515   1.444   5.571
 5722SOL    HW218066   6.354   1.420   5.580
 5723SOL     OW18067   4.470   3.713   6.889
 5723SOL    HW118068   4.526   3.649   6.837
 5723SOL    HW218069   4.436   3.668   6.972
 5724SOL     OW18070   4.705   2.560   5.040
 5724SOL    HW118071   4.627   2.564   5.102
 5724SOL    HW218072   4.677   2.586   4.948
 5725SOL     OW18073   5.514   5.531   3.621
 5725SOL    HW118074   5.587   5.467   3.643
 5725SOL    HW218075   5.538   5.622   3.654
 5726SOL     OW18076   0.006   4.725   5.077
 5726SOL    HW118077   0.055   4.776   5.006
 5726SOL    HW218078   6.973   4.655   5.034
 5727SOL     OW18079   0.066   2.242   3.921
 5727SOL    HW118080   0.070   2.148   3.957
 5727SOL    HW218081   0.159   2.275   3.904
 5728SOL     OW18082   4.186   1.149   6.496
 5728SOL    HW118083   4.260   1.163   6.430
 5728SOL    HW218084   4.102   1.126   6.447
 5729SOL     OW18085   0.891   1.504   0.343
 5729SOL    HW118086   0.902   1.449   0.426
 5729SOL    HW218087   0.808   1.475   0.295
 5730SOL     OW18088   4.665   5.014   6.169
 5730SOL    HW118089   4.582   5.059   6.133
 5730SOL    HW218090   4.690   5.056   6.256
 5731SOL     OW18091   1.129   6.405   4.141
 5731SOL    HW118092   1.221   6.391   4.176
 5731SOL    HW218093   1.110   6.338   4.068
 5732SOL     OW18094   6.685   4.801   4.955
 5732SOL    HW118095   6.678   4.760   5.046
 5732SOL    HW218096   6.666   4.732   4.885
 5733SOL     OW18097   3.379   0.333   5.130
 5733SOL    HW118098   3.301   0.288   5.174
 5733SOL    HW218099   3.381   0.307   5.033
 5734SOL     OW18100   1.091   6.260   5.962
 5734SOL    HW118101   1.043   6.178   5.929
 5734SOL    HW218102   1.188   6.251   5.943
 5735SOL     OW18103   3.996   2.103   1.880
 5735SOL    HW118104   3.912   2.070   1.836
 5735SOL    HW218105   3.980   2.117   1.977
 5736SOL     OW18106   5.823   3.896   0.500
 5736SOL    HW118107   5.753   3.883   0.430
 5736SOL    HW218108   5.894   3.958   0.467
 5737SOL     OW18109   4.669   5.560   0.375
 5737SOL    HW118110   4.647   5.546   0.278
 5737SOL    HW218111   4.655   5.656   0.398
 5738SOL     OW18112   2.973   2.661   6.220
 5738SOL    HW118113   2.982   2.708   6.308
 5738SOL    HW218114   2.881   2.674   6.184
 5739SOL     OW18115   0.922   0.175   5.616
 5739SOL    HW118116   0.950   0.151   5.709
 5739SOL    HW218117   0.835   0.131   5.595
 5740SOL     OW18118   4.205   3.591   0.720
 5740SOL    HW118119   4.114   3.551   0.712
 5740SOL    HW218120   4.263   3.532   0.776
 5741SOL     OW18121   6.390   4.068   4.651
 5741SOL    HW118122   6.388   3.998   4.723
 5741SOL    HW218123   6.431   4.029   4.568
 5742SOL     OW18124   4.893   6.633   3.088
 5742SOL    HW118125   4.969   6.653   3.149
 5742SOL    HW218126   4.928   6.592   3.004
 5743SOL     OW18127   2.710   5.667   5.082
 5743SOL    HW118128   2.611   5.684   5.078
 5743SOL    HW218129   2.751   5.690   4.994
 5744SOL     OW18130   4.941   1.383   1.615
 5744SOL    HW118131   5.026   1.332   1.597
 5744SOL    HW218132   4.959   1.481   1.609
 5745SOL     OW18133   1.823   1.554   4.179
 5745SOL    HW118134   1.910   1.511   4.157
 5745SOL    HW218135   1.839   1.650   4.204
 5746SOL     OW18136   5.246   6.975   0.985
 5746SOL    HW118137   5.329   6.963   1.040
 5746SOL    HW218138   5.166   6.961   1.043
 5747SOL     OW18139   0.689   4.410   2.329
 5747SOL    HW118140   0.782   4.377   2.347
 5747SOL    HW218141   0.625   4.360   2.387
 5748SOL     OW18142   1.775   6.467   0.570
 5748SOL    HW118143   1.728   6.535   0.513
 5748SOL    HW218144   1.851   6.427   0.519
 5749SOL     OW18145   1.396   5.962   4.301
 5749SOL    HW118146   1.456   5.961   4.221
 5749SOL    HW218147   1.309   6.005   4.278
 5750SOL     OW18148   6.556   6.200   4.623
 5750SOL    HW118149   6.628   6.131   4.612
 5750SOL    HW218150   6.473   6.169   4.576
 5751SOL     OW18151   2.412   2.696   4.639
 5751SOL    HW118152   2.474   2.618   4.646
 5751SOL    HW218153   2.394   2.733   4.731
 5752SOL     OW18154   6.454   0.573   0.297
 5752SOL    HW118155   6.534   0.522   0.265
 5752SOL    HW218156   6.444   0.561   0.396
 5753SOL     OW18157   3.642   3.208   4.331
 5753SOL    HW118158   3.693   3.126   4.303
 5753SOL    HW218159   3.697   3.260   4.396
 5754SOL     OW18160   6.669   4.890   1.613
 5754SOL    HW118161   6.606   4.895   1.536
 5754SOL    HW218162   6.763   4.892   1.580
 5755SOL     OW18163   2.408   3.011   5.901
 5755SOL    HW118164   2.499   2.979   5.929
 5755SOL    HW218165   2.404   3.017   5.801
 5756SOL     OW18166   6.407   0.359   3.050
 5756SOL    HW118167   6.381   0.272   3.008
 5756SOL    HW218168   6.461   0.341   3.133
 5757SOL     OW18169   6.945   6.797   3.369
 5757SOL    HW118170   6.884   6.789   3.449
 5757SOL    HW218171   6.943   6.891   3.335
 5758SOL     OW18172   2.490   0.666   4.612
 5758SOL    HW118173   2.448   0.731   4.548
 5758SOL    HW218174   2.575   0.704   4.648
 5759SOL     OW18175   4.816   1.910   6.871
 5759SOL    HW118176   4.876   1.986   6.893
 5759SOL    HW218177   4.848   1.828   6.919
 5760SOL     OW18178   6.811   4.027   0.706
 5760SOL    HW118179   6.835   4.124   0.699
 5760SOL    HW218180   6.748   4.003   0.632
 5761SOL     OW18181   5.881   5.568   6.512
 5761SOL    HW118182   5.935   5.649   6.490
 5761SOL    HW218183   5.924   5.487   6.470
 5762SOL     OW18184   4.407   4.587   0.365
 5762SOL    HW118185   4.413   4.552   0.272
 5762SOL    HW218186   4.340   4.533   0.416
 5763SOL     OW18187   0.109   0.074   0.287
 5763SOL    HW118188   0.204   0.081   0.256
 5763SOL    HW218189   0.062   0.005   0.233
 5764SOL     OW18190   5.223   4.956   5.525
 5764SOL    HW118191   5.249   5.038   5.575
 5764SOL    HW218192   5.162   4.981   5.450
 5765SOL     OW18193   5.706   2.796   0.204
 5765SOL    HW118194   5.790   2.781   0.255
 5765SOL    HW218195   5.659   2.877   0.239
 5766SOL     OW18196   2.574   2.147   6.876
 5766SOL    HW118197   2.668   2.181   6.863
 5766SOL    HW218198   2.512   2.225   6.889
 5767SOL     OW18199   2.242   1.839   0.050
 5767SOL    HW118200   2.191   1.885   0.122
 5767SOL    HW218201   2.208   1.746   0.038
 5768SOL     OW18202   1.181   6.201   3.584
 5768SOL    HW118203   1.220   6.268   3.647
 5768SOL    HW218204   1.170   6.241   3.494
 5769SOL     OW18205   2.268   5.752   4.562
 5769SOL    HW118206   2.269   5.652   4.567
 5769SOL    HW218207   2.254   5.781   4.467
 5770SOL     OW18208   6.286   6.250   0.258
 5770SOL    HW118209   6.342   6.315   0.207
 5770SOL    HW218210   6.218   6.299   0.312
 5771SOL     OW18211   1.689   0.092   3.540
 5771SOL    HW118212   1.786   0.085   3.517
 5771SOL    HW218213   1.678   0.083   3.639
 5772SOL     OW18214   6.111   2.138   1.226
 5772SOL    HW118215   6.118   2.043   1.196
 5772SOL    HW218216   6.065   2.142   1.315
 5773SOL     OW18217   4.850   0.700   3.414
 5773SOL    HW118218   4.917   0.765   3.379
 5773SOL    HW218219   4.759   0.725   3.380
 5774SOL     OW18220   2.722   5.920   3.415
 5774SOL    HW118221   2.652   5.987   3.438
 5774SOL    HW218222   2.768   5.889   3.498
 5775SOL     OW18223   1.439   1.001   2.016
 5775SOL    HW118224   1.480   0.916   1.982
 5775SOL    HW218225   1.377   1.038   1.946
 5776SOL     OW18226   6.807   0.475   4.978
 5776SOL    HW118227   6.825   0.568   4.948
 5776SOL    HW218228   6.713   0.450   4.956
 5777SOL     OW18229   6.190   0.251   5.594
 5777SOL    HW118230   6.175   0.346   5.567
 5777SOL    HW218231   6.137   0.231   5.676
 5778SOL     OW18232   1.634   0.946   1.476
 5778SOL    HW118233   1.660   0.855   1.445
 5778SOL    HW218234   1.642   0.951   1.575
 5779SOL     OW18235   5.002   2.400   0.496
 5779SOL    HW118236   5.093   2.383   0.533
 5779SOL    HW218237   4.938   2.417   0.571
 5780SOL     OW18238   6.062   5.508   3.594
 5780SOL    HW118239   6.072   5.409   3.589
 5780SOL    HW218240   6.138   5.546   3.646
 5781SOL     OW18241   0.281   4.345   4.092
 5781SOL    HW118242   0.258   4.398   4.174
 5781SOL    HW218243   0.288   4.248   4.116
 5782SOL     OW18244   0.826   1.445   0.703
 5782SOL    HW118245   0.912   1.415   0.661
 5782SOL    HW218246   0.835   1.440   0.803
 5783SOL     OW18247   1.991   0.719   1.631
 5783SOL    HW118248   2.033   0.805   1.602
 5783SOL    HW218249   2.063   0.655   1.659
 5784SOL     OW18250   0.105   6.103   0.602
 5784SOL    HW118251   0.092   6.033   0.532
 5784SOL    HW218252   0.061   6.074   0.687
 5785SOL     OW18253   1.833   2.388   0.519
 5785SOL    HW118254   1.846   2.365   0.423
 5785SOL    HW218255   1.742   2.428   0.532
 5786SOL     OW18256   0.508   4.463   1.146
 5786SOL    HW118257   0.489   4.526   1.221
 5786SOL    HW218258   0.551   4.514   1.071
 5787SOL     OW18259   4.158   1.695   5.395
 5787SOL    HW118260   4.101   1.672   5.474
 5787SOL    HW218261   4.106   1.756   5.334
 5788SOL     OW18262   3.487   1.818   1.408
 5788SOL    HW118263   3.450   1.851   1.495
 5788SOL    HW218264   3.465   1.721   1.398
 5789SOL     OW18265   2.898   4.531   0.567
 5789SOL    HW118266   2.825   4.596   0.590
 5789SOL    HW218267   2.867   4.474   0.490
 5790SOL     OW18268   0.364   4.566   4.644
 5790SOL    HW118269   0.410   4.570   4.555
 5790SOL    HW218270   0.288   4.632   4.645
 5791SOL     OW18271   3.334   1.812   2.514
 5791SOL    HW118272   3.387   1.823   2.598
 5791SOL    HW218273   3.241   1.846   2.528
 5792SOL     OW18274   5.741   2.690   2.040
 5792SOL    HW118275   5.644   2.708   2.022
 5792SOL    HW218276   5.763   2.597   2.011
 5793SOL     OW18277   5.300   0.679   4.021
 5793SOL    HW118278   5.324   0.616   4.095
 5793SOL    HW218279   5.362   0.665   3.944
 5794SOL     OW18280   2.269   1.039   6.867
 5794SOL    HW118281   2.189   1.045   6.807
 5794SOL    HW218282   2.332   1.114   6.848
 5795SOL     OW18283   6.970   6.600   0.076
 5795SOL    HW118284   6.970   6.609   7.001
 5795SOL    HW218285   7.008   6.512   0.102
 5796SOL     OW18286   4.846   0.539   5.946
 5796SOL    HW118287   4.853   0.591   6.031
 5796SOL    HW218288   4.937   0.514   5.914
 5797SOL     OW18289   4.341   2.402   0.161
 5797SOL    HW118290   4.251   2.402   0.117
 5797SOL    HW218291   4.350   2.321   0.218
 5798SOL     OW18292   6.535   4.960   4.252
 5798SOL    HW118293   6.545   5.020   4.331
 5798SOL    HW218294   6.440   4.961   4.220
 5799SOL     OW18295   0.145   0.777   4.199
 5799SOL    HW118296   0.105   0.737   4.117
 5799SOL    HW218297   0.203   0.710   4.244
 5800SOL     OW18298   6.308   0.050   1.657
 5800SOL    HW118299   6.242   0.080   1.588
 5800SOL    HW218300   6.272   0.069   1.749
 5801SOL     OW18301   1.839   2.876   3.175
 5801SOL    HW118302   1.749   2.870   3.217
 5801SOL    HW218303   1.857   2.794   3.121
 5802SOL     OW18304   6.785   3.312   2.270
 5802SOL    HW118305   6.785   3.220   2.231
 5802SOL    HW218306   6.860   3.320   2.335
 5803SOL     OW18307   2.158   5.682   2.425
 5803SOL    HW118308   2.130   5.605   2.482
 5803SOL    HW218309   2.087   5.700   2.357
 5804SOL     OW18310   0.294   5.010   2.866
 5804SOL    HW118311   0.296   4.964   2.955
 5804SOL    HW218312   0.315   5.107   2.878
 5805SOL     OW18313   2.048   3.125   0.653
 5805SOL    HW118314   2.017   3.165   0.739
 5805SOL    HW218315   2.005   3.036   0.640
 5806SOL     OW18316   6.316   5.582   4.610
 5806SOL    HW118317   6.240   5.598   4.546
 5806SOL    HW218318   6.280   5.580   4.704
 5807SOL     OW18319   0.637   4.557   0.902
 5807SOL    HW118320   0.734   4.566   0.878
 5807SOL    HW218321   0.587   4.519   0.825
 5808SOL     OW18322   6.342   5.357   4.119
 5808SOL    HW118323   6.304   5.312   4.038
 5808SOL    HW218324   6.382   5.289   4.179
 5809SOL     OW18325   6.664   1.776   4.928
 5809SOL    HW118326   6.703   1.812   5.013
 5809SOL    HW218327   6.707   1.689   4.905
 5810SOL     OW18328   5.031   1.478   5.350
 5810SOL    HW118329   5.073   1.433   5.271
 5810SOL    HW218330   4.935   1.498   5.329
 5811SOL     OW18331   3.617   0.751   4.682
 5811SOL    HW118332   3.706   0.706   4.680
 5811SOL    HW218333   3.585   0.758   4.776
 5812SOL     OW18334   6.029   3.683   4.952
 5812SOL    HW118335   6.007   3.651   4.859
 5812SOL    HW218336   6.004   3.780   4.960
 5813SOL     OW18337   1.835   1.555   1.316
 5813SOL    HW118338   1.911   1.507   1.361
 5813SOL    HW218339   1.859   1.651   1.303
 5814SOL     OW18340   6.208   3.522   2.060
 5814SOL    HW118341   6.238   3.538   1.966
 5814SOL    HW218342   6.282   3.479   2.112
 5815SOL     OW18343   3.984   1.626   3.814
 5815SOL    HW118344   4.047   1.689   3.768
 5815SOL    HW218345   3.963   1.550   3.753
 5816SOL     OW18346   5.037   4.590   0.875
 5816SOL    HW118347   4.971   4.663   0.889
 5816SOL    HW218348   5.044   4.534   0.958
 5817SOL     OW18349   5.902   4.288   5.499
 5817SOL    HW118350   5.877   4.192   5.504
 5817SOL    HW218351   5.891   4.331   5.589
 5818SOL     OW18352   6.331   4.996   5.289
 5818SOL    HW118353   6.358   5.087   5.256
 5818SOL    HW218354   6.334   4.931   5.213
 5819SOL     OW18355   3.812   0.543   6.872
 5819SOL    HW118356   3.720   0.563   6.905
 5819SOL    HW218357   3.853   0.473   6.930
 5820SOL     OW18358   4.514   4.527   3.719
 5820SOL    HW118359   4.553   4.515   3.628
 5820SOL    HW218360   4.567   4.473   3.785
 5821SOL     OW18361   0.284   1.139   1.740
 5821SOL    HW118362   0.240   1.095   1.819
 5821SOL    HW218363   0.383   1.125   1.745
 5822SOL     OW18364   1.478   2.770   1.413
 5822SOL    HW118365   1.465   2.856   1.462
 5822SOL    HW218366   1.486   2.789   1.315
 5823SOL     OW18367   2.825   0.270   4.482
 5823SOL    HW118368   2.842   0.225   4.395
 5823SOL    HW218369   2.911   0.282   4.531
 5824SOL     OW18370   6.992   5.601   2.535
 5824SOL    HW118371   0.021   5.680   2.505
 5824SOL    HW218372   6.979   5.539   2.458
 5825SOL     OW18373   0.112   6.635   4.523
 5825SOL    HW118374   0.167   6.711   4.487
 5825SOL    HW218375   0.036   6.616   4.461
 5826SOL     OW18376   0.257   5.075   6.110
 5826SOL    HW118377   0.180   5.024   6.074
 5826SOL    HW218378   0.276   5.154   6.051
 5827SOL     OW18379   1.782   3.897   5.480
 5827SOL    HW118380   1.736   3.813   5.511
 5827SOL    HW218381   1.844   3.876   5.405
 5828SOL     OW18382   6.005   1.786   2.037
 5828SOL    HW118383   5.974   1.880   2.053
 5828SOL    HW218384   6.104   1.781   2.053
 5829SOL     OW18385   1.637   0.308   4.053
 5829SOL    HW118386   1.686   0.349   4.130
 5829SOL    HW218387   1.638   0.371   3.975
 5830SOL     OW18388   5.792   6.424   5.744
 5830SOL    HW118389   5.836   6.392   5.829
 5830SOL    HW218390   5.693   6.416   5.754
 5831SOL     OW18391   1.123   0.978   5.861
 5831SOL    HW118392   1.059   1.020   5.925
 5831SOL    HW218393   1.097   0.882   5.846
 5832SOL     OW18394   3.403   5.271   0.081
 5832SOL    HW118395   3.401   5.258   0.181
 5832SOL    HW218396   3.471   5.340   0.058
 5833SOL     OW18397   3.638   4.248   4.946
 5833SOL    HW118398   3.577   4.198   4.884
 5833SOL    HW218399   3.722   4.272   4.897
 5834SOL     OW18400   0.157   2.765   0.108
 5834SOL    HW118401   0.058   2.754   0.124
 5834SOL    HW218402   0.177   2.751   0.011
 5835SOL     OW18403   5.344   2.952   3.279
 5835SOL    HW118404   5.273   2.959   3.349
 5835SOL    HW218405   5.394   3.038   3.274
 5836SOL     OW18406   2.829   0.381   1.870
 5836SOL    HW118407   2.804   0.470   1.831
 5836SOL    HW218408   2.920   0.355   1.837
 5837SOL     OW18409   3.204   4.122   0.061
 5837SOL    HW118410   3.238   4.079   0.145
 5837SOL    HW218411   3.251   4.084   7.007
 5838SOL     OW18412   3.012   2.101   0.948
 5838SOL    HW118413   3.007   2.146   0.859
 5838SOL    HW218414   3.105   2.108   0.984
 5839SOL     OW18415   1.133   1.995   1.848
 5839SOL    HW118416   1.139   1.947   1.935
 5839SOL    HW218417   1.224   2.000   1.806
 5840SOL     OW18418   1.387   4.818   6.462
 5840SOL    HW118419   1.330   4.774   6.393
 5840SOL    HW218420   1.449   4.883   6.418
 5841SOL     OW18421   4.932   1.272   2.520
 5841SOL    HW118422   4.838   1.303   2.506
 5841SOL    HW218423   4.972   1.320   2.599
 5842SOL     OW18424   4.804   2.868   1.436
 5842SOL    HW118425   4.779   2.772   1.447
 5842SOL    HW218426   4.742   2.911   1.370
 5843SOL     OW18427   1.585   4.146   2.259
 5843SOL    HW118428   1.624   4.060   2.294
 5843SOL    HW218429   1.512   4.125   2.194
 5844SOL     OW18430   1.668   5.825   5.648
 5844SOL    HW118431   1.673   5.752   5.717
 5844SOL    HW218432   1.761   5.846   5.615
 5845SOL     OW18433   0.658   0.470   2.268
 5845SOL    HW118434   0.691   0.462   2.362
 5845SOL    HW218435   0.597   0.549   2.262
 5846SOL     OW18436   6.040   3.488   6.300
 5846SOL    HW118437   5.962   3.441   6.259
 5846SOL    HW218438   6.019   3.510   6.395
 5847SOL     OW18439   2.844   2.273   2.291
 5847SOL    HW118440   2.877   2.296   2.199
 5847SOL    HW218441   2.814   2.178   2.292
 5848SOL     OW18442   1.620   5.767   3.296
 5848SOL    HW118443   1.697   5.822   3.329
 5848SOL    HW218444   1.575   5.722   3.373
 5849SOL     OW18445   1.341   0.242   5.713
 5849SOL    HW118446   1.402   0.169   5.683
 5849SOL    HW218447   1.344   0.318   5.648
 5850SOL     OW18448   6.620   3.078   1.829
 5850SOL    HW118449   6.701   3.068   1.888
 5850SOL    HW218450   6.620   3.169   1.788
 5851SOL     OW18451   5.131   3.149   2.585
 5851SOL    HW118452   5.041   3.191   2.581
 5851SOL    HW218453   5.160   3.141   2.680
 5852SOL     OW18454   6.023   6.688   3.180
 5852SOL    HW118455   5.961   6.687   3.258
 5852SOL    HW218456   6.027   6.597   3.140
 5853SOL     OW18457   3.500   5.470   5.544
 5853SOL    HW118458   3.422   5.448   5.603
 5853SOL    HW218459   3.491   5.420   5.458
 5854SOL     OW18460   4.511   4.379   6.503
 5854SOL    HW118461   4.479   4.451   6.441
 5854SOL    HW218462   4.533   4.420   6.592
 5855SOL     OW18463   1.438   1.123   5.202
 5855SOL    HW118464   1.402   1.082   5.118
 5855SOL    HW218465   1.485   1.054   5.256
 5856SOL     OW18466   2.293   6.047   3.559
 5856SOL    HW118467   2.324   5.952   3.563
 5856SOL    HW218468   2.338   6.093   3.483
 5857SOL     OW18469   6.380   2.133   5.966
 5857SOL    HW118470   6.453   2.090   6.019
 5857SOL    HW218471   6.401   2.128   5.869
 5858SOL     OW18472   2.333   2.288   2.741
 5858SOL    HW118473   2.328   2.215   2.809
 5858SOL    HW218474   2.307   2.374   2.783
 5859SOL     OW18475   6.367   5.989   1.664
 5859SOL    HW118476   6.347   5.892   1.677
 5859SOL    HW218477   6.298   6.029   1.604
 5860SOL     OW18478   0.413   3.740   2.800
 5860SOL    HW118479   0.388   3.834   2.775
 5860SOL    HW218480   0.348   3.677   2.758
 5861SOL     OW18481   4.759   2.008   4.538
 5861SOL    HW118482   4.742   1.909   4.534
 5861SOL    HW218483   4.857   2.024   4.549
 5862SOL     OW18484   6.067   5.569   0.878
 5862SOL    HW118485   6.063   5.561   0.977
 5862SOL    HW218486   6.026   5.655   0.849
 5863SOL     OW18487   2.993   2.114   5.185
 5863SOL    HW118488   3.032   2.180   5.121
 5863SOL    HW218489   3.027   2.134   5.277
 5864SOL     OW18490   3.858   3.959   2.434
 5864SOL    HW118491   3.898   4.049   2.415
 5864SOL    HW218492   3.835   3.953   2.531
 5865SOL     OW18493   6.097   6.920   5.515
 5865SOL    HW118494   6.179   6.882   5.472
 5865SOL    HW218495   6.019   6.909   5.453
 5866SOL     OW18496   3.314   4.216   0.428
 5866SOL    HW118497   3.337   4.234   0.524
 5866SOL    HW218498   3.331   4.120   0.407
 5867SOL     OW18499   2.438   3.404   1.252
 5867SOL    HW118500   2.376   3.407   1.174
 5867SOL    HW218501   2.400   3.458   1.328
 5868SOL     OW18502   1.521   1.458   5.483
 5868SOL    HW118503   1.599   1.396   5.476
 5868SOL    HW218504   1.554   1.550   5.505
 5869SOL     OW18505   2.068   6.565   3.075
 5869SOL    HW118506   1.983   6.542   3.028
 5869SOL    HW218507   2.062   6.658   3.112
 5870SOL     OW18508   4.289   6.478   4.955
 5870SOL    HW118509   4.316   6.538   5.030
 5870SOL    HW218510   4.189   6.477   4.948
 5871SOL     OW18511   3.474   3.269   1.372
 5871SOL    HW118512   3.413   3.190   1.374
 5871SOL    HW218513   3.486   3.299   1.277
 5872SOL     OW18514   4.475   6.315   1.219
 5872SOL    HW118515   4.389   6.337   1.172
 5872SOL    HW218516   4.539   6.392   1.209
 5873SOL     OW18517   3.707   1.244   2.133
 5873SOL    HW118518   3.779   1.180   2.160
 5873SOL    HW218519   3.668   1.287   2.215
 5874SOL     OW18520   2.974   4.787   6.492
 5874SOL    HW118521   2.912   4.773   6.414
 5874SOL    HW218522   2.930   4.754   6.576
 5875SOL     OW18523   4.230   1.439   0.204
 5875SOL    HW118524   4.147   1.391   0.233
 5875SOL    HW218525   4.288   1.455   0.284
 5876SOL     OW18526   4.049   3.202   0.530
 5876SOL    HW118527   4.073   3.105   0.541
 5876SOL    HW218528   3.953   3.209   0.503
 5877SOL     OW18529   0.577   6.975   1.540
 5877SOL    HW118530   0.493   6.979   1.486
 5877SOL    HW218531   0.656   6.993   1.481
 5878SOL     OW18532   6.252   5.190   3.890
 5878SOL    HW118533   6.176   5.212   3.829
 5878SOL    HW218534   6.222   5.124   3.959
 5879SOL     OW18535   1.373   3.986   6.714
 5879SOL    HW118536   1.459   3.935   6.718
 5879SOL    HW218537   1.366   4.031   6.625
 5880SOL     OW18538   4.708   4.741   5.841
 5880SOL    HW118539   4.730   4.838   5.855
 5880SOL    HW218540   4.793   4.689   5.830
 5881SOL     OW18541   0.848   0.051   2.341
 5881SOL    HW118542   0.900   0.003   2.412
 5881SOL    HW218543   0.868   0.149   2.347
 5882SOL     OW18544   6.663   5.351   0.680
 5882SOL    HW118545   6.689   5.306   0.595
 5882SOL    HW218546   6.684   5.448   0.675
 5883SOL     OW18547   0.907   1.203   6.367
 5883SOL    HW118548   0.989   1.259   6.369
 5883SOL    HW218549   0.930   1.109   6.390
 5884SOL     OW18550   4.209   1.041   4.438
 5884SOL    HW118551   4.139   1.086   4.383
 5884SOL    HW218552   4.177   0.949   4.463
 5885SOL     OW18553   0.561   6.700   2.669
 5885SOL    HW118554   0.514   6.732   2.587
 5885SOL    HW218555   0.528   6.608   2.693
 5886SOL     OW18556   0.197   2.618   4.667
 5886SOL    HW118557   0.236   2.528   4.646
 5886SOL    HW218558   0.115   2.633   4.611
 5887SOL     OW18559   2.669   1.943   2.015
 5887SOL    HW118560   2.689   2.028   1.967
 5887SOL    HW218561   2.656   1.869   1.948
 5888SOL     OW18562   3.064   0.472   1.397
 5888SOL    HW118563   3.072   0.514   1.488
 5888SOL    HW218564   3.144   0.496   1.342
 5889SOL     OW18565   0.781   0.462   0.641
 5889SOL    HW118566   0.693   0.430   0.676
 5889SOL    HW218567   0.773   0.556   0.609
 5890SOL     OW18568   2.315   1.331   3.228
 5890SOL    HW118569   2.389   1.381   3.272
 5890SOL    HW218570   2.300   1.245   3.276
 5891SOL     OW18571   3.207   3.037   6.837
 5891SOL    HW118572   3.112   3.066   6.822
 5891SOL    HW218573   3.211   2.973   6.914
 5892SOL     OW18574   0.753   5.605   2.048
 5892SOL    HW118575   0.679   5.639   2.106
 5892SOL    HW218576   0.841   5.624   2.092
 5893SOL     OW18577   2.594   4.591   4.012
 5893SOL    HW118578   2.518   4.655   4.017
 5893SOL    HW218579   2.673   4.636   3.970
 5894SOL     OW18580   6.663   5.549   4.141
 5894SOL    HW118581   6.700   5.627   4.090
 5894SOL    HW218582   6.566   5.538   4.119
 5895SOL     OW18583   5.473   3.712   4.152
 5895SOL    HW118584   5.420   3.628   4.136
 5895SOL    HW218585   5.568   3.688   4.167
 5896SOL     OW18586   3.499   0.794   0.455
 5896SOL    HW118587   3.434   0.793   0.530
 5896SOL    HW218588   3.455   0.759   0.372
 5897SOL     OW18589   4.501   6.813   1.085
 5897SOL    HW118590   4.468   6.857   1.169
 5897SOL    HW218591   4.601   6.825   1.078
 5898SOL     OW18592   2.525   6.845   3.687
 5898SOL    HW118593   2.589   6.914   3.722
 5898SOL    HW218594   2.574   6.760   3.669
 5899SOL     OW18595   6.269   5.541   0.170
 5899SOL    HW118596   6.251   5.606   0.244
 5899SOL    HW218597   6.324   5.585   0.099
 5900SOL     OW18598   6.501   5.191   3.778
 5900SOL    HW118599   6.405   5.201   3.806
 5900SOL    HW218600   6.543   5.116   3.828
 5901SOL     OW18601   2.442   1.667   7.006
 5901SOL    HW118602   2.410   1.719   0.061
 5901SOL    HW218603   2.509   1.721   6.955
 5902SOL     OW18604   6.058   1.879   5.062
 5902SOL    HW118605   6.112   1.950   5.106
 5902SOL    HW218606   5.975   1.918   5.023
 5903SOL     OW18607   4.727   4.278   7.005
 5903SOL    HW118608   4.662   4.205   7.025
 5903SOL    HW218609   4.806   4.269   0.041
 5904SOL     OW18610   0.835   4.455   1.644
 5904SOL    HW118611   0.741   4.490   1.638
 5904SOL    HW218612   0.845   4.401   1.727
 5905SOL     OW18613   6.465   6.957   3.632
 5905SOL    HW118614   6.532   6.991   3.566
 5905SOL    HW218615   6.449   6.859   3.617
 5906SOL     OW18616   3.962   2.038   4.030
 5906SOL    HW118617   3.968   2.007   3.935
 5906SOL    HW218618   4.053   2.068   4.061
 5907SOL     OW18619   1.429   4.707   0.668
 5907SOL    HW118620   1.503   4.640   0.659
 5907SOL    HW218621   1.431   4.771   0.592
 5908SOL     OW18622   0.097   3.119   6.915
 5908SOL    HW118623   0.177   3.084   6.963
 5908SOL    HW218624   0.086   3.217   6.932
 5909SOL     OW18625   6.945   5.096   0.827
 5909SOL    HW118626   6.924   5.189   0.798
 5909SOL    HW218627   6.915   5.031   0.757
 5910SOL     OW18628   0.668   4.322   3.342
 5910SOL    HW118629   0.750   4.379   3.340
 5910SOL    HW218630   0.649   4.295   3.436
 5911SOL     OW18631   6.963   5.464   6.318
 5911SOL    HW118632   0.010   5.436   6.254
 5911SOL    HW218633   6.904   5.387   6.339
 5912SOL     OW18634   5.748   2.000   6.554
 5912SOL    HW118635   5.813   1.928   6.534
 5912SOL    HW218636   5.694   1.975   6.634
 5913SOL     OW18637   5.036   2.926   6.326
 5913SOL    HW118638   5.074   2.952   6.237
 5913SOL    HW218639   5.057   2.997   6.393
 5914SOL     OW18640   1.304   5.646   5.779
 5914SOL    HW118641   1.363   5.595   5.841
 5914SOL    HW218642   1.352   5.663   5.693
 5915SOL     OW18643   4.273   5.481   1.182
 5915SOL    HW118644   4.321   5.562   1.217
 5915SOL    HW218645   4.186   5.509   1.141
 5916SOL     OW18646   5.152   6.915   3.864
 5916SOL    HW118647   5.167   6.893   3.961
 5916SOL    HW218648   5.091   6.847   3.824
 5917SOL     OW18649   3.006   3.383   4.056
 5917SOL    HW118650   3.079   3.430   4.005
 5917SOL    HW218651   2.977   3.302   4.006
 5918SOL     OW18652   1.813   3.644   6.124
 5918SOL    HW118653   1.750   3.578   6.085
 5918SOL    HW218654   1.877   3.597   6.186
 5919SOL     OW18655   3.558   3.449   2.615
 5919SOL    HW118656   3.613   3.516   2.664
 5919SOL    HW218657   3.597   3.433   2.524
 5920SOL     OW18658   4.423   0.452   6.737
 5920SOL    HW118659   4.481   0.532   6.748
 5920SOL    HW218660   4.369   0.438   6.820
 5921SOL     OW18661   4.049   5.078   6.688
 5921SOL    HW118662   4.012   5.161   6.730
 5921SOL    HW218663   4.100   5.027   6.757
 5922SOL     OW18664   5.324   5.132   3.026
 5922SOL    HW118665   5.375   5.126   3.112
 5922SOL    HW218666   5.388   5.123   2.950
 5923SOL     OW18667   6.311   1.403   1.322
 5923SOL    HW118668   6.241   1.335   1.302
 5923SOL    HW218669   6.362   1.424   1.238
 5924SOL     OW18670   6.510   0.603   2.931
 5924SOL    HW118671   6.477   0.695   2.954
 5924SOL    HW218672   6.452   0.535   2.974
 5925SOL     OW18673   3.846   6.926   2.120
 5925SOL    HW118674   3.796   6.913   2.206
 5925SOL    HW218675   3.930   6.873   2.122
 5926SOL     OW18676   3.726   5.731   1.464
 5926SOL    HW118677   3.644   5.676   1.483
 5926SOL    HW218678   3.746   5.789   1.544
 5927SOL     OW18679   1.320   4.228   2.517
 5927SOL    HW118680   1.322   4.168   2.437
 5927SOL    HW218681   1.256   4.192   2.584
 5928SOL     OW18682   3.885   0.412   0.939
 5928SOL    HW118683   3.805   0.356   0.958
 5928SOL    HW218684   3.966   0.353   0.931
 5929SOL     OW18685   0.282   0.059   6.933
 5929SOL    HW118686   0.292   6.984   6.927
 5929SOL    HW218687   0.326   0.102   6.855
 5930SOL     OW18688   6.550   3.467   3.497
 5930SOL    HW118689   6.589   3.401   3.433
 5930SOL    HW218690   6.523   3.550   3.448
 5931SOL     OW18691   6.935   5.241   2.768
 5931SOL    HW118692   6.959   5.146   2.748
 5931SOL    HW218693   7.007   5.302   2.734
 5932SOL     OW18694   2.995   0.417   0.558
 5932SOL    HW118695   3.068   0.372   0.507
 5932SOL    HW218696   2.943   0.349   0.610
 5933SOL     OW18697   6.617   6.353   3.008
 5933SOL    HW118698   6.554   6.312   3.073
 5933SOL    HW218699   6.630   6.450   3.030
 5934SOL     OW18700   3.805   2.937   4.534
 5934SOL    HW118701   3.804   2.937   4.634
 5934SOL    HW218702   3.879   2.997   4.501
 5935SOL     OW18703   5.161   5.144   6.734
 5935SOL    HW118704   5.116   5.073   6.680
 5935SOL    HW218705   5.201   5.102   6.816
 5936SOL     OW18706   3.917   2.774   1.127
 5936SOL    HW118707   3.887   2.855   1.077
 5936SOL    HW218708   3.879   2.776   1.219
 5937SOL     OW18709   0.093   4.451   2.327
 5937SOL    HW118710   0.080   4.404   2.415
 5937SOL    HW218711   0.136   4.388   2.263
 5938SOL     OW18712   6.950   5.754   2.885
 5938SOL    HW118713   6.948   5.704   2.798
 5938SOL    HW218714   0.020   5.767   2.914
 5939SOL     OW18715   3.223   6.924   2.874
 5939SOL    HW118716   3.215   6.875   2.787
 5939SOL    HW218717   3.140   6.976   2.892
 5940SOL     OW18718   5.148   5.687   1.296
 5940SOL    HW118719   5.134   5.744   1.378
 5940SOL    HW218720   5.072   5.623   1.286
 5941SOL     OW18721   5.969   2.711   2.183
 5941SOL    HW118722   5.874   2.716   2.150
 5941SOL    HW218723   6.029   2.757   2.118
 5942SOL     OW18724   4.915   3.586   6.912
 5942SOL    HW118725   4.886   3.674   6.951
 5942SOL    HW218726   4.834   3.534   6.884
 5943SOL     OW18727   3.213   4.889   6.500
 5943SOL    HW118728   3.125   4.845   6.517
 5943SOL    HW218729   3.217   4.975   6.550
 5944SOL     OW18730   6.300   3.005   1.491
 5944SOL    HW118731   6.363   3.034   1.419
 5944SOL    HW218732   6.236   2.937   1.455
 5945SOL     OW18733   6.264   5.296   4.600
 5945SOL    HW118734   6.167   5.307   4.578
 5945SOL    HW218735   6.308   5.386   4.601
 5946SOL     OW18736   3.762   3.511   6.177
 5946SOL    HW118737   3.685   3.447   6.173
 5946SOL    HW218738   3.838   3.467   6.224
 5947SOL     OW18739   3.492   3.690   2.250
 5947SOL    HW118740   3.533   3.599   2.247
 5947SOL    HW218741   3.395   3.682   2.275
 5948SOL     OW18742   4.567   5.169   3.788
 5948SOL    HW118743   4.552   5.249   3.729
 5948SOL    HW218744   4.501   5.098   3.765
 5949SOL     OW18745   5.025   4.060   1.749
 5949SOL    HW118746   4.936   4.015   1.744
 5949SOL    HW218747   5.036   4.102   1.838
 5950SOL     OW18748   4.969   1.427   5.632
 5950SOL    HW118749   4.982   1.449   5.536
 5950SOL    HW218750   4.875   1.448   5.659
 5951SOL     OW18751   1.467   5.981   4.048
 5951SOL    HW118752   1.409   5.901   4.032
 5951SOL    HW218753   1.417   6.064   4.025
 5952SOL     OW18754   5.463   4.904   3.393
 5952SOL    HW118755   5.506   4.960   3.321
 5952SOL    HW218756   5.515   4.913   3.478
 5953SOL     OW18757   6.326   2.651   5.575
 5953SOL    HW118758   6.359   2.656   5.669
 5953SOL    HW218759   6.238   2.603   5.572
 5954SOL     OW18760   6.994   4.148   5.881
 5954SOL    HW118761   0.051   4.090   5.879
 5954SOL    HW218762   6.954   4.148   5.972
 5955SOL     OW18763   4.664   6.036   2.547
 5955SOL    HW118764   4.574   6.000   2.569
 5955SOL    HW218765   4.731   5.961   2.547
 5956SOL     OW18766   4.270   1.444   4.959
 5956SOL    HW118767   4.344   1.380   4.936
 5956SOL    HW218768   4.277   1.470   5.055
 5957SOL     OW18769   4.329   0.491   5.241
 5957SOL    HW118770   4.317   0.577   5.292
 5957SOL    HW218771   4.351   0.512   5.146
 5958SOL     OW18772   5.964   6.795   2.596
 5958SOL    HW118773   5.982   6.706   2.640
 5958SOL    HW218774   5.886   6.838   2.640
 5959SOL     OW18775   4.026   2.772   5.308
 5959SOL    HW118776   3.998   2.760   5.403
 5959SOL    HW218777   4.064   2.686   5.274
 5960SOL     OW18778   3.628   5.223   4.850
 5960SOL    HW118779   3.562   5.150   4.867
 5960SOL    HW218780   3.625   5.249   4.753
 5961SOL     OW18781   5.062   1.429   2.692
 5961SOL    HW118782   5.152   1.391   2.711
 5961SOL    HW218783   5.068   1.493   2.615
 5962SOL     OW18784   5.922   6.127   0.300
 5962SOL    HW118785   5.962   6.070   0.371
 5962SOL    HW218786   5.891   6.070   0.225
 5963SOL     OW18787   3.855   3.956   5.246
 5963SOL    HW118788   3.905   3.887   5.194
 5963SOL    HW218789   3.916   4.001   5.311
 5964SOL     OW18790   0.421   5.500   5.474
 5964SOL    HW118791   0.348   5.489   5.408
 5964SOL    HW218792   0.420   5.594   5.509
 5965SOL     OW18793   1.614   2.442   6.625
 5965SOL    HW118794   1.600   2.365   6.688
 5965SOL    HW218795   1.627   2.408   6.533
 5966SOL     OW18796   2.540   5.968   5.419
 5966SOL    HW118797   2.601   5.889   5.416
 5966SOL    HW218798   2.589   6.050   5.390
 5967SOL     OW18799   4.187   6.574   6.541
 5967SOL    HW118800   4.214   6.608   6.631
 5967SOL    HW218801   4.188   6.650   6.475
 5968SOL     OW18802   5.213   1.772   1.171
 5968SOL    HW118803   5.202   1.752   1.269
 5968SOL    HW218804   5.123   1.786   1.130
 5969SOL     OW18805   6.898   6.748   6.340
 5969SOL    HW118806   6.799   6.749   6.354
 5969SOL    HW218807   6.926   6.834   6.297
 5970SOL     OW18808   0.249   4.235   2.802
 5970SOL    HW118809   0.150   4.236   2.785
 5970SOL    HW218810   0.290   4.162   2.749
 5971SOL     OW18811   0.647   1.205   2.407
 5971SOL    HW118812   0.691   1.246   2.327
 5971SOL    HW218813   0.618   1.112   2.385
 5972SOL     OW18814   5.863   5.101   6.068
 5972SOL    HW118815   5.797   5.071   5.999
 5972SOL    HW218816   5.913   5.180   6.035
 5973SOL     OW18817   1.540   3.799   2.940
 5973SOL    HW118818   1.528   3.832   2.846
 5973SOL    HW218819   1.636   3.772   2.953
 5974SOL     OW18820   5.347   5.159   6.324
 5974SOL    HW118821   5.305   5.083   6.374
 5974SOL    HW218822   5.440   5.135   6.298
 5975SOL     OW18823   4.391   0.587   0.346
 5975SOL    HW118824   4.453   0.665   0.345
 5975SOL    HW218825   4.440   0.506   0.378
 5976SOL     OW18826   3.585   2.539   5.758
 5976SOL    HW118827   3.646   2.575   5.829
 5976SOL    HW218828   3.612   2.444   5.737
 5977SOL     OW18829   1.711   5.548   6.766
 5977SOL    HW118830   1.713   5.647   6.754
 5977SOL    HW218831   1.707   5.504   6.677
 5978SOL     OW18832   4.561   5.666   2.108
 5978SOL    HW118833   4.544   5.586   2.051
 5978SOL    HW218834   4.548   5.642   2.204
 5979SOL     OW18835   5.855   1.147   2.930
 5979SOL    HW118836   5.826   1.242   2.939
 5979SOL    HW218837   5.781   1.094   2.889
 5980SOL     OW18838   4.119   3.977   1.151
 5980SOL    HW118839   4.208   3.951   1.189
 5980SOL    HW218840   4.130   4.057   1.092
 5981SOL     OW18841   5.364   2.351   1.336
 5981SOL    HW118842   5.290   2.284   1.336
 5981SOL    HW218843   5.375   2.387   1.429
 5982SOL     OW18844   6.333   3.328   2.369
 5982SOL    HW118845   6.380   3.283   2.446
 5982SOL    HW218846   6.391   3.400   2.332
 5983SOL     OW18847   1.131   1.698   4.163
 5983SOL    HW118848   1.162   1.622   4.222
 5983SOL    HW218849   1.210   1.751   4.134
 5984SOL     OW18850   6.840   5.944   3.533
 5984SOL    HW118851   6.871   5.862   3.581
 5984SOL    HW218852   6.779   5.918   3.458
 5985SOL     OW18853   0.099   2.866   4.415
 5985SOL    HW118854   0.049   2.784   4.445
 5985SOL    HW218855   0.049   2.948   4.444
 5986SOL     OW18856   2.949   3.649   4.217
 5986SOL    HW118857   2.917   3.612   4.304
 5986SOL    HW218858   2.940   3.579   4.146
 5987SOL     OW18859   5.452   0.233   3.714
 5987SOL    HW118860   5.393   0.214   3.635
 5987SOL    HW218861   5.474   0.147   3.760
 5988SOL     OW18862   4.701   6.822   5.525
 5988SOL    HW118863   4.680   6.753   5.594
 5988SOL    HW218864   4.797   6.814   5.497
 5989SOL     OW18865   2.073   6.347   6.374
 5989SOL    HW118866   1.981   6.369   6.344
 5989SOL    HW218867   2.093   6.394   6.460
 5990SOL     OW18868   3.707   4.198   0.073
 5990SOL    HW118869   3.712   4.191   6.998
 5990SOL    HW218870   3.626   4.250   0.099
 5991SOL     OW18871   2.884   5.611   0.144
 5991SOL    HW118872   2.794   5.604   0.189
 5991SOL    HW218873   2.954   5.629   0.214
 5992SOL     OW18874   3.462   0.516   2.689
 5992SOL    HW118875   3.391   0.445   2.691
 5992SOL    HW218876   3.418   0.605   2.677
 5993SOL     OW18877   3.277   5.762   6.480
 5993SOL    HW118878   3.310   5.855   6.497
 5993SOL    HW218879   3.182   5.765   6.448
 5994SOL     OW18880   5.701   2.971   2.510
 5994SOL    HW118881   5.651   3.056   2.527
 5994SOL    HW218882   5.660   2.923   2.432
 5995SOL     OW18883   4.853   3.650   2.401
 5995SOL    HW118884   4.756   3.672   2.414
 5995SOL    HW218885   4.869   3.622   2.307
 5996SOL     OW18886   1.367   6.486   0.704
 5996SOL    HW118887   1.344   6.389   0.715
 5996SOL    HW218888   1.420   6.498   0.621
 5997SOL     OW18889   0.175   5.785   2.488
 5997SOL    HW118890   0.192   5.875   2.529
 5997SOL    HW218891   0.181   5.793   2.388
 5998SOL     OW18892   6.046   1.008   3.329
 5998SOL    HW118893   6.106   0.939   3.369
 5998SOL    HW218894   6.002   1.060   3.402
 5999SOL     OW18895   1.378   1.341   2.586
 5999SOL    HW118896   1.420   1.396   2.658
 5999SOL    HW218897   1.362   1.249   2.621
 6000SOL     OW18898   3.994   6.837   0.539
 6000SOL    HW118899   4.046   6.865   0.620
 6000SOL    HW218900   3.984   6.738   0.539
 6001SOL     OW18901   0.756   4.176   0.290
 6001SOL    HW118902   0.724   4.168   0.196
 6001SOL    HW218903   0.682   4.153   0.353
 6002SOL     OW18904   5.732   0.181   0.453
 6002SOL    HW118905   5.698   0.204   0.362
 6002SOL    HW218906   5.673   0.111   0.494
 6003SOL     OW18907   5.868   2.595   5.069
 6003SOL    HW118908   5.945   2.555   5.118
 6003SOL    HW218909   5.849   2.540   4.987
 6004SOL     OW18910   6.998   3.981   2.626
 6004SOL    HW118911   6.914   3.932   2.604
 6004SOL    HW218912   0.013   4.019   2.542
 6005SOL     OW18913   4.732   5.873   4.389
 6005SOL    HW118914   4.667   5.797   4.383
 6005SOL    HW218915   4.705   5.944   4.324
 6006SOL     OW18916   2.630   0.880   5.542
 6006SOL    HW118917   2.674   0.818   5.477
 6006SOL    HW218918   2.690   0.958   5.560
 6007SOL     OW18919   4.527   3.858   5.804
 6007SOL    HW118920   4.493   3.783   5.747
 6007SOL    HW218921   4.450   3.906   5.845
 6008SOL     OW18922   2.532   4.328   5.513
 6008SOL    HW118923   2.601   4.400   5.518
 6008SOL    HW218924   2.448   4.358   5.558
 6009SOL     OW18925   2.710   0.481   3.192
 6009SOL    HW118926   2.733   0.568   3.147
 6009SOL    HW218927   2.611   0.478   3.209
 6010SOL     OW18928   1.322   4.295   4.171
 6010SOL    HW118929   1.381   4.290   4.251
 6010SOL    HW218930   1.262   4.374   4.179
 6011SOL     OW18931   4.831   2.659   2.864
 6011SOL    HW118932   4.825   2.617   2.954
 6011SOL    HW218933   4.868   2.751   2.873
 6012SOL     OW18934   5.320   1.017   6.937
 6012SOL    HW118935   5.225   1.040   6.917
 6012SOL    HW218936   5.339   1.034   0.009
 6013SOL     OW18937   4.892   2.008   2.476
 6013SOL    HW118938   4.897   2.105   2.499
 6013SOL    HW218939   4.799   1.984   2.452
 6014SOL     OW18940   3.971   3.151   1.977
 6014SOL    HW118941   4.062   3.193   1.978
 6014SOL    HW218942   3.928   3.168   1.888
 6015SOL     OW18943   5.927   3.824   4.030
 6015SOL    HW118944   5.928   3.744   3.970
 6015SOL    HW218945   5.953   3.798   4.122
 6016SOL     OW18946   6.593   1.997   6.038
 6016SOL    HW118947   6.675   2.028   5.991
 6016SOL    HW218948   6.553   1.920   5.988
 6017SOL     OW18949   6.739   4.171   3.357
 6017SOL    HW118950   6.732   4.162   3.456
 6017SOL    HW218951   6.674   4.241   3.326
 6018SOL     OW18952   3.815   0.410   6.595
 6018SOL    HW118953   3.804   0.437   6.691
 6018SOL    HW218954   3.729   0.424   6.546
 6019SOL     OW18955   0.021   1.370   4.423
 6019SOL    HW118956   0.072   1.441   4.473
 6019SOL    HW218957   6.948   1.383   4.438
 6020SOL     OW18958   0.855   4.843   0.674
 6020SOL    HW118959   0.947   4.870   0.646
 6020SOL    HW218960   0.838   4.876   0.767
 6021SOL     OW18961   4.783   0.476   2.856
 6021SOL    HW118962   4.756   0.461   2.952
 6021SOL    HW218963   4.701   0.473   2.798
 6022SOL     OW18964   5.020   2.522   4.235
 6022SOL    HW118965   4.960   2.465   4.292
 6022SOL    HW218966   5.070   2.463   4.172
 6023SOL     OW18967   5.933   0.491   2.096
 6023SOL    HW118968   5.960   0.584   2.072
 6023SOL    HW218969   5.994   0.456   2.168
 6024SOL     OW18970   1.289   4.479   3.145
 6024SOL    HW118971   1.314   4.456   3.051
 6024SOL    HW218972   1.360   4.536   3.186
 6025SOL     OW18973   3.690   1.737   2.854
 6025SOL    HW118974   3.644   1.720   2.941
 6025SOL    HW218975   3.761   1.668   2.839
 6026SOL     OW18976   0.328   4.428   5.519
 6026SOL    HW118977   0.290   4.395   5.433
 6026SOL    HW218978   0.427   4.411   5.520
 6027SOL     OW18979   0.997   3.596   6.204
 6027SOL    HW118980   1.035   3.677   6.248
 6027SOL    HW218981   0.949   3.622   6.120
 6028SOL     OW18982   6.885   5.098   6.910
 6028SOL    HW118983   6.974   5.072   6.873
 6028SOL    HW218984   6.897   5.140   7.000
 6029SOL     OW18985   2.267   6.201   4.819
 6029SOL    HW118986   2.283   6.143   4.899
 6029SOL    HW218987   2.347   6.257   4.801
 6030SOL     OW18988   4.079   5.941   2.619
 6030SOL    HW118989   4.076   5.885   2.702
 6030SOL    HW218990   4.039   5.890   2.543
 6031SOL     OW18991   2.881   5.396   3.500
 6031SOL    HW118992   2.827   5.393   3.416
 6031SOL    HW218993   2.938   5.478   3.500
 6032SOL     OW18994   2.181   4.494   2.963
 6032SOL    HW118995   2.251   4.446   3.017
 6032SOL    HW218996   2.193   4.471   2.866
 6033SOL     OW18997   3.030   2.195   3.431
 6033SOL    HW118998   3.000   2.190   3.335
 6033SOL    HW218999   2.986   2.273   3.475
 6034SOL     OW19000   1.413   5.490   4.613
 6034SOL    HW119001   1.389   5.585   4.594
 6034SOL    HW219002   1.513   5.480   4.612
 6035SOL     OW19003   0.247   1.117   2.805
 6035SOL    HW119004   0.260   1.167   2.720
 6035SOL    HW219005   0.220   1.181   2.877
 6036SOL     OW19006   5.054   5.686   3.455
 6036SOL    HW119007   4.976   5.623   3.460
 6036SOL    HW219008   5.129   5.650   3.511
 6037SOL     OW19009   4.410   5.370   0.020
 6037SOL    HW119010   4.338   5.303   0.002
 6037SOL    HW219011   4.389   5.455   6.997
 6038SOL     OW19012   1.425   2.201   5.613
 6038SOL    HW119013   1.405   2.133   5.542
 6038SOL    HW219014   1.463   2.155   5.693
 6039SOL     OW19015   2.947   3.480   2.437
 6039SOL    HW119016   2.994   3.551   2.488
 6039SOL    HW219017   2.918   3.407   2.499
 6040SOL     OW19018   0.873   1.617   6.952
 6040SOL    HW119019   0.775   1.601   6.954
 6040SOL    HW219020   0.921   1.532   6.976
 6041SOL     OW19021   2.940   0.541   4.998
 6041SOL    HW119022   2.902   0.475   5.063
 6041SOL    HW219023   3.021   0.503   4.955
 6042SOL     OW19024   4.896   6.162   2.345
 6042SOL    HW119025   4.923   6.066   2.335
 6042SOL    HW219026   4.797   6.169   2.340
 6043SOL     OW19027   1.090   4.619   5.347
 6043SOL    HW119028   1.126   4.706   5.379
 6043SOL    HW219029   1.166   4.559   5.323
 6044SOL     OW19030   1.144   2.268   1.310
 6044SOL    HW119031   1.058   2.217   1.311
 6044SOL    HW219032   1.149   2.327   1.390
 6045SOL     OW19033   5.731   4.676   2.110
 6045SOL    HW119034   5.686   4.628   2.186
 6045SOL    HW219035   5.665   4.694   2.038
 6046SOL     OW19036   3.887   2.018   0.274
 6046SOL    HW119037   3.829   1.948   0.316
 6046SOL    HW219038   3.924   1.982   0.188
 6047SOL     OW19039   4.930   2.036   2.067
 6047SOL    HW119040   4.952   2.114   2.125
 6047SOL    HW219041   4.969   1.953   2.108
 6048SOL     OW19042   4.547   5.377   5.154
 6048SOL    HW119043   4.571   5.459   5.205
 6048SOL    HW219044   4.614   5.305   5.173
 6049SOL     OW19045   4.891   3.029   6.812
 6049SOL    HW119046   4.958   2.960   6.785
 6049SOL    HW219047   4.801   3.002   6.778
 6050SOL     OW19048   3.557   5.823   5.191
 6050SOL    HW119049   3.545   5.922   5.183
 6050SOL    HW219050   3.519   5.791   5.277
 6051SOL     OW19051   2.597   0.280   4.153
 6051SOL    HW119052   2.637   0.294   4.063
 6051SOL    HW219053   2.592   0.367   4.202
 6052SOL     OW19054   6.636   0.433   0.499
 6052SOL    HW119055   6.725   0.454   0.459
 6052SOL    HW219056   6.634   0.336   0.527
 6053SOL     OW19057   3.721   1.617   6.657
 6053SOL    HW119058   3.689   1.687   6.721
 6053SOL    HW219059   3.820   1.627   6.645
 6054SOL     OW19060   2.139   3.665   0.255
 6054SOL    HW119061   2.227   3.618   0.254
 6054SOL    HW219062   2.066   3.597   0.269
 6055SOL     OW19063   4.376   0.247   5.139
 6055SOL    HW119064   4.362   0.343   5.165
 6055SOL    HW219065   4.465   0.238   5.094
 6056SOL     OW19066   4.928   3.107   4.689
 6056SOL    HW119067   4.937   3.206   4.683
 6056SOL    HW219068   5.008   3.063   4.648
 6057SOL     OW19069   5.592   3.395   4.133
 6057SOL    HW119070   5.498   3.421   4.111
 6057SOL    HW219071   5.593   3.325   4.204
 6058SOL     OW19072   5.209   2.635   1.706
 6058SOL    HW119073   5.117   2.602   1.731
 6058SOL    HW219074   5.225   2.723   1.750
 6059SOL     OW19075   5.097   4.646   4.785
 6059SOL    HW119076   5.167   4.635   4.715
 6059SOL    HW219077   5.008   4.658   4.741
 6060SOL     OW19078   3.188   4.576   0.007
 6060SOL    HW119079   3.189   4.503   0.074
 6060SOL    HW219080   3.094   4.595   7.003
 6061SOL     OW19081   4.172   2.126   1.008
 6061SOL    HW119082   4.186   2.056   0.938
 6061SOL    HW219083   4.079   2.119   1.043
 6062SOL     OW19084   2.662   1.197   5.331
 6062SOL    HW119085   2.624   1.183   5.423
 6062SOL    HW219086   2.613   1.140   5.265
 6063SOL     OW19087   3.781   1.807   5.994
 6063SOL    HW119088   3.714   1.876   6.023
 6063SOL    HW219089   3.739   1.717   5.997
 6064SOL     OW19090   2.041   5.857   0.834
 6064SOL    HW119091   1.952   5.835   0.792
 6064SOL    HW219092   2.093   5.915   0.772
 6065SOL     OW19093   6.591   0.068   1.637
 6065SOL    HW119094   6.638   0.060   1.725
 6065SOL    HW219095   6.493   0.053   1.650
 6066SOL     OW19096   4.754   1.066   5.935
 6066SOL    HW119097   4.842   1.021   5.915
 6066SOL    HW219098   4.680   1.012   5.896
 6067SOL     OW19099   5.568   0.864   5.501
 6067SOL    HW119100   5.644   0.806   5.531
 6067SOL    HW219101   5.604   0.940   5.447
 6068SOL     OW19102   5.307   3.646   4.470
 6068SOL    HW119103   5.407   3.638   4.466
 6068SOL    HW219104   5.279   3.664   4.564
 6069SOL     OW19105   6.746   2.739   5.423
 6069SOL    HW119106   6.720   2.830   5.392
 6069SOL    HW219107   6.837   2.716   5.388
 6070SOL     OW19108   2.900   2.937   0.395
 6070SOL    HW119109   2.815   2.889   0.374
 6070SOL    HW219110   2.929   2.990   0.315
 6071SOL     OW19111   5.420   5.404   4.230
 6071SOL    HW119112   5.364   5.391   4.149
 6071SOL    HW219113   5.365   5.445   4.303
 6072SOL     OW19114   0.228   0.398   1.897
 6072SOL    HW119115   0.300   0.338   1.861
 6072SOL    HW219116   0.169   0.428   1.823
 6073SOL     OW19117   5.514   3.794   0.072
 6073SOL    HW119118   5.424   3.830   0.047
 6073SOL    HW219119   5.525   3.702   0.033
 6074SOL     OW19120   1.511   6.744   4.144
 6074SOL    HW119121   1.557   6.825   4.179
 6074SOL    HW219122   1.534   6.732   4.047
 6075SOL     OW19123   6.596   1.651   6.663
 6075SOL    HW119124   6.575   1.748   6.671
 6075SOL    HW219125   6.661   1.625   6.733
 6076SOL     OW19126   2.556   5.428   4.583
 6076SOL    HW119127   2.556   5.524   4.612
 6076SOL    HW219128   2.484   5.414   4.514
 6077SOL     OW19129   5.803   6.216   1.085
 6077SOL    HW119130   5.831   6.179   0.997
 6077SOL    HW219131   5.775   6.311   1.074
 6078SOL     OW19132   4.189   4.741   0.521
 6078SOL    HW119133   4.137   4.745   0.436
 6078SOL    HW219134   4.272   4.796   0.512
 6079SOL     OW19135   3.906   3.744   6.022
 6079SOL    HW119136   4.006   3.742   6.019
 6079SOL    HW219137   3.875   3.708   6.110
 6080SOL     OW19138   6.982   0.747   1.077
 6080SOL    HW119139   6.978   0.827   1.016
 6080SOL    HW219140   0.011   0.675   1.033
 6081SOL     OW19141   6.793   3.447   6.181
 6081SOL    HW119142   6.854   3.474   6.256
 6081SOL    HW219143   6.816   3.500   6.099
 6082SOL     OW19144   2.098   1.730   4.127
 6082SOL    HW119145   2.059   1.675   4.053
 6082SOL    HW219146   2.101   1.826   4.099
 6083SOL     OW19147   0.129   5.000   6.872
 6083SOL    HW119148   0.179   5.019   6.957
 6083SOL    HW219149   0.193   5.001   6.795
 6084SOL     OW19150   0.852   0.036   4.097
 6084SOL    HW119151   0.909   0.107   4.138
 6084SOL    HW219152   0.879   6.971   4.135
 6085SOL     OW19153   0.691   4.405   0.436
 6085SOL    HW119154   0.693   4.457   0.522
 6085SOL    HW219155   0.736   4.317   0.450
 6086SOL     OW19156   3.929   0.456   6.287
 6086SOL    HW119157   4.009   0.491   6.238
 6086SOL    HW219158   3.859   0.527   6.291
 6087SOL     OW19159   3.676   5.240   0.904
 6087SOL    HW119160   3.741   5.244   0.980
 6087SOL    HW219161   3.719   5.196   0.826
 6088SOL     OW19162   5.857   5.712   3.840
 6088SOL    HW119163   5.931   5.662   3.795
 6088SOL    HW219164   5.794   5.647   3.882
 6089SOL     OW19165   5.484   3.355   0.625
 6089SOL    HW119166   5.402   3.356   0.568
 6089SOL    HW219167   5.464   3.309   0.712
 6090SOL     OW19168   2.320   5.933   5.941
 6090SOL    HW119169   2.381   5.890   6.008
 6090SOL    HW219170   2.340   6.031   5.936
 6091SOL     OW19171   1.950   1.296   0.760
 6091SOL    HW119172   1.968   1.280   0.663
 6091SOL    HW219173   1.917   1.390   0.773
 6092SOL     OW19174   4.034   6.916   2.914
 6092SOL    HW119175   3.996   6.906   3.007
 6092SOL    HW219176   3.964   6.952   2.853
 6093SOL     OW19177   1.759   3.766   2.553
 6093SOL    HW119178   1.845   3.762   2.502
 6093SOL    HW219179   1.684   3.735   2.495
 6094SOL     OW19180   3.100   6.972   1.444
 6094SOL    HW119181   3.075   7.023   1.361
 6094SOL    HW219182   3.022   6.916   1.473
 6095SOL     OW19183   4.613   3.711   0.450
 6095SOL    HW119184   4.579   3.708   0.545
 6095SOL    HW219185   4.539   3.689   0.388
 6096SOL     OW19186   0.128   0.157   3.073
 6096SOL    HW119187   0.125   0.058   3.085
 6096SOL    HW219188   0.215   0.192   3.107
 6097SOL     OW19189   2.656   7.018   2.616
 6097SOL    HW119190   2.569   7.016   2.666
 6097SOL    HW219191   2.651   6.953   2.539
 6098SOL     OW19192   1.661   2.732   5.380
 6098SOL    HW119193   1.676   2.795   5.456
 6098SOL    HW219194   1.743   2.675   5.368
 6099SOL     OW19195   6.510   6.403   0.142
 6099SOL    HW119196   6.566   6.427   0.220
 6099SOL    HW219197   6.524   6.469   0.068
 6100SOL     OW19198   4.687   4.571   0.144
 6100SOL    HW119199   4.700   4.661   0.103
 6100SOL    HW219200   4.591   4.544   0.137
 6101SOL     OW19201   6.161   2.459   4.886
 6101SOL    HW119202   6.166   2.361   4.907
 6101SOL    HW219203   6.215   2.510   4.953
 6102SOL     OW19204   3.469   6.708   3.319
 6102SOL    HW119205   3.473   6.754   3.408
 6102SOL    HW219206   3.458   6.609   3.333
 6103SOL     OW19207   6.689   2.452   2.358
 6103SOL    HW119208   6.706   2.383   2.428
 6103SOL    HW219209   6.591   2.473   2.356
 6104SOL     OW19210   6.184   0.503   5.416
 6104SOL    HW119211   6.187   0.461   5.325
 6104SOL    HW219212   6.140   0.592   5.410
 6105SOL     OW19213   3.017   6.835   5.685
 6105SOL    HW119214   2.961   6.761   5.720
 6105SOL    HW219215   2.993   6.853   5.589
 6106SOL     OW19216   2.755   4.341   6.081
 6106SOL    HW119217   2.762   4.332   5.982
 6106SOL    HW219218   2.841   4.377   6.117
 6107SOL     OW19219   2.674   5.021   4.809
 6107SOL    HW119220   2.593   4.963   4.819
 6107SOL    HW219221   2.744   4.993   4.875
 6108SOL     OW19222   1.179   2.501   1.834
 6108SOL    HW119223   1.095   2.554   1.842
 6108SOL    HW219224   1.243   2.528   1.905
 6109SOL     OW19225   5.436   2.680   5.289
 6109SOL    HW119226   5.357   2.711   5.343
 6109SOL    HW219227   5.428   2.715   5.196
 6110SOL     OW19228   4.254   4.034   0.473
 6110SOL    HW119229   4.247   3.958   0.538
 6110SOL    HW219230   4.163   4.057   0.438
 6111SOL     OW19231   2.301   4.329   2.364
 6111SOL    HW119232   2.333   4.235   2.348
 6111SOL    HW219233   2.206   4.328   2.393
 6112SOL     OW19234   3.707   0.521   2.540
 6112SOL    HW119235   3.737   0.613   2.516
 6112SOL    HW219236   3.615   0.525   2.581
 6113SOL     OW19237   2.135   1.144   6.385
 6113SOL    HW119238   2.183   1.165   6.299
 6113SOL    HW219239   2.157   1.050   6.413
 6114SOL     OW19240   5.098   5.828   1.535
 6114SOL    HW119241   5.001   5.851   1.529
 6114SOL    HW219242   5.152   5.912   1.544
 6115SOL     OW19243   5.411   0.002   3.882
 6115SOL    HW119244   5.316   6.999   3.871
 6115SOL    HW219245   5.460   6.957   3.934
 6116SOL     OW19246   3.355   0.739   6.881
 6116SOL    HW119247   3.307   0.655   6.907
 6116SOL    HW219248   3.290   0.815   6.879
 6117SOL     OW19249   1.360   1.372   5.259
 6117SOL    HW119250   1.418   1.424   5.322
 6117SOL    HW219251   1.392   1.277   5.254
 6118SOL     OW19252   6.652   1.097   2.295
 6118SOL    HW119253   6.623   1.011   2.252
 6118SOL    HW219254   6.575   1.136   2.344
 6119SOL     OW19255   1.674   3.410   6.103
 6119SOL    HW119256   1.717   3.367   6.024
 6119SOL    HW219257   1.648   3.340   6.170
 6120SOL     OW19258   3.748   6.762   4.632
 6120SOL    HW119259   3.718   6.747   4.727
 6120SOL    HW219260   3.676   6.733   4.569
 6121SOL     OW19261   1.455   3.378   5.724
 6121SOL    HW119262   1.554   3.371   5.713
 6121SOL    HW219263   1.432   3.466   5.766
 6122SOL     OW19264   4.330   6.167   0.498
 6122SOL    HW119265   4.415   6.193   0.544
 6122SOL    HW219266   4.350   6.140   0.404
 6123SOL     OW19267   6.397   0.005   6.457
 6123SOL    HW119268   6.410   6.963   6.384
 6123SOL    HW219269   6.397   0.098   6.419
 6124SOL     OW19270   2.163   0.386   5.980
 6124SOL    HW119271   2.094   0.410   5.912
 6124SOL    HW219272   2.247   0.357   5.934
 6125SOL     OW19273   1.173   6.002   0.305
 6125SOL    HW119274   1.245   5.942   0.342
 6125SOL    HW219275   1.164   5.986   0.206
 6126SOL     OW19276   0.619   0.375   4.067
 6126SOL    HW119277   0.684   0.345   4.137
 6126SOL    HW219278   0.626   0.474   4.056
 6127SOL     OW19279   4.126   6.781   1.048
 6127SOL    HW119280   4.183   6.706   1.015
 6127SOL    HW219281   4.030   6.761   1.027
 6128SOL     OW19282   6.382   3.262   0.110
 6128SOL    HW119283   6.321   3.339   0.091
 6128SOL    HW219284   6.404   3.215   0.024
 6129SOL     OW19285   6.390   3.343   3.279
 6129SOL    HW119286   6.487   3.320   3.283
 6129SOL    HW219287   6.338   3.261   3.256
 6130SOL     OW19288   5.939   2.180   3.973
 6130SOL    HW119289   5.959   2.158   4.068
 6130SOL    HW219290   5.986   2.114   3.914
 6131SOL     OW19291   6.760   1.238   5.276
 6131SOL    HW119292   6.794   1.268   5.187
 6131SOL    HW219293   6.730   1.143   5.269
 6132SOL     OW19294   5.039   1.737   0.776
 6132SOL    HW119295   4.975   1.756   0.702
 6132SOL    HW219296   5.133   1.744   0.742
 6133SOL     OW19297   0.975   2.906   2.104
 6133SOL    HW119298   0.924   2.927   2.021
 6133SOL    HW219299   1.042   2.977   2.121
 6134SOL     OW19300   3.803   4.399   6.527
 6134SOL    HW119301   3.713   4.441   6.533
 6134SOL    HW219302   3.795   4.308   6.485
 6135SOL     OW19303   0.661   0.358   2.026
 6135SOL    HW119304   0.741   0.390   1.975
 6135SOL    HW219305   0.665   0.391   2.120
 6136SOL     OW19306   0.979   2.695   2.312
 6136SOL    HW119307   1.033   2.617   2.280
 6136SOL    HW219308   0.977   2.765   2.241
 6137SOL     OW19309   6.695   2.256   4.144
 6137SOL    HW119310   6.739   2.296   4.224
 6137SOL    HW219311   6.641   2.326   4.098
 6138SOL     OW19312   4.294   7.012   2.982
 6138SOL    HW119313   4.206   6.967   2.970
 6138SOL    HW219314   4.333   6.986   3.071
 6139SOL     OW19315   1.249   0.527   6.628
 6139SOL    HW119316   1.339   0.554   6.595
 6139SOL    HW219317   1.195   0.608   6.649
 6140SOL     OW19318   0.590   6.603   1.569
 6140SOL    HW119319   0.629   6.658   1.643
 6140SOL    HW219320   0.660   6.586   1.499
 6141SOL     OW19321   6.913   5.886   6.143
 6141SOL    HW119322   6.894   5.962   6.082
 6141SOL    HW219323   6.876   5.906   6.234
 6142SOL     OW19324   1.237   5.869   0.693
 6142SOL    HW119325   1.210   5.848   0.599
 6142SOL    HW219326   1.176   5.822   0.756
 6143SOL     OW19327   6.819   3.961   1.098
 6143SOL    HW119328   6.745   4.017   1.136
 6143SOL    HW219329   6.783   3.904   1.024
 6144SOL     OW19330   5.211   4.546   3.278
 6144SOL    HW119331   5.194   4.460   3.229
 6144SOL    HW219332   5.271   4.604   3.223
 6145SOL     OW19333   4.829   5.161   3.228
 6145SOL    HW119334   4.786   5.082   3.271
 6145SOL    HW219335   4.928   5.148   3.225
 6146SOL     OW19336   2.469   6.075   3.329
 6146SOL    HW119337   2.413   6.157   3.341
 6146SOL    HW219338   2.559   6.101   3.293
 6147SOL     OW19339   1.574   3.339   4.614
 6147SOL    HW119340   1.547   3.433   4.595
 6147SOL    HW219341   1.646   3.338   4.683
 6148SOL     OW19342   6.142   6.910   4.002
 6148SOL    HW119343   6.049   6.900   3.968
 6148SOL    HW219344   6.154   7.001   4.041
 6149SOL     OW19345   2.989   5.680   1.177
 6149SOL    HW119346   2.948   5.596   1.212
 6149SOL    HW219347   3.025   5.733   1.254
 6150SOL     OW19348   4.513   4.771   0.534
 6150SOL    HW119349   4.509   4.694   0.470
 6150SOL    HW219350   4.604   4.775   0.575
 6151SOL     OW19351   5.902   4.324   6.257
 6151SOL    HW119352   5.973   4.295   6.321
 6151SOL    HW219353   5.864   4.412   6.288
 6152SOL     OW19354   5.841   5.032   4.667
 6152SOL    HW119355   5.784   4.959   4.705
 6152SOL    HW219356   5.926   4.993   4.632
 6153SOL     OW19357   5.483   4.014   1.354
 6153SOL    HW119358   5.435   3.932   1.385
 6153SOL    HW219359   5.416   4.085   1.331
 6154SOL     OW19360   6.496   2.319   2.724
 6154SOL    HW119361   6.412   2.292   2.771
 6154SOL    HW219362   6.481   2.405   2.675
 6155SOL     OW19363   1.776   1.886   4.579
 6155SOL    HW119364   1.692   1.935   4.556
 6155SOL    HW219365   1.845   1.904   4.509
 6156SOL     OW19366   4.000   4.761   1.619
 6156SOL    HW119367   4.010   4.665   1.593
 6156SOL    HW219368   3.903   4.782   1.630
 6157SOL     OW19369   1.240   0.574   4.417
 6157SOL    HW119370   1.257   0.532   4.328
 6157SOL    HW219371   1.192   0.660   4.405
 6158SOL     OW19372   4.048   1.469   6.269
 6158SOL    HW119373   3.950   1.450   6.277
 6158SOL    HW219374   4.066   1.515   6.182
 6159SOL     OW19375   4.983   2.654   2.044
 6159SOL    HW119376   5.082   2.668   2.040
 6159SOL    HW219377   4.939   2.737   2.078
 6160SOL     OW19378   4.681   1.279   6.551
 6160SOL    HW119379   4.618   1.221   6.603
 6160SOL    HW219380   4.742   1.221   6.496
 6161SOL     OW19381   4.772   1.320   4.698
 6161SOL    HW119382   4.708   1.331   4.622
 6161SOL    HW219383   4.806   1.225   4.699
 6162SOL     OW19384   0.993   6.638   3.730
 6162SOL    HW119385   1.012   6.637   3.828
 6162SOL    HW219386   0.976   6.545   3.698
 6163SOL     OW19387   6.475   6.223   0.652
 6163SOL    HW119388   6.415   6.299   0.628
 6163SOL    HW219389   6.570   6.254   0.649
 6164SOL     OW19390   3.383   2.834   2.005
 6164SOL    HW119391   3.377   2.795   2.096
 6164SOL    HW219392   3.299   2.886   1.985
 6165SOL     OW19393   4.808   1.090   6.765
 6165SOL    HW119394   4.825   1.173   6.818
 6165SOL    HW219395   4.782   1.115   6.672
 6166SOL     OW19396   4.997   0.967   5.929
 6166SOL    HW119397   4.997   0.905   5.850
 6166SOL    HW219398   5.087   1.009   5.939
 6167SOL     OW19399   0.910   5.390   3.242
 6167SOL    HW119400   0.865   5.455   3.304
 6167SOL    HW219401   0.997   5.429   3.211
 6168SOL     OW19402   0.917   3.741   1.603
 6168SOL    HW119403   0.818   3.746   1.617
 6168SOL    HW219404   0.938   3.762   1.507
 6169SOL     OW19405   1.627   2.510   0.705
 6169SOL    HW119406   1.568   2.591   0.705
 6169SOL    HW219407   1.579   2.434   0.660
 6170SOL     OW19408   0.994   4.431   5.540
 6170SOL    HW119409   1.074   4.375   5.562
 6170SOL    HW219410   1.023   4.508   5.482
 6171SOL     OW19411   0.490   3.021   0.947
 6171SOL    HW119412   0.529   3.060   0.864
 6171SOL    HW219413   0.393   3.002   0.933
 6172SOL     OW19414   2.137   3.002   2.342
 6172SOL    HW119415   2.179   2.946   2.413
 6172SOL    HW219416   2.170   2.973   2.252
 6173SOL     OW19417   0.134   5.739   1.793
 6173SOL    HW119418   0.044   5.699   1.808
 6173SOL    HW219419   0.165   5.718   1.700
 6174SOL     OW19420   4.929   5.819   3.821
 6174SOL    HW119421   4.899   5.816   3.725
 6174SOL    HW219422   4.849   5.813   3.880
 6175SOL     OW19423   4.669   0.358   3.669
 6175SOL    HW119424   4.764   0.328   3.660
 6175SOL    HW219425   4.666   0.455   3.693
 6176SOL     OW19426   4.961   4.190   5.342
 6176SOL    HW119427   4.895   4.183   5.268
 6176SOL    HW219428   5.020   4.109   5.342
 6177SOL     OW19429   5.871   0.941   1.186
 6177SOL    HW119430   5.959   0.900   1.162
 6177SOL    HW219431   5.851   1.017   1.124
 6178SOL     OW19432   4.435   4.572   2.529
 6178SOL    HW119433   4.347   4.600   2.491
 6178SOL    HW219434   4.473   4.499   2.474
 6179SOL     OW19435   6.153   4.964   4.023
 6179SOL    HW119436   6.069   4.935   4.069
 6179SOL    HW219437   6.196   4.886   3.978
 6180SOL     OW19438   2.978   4.269   1.179
 6180SOL    HW119439   2.888   4.227   1.170
 6180SOL    HW219440   3.048   4.198   1.180
 6181SOL     OW19441   4.880   6.432   0.124
 6181SOL    HW119442   4.852   6.505   0.062
 6181SOL    HW219443   4.953   6.378   0.081
 6182SOL     OW19444   5.332   3.335   5.493
 6182SOL    HW119445   5.303   3.393   5.570
 6182SOL    HW219446   5.337   3.240   5.524
 6183SOL     OW19447   1.238   2.615   3.742
 6183SOL    HW119448   1.152   2.655   3.710
 6183SOL    HW219449   1.255   2.645   3.836
 6184SOL     OW19450   2.453   6.521   6.509
 6184SOL    HW119451   2.430   6.603   6.562
 6184SOL    HW219452   2.443   6.541   6.412
 6185SOL     OW19453   0.464   3.484   6.218
 6185SOL    HW119454   0.392   3.532   6.269
 6185SOL    HW219455   0.518   3.550   6.167
 6186SOL     OW19456   0.203   0.697   0.242
 6186SOL    HW119457   0.284   0.659   0.287
 6186SOL    HW219458   0.137   0.725   0.311
 6187SOL     OW19459   5.384   4.209   4.126
 6187SOL    HW119460   5.365   4.111   4.119
 6187SOL    HW219461   5.302   4.260   4.100
 6188SOL     OW19462   2.450   1.750   6.620
 6188SOL    HW119463   2.518   1.690   6.580
 6188SOL    HW219464   2.363   1.701   6.630
 6189SOL     OW19465   4.400   4.620   2.878
 6189SOL    HW119466   4.315   4.672   2.872
 6189SOL    HW219467   4.431   4.597   2.785
 6190SOL     OW19468   0.815   3.959   5.632
 6190SOL    HW119469   0.731   3.925   5.674
 6190SOL    HW219470   0.847   3.894   5.563
 6191SOL     OW19471   2.900   2.678   6.802
 6191SOL    HW119472   2.983   2.630   6.831
 6191SOL    HW219473   2.851   2.623   6.735
 6192SOL     OW19474   2.745   2.385   5.782
 6192SOL    HW119475   2.828   2.342   5.746
 6192SOL    HW219476   2.702   2.323   5.848
 6193SOL     OW19477   4.467   6.754   1.879
 6193SOL    HW119478   4.384   6.744   1.935
 6193SOL    HW219479   4.518   6.668   1.880
 6194SOL     OW19480   0.819   0.063   1.077
 6194SOL    HW119481   0.843   0.128   1.005
 6194SOL    HW219482   0.902   0.019   1.112
 6195SOL     OW19483   4.357   5.768   4.785
 6195SOL    HW119484   4.339   5.673   4.760
 6195SOL    HW219485   4.295   5.828   4.736
 6196SOL     OW19486   5.835   3.345   1.846
 6196SOL    HW119487   5.777   3.335   1.927
 6196SOL    HW219488   5.931   3.332   1.872
 6197SOL     OW19489   3.784   4.965   1.054
 6197SOL    HW119490   3.821   5.054   1.079
 6197SOL    HW219491   3.689   4.975   1.025
 6198SOL     OW19492   4.186   6.731   1.464
 6198SOL    HW119493   4.124   6.656   1.443
 6198SOL    HW219494   4.246   6.748   1.385
 6199SOL     OW19495   1.331   1.746   0.460
 6199SOL    HW119496   1.307   1.799   0.379
 6199SOL    HW219497   1.378   1.662   0.432
 6200SOL     OW19498   1.353   1.324   5.907
 6200SOL    HW119499   1.261   1.299   5.938
 6200SOL    HW219500   1.349   1.353   5.812
 6201SOL     OW19501   0.583   4.217   6.065
 6201SOL    HW119502   0.661   4.237   6.124
 6201SOL    HW219503   0.609   4.229   5.969
 6202SOL     OW19504   4.545   1.405   1.319
 6202SOL    HW119505   4.611   1.474   1.291
 6202SOL    HW219506   4.587   1.343   1.385
 6203SOL     OW19507   6.529   5.670   1.928
 6203SOL    HW119508   6.596   5.741   1.949
 6203SOL    HW219509   6.525   5.604   2.003
 6204SOL     OW19510   0.167   5.517   4.222
 6204SOL    HW119511   0.147   5.608   4.260
 6204SOL    HW219512   0.084   5.461   4.223
 6205SOL     OW19513   6.520   5.533   1.285
 6205SOL    HW119514   6.577   5.515   1.206
 6205SOL    HW219515   6.566   5.598   1.346
 6206SOL     OW19516   5.607   1.969   3.326
 6206SOL    HW119517   5.617   2.068   3.337
 6206SOL    HW219518   5.621   1.945   3.230
 6207SOL     OW19519   1.663   5.069   5.618
 6207SOL    HW119520   1.732   5.140   5.604
 6207SOL    HW219521   1.702   4.979   5.599
 6208SOL     OW19522   4.922   2.836   5.626
 6208SOL    HW119523   4.847   2.776   5.599
 6208SOL    HW219524   4.886   2.913   5.678
 6209SOL     OW19525   3.485   6.203   6.778
 6209SOL    HW119526   3.401   6.153   6.800
 6209SOL    HW219527   3.471   6.255   6.694
 6210SOL     OW19528   4.886   3.306   4.156
 6210SOL    HW119529   4.806   3.247   4.158
 6210SOL    HW219530   4.962   3.257   4.113
 6211SOL     OW19531   3.015   6.077   6.028
 6211SOL    HW119532   3.030   6.174   6.046
 6211SOL    HW219533   3.076   6.022   6.086
 6212SOL     OW19534   2.640   4.632   4.852
 6212SOL    HW119535   2.710   4.650   4.921
 6212SOL    HW219536   2.601   4.541   4.865
 6213SOL     OW19537   5.988   6.991   6.872
 6213SOL    HW119538   5.960   0.045   6.927
 6213SOL    HW219539   6.088   6.989   6.866
 6214SOL     OW19540   4.982   5.379   4.687
 6214SOL    HW119541   5.048   5.358   4.758
 6214SOL    HW219542   4.975   5.478   4.677
 6215SOL     OW19543   4.199   2.505   6.346
 6215SOL    HW119544   4.277   2.443   6.356
 6215SOL    HW219545   4.165   2.502   6.252
 6216SOL     OW19546   6.488   2.116   2.967
 6216SOL    HW119547   6.469   2.200   3.019
 6216SOL    HW219548   6.587   2.103   2.961
 6217SOL     OW19549   0.536   4.012   2.490
 6217SOL    HW119550   0.569   4.003   2.396
 6217SOL    HW219551   0.615   4.019   2.552
 6218SOL     OW19552   3.854   6.799   6.310
 6218SOL    HW119553   3.754   6.804   6.304
 6218SOL    HW219554   3.881   6.712   6.350
 6219SOL     OW19555   1.330   2.035   4.714
 6219SOL    HW119556   1.302   1.963   4.778
 6219SOL    HW219557   1.308   2.124   4.753
 6220SOL     OW19558   2.695   1.122   4.903
 6220SOL    HW119559   2.715   1.186   4.977
 6220SOL    HW219560   2.778   1.070   4.880
 6221SOL     OW19561   5.839   6.786   6.969
 6221SOL    HW119562   5.897   6.851   6.920
 6221SOL    HW219563   5.801   6.829   0.026
 6222SOL     OW19564   1.669   0.049   1.829
 6222SOL    HW119565   1.702   6.979   1.827
 6222SOL    HW219566   1.734   0.108   1.780
 6223SOL     OW19567   1.240   5.276   3.327
 6223SOL    HW119568   1.155   5.232   3.355
 6223SOL    HW219569   1.281   5.224   3.252
 6224SOL     OW19570   3.704   0.915   5.965
 6224SOL    HW119571   3.696   0.955   6.056
 6224SOL    HW219572   3.620   0.932   5.913
 6225SOL     OW19573   3.674   3.196   6.752
 6225SOL    HW119574   3.610   3.253   6.701
 6225SOL    HW219575   3.768   3.223   6.730
 6226SOL     OW19576   0.944   1.956   4.855
 6226SOL    HW119577   0.875   1.909   4.910
 6226SOL    HW219578   1.035   1.931   4.889
 6227SOL     OW19579   3.317   5.030   5.115
 6227SOL    HW119580   3.218   5.024   5.100
 6227SOL    HW219581   3.336   5.021   5.213
 6228SOL     OW19582   0.434   3.277   2.181
 6228SOL    HW119583   0.408   3.181   2.180
 6228SOL    HW219584   0.357   3.333   2.150
 6229SOL     OW19585   0.987   2.232   4.767
 6229SOL    HW119586   0.958   2.138   4.786
 6229SOL    HW219587   1.085   2.241   4.783
 6230SOL     OW19588   0.679   2.343   4.408
 6230SOL    HW119589   0.710   2.259   4.364
 6230SOL    HW219590   0.620   2.394   4.344
 6231SOL     OW19591   6.491   5.612   0.458
 6231SOL    HW119592   6.534   5.550   0.392
 6231SOL    HW219593   6.488   5.704   0.420
 6232SOL     OW19594   6.643   1.069   0.959
 6232SOL    HW119595   6.742   1.080   0.964
 6232SOL    HW219596   6.617   0.986   1.008
 6233SOL     OW19597   6.676   2.394   1.545
 6233SOL    HW119598   6.751   2.328   1.552
 6233SOL    HW219599   6.660   2.436   1.635
 6234SOL     OW19600   0.040   0.187   5.439
 6234SOL    HW119601   0.109   0.221   5.376
 6234SOL    HW219602   6.983   0.245   5.435
 6235SOL     OW19603   6.895   0.088   1.291
 6235SOL    HW119604   6.843   0.036   1.359
 6235SOL    HW219605   6.879   0.186   1.307
 6236SOL     OW19606   0.382   4.679   1.278
 6236SOL    HW119607   0.433   4.762   1.301
 6236SOL    HW219608   0.348   4.685   1.184
 6237SOL     OW19609   3.605   0.005   6.855
 6237SOL    HW119610   3.651   7.019   6.767
 6237SOL    HW219611   3.517   0.051   6.841
 6238SOL     OW19612   4.955   5.552   2.465
 6238SOL    HW119613   4.925   5.457   2.455
 6238SOL    HW219614   5.040   5.554   2.518
 6239SOL     OW19615   4.041   1.570   1.436
 6239SOL    HW119616   4.097   1.624   1.498
 6239SOL    HW219617   3.949   1.561   1.473
 6240SOL     OW19618   2.389   3.819   5.453
 6240SOL    HW119619   2.336   3.798   5.371
 6240SOL    HW219620   2.476   3.861   5.426
 6241SOL     OW19621   3.157   0.802   2.057
 6241SOL    HW119622   3.117   0.863   1.989
 6241SOL    HW219623   3.086   0.772   2.121
 6242SOL     OW19624   3.746   0.100   3.672
 6242SOL    HW119625   3.794   0.013   3.677
 6242SOL    HW219626   3.657   0.086   3.628
 6243SOL     OW19627   0.243   6.562   5.170
 6243SOL    HW119628   0.208   6.536   5.261
 6243SOL    HW219629   0.308   6.493   5.139
 6244SOL     OW19630   5.730   3.485   3.297
 6244SOL    HW119631   5.716   3.582   3.317
 6244SOL    HW219632   5.691   3.464   3.207
 6245SOL     OW19633   1.458   3.496   1.046
 6245SOL    HW119634   1.401   3.578   1.051
 6245SOL    HW219635   1.404   3.421   1.006
 6246SOL     OW19636   1.088   2.033   5.482
 6246SOL    HW119637   1.113   2.129   5.470
 6246SOL    HW219638   1.125   2.000   5.569
 6247SOL     OW19639   0.186   6.187   3.654
 6247SOL    HW119640   0.180   6.219   3.749
 6247SOL    HW219641   0.274   6.141   3.640
 6248SOL     OW19642   3.879   3.725   6.878
 6248SOL    HW119643   3.885   3.663   6.800
 6248SOL    HW219644   3.965   3.774   6.888
 6249SOL     OW19645   6.918   3.429   0.848
 6249SOL    HW119646   6.849   3.396   0.913
 6249SOL    HW219647   6.961   3.511   0.885
 6250SOL     OW19648   6.485   7.021   1.079
 6250SOL    HW119649   6.488   0.090   1.043
 6250SOL    HW219650   6.463   7.023   1.176
 6251SOL     OW19651   4.244   5.732   5.040
 6251SOL    HW119652   4.209   5.822   5.067
 6251SOL    HW219653   4.314   5.744   4.970
 6252SOL     OW19654   2.814   6.166   6.350
 6252SOL    HW119655   2.784   6.082   6.396
 6252SOL    HW219656   2.887   6.209   6.402
 6253SOL     OW19657   2.847   5.088   4.408
 6253SOL    HW119658   2.767   5.043   4.369
 6253SOL    HW219659   2.817   5.155   4.477
 6254SOL     OW19660   6.006   1.392   1.207
 6254SOL    HW119661   6.012   1.381   1.306
 6254SOL    HW219662   5.986   1.303   1.165
 6255SOL     OW19663   2.679   0.616   0.705
 6255SOL    HW119664   2.616   0.547   0.740
 6255SOL    HW219665   2.749   0.635   0.773
 6256SOL     OW19666   3.365   5.143   2.490
 6256SOL    HW119667   3.312   5.069   2.448
 6256SOL    HW219668   3.304   5.200   2.544
 6257SOL     OW19669   4.926   2.771   0.768
 6257SOL    HW119670   4.992   2.776   0.693
 6257SOL    HW219671   4.915   2.861   0.809
 6258SOL     OW19672   2.863   0.342   3.355
 6258SOL    HW119673   2.888   0.415   3.419
 6258SOL    HW219674   2.804   0.380   3.283
 6259SOL     OW19675   1.344   1.569   6.980
 6259SOL    HW119676   1.292   1.569   6.895
 6259SOL    HW219677   1.282   1.586   0.033
 6260SOL     OW19678   3.224   6.044   0.262
 6260SOL    HW119679   3.283   5.971   0.296
 6260SOL    HW219680   3.280   6.114   0.217
 6261SOL     OW19681   4.745   0.455   6.725
 6261SOL    HW119682   4.709   0.365   6.698
 6261SOL    HW219683   4.791   0.447   6.813
 6262SOL     OW19684   2.052   6.604   1.477
 6262SOL    HW119685   1.994   6.653   1.542
 6262SOL    HW219686   2.019   6.620   1.384
 6263SOL     OW19687   0.689   6.944   4.430
 6263SOL    HW119688   0.644   6.892   4.357
 6263SOL    HW219689   0.719   6.881   4.502
 6264SOL     OW19690   1.802   0.697   1.835
 6264SOL    HW119691   1.752   0.617   1.802
 6264SOL    HW219692   1.882   0.712   1.777
 6265SOL     OW19693   3.866   3.699   0.218
 6265SOL    HW119694   3.834   3.793   0.200
 6265SOL    HW219695   3.841   3.641   0.141
 6266SOL     OW19696   5.081   0.092   3.496
 6266SOL    HW119697   5.053   0.182   3.461
 6266SOL    HW219698   5.004   0.029   3.493
 6267SOL     OW19699   2.495   0.026   4.989
 6267SOL    HW119700   2.412   6.996   4.981
 6267SOL    HW219701   2.485   0.091   5.065
 6268SOL     OW19702   3.077   1.062   2.416
 6268SOL    HW119703   3.142   1.062   2.340
 6268SOL    HW219704   3.056   0.968   2.442
 6269SOL     OW19705   6.788   6.550   2.362
 6269SOL    HW119706   6.724   6.579   2.433
 6269SOL    HW219707   6.858   6.620   2.350
 6270SOL     OW19708   0.415   0.526   5.992
 6270SOL    HW119709   0.466   0.452   6.037
 6270SOL    HW219710   0.322   0.495   5.973
 6271SOL     OW19711   5.751   2.439   5.699
 6271SOL    HW119712   5.836   2.389   5.716
 6271SOL    HW219713   5.737   2.505   5.773
 6272SOL     OW19714   0.642   2.312   0.346
 6272SOL    HW119715   0.702   2.232   0.337
 6272SOL    HW219716   0.691   2.393   0.312
 6273SOL     OW19717   0.534   6.416   2.786
 6273SOL    HW119718   0.633   6.410   2.771
 6273SOL    HW219719   0.494   6.325   2.777
 6274SOL     OW19720   3.259   6.760   5.456
 6274SOL    HW119721   3.206   6.679   5.483
 6274SOL    HW219722   3.265   6.764   5.356
 6275SOL     OW19723   1.893   6.294   0.174
 6275SOL    HW119724   1.906   6.317   0.077
 6275SOL    HW219725   1.968   6.333   0.227
 6276SOL     OW19726   2.358   5.378   3.764
 6276SOL    HW119727   2.452   5.390   3.794
 6276SOL    HW219728   2.298   5.364   3.843
 6277SOL     OW19729   4.804   2.926   1.006
 6277SOL    HW119730   4.711   2.931   1.041
 6277SOL    HW219731   4.841   3.019   0.995
 6278SOL     OW19732   4.557   0.100   4.395
 6278SOL    HW119733   4.645   0.098   4.442
 6278SOL    HW219734   4.539   0.192   4.362
 6279SOL     OW19735   3.055   6.227   0.369
 6279SOL    HW119736   3.127   6.253   0.433
 6279SOL    HW219737   3.092   6.163   0.301
 6280SOL     OW19738   0.126   1.037   6.344
 6280SOL    HW119739   0.045   1.035   6.403
 6280SOL    HW219740   0.206   1.009   6.397
 6281SOL     OW19741   0.011   4.991   4.183
 6281SOL    HW119742   6.958   4.953   4.132
 6281SOL    HW219743   0.088   5.005   4.122
 6282SOL     OW19744   6.322   5.028   5.766
 6282SOL    HW119745   6.263   4.979   5.830
 6282SOL    HW219746   6.297   5.003   5.672
 6283SOL     OW19747   0.010   4.270   4.229
 6283SOL    HW119748   0.068   4.197   4.193
 6283SOL    HW219749   0.017   4.273   4.328
 6284SOL     OW19750   2.036   4.689   5.033
 6284SOL    HW119751   2.034   4.671   5.132
 6284SOL    HW219752   1.975   4.766   5.012
 6285SOL     OW19753   0.356   3.502   3.960
 6285SOL    HW119754   0.329   3.433   3.894
 6285SOL    HW219755   0.456   3.508   3.963
 6286SOL     OW19756   6.672   2.350   4.619
 6286SOL    HW119757   6.685   2.359   4.718
 6286SOL    HW219758   6.626   2.264   4.600
 6287SOL     OW19759   3.466   5.029   4.894
 6287SOL    HW119760   3.447   5.040   4.992
 6287SOL    HW219761   3.381   5.018   4.844
 6288SOL     OW19762   4.835   4.619   2.205
 6288SOL    HW119763   4.803   4.694   2.264
 6288SOL    HW219764   4.841   4.652   2.111
 6289SOL     OW19765   1.965   5.183   6.818
 6289SOL    HW119766   1.881   5.129   6.816
 6289SOL    HW219767   1.945   5.276   6.849
 6290SOL     OW19768   6.164   4.564   6.378
 6290SOL    HW119769   6.209   4.533   6.462
 6290SOL    HW219770   6.185   4.501   6.304
 6291SOL     OW19771   4.032   3.818   3.780
 6291SOL    HW119772   3.966   3.881   3.821
 6291SOL    HW219773   4.120   3.828   3.825
 6292SOL     OW19774   2.062   2.326   5.181
 6292SOL    HW119775   2.064   2.418   5.218
 6292SOL    HW219776   1.971   2.287   5.193
 6293SOL     OW19777   4.255   1.850   1.197
 6293SOL    HW119778   4.218   1.909   1.269
 6293SOL    HW219779   4.194   1.772   1.184
 6294SOL     OW19780   3.853   0.510   3.668
 6294SOL    HW119781   3.838   0.430   3.611
 6294SOL    HW219782   3.819   0.492   3.761
 6295SOL     OW19783   4.687   4.684   4.589
 6295SOL    HW119784   4.721   4.658   4.680
 6295SOL    HW219785   4.608   4.745   4.600
 6296SOL     OW19786   6.732   4.949   6.235
 6296SOL    HW119787   6.751   4.980   6.141
 6296SOL    HW219788   6.785   4.866   6.253
 6297SOL     OW19789   5.293   0.235   5.326
 6297SOL    HW119790   5.383   0.214   5.290
 6297SOL    HW219791   5.254   0.313   5.277
 6298SOL     OW19792   1.376   3.368   6.245
 6298SOL    HW119793   1.451   3.302   6.239
 6298SOL    HW219794   1.401   3.443   6.306
 6299SOL     OW19795   6.083   2.361   1.952
 6299SOL    HW119796   6.160   2.421   1.977
 6299SOL    HW219797   6.078   2.353   1.853
 6300SOL     OW19798   6.461   1.131   6.623
 6300SOL    HW119799   6.391   1.164   6.686
 6300SOL    HW219800   6.509   1.208   6.583
 6301SOL     OW19801   2.979   6.957   6.988
 6301SOL    HW119802   2.991   6.858   6.982
 6301SOL    HW219803   2.997   6.988   0.057
 6302SOL     OW19804   1.649   2.063   5.320
 6302SOL    HW119805   1.669   1.971   5.289
 6302SOL    HW219806   1.667   2.128   5.246
 6303SOL     OW19807   1.209   0.550   5.269
 6303SOL    HW119808   1.115   0.530   5.295
 6303SOL    HW219809   1.211   0.627   5.205
 6304SOL     OW19810   3.436   1.087   1.580
 6304SOL    HW119811   3.359   1.149   1.593
 6304SOL    HW219812   3.506   1.105   1.649
 6305SOL     OW19813   5.576   6.294   0.613
 6305SOL    HW119814   5.671   6.309   0.587
 6305SOL    HW219815   5.560   6.334   0.703
 6306SOL     OW19816   6.807   4.398   4.182
 6306SOL    HW119817   6.832   4.471   4.119
 6306SOL    HW219818   6.878   4.327   4.182
 6307SOL     OW19819   3.433   4.110   3.887
 6307SOL    HW119820   3.410   4.043   3.817
 6307SOL    HW219821   3.359   4.115   3.954
 6308SOL     OW19822   1.642   2.914   4.377
 6308SOL    HW119823   1.588   2.839   4.415
 6308SOL    HW219824   1.692   2.959   4.450
 6309SOL     OW19825   6.937   5.921   4.207
 6309SOL    HW119826   6.864   5.968   4.257
 6309SOL    HW219827   6.987   5.987   4.151
 6310SOL     OW19828   1.851   6.442   2.310
 6310SOL    HW119829   1.897   6.386   2.379
 6310SOL    HW219830   1.823   6.529   2.352
 6311SOL     OW19831   4.886   1.657   5.926
 6311SOL    HW119832   4.948   1.601   5.981
 6311SOL    HW219833   4.919   1.752   5.924
 6312SOL     OW19834   0.068   6.467   4.987
 6312SOL    HW119835   0.021   6.528   4.924
 6312SOL    HW219836   0.098   6.518   5.067
 6313SOL     OW19837   6.474   5.999   3.852
 6313SOL    HW119838   6.477   6.040   3.760
 6313SOL    HW219839   6.519   5.910   3.849
 6314SOL     OW19840   3.621   6.674   1.681
 6314SOL    HW119841   3.565   6.591   1.680
 6314SOL    HW219842   3.686   6.670   1.756
 6315SOL     OW19843   3.397   2.165   6.033
 6315SOL    HW119844   3.324   2.097   6.031
 6315SOL    HW219845   3.378   2.238   5.967
 6316SOL     OW19846   4.517   2.002   6.158
 6316SOL    HW119847   4.523   2.102   6.158
 6316SOL    HW219848   4.572   1.965   6.083
 6317SOL     OW19849   5.208   4.739   2.036
 6317SOL    HW119850   5.172   4.645   2.039
 6317SOL    HW219851   5.272   4.752   2.111
 6318SOL     OW19852   4.312   0.137   5.925
 6318SOL    HW119853   4.382   0.094   5.982
 6318SOL    HW219854   4.222   0.106   5.953
 6319SOL     OW19855   6.660   2.152   5.618
 6319SOL    HW119856   6.751   2.137   5.579
 6319SOL    HW219857   6.660   2.237   5.670
 6320SOL     OW19858   6.800   6.321   5.018
 6320SOL    HW119859   6.899   6.333   5.010
 6320SOL    HW219860   6.773   6.336   5.113
 6321SOL     OW19861   4.676   3.296   0.893
 6321SOL    HW119862   4.645   3.259   0.805
 6321SOL    HW219863   4.770   3.267   0.910
 6322SOL     OW19864   2.299   2.547   1.062
 6322SOL    HW119865   2.335   2.610   1.132
 6322SOL    HW219866   2.372   2.484   1.034
 6323SOL     OW19867   1.850   2.615   1.890
 6323SOL    HW119868   1.841   2.542   1.958
 6323SOL    HW219869   1.770   2.675   1.896
 6324SOL     OW19870   4.835   1.218   0.571
 6324SOL    HW119871   4.881   1.149   0.515
 6324SOL    HW219872   4.897   1.250   0.642
 6325SOL     OW19873   1.801   3.482   2.668
 6325SOL    HW119874   1.755   3.566   2.638
 6325SOL    HW219875   1.748   3.403   2.638
 6326SOL     OW19876   5.381   5.199   0.910
 6326SOL    HW119877   5.470   5.158   0.931
 6326SOL    HW219878   5.368   5.281   0.965
 6327SOL     OW19879   0.134   1.902   4.965
 6327SOL    HW119880   0.113   1.835   4.894
 6327SOL    HW219881   0.095   1.991   4.941
 6328SOL     OW19882   4.176   3.877   0.184
 6328SOL    HW119883   4.138   3.828   0.262
 6328SOL    HW219884   4.247   3.940   0.216
 6329SOL     OW19885   1.440   3.100   3.906
 6329SOL    HW119886   1.517   3.112   3.968
 6329SOL    HW219887   1.363   3.157   3.937
 6330SOL     OW19888   5.830   0.089   1.618
 6330SOL    HW119889   5.758   0.114   1.683
 6330SOL    HW219890   5.797   0.019   1.556
 6331SOL     OW19891   6.817   3.636   5.406
 6331SOL    HW119892   6.756   3.564   5.374
 6331SOL    HW219893   6.818   3.639   5.506
 6332SOL     OW19894   0.582   2.489   1.187
 6332SOL    HW119895   0.597   2.483   1.286
 6332SOL    HW219896   0.605   2.582   1.156
 6333SOL     OW19897   4.232   6.716   5.460
 6333SOL    HW119898   4.223   6.776   5.381
 6333SOL    HW219899   4.316   6.662   5.452
 6334SOL     OW19900   3.220   1.377   2.578
 6334SOL    HW119901   3.277   1.459   2.569
 6334SOL    HW219902   3.219   1.347   2.674
 6335SOL     OW19903   4.207   0.474   0.677
 6335SOL    HW119904   4.140   0.512   0.613
 6335SOL    HW219905   4.160   0.427   0.752
 6336SOL     OW19906   1.250   2.244   6.722
 6336SOL    HW119907   1.153   2.222   6.710
 6336SOL    HW219908   1.270   2.332   6.678
 6337SOL     OW19909   4.593   5.108   5.598
 6337SOL    HW119910   4.529   5.182   5.618
 6337SOL    HW219911   4.543   5.022   5.590
 6338SOL     OW19912   3.061   2.244   4.084
 6338SOL    HW119913   3.029   2.246   3.989
 6338SOL    HW219914   2.991   2.282   4.144
 6339SOL     OW19915   1.077   3.684   3.642
 6339SOL    HW119916   1.053   3.602   3.695
 6339SOL    HW219917   1.072   3.764   3.702
 6340SOL     OW19918   1.672   4.944   1.645
 6340SOL    HW119919   1.641   4.986   1.731
 6340SOL    HW219920   1.592   4.927   1.587
 6341SOL     OW19921   6.311   3.999   4.226
 6341SOL    HW119922   6.336   3.984   4.130
 6341SOL    HW219923   6.390   4.035   4.276
 6342SOL     OW19924   2.711   1.630   1.034
 6342SOL    HW119925   2.799   1.665   1.066
 6342SOL    HW219926   2.643   1.640   1.106
 6343SOL     OW19927   4.585   0.758   6.109
 6343SOL    HW119928   4.681   0.747   6.135
 6343SOL    HW219929   4.528   0.699   6.165
 6344SOL     OW19930   5.262   2.384   4.739
 6344SOL    HW119931   5.315   2.316   4.687
 6344SOL    HW219932   5.182   2.412   4.686
 6345SOL     OW19933   5.470   2.318   2.174
 6345SOL    HW119934   5.371   2.321   2.185
 6345SOL    HW219935   5.505   2.230   2.206
 6346SOL     OW19936   6.430   5.674   4.276
 6346SOL    HW119937   6.490   5.717   4.344
 6346SOL    HW219938   6.470   5.587   4.248
 6347SOL     OW19939   2.429   1.383   7.020
 6347SOL    HW119940   2.427   1.483   7.015
 6347SOL    HW219941   2.523   1.352   0.010
 6348SOL     OW19942   1.949   2.889   6.043
 6348SOL    HW119943   2.033   2.919   5.998
 6348SOL    HW219944   1.875   2.886   5.976
 6349SOL     OW19945   1.660   0.926   0.736
 6349SOL    HW119946   1.693   0.863   0.666
 6349SOL    HW219947   1.618   0.875   0.811
 6350SOL     OW19948   0.425   4.921   4.168
 6350SOL    HW119949   0.480   4.889   4.091
 6350SOL    HW219950   0.481   4.980   4.226
 6351SOL     OW19951   6.170   3.586   3.604
 6351SOL    HW119952   6.100   3.657   3.611
 6351SOL    HW219953   6.172   3.551   3.511
 6352SOL     OW19954   2.781   6.879   5.016
 6352SOL    HW119955   2.811   6.953   4.955
 6352SOL    HW219956   2.839   6.799   5.003
 6353SOL     OW19957   0.823   6.059   5.681
 6353SOL    HW119958   0.876   6.029   5.760
 6353SOL    HW219959   0.828   5.990   5.609
 6354SOL     OW19960   3.547   5.445   3.051
 6354SOL    HW119961   3.616   5.503   3.008
 6354SOL    HW219962   3.523   5.370   2.988
 6355SOL     OW19963   1.900   5.529   6.967
 6355SOL    HW119964   1.847   5.533   6.882
 6355SOL    HW219965   1.890   5.438   7.008
 6356SOL     OW19966   4.604   5.431   1.187
 6356SOL    HW119967   4.506   5.428   1.208
 6356SOL    HW219968   4.616   5.450   1.089
 6357SOL     OW19969   5.957   3.276   2.882
 6357SOL    HW119970   5.943   3.346   2.812
 6357SOL    HW219971   5.945   3.316   2.973
 6358SOL     OW19972   0.256   1.505   6.640
 6358SOL    HW119973   0.356   1.503   6.649
 6358SOL    HW219974   0.216   1.543   6.723
 6359SOL     OW19975   6.335   7.000   0.215
 6359SOL    HW119976   6.304   0.069   0.232
 6359SOL    HW219977   6.256   6.940   0.208
 6360SOL     OW19978   1.092   3.776   5.582
 6360SOL    HW119979   1.186   3.809   5.580
 6360SOL    HW219980   1.052   3.782   5.490
 6361SOL     OW19981   1.015   0.557   0.769
 6361SOL    HW119982   0.922   0.527   0.752
 6361SOL    HW219983   1.079   0.497   0.721
 6362SOL     OW19984   0.526   5.547   6.773
 6362SOL    HW119985   0.449   5.582   6.720
 6362SOL    HW219986   0.495   5.470   6.829
 6363SOL     OW19987   2.427   5.784   3.624
 6363SOL    HW119988   2.485   5.831   3.690
 6363SOL    HW219989   2.473   5.701   3.592
 6364SOL     OW19990   2.770   1.957   5.878
 6364SOL    HW119991   2.761   2.039   5.933
 6364SOL    HW219992   2.790   1.982   5.783
 6365SOL     OW19993   4.969   6.735   3.729
 6365SOL    HW119994   4.898   6.796   3.764
 6365SOL    HW219995   4.935   6.642   3.726
 6366SOL     OW19996   0.994   5.384   5.344
 6366SOL    HW119997   1.013   5.315   5.274
 6366SOL    HW219998   0.950   5.463   5.302
 6367SOL     OW19999   4.313   1.536   3.785
 6367SOL    HW120000   4.291   1.473   3.711
 6367SOL    HW220001   4.274   1.625   3.766
 6368SOL     OW20002   3.585   4.968   3.872
 6368SOL    HW120003   3.643   5.027   3.815
 6368SOL    HW220004   3.497   4.954   3.828
 6369SOL     OW20005   2.299   0.496   4.584
 6369SOL    HW120006   2.386   0.545   4.586
 6369SOL    HW220007   2.235   0.544   4.525
 6370SOL     OW20008   6.090   3.281   3.774
 6370SOL    HW120009   6.068   3.185   3.791
 6370SOL    HW220010   6.150   3.287   3.694
 6371SOL     OW20011   5.263   4.837   3.026
 6371SOL    HW120012   5.172   4.831   3.065
 6371SOL    HW220013   5.300   4.929   3.040
 6372SOL     OW20014   1.389   1.375   1.942
 6372SOL    HW120015   1.326   1.377   2.020
 6372SOL    HW220016   1.470   1.321   1.965
 6373SOL     OW20017   4.665   4.309   2.895
 6373SOL    HW120018   4.669   4.371   2.973
 6373SOL    HW220019   4.587   4.247   2.906
 6374SOL     OW20020   4.029   3.639   1.910
 6374SOL    HW120021   4.105   3.580   1.882
 6374SOL    HW220022   4.012   3.626   2.008
 6375SOL     OW20023   0.081   1.972   2.417
 6375SOL    HW120024   0.115   1.964   2.510
 6375SOL    HW220025   0.092   1.884   2.369
 6376SOL     OW20026   4.852   2.102   6.135
 6376SOL    HW120027   4.784   2.171   6.161
 6376SOL    HW220028   4.931   2.147   6.092
 6377SOL     OW20029   0.019   1.126   5.628
 6377SOL    HW120030   0.058   1.041   5.664
 6377SOL    HW220031   7.020   1.187   5.703
 6378SOL     OW20032   4.723   4.418   3.922
 6378SOL    HW120033   4.700   4.509   3.957
 6378SOL    HW220034   4.699   4.350   3.991
 6379SOL     OW20035   0.755   4.216   5.565
 6379SOL    HW120036   0.787   4.127   5.594
 6379SOL    HW220037   0.832   4.273   5.538
 6380SOL     OW20038   0.459   1.651   5.074
 6380SOL    HW120039   0.551   1.653   5.035
 6380SOL    HW220040   0.438   1.739   5.116
 6381SOL     OW20041   4.194   2.904   1.065
 6381SOL    HW120042   4.244   2.965   1.127
 6381SOL    HW220043   4.184   2.948   0.976
 6382SOL     OW20044   3.468   2.297   0.798
 6382SOL    HW120045   3.494   2.390   0.824
 6382SOL    HW220046   3.529   2.231   0.842
 6383SOL     OW20047   2.228   2.532   3.270
 6383SOL    HW120048   2.198   2.625   3.292
 6383SOL    HW220049   2.192   2.506   3.180
 6384SOL     OW20050   6.422   3.640   3.143
 6384SOL    HW120051   6.519   3.634   3.116
 6384SOL    HW220052   6.416   3.681   3.234
 6385SOL     OW20053   0.014   3.183   3.540
 6385SOL    HW120054   0.004   3.190   3.639
 6385SOL    HW220055   0.037   3.089   3.515
 6386SOL     OW20056   2.833   3.373   6.759
 6386SOL    HW120057   2.789   3.446   6.813
 6386SOL    HW220058   2.921   3.405   6.725
 6387SOL     OW20059   6.863   1.964   6.995
 6387SOL    HW120060   6.787   2.003   0.023
 6387SOL    HW220061   6.937   1.938   0.032
 6388SOL     OW20062   4.460   6.385   1.899
 6388SOL    HW120063   4.481   6.290   1.922
 6388SOL    HW220064   4.523   6.445   1.948
 6389SOL     OW20065   0.633   6.608   0.722
 6389SOL    HW120066   0.597   6.520   0.752
 6389SOL    HW220067   0.633   6.612   0.622
 6390SOL     OW20068   0.191   0.765   5.483
 6390SOL    HW120069   0.093   0.765   5.500
 6390SOL    HW220070   0.234   0.691   5.536
 6391SOL     OW20071   1.126   0.192   6.350
 6391SOL    HW120072   1.096   0.276   6.395
 6391SOL    HW220073   1.224   0.180   6.363
 6392SOL     OW20074   2.423   5.425   2.677
 6392SOL    HW120075   2.403   5.470   2.590
 6392SOL    HW220076   2.337   5.400   2.722
 6393SOL     OW20077   0.365   6.001   2.020
 6393SOL    HW120078   0.459   6.034   2.008
 6393SOL    HW220079   0.303   6.061   1.969
 6394SOL     OW20080   1.668   5.530   0.592
 6394SOL    HW120081   1.628   5.454   0.540
 6394SOL    HW220082   1.659   5.614   0.540
 6395SOL     OW20083   0.348   3.063   1.468
 6395SOL    HW120084   0.339   2.966   1.448
 6395SOL    HW220085   0.293   3.087   1.548
 6396SOL     OW20086   6.063   3.182   0.065
 6396SOL    HW120087   6.037   3.278   0.079
 6396SOL    HW220088   6.118   3.151   0.143
 6397SOL     OW20089   5.629   1.378   1.758
 6397SOL    HW120090   5.589   1.289   1.782
 6397SOL    HW220091   5.560   1.449   1.773
 6398SOL     OW20092   2.795   0.121   2.127
 6398SOL    HW120093   2.701   0.133   2.096
 6398SOL    HW220094   2.852   0.094   2.050
 6399SOL     OW20095   1.860   0.347   6.980
 6399SOL    HW120096   1.761   0.358   6.975
 6399SOL    HW220097   1.886   0.264   6.930
 6400SOL     OW20098   2.049   4.810   2.388
 6400SOL    HW120099   2.079   4.808   2.293
 6400SOL    HW220100   2.097   4.739   2.440
 6401SOL     OW20101   5.692   6.305   3.263
 6401SOL    HW120102   5.679   6.273   3.357
 6401SOL    HW220103   5.711   6.403   3.264
 6402SOL     OW20104   2.205   3.050   3.312
 6402SOL    HW120105   2.159   2.995   3.242
 6402SOL    HW220106   2.203   3.147   3.284
 6403SOL     OW20107   6.696   5.284   6.205
 6403SOL    HW120108   6.774   5.221   6.208
 6403SOL    HW220109   6.661   5.298   6.298
 6404SOL     OW20110   3.934   1.067   2.183
 6404SOL    HW120111   4.008   1.043   2.120
 6404SOL    HW220112   3.963   1.144   2.241
 6405SOL     OW20113   3.760   0.529   3.940
 6405SOL    HW120114   3.670   0.530   3.983
 6405SOL    HW220115   3.819   0.597   3.984
 6406SOL     OW20116   0.591   2.822   2.885
 6406SOL    HW120117   0.514   2.817   2.948
 6406SOL    HW220118   0.575   2.896   2.819
 6407SOL     OW20119   2.372   0.191   3.931
 6407SOL    HW120120   2.276   0.171   3.915
 6407SOL    HW220121   2.382   0.239   4.019
 6408SOL     OW20122   5.551   1.223   0.399
 6408SOL    HW120123   5.641   1.231   0.442
 6408SOL    HW220124   5.501   1.147   0.442
 6409SOL     OW20125   6.295   4.681   4.642
 6409SOL    HW120126   6.213   4.624   4.632
 6409SOL    HW220127   6.352   4.672   4.560
 6410SOL     OW20128   2.030   1.170   5.884
 6410SOL    HW120129   2.022   1.100   5.955
 6410SOL    HW220130   2.080   1.248   5.920
 6411SOL     OW20131   0.368   2.953   2.954
 6411SOL    HW120132   0.381   2.952   3.053
 6411SOL    HW220133   0.270   2.959   2.934
 6412SOL     OW20134   1.825   1.630   5.344
 6412SOL    HW120135   1.911   1.600   5.303
 6412SOL    HW220136   1.769   1.675   5.275
 6413SOL     OW20137   3.937   4.830   3.551
 6413SOL    HW120138   3.940   4.797   3.645
 6413SOL    HW220139   3.842   4.845   3.523
 6414SOL     OW20140   5.636   1.347   6.961
 6414SOL    HW120141   5.565   1.335   6.892
 6414SOL    HW220142   5.596   1.338   0.028
 6415SOL     OW20143   1.456   3.499   3.609
 6415SOL    HW120144   1.416   3.408   3.603
 6415SOL    HW220145   1.388   3.567   3.583
 6416SOL     OW20146   1.668   0.011   6.946
 6416SOL    HW120147   1.755   0.045   6.912
 6416SOL    HW220148   1.600   0.085   6.947
 6417SOL     OW20149   5.537   4.848   0.449
 6417SOL    HW120150   5.604   4.870   0.521
 6417SOL    HW220151   5.477   4.775   0.481
 6418SOL     OW20152   4.927   3.436   2.566
 6418SOL    HW120153   4.929   3.362   2.499
 6418SOL    HW220154   4.882   3.516   2.525
 6419SOL     OW20155   0.925   5.246   2.938
 6419SOL    HW120156   0.940   5.323   3.000
 6419SOL    HW220157   0.857   5.271   2.869
 6420SOL     OW20158   2.495   6.573   4.092
 6420SOL    HW120159   2.507   6.550   3.995
 6420SOL    HW220160   2.398   6.580   4.113
 6421SOL     OW20161   4.571   0.654   2.040
 6421SOL    HW120162   4.664   0.639   2.008
 6421SOL    HW220163   4.533   0.568   2.074
 6422SOL     OW20164   6.876   6.984   4.961
 6422SOL    HW120165   6.781   6.964   4.935
 6422SOL    HW220166   6.896   0.056   4.944
 6423SOL     OW20167   4.831   5.547   3.465
 6423SOL    HW120168   4.754   5.579   3.409
 6423SOL    HW220169   4.801   5.538   3.560
 6424SOL     OW20170   0.288   4.120   4.648
 6424SOL    HW120171   0.243   4.130   4.737
 6424SOL    HW220172   0.277   4.027   4.615
 6425SOL     OW20173   6.445   6.705   2.831
 6425SOL    HW120174   6.502   6.764   2.889
 6425SOL    HW220175   6.361   6.682   2.880
 6426SOL     OW20176   0.733   5.368   2.757
 6426SOL    HW120177   0.639   5.333   2.763
 6426SOL    HW220178   0.739   5.432   2.680
 6427SOL     OW20179   3.840   3.974   3.908
 6427SOL    HW120180   3.798   4.058   3.875
 6427SOL    HW220181   3.768   3.909   3.933
 6428SOL     OW20182   5.001   3.438   6.675
 6428SOL    HW120183   4.950   3.499   6.735
 6428SOL    HW220184   5.099   3.446   6.694
 6429SOL     OW20185   0.121   1.630   5.755
 6429SOL    HW120186   0.080   1.584   5.676
 6429SOL    HW220187   0.054   1.693   5.795
 6430SOL     OW20188   6.126   0.840   3.781
 6430SOL    HW120189   6.049   0.787   3.745
 6430SOL    HW220190   6.178   0.782   3.844
 6431SOL     OW20191   3.898   6.238   3.424
 6431SOL    HW120192   3.905   6.328   3.381
 6431SOL    HW220193   3.892   6.250   3.523
 6432SOL     OW20194   4.410   4.380   6.077
 6432SOL    HW120195   4.443   4.433   6.155
 6432SOL    HW220196   4.341   4.314   6.107
 6433SOL     OW20197   1.550   5.327   5.731
 6433SOL    HW120198   1.619   5.303   5.799
 6433SOL    HW220199   1.593   5.329   5.640
 6434SOL     OW20200   2.698   6.429   5.882
 6434SOL    HW120201   2.777   6.486   5.860
 6434SOL    HW220202   2.702   6.401   5.978
 6435SOL     OW20203   5.194   6.795   0.561
 6435SOL    HW120204   5.207   6.771   0.464
 6435SOL    HW220205   5.161   6.714   0.611
 6436SOL     OW20206   1.228   2.942   2.589
 6436SOL    HW120207   1.145   2.945   2.534
 6436SOL    HW220208   1.206   2.915   2.683
 6437SOL     OW20209   1.823   2.362   0.121
 6437SOL    HW120210   1.886   2.421   0.170
 6437SOL    HW220211   1.869   2.323   0.040
 6438SOL     OW20212   0.586   3.846   5.711
 6438SOL    HW120213   0.535   3.816   5.791
 6438SOL    HW220214   0.537   3.818   5.628
 6439SOL     OW20215   5.311   0.928   2.152
 6439SOL    HW120216   5.373   0.904   2.077
 6439SOL    HW220217   5.346   0.890   2.238
 6440SOL     OW20218   2.710   1.495   5.725
 6440SOL    HW120219   2.773   1.464   5.653
 6440SOL    HW220220   2.757   1.559   5.786
 6441SOL     OW20221   0.345   6.907   1.422
 6441SOL    HW120222   0.332   6.822   1.473
 6441SOL    HW220223   0.268   6.921   1.360
 6442SOL     OW20224   2.524   1.491   5.091
 6442SOL    HW120225   2.529   1.506   5.190
 6442SOL    HW220226   2.616   1.479   5.055
 6443SOL     OW20227   3.656   2.486   5.353
 6443SOL    HW120228   3.622   2.578   5.374
 6443SOL    HW220229   3.579   2.427   5.330
 6444SOL     OW20230   5.647   3.581   4.796
 6444SOL    HW120231   5.679   3.561   4.889
 6444SOL    HW220232   5.549   3.563   4.789
 6445SOL     OW20233   4.058   3.390   4.559
 6445SOL    HW120234   4.130   3.379   4.627
 6445SOL    HW220235   4.000   3.468   4.584
 6446SOL     OW20236   1.250   1.311   6.799
 6446SOL    HW120237   1.275   1.341   6.891
 6446SOL    HW220238   1.189   1.378   6.758
 6447SOL     OW20239   6.219   4.904   2.958
 6447SOL    HW120240   6.201   4.921   3.055
 6447SOL    HW220241   6.240   4.807   2.944
 6448SOL     OW20242   5.104   5.335   1.679
 6448SOL    HW120243   5.195   5.301   1.657
 6448SOL    HW220244   5.106   5.434   1.692
 6449SOL     OW20245   3.933   6.078   1.624
 6449SOL    HW120246   3.851   6.021   1.635
 6449SOL    HW220247   3.956   6.119   1.712
 6450SOL     OW20248   1.507   3.216   0.811
 6450SOL    HW120249   1.463   3.160   0.740
 6450SOL    HW220250   1.554   3.293   0.768
 6451SOL     OW20251   2.484   0.578   5.413
 6451SOL    HW120252   2.412   0.574   5.344
 6451SOL    HW220253   2.449   0.621   5.496
 6452SOL     OW20254   4.441   4.937   3.054
 6452SOL    HW120255   4.523   4.983   3.087
 6452SOL    HW220256   4.457   4.838   3.053
 6453SOL     OW20257   2.223   0.085   2.022
 6453SOL    HW120258   2.318   0.053   2.027
 6453SOL    HW220259   2.217   0.178   2.059
 6454SOL     OW20260   0.887   2.093   3.078
 6454SOL    HW120261   0.924   2.062   2.991
 6454SOL    HW220262   0.790   2.068   3.084
 6455SOL     OW20263   0.239   3.515   4.190
 6455SOL    HW120264   0.274   3.508   4.096
 6455SOL    HW220265   0.300   3.465   4.252
 6456SOL     OW20266   1.590   1.228   3.289
 6456SOL    HW120267   1.523   1.210   3.362
 6456SOL    HW220268   1.664   1.284   3.326
 6457SOL     OW20269   4.997   0.866   1.937
 6457SOL    HW120270   5.021   0.940   1.875
 6457SOL    HW220271   4.898   0.867   1.953
 6458SOL     OW20272   0.941   5.745   4.035
 6458SOL    HW120273   0.980   5.824   3.988
 6458SOL    HW220274   0.845   5.735   4.009
 6459SOL     OW20275   6.259   3.439   1.503
 6459SOL    HW120276   6.204   3.356   1.511
 6459SOL    HW220277   6.227   3.493   1.426
 6460SOL     OW20278   6.422   5.749   6.539
 6460SOL    HW120279   6.490   5.727   6.469
 6460SOL    HW220280   6.468   5.762   6.627
 6461SOL     OW20281   2.595   4.641   6.844
 6461SOL    HW120282   2.526   4.676   6.909
 6461SOL    HW220283   2.650   4.571   6.889
 6462SOL     OW20284   2.000   3.266   4.567
 6462SOL    HW120285   1.998   3.318   4.481
 6462SOL    HW220286   2.051   3.181   4.553
 6463SOL     OW20287   5.673   1.983   0.644
 6463SOL    HW120288   5.581   2.019   0.631
 6463SOL    HW220289   5.724   1.988   0.558
 6464SOL     OW20290   1.688   4.802   5.024
 6464SOL    HW120291   1.601   4.841   5.054
 6464SOL    HW220292   1.703   4.823   4.927
 6465SOL     OW20293   6.562   3.194   2.601
 6465SOL    HW120294   6.645   3.143   2.580
 6465SOL    HW220295   6.586   3.289   2.624
 6466SOL     OW20296   6.261   1.370   5.735
 6466SOL    HW120297   6.225   1.277   5.721
 6466SOL    HW220298   6.323   1.370   5.813
 6467SOL     OW20299   3.882   0.309   7.015
 6467SOL    HW120300   3.846   0.226   0.034
 6467SOL    HW220301   3.960   0.285   6.958
 6468SOL     OW20302   2.958   6.355   1.403
 6468SOL    HW120303   2.961   6.269   1.351
 6468SOL    HW220304   2.896   6.419   1.358
 6469SOL     OW20305   4.428   2.457   3.882
 6469SOL    HW120306   4.491   2.525   3.921
 6469SOL    HW220307   4.403   2.485   3.789
 6470SOL     OW20308   5.757   2.827   1.074
 6470SOL    HW120309   5.850   2.814   1.108
 6470SOL    HW220310   5.731   2.748   1.019
 6471SOL     OW20311   0.215   6.375   5.905
 6471SOL    HW120312   0.142   6.329   5.853
 6471SOL    HW220313   0.221   6.471   5.877
 6472SOL     OW20314   6.929   5.921   1.646
 6472SOL    HW120315   6.874   5.973   1.581
 6472SOL    HW220316   6.918   5.823   1.629
 6473SOL     OW20317   2.940   1.754   4.615
 6473SOL    HW120318   2.854   1.777   4.662
 6473SOL    HW220319   2.919   1.720   4.523
 6474SOL     OW20320   3.691   5.439   6.637
 6474SOL    HW120321   3.747   5.483   6.566
 6474SOL    HW220322   3.608   5.492   6.651
 6475SOL     OW20323   6.015   4.929   3.676
 6475SOL    HW120324   5.942   4.899   3.738
 6475SOL    HW220325   6.097   4.873   3.692
 6476SOL     OW20326   4.744   3.580   1.009
 6476SOL    HW120327   4.649   3.587   1.041
 6476SOL    HW220328   4.778   3.488   1.026
 6477SOL     OW20329   5.748   4.796   0.280
 6477SOL    HW120330   5.815   4.870   0.290
 6477SOL    HW220331   5.665   4.819   0.331
 6478SOL     OW20332   3.556   0.200   2.064
 6478SOL    HW120333   3.458   0.214   2.050
 6478SOL    HW220334   3.574   0.187   2.161
 6479SOL     OW20335   4.213   5.412   3.840
 6479SOL    HW120336   4.177   5.341   3.899
 6479SOL    HW220337   4.143   5.481   3.823
 6480SOL     OW20338   2.797   0.860   6.966
 6480SOL    HW120339   2.736   0.925   6.921
 6480SOL    HW220340   2.744   0.787   7.008
 6481SOL     OW20341   3.246   2.066   2.337
 6481SOL    HW120342   3.193   2.100   2.258
 6481SOL    HW220343   3.199   1.987   2.376
 6482SOL     OW20344   6.614   1.885   5.647
 6482SOL    HW120345   6.587   1.875   5.743
 6482SOL    HW220346   6.642   1.979   5.630
 6483SOL     OW20347   0.774   0.289   3.416
 6483SOL    HW120348   0.839   0.248   3.480
 6483SOL    HW220349   0.728   0.218   3.363
 6484SOL     OW20350   3.576   0.103   1.474
 6484SOL    HW120351   3.534   0.025   1.521
 6484SOL    HW220352   3.582   0.083   1.376
 6485SOL     OW20353   2.249   5.113   4.011
 6485SOL    HW120354   2.331   5.085   4.060
 6485SOL    HW220355   2.248   5.213   4.000
 6486SOL     OW20356   0.343   4.191   3.105
 6486SOL    HW120357   0.312   4.184   3.010
 6486SOL    HW220358   0.425   4.136   3.118
 6487SOL     OW20359   0.788   6.925   5.111
 6487SOL    HW120360   0.735   6.996   5.157
 6487SOL    HW220361   0.866   6.966   5.065
 6488SOL     OW20362   3.873   6.289   4.687
 6488SOL    HW120363   3.868   6.203   4.738
 6488SOL    HW220364   3.793   6.298   4.629
 6489SOL     OW20365   3.130   3.616   6.136
 6489SOL    HW120366   3.054   3.681   6.141
 6489SOL    HW220367   3.190   3.628   6.214
 6490SOL     OW20368   3.828   1.138   6.615
 6490SOL    HW120369   3.771   1.163   6.537
 6490SOL    HW220370   3.784   1.170   6.699
 6491SOL     OW20371   3.839   1.049   1.397
 6491SOL    HW120372   3.840   1.146   1.424
 6491SOL    HW220373   3.809   0.994   1.475
 6492SOL     OW20374   3.914   4.826   6.041
 6492SOL    HW120375   3.938   4.852   5.947
 6492SOL    HW220376   3.975   4.873   6.105
 6493SOL     OW20377   2.039   4.622   6.371
 6493SOL    HW120378   2.038   4.565   6.289
 6493SOL    HW220379   1.953   4.671   6.378
 6494SOL     OW20380   0.025   0.692   3.466
 6494SOL    HW120381   7.009   0.603   3.442
 6494SOL    HW220382   0.062   0.734   3.383
 6495SOL     OW20383   6.671   0.238   4.660
 6495SOL    HW120384   6.592   0.181   4.684
 6495SOL    HW220385   6.755   0.185   4.668
 6496SOL     OW20386   6.162   1.185   3.118
 6496SOL    HW120387   6.128   1.277   3.095
 6496SOL    HW220388   6.116   1.152   3.200
 6497SOL     OW20389   0.976   1.199   1.275
 6497SOL    HW120390   1.029   1.141   1.213
 6497SOL    HW220391   0.980   1.160   1.367
 6498SOL     OW20392   1.641   3.199   4.085
 6498SOL    HW120393   1.710   3.126   4.077
 6498SOL    HW220394   1.580   3.178   4.161
 6499SOL     OW20395   5.560   3.900   5.602
 6499SOL    HW120396   5.591   3.985   5.561
 6499SOL    HW220397   5.629   3.829   5.589
 6500SOL     OW20398   6.539   3.814   4.947
 6500SOL    HW120399   6.624   3.842   4.901
 6500SOL    HW220400   6.555   3.729   4.997
 6501SOL     OW20401   6.720   0.896   6.465
 6501SOL    HW120402   6.734   0.861   6.373
 6501SOL    HW220403   6.725   0.821   6.531
 6502SOL     OW20404   6.462   2.961   2.694
 6502SOL    HW120405   6.524   2.892   2.657
 6502SOL    HW220406   6.495   3.052   2.669
 6503SOL     OW20407   5.528   1.786   3.554
 6503SOL    HW120408   5.428   1.780   3.547
 6503SOL    HW220409   5.563   1.843   3.480
 6504SOL     OW20410   4.451   6.296   5.271
 6504SOL    HW120411   4.370   6.252   5.231
 6504SOL    HW220412   4.529   6.282   5.210
 6505SOL     OW20413   5.583   5.852   6.608
 6505SOL    HW120414   5.626   5.874   6.696
 6505SOL    HW220415   5.547   5.758   6.611
 6506SOL     OW20416   6.873   2.430   2.969
 6506SOL    HW120417   6.892   2.521   3.006
 6506SOL    HW220418   6.955   2.373   2.975
 6507SOL     OW20419   1.637   5.462   6.505
 6507SOL    HW120420   1.539   5.470   6.521
 6507SOL    HW220421   1.672   5.547   6.466
 6508SOL     OW20422   1.637   1.151   2.615
 6508SOL    HW120423   1.668   1.155   2.520
 6508SOL    HW220424   1.592   1.238   2.638
 6509SOL     OW20425   4.332   2.005   4.630
 6509SOL    HW120426   4.407   1.943   4.653
 6509SOL    HW220427   4.369   2.090   4.593
 6510SOL     OW20428   6.972   5.200   0.129
 6510SOL    HW120429   7.002   5.294   0.144
 6510SOL    HW220430   6.916   5.169   0.206
 6511SOL     OW20431   3.945   0.755   4.720
 6511SOL    HW120432   3.910   0.670   4.759
 6511SOL    HW220433   4.029   0.782   4.767
 6512SOL     OW20434   3.920   6.522   2.084
 6512SOL    HW120435   3.961   6.431   2.090
 6512SOL    HW220436   3.987   6.591   2.112
 6513SOL     OW20437   2.707   4.990   3.213
 6513SOL    HW120438   2.800   4.972   3.243
 6513SOL    HW220439   2.671   5.070   3.262
 6514SOL     OW20440   6.022   1.465   4.063
 6514SOL    HW120441   5.957   1.389   4.053
 6514SOL    HW220442   6.056   1.491   3.973
 6515SOL     OW20443   0.832   4.777   3.772
 6515SOL    HW120444   0.823   4.695   3.715
 6515SOL    HW220445   0.929   4.794   3.791
 6516SOL     OW20446   0.196   3.476   1.685
 6516SOL    HW120447   0.169   3.564   1.725
 6516SOL    HW220448   0.125   3.408   1.705
 6517SOL     OW20449   6.899   1.371   1.626
 6517SOL    HW120450   6.849   1.373   1.713
 6517SOL    HW220451   6.913   1.464   1.593
 6518SOL     OW20452   0.002   0.642   0.052
 6518SOL    HW120453   6.953   0.642   0.120
 6518SOL    HW220454   0.089   0.623   0.097
 6519SOL     OW20455   0.753   2.355   3.077
 6519SOL    HW120456   0.815   2.424   3.115
 6519SOL    HW220457   0.804   2.271   3.059
 6520SOL     OW20458   6.275   5.232   1.427
 6520SOL    HW120459   6.246   5.143   1.462
 6520SOL    HW220460   6.363   5.223   1.382
 6521SOL     OW20461   2.148   2.603   4.542
 6521SOL    HW120462   2.228   2.659   4.561
 6521SOL    HW220463   2.143   2.584   4.444
 6522SOL     OW20464   3.082   4.948   5.517
 6522SOL    HW120465   3.130   4.864   5.492
 6522SOL    HW220466   3.005   4.963   5.456
 6523SOL     OW20467   3.434   1.445   6.937
 6523SOL    HW120468   3.492   1.520   6.967
 6523SOL    HW220469   3.380   1.473   6.858
 6524SOL     OW20470   3.037   3.487   1.694
 6524SOL    HW120471   3.093   3.433   1.757
 6524SOL    HW220472   3.088   3.504   1.610
 6525SOL     OW20473   2.311   5.271   3.073
 6525SOL    HW120474   2.294   5.364   3.106
 6525SOL    HW220475   2.250   5.207   3.119
 6526SOL     OW20476   2.459   0.722   0.487
 6526SOL    HW120477   2.494   0.800   0.539
 6526SOL    HW220478   2.434   0.648   0.550
 6527SOL     OW20479   0.406   1.480   5.373
 6527SOL    HW120480   0.318   1.484   5.324
 6527SOL    HW220481   0.402   1.539   5.454
 6528SOL     OW20482   6.175   1.050   4.799
 6528SOL    HW120483   6.137   1.140   4.819
 6528SOL    HW220484   6.103   0.991   4.761
 6529SOL     OW20485   2.054   0.935   2.984
 6529SOL    HW120486   1.976   0.886   2.944
 6529SOL    HW220487   2.138   0.886   2.963
 6530SOL     OW20488   0.104   2.396   0.208
 6530SOL    HW120489   0.019   2.448   0.198
 6530SOL    HW220490   0.119   2.375   0.305
 6531SOL     OW20491   4.896   3.250   5.462
 6531SOL    HW120492   4.957   3.314   5.416
 6531SOL    HW220493   4.915   3.157   5.431
 6532SOL     OW20494   7.016   1.235   0.967
 6532SOL    HW120495   6.941   1.201   1.024
 6532SOL    HW220496   0.079   1.209   1.008
 6533SOL     OW20497   4.767   0.043   0.907
 6533SOL    HW120498   4.671   0.069   0.894
 6533SOL    HW220499   4.772   6.992   0.973
 6534SOL     OW20500   4.363   4.396   1.464
 6534SOL    HW120501   4.348   4.474   1.403
 6534SOL    HW220502   4.366   4.312   1.410
 6535SOL     OW20503   6.423   4.607   3.710
 6535SOL    HW120504   6.471   4.566   3.787
 6535SOL    HW220505   6.452   4.563   3.625
 6536SOL     OW20506   0.626   1.303   5.585
 6536SOL    HW120507   0.571   1.271   5.508
 6536SOL    HW220508   0.712   1.252   5.588
 6537SOL     OW20509   0.010   5.113   6.444
 6537SOL    HW120510   6.983   5.178   6.500
 6537SOL    HW220511   6.993   5.106   6.354
 6538SOL     OW20512   2.694   3.538   6.234
 6538SOL    HW120513   2.651   3.615   6.187
 6538SOL    HW220514   2.760   3.495   6.173
 6539SOL     OW20515   5.152   0.903   6.738
 6539SOL    HW120516   5.077   0.888   6.674
 6539SOL    HW220517   5.116   0.949   6.820
 6540SOL     OW20518   4.673   1.852   5.901
 6540SOL    HW120519   4.748   1.786   5.891
 6540SOL    HW220520   4.654   1.894   5.812
 6541SOL     OW20521   4.764   1.619   5.026
 6541SOL    HW120522   4.708   1.537   5.019
 6541SOL    HW220523   4.707   1.700   5.013
 6542SOL     OW20524   6.339   2.925   4.268
 6542SOL    HW120525   6.276   2.996   4.301
 6542SOL    HW220526   6.399   2.896   4.343
 6543SOL     OW20527   4.850   2.997   6.074
 6543SOL    HW120528   4.812   2.911   6.109
 6543SOL    HW220529   4.942   3.010   6.109
 6544SOL     OW20530   0.860   6.547   2.941
 6544SOL    HW120531   0.908   6.619   2.991
 6544SOL    HW220532   0.889   6.547   2.846
 6545SOL     OW20533   3.899   0.679   0.988
 6545SOL    HW120534   3.997   0.700   0.990
 6545SOL    HW220535   3.886   0.581   0.976
 6546SOL     OW20536   3.006   4.235   0.245
 6546SOL    HW120537   3.056   4.215   0.160
 6546SOL    HW220538   3.052   4.190   0.322
 6547SOL     OW20539   4.795   1.176   6.175
 6547SOL    HW120540   4.787   1.128   6.087
 6547SOL    HW220541   4.735   1.256   6.174
 6548SOL     OW20542   0.231   4.020   0.967
 6548SOL    HW120543   0.265   3.973   1.049
 6548SOL    HW220544   0.289   4.099   0.947
 6549SOL     OW20545   4.116   0.522   1.839
 6549SOL    HW120546   4.087   0.548   1.747
 6549SOL    HW220547   4.078   0.586   1.906
 6550SOL     OW20548   0.224   0.101   3.356
 6550SOL    HW120549   0.175   0.042   3.292
 6550SOL    HW220550   0.287   0.160   3.306
 6551SOL     OW20551   1.840   4.798   2.069
 6551SOL    HW120552   1.852   4.716   2.125
 6551SOL    HW220553   1.810   4.874   2.128
 6552SOL     OW20554   1.735   6.925   0.406
 6552SOL    HW120555   1.781   6.997   0.352
 6552SOL    HW220556   1.798   6.890   0.475
 6553SOL     OW20557   6.982   2.527   3.326
 6553SOL    HW120558   6.986   2.431   3.298
 6553SOL    HW220559   6.911   2.538   3.396
 6554SOL     OW20560   0.672   0.360   4.938
 6554SOL    HW120561   0.639   0.283   4.884
 6554SOL    HW220562   0.735   0.415   4.883
 6555SOL     OW20563   5.825   1.330   3.354
 6555SOL    HW120564   5.845   1.263   3.282
 6555SOL    HW220565   5.736   1.310   3.394
 6556SOL     OW20566   5.122   4.298   4.100
 6556SOL    HW120567   5.065   4.342   4.030
 6556SOL    HW220568   5.062   4.256   4.169
 6557SOL     OW20569   3.415   0.019   2.642
 6557SOL    HW120570   3.495   7.015   2.694
 6557SOL    HW220571   3.359   6.963   2.620
 6558SOL     OW20572   0.116   5.324   0.353
 6558SOL    HW120573   0.108   5.227   0.331
 6558SOL    HW220574   0.189   5.337   0.420
 6559SOL     OW20575   0.536   3.860   0.156
 6559SOL    HW120576   0.593   3.880   0.236
 6559SOL    HW220577   0.480   3.779   0.174
 6560SOL     OW20578   4.519   4.989   1.432
 6560SOL    HW120579   4.523   5.088   1.427
 6560SOL    HW220580   4.599   4.954   1.479
 6561SOL     OW20581   3.136   3.811   1.547
 6561SOL    HW120582   3.053   3.771   1.508
 6561SOL    HW220583   3.205   3.739   1.559
 6562SOL     OW20584   6.187   3.258   0.407
 6562SOL    HW120585   6.233   3.175   0.375
 6562SOL    HW220586   6.162   3.246   0.503
 6563SOL     OW20587   5.291   5.623   6.408
 6563SOL    HW120588   5.355   5.608   6.483
 6563SOL    HW220589   5.214   5.560   6.416
 6564SOL     OW20590   6.783   3.871   3.289
 6564SOL    HW120591   6.752   3.828   3.374
 6564SOL    HW220592   6.781   3.970   3.299
 6565SOL     OW20593   5.453   1.934   2.866
 6565SOL    HW120594   5.526   1.883   2.821
 6565SOL    HW220595   5.492   2.011   2.916
 6566SOL     OW20596   4.064   6.263   2.068
 6566SOL    HW120597   4.132   6.303   2.007
 6566SOL    HW220598   4.107   6.241   2.156
 6567SOL     OW20599   4.632   1.034   2.853
 6567SOL    HW120600   4.586   1.039   2.942
 6567SOL    HW220601   4.639   0.938   2.825
 6568SOL     OW20602   2.768   0.961   3.737
 6568SOL    HW120603   2.855   1.008   3.745
 6568SOL    HW220604   2.735   0.968   3.643
 6569SOL     OW20605   2.885   3.491   0.555
 6569SOL    HW120606   2.894   3.404   0.506
 6569SOL    HW220607   2.804   3.490   0.612
 6570SOL     OW20608   3.487   0.940   2.306
 6570SOL    HW120609   3.445   0.999   2.237
 6570SOL    HW220610   3.446   0.848   2.301
 6571SOL     OW20611   3.163   5.278   1.741
 6571SOL    HW120612   3.122   5.350   1.685
 6571SOL    HW220613   3.121   5.190   1.717
 6572SOL     OW20614   0.083   5.021   4.955
 6572SOL    HW120615   0.129   4.989   4.872
 6572SOL    HW220616   0.133   5.099   4.993
 6573SOL     OW20617   1.196   1.873   2.301
 6573SOL    HW120618   1.196   1.973   2.297
 6573SOL    HW220619   1.170   1.844   2.393
 6574SOL     OW20620   2.510   5.295   2.103
 6574SOL    HW120621   2.596   5.296   2.154
 6574SOL    HW220622   2.433   5.296   2.167
 6575SOL     OW20623   0.660   0.117   3.242
 6575SOL    HW120624   0.601   0.138   3.163
 6575SOL    HW220625   0.679   0.019   3.244
 6576SOL     OW20626   2.017   6.341   6.940
 6576SOL    HW120627   1.995   6.299   6.852
 6576SOL    HW220628   1.991   6.437   6.938
 6577SOL     OW20629   0.877   1.933   4.569
 6577SOL    HW120630   0.898   1.847   4.522
 6577SOL    HW220631   0.912   1.929   4.663
 6578SOL     OW20632   0.699   5.862   3.291
 6578SOL    HW120633   0.616   5.844   3.238
 6578SOL    HW220634   0.674   5.904   3.378
 6579SOL     OW20635   6.999   3.453   4.235
 6579SOL    HW120636   0.069   3.477   4.213
 6579SOL    HW220637   6.937   3.519   4.194
 6580SOL     OW20638   0.814   2.188   1.058
 6580SOL    HW120639   0.883   2.257   1.039
 6580SOL    HW220640   0.781   2.199   1.152
 6581SOL     OW20641   2.984   0.804   0.430
 6581SOL    HW120642   2.954   0.735   0.364
 6581SOL    HW220643   2.912   0.874   0.440
 6582SOL     OW20644   0.405   1.516   3.608
 6582SOL    HW120645   0.306   1.508   3.621
 6582SOL    HW220646   0.439   1.432   3.565
 6583SOL     OW20647   4.444   0.174   5.705
 6583SOL    HW120648   4.537   0.140   5.713
 6583SOL    HW220649   4.386   0.130   5.773
 6584SOL     OW20650   4.719   2.648   1.049
 6584SOL    HW120651   4.761   2.735   1.023
 6584SOL    HW220652   4.780   2.597   1.109
 6585SOL     OW20653   6.647   6.176   0.106
 6585SOL    HW120654   6.712   6.178   0.030
 6585SOL    HW220655   6.578   6.247   0.093
 6586SOL     OW20656   5.531   0.509   5.146
 6586SOL    HW120657   5.620   0.553   5.158
 6586SOL    HW220658   5.529   0.463   5.057
 6587SOL     OW20659   1.751   5.583   5.284
 6587SOL    HW120660   1.846   5.588   5.314
 6587SOL    HW220661   1.692   5.632   5.349
 6588SOL     OW20662   0.757   3.182   1.947
 6588SOL    HW120663   0.781   3.246   1.875
 6588SOL    HW220664   0.748   3.231   2.034
 6589SOL     OW20665   5.117   1.043   0.643
 6589SOL    HW120666   5.083   0.969   0.585
 6589SOL    HW220667   5.085   1.028   0.737
 6590SOL     OW20668   0.210   1.435   5.922
 6590SOL    HW120669   0.174   1.501   5.856
 6590SOL    HW220670   0.310   1.434   5.916
 6591SOL     OW20671   6.170   5.252   2.460
 6591SOL    HW120672   6.260   5.270   2.499
 6591SOL    HW220673   6.114   5.335   2.467
 6592SOL     OW20674   5.467   6.907   3.242
 6592SOL    HW120675   5.547   6.951   3.283
 6592SOL    HW220676   5.489   6.877   3.150
 6593SOL     OW20677   1.853   2.384   2.976
 6593SOL    HW120678   1.828   2.300   2.928
 6593SOL    HW220679   1.779   2.411   3.037
 6594SOL     OW20680   3.558   1.698   7.019
 6594SOL    HW120681   3.621   1.743   6.956
 6594SOL    HW220682   3.468   1.741   7.013
 6595SOL     OW20683   1.193   4.331   6.856
 6595SOL    HW120684   1.131   4.389   6.803
 6595SOL    HW220685   1.154   4.240   6.866
 6596SOL     OW20686   3.331   6.464   4.536
 6596SOL    HW120687   3.283   6.551   4.545
 6596SOL    HW220688   3.321   6.411   4.621
 6597SOL     OW20689   1.248   5.595   1.650
 6597SOL    HW120690   1.343   5.620   1.663
 6597SOL    HW220691   1.235   5.557   1.558
 6598SOL     OW20692   1.333   5.731   4.471
 6598SOL    HW120693   1.346   5.650   4.413
 6598SOL    HW220694   1.370   5.811   4.425
 6599SOL     OW20695   4.482   6.267   6.254
 6599SOL    HW120696   4.413   6.329   6.291
 6599SOL    HW220697   4.439   6.179   6.233
 6600SOL     OW20698   4.355   5.465   5.481
 6600SOL    HW120699   4.300   5.383   5.470
 6600SOL    HW220700   4.341   5.525   5.402
 6601SOL     OW20701   1.769   2.067   4.920
 6601SOL    HW120702   1.688   2.028   4.965
 6601SOL    HW220703   1.852   2.031   4.963
 6602SOL     OW20704   1.453   0.987   2.298
 6602SOL    HW120705   1.425   0.981   2.202
 6602SOL    HW220706   1.475   1.082   2.320
 6603SOL     OW20707   0.069   2.642   3.567
 6603SOL    HW120708   0.063   2.612   3.472
 6603SOL    HW220709   0.071   2.562   3.627
 6604SOL     OW20710   1.422   0.513   0.635
 6604SOL    HW120711   1.496   0.452   0.605
 6604SOL    HW220712   1.394   0.488   0.728
 6605SOL     OW20713   5.237   4.974   1.594
 6605SOL    HW120714   5.292   5.029   1.657
 6605SOL    HW220715   5.233   5.021   1.505
 6606SOL     OW20716   0.615   5.632   2.296
 6606SOL    HW120717   0.518   5.634   2.272
 6606SOL    HW220718   0.640   5.540   2.326
 6607SOL     OW20719   1.994   3.755   2.397
 6607SOL    HW120720   2.019   3.660   2.416
 6607SOL    HW220721   2.076   3.806   2.369
 6608SOL     OW20722   6.241   6.180   0.971
 6608SOL    HW120723   6.309   6.205   0.903
 6608SOL    HW220724   6.201   6.091   0.948
 6609SOL     OW20725   4.990   0.914   6.220
 6609SOL    HW120726   5.082   0.933   6.255
 6609SOL    HW220727   4.987   0.934   6.122
 6610SOL     OW20728   2.260   6.371   6.731
 6610SOL    HW120729   2.305   6.282   6.721
 6610SOL    HW220730   2.311   6.441   6.681
 6611SOL     OW20731   4.674   2.629   3.921
 6611SOL    HW120732   4.683   2.674   3.832
 6611SOL    HW220733   4.721   2.541   3.919
 6612SOL     OW20734   6.098   2.082   5.948
 6612SOL    HW120735   6.193   2.077   5.979
 6612SOL    HW220736   6.069   1.992   5.915
 6613SOL     OW20737   6.242   6.373   4.808
 6613SOL    HW120738   6.302   6.425   4.868
 6613SOL    HW220739   6.149   6.372   4.847
 6614SOL     OW20740   4.379   5.504   0.339
 6614SOL    HW120741   4.468   5.501   0.385
 6614SOL    HW220742   4.393   5.496   0.240
 6615SOL     OW20743   1.804   5.798   1.491
 6615SOL    HW120744   1.748   5.815   1.572
 6615SOL    HW220745   1.849   5.884   1.464
 6616SOL     OW20746   5.277   0.760   6.183
 6616SOL    HW120747   5.327   0.815   6.116
 6616SOL    HW220748   5.239   0.679   6.137
 6617SOL     OW20749   4.695   5.191   4.023
 6617SOL    HW120750   4.641   5.168   3.942
 6617SOL    HW220751   4.749   5.111   4.050
 6618SOL     OW20752   1.366   2.573   2.008
 6618SOL    HW120753   1.382   2.628   1.926
 6618SOL    HW220754   1.448   2.574   2.065
 6619SOL     OW20755   5.732   0.544   4.182
 6619SOL    HW120756   5.777   0.583   4.262
 6619SOL    HW220757   5.671   0.470   4.211
 6620SOL     OW20758   1.900   2.648   5.779
 6620SOL    HW120759   1.917   2.560   5.824
 6620SOL    HW220760   1.984   2.682   5.738
 6621SOL     OW20761   3.458   3.224   5.738
 6621SOL    HW120762   3.486   3.161   5.810
 6621SOL    HW220763   3.425   3.309   5.780
 6622SOL     OW20764   6.015   6.338   1.780
 6622SOL    HW120765   6.017   6.366   1.684
 6622SOL    HW220766   6.094   6.280   1.800
 6623SOL     OW20767   3.554   2.941   4.820
 6623SOL    HW120768   3.492   2.891   4.880
 6623SOL    HW220769   3.648   2.916   4.840
 6624SOL     OW20770   0.333   4.662   5.959
 6624SOL    HW120771   0.393   4.738   5.986
 6624SOL    HW220772   0.368   4.577   5.998
 6625SOL     OW20773   5.176   1.331   5.127
 6625SOL    HW120774   5.223   1.258   5.176
 6625SOL    HW220775   5.242   1.382   5.072
 6626SOL     OW20776   4.092   5.352   5.060
 6626SOL    HW120777   4.064   5.424   5.124
 6626SOL    HW220778   4.190   5.334   5.072
 6627SOL     OW20779   2.069   6.588   5.178
 6627SOL    HW120780   2.118   6.521   5.234
 6627SOL    HW220781   1.975   6.556   5.163
 6628SOL     OW20782   5.249   4.949   4.539
 6628SOL    HW120783   5.329   4.940   4.598
 6628SOL    HW220784   5.216   5.044   4.542
 6629SOL     OW20785   4.654   5.996   6.756
 6629SOL    HW120786   4.673   6.055   6.834
 6629SOL    HW220787   4.735   5.939   6.737
 6630SOL     OW20788   3.869   1.725   1.116
 6630SOL    HW120789   3.819   1.736   1.202
 6630SOL    HW220790   3.952   1.672   1.133
 6631SOL     OW20791   2.382   5.263   3.500
 6631SOL    HW120792   2.355   5.355   3.472
 6631SOL    HW220793   2.389   5.259   3.600
 6632SOL     OW20794   0.061   0.295   1.058
 6632SOL    HW120795   7.022   0.321   1.132
 6632SOL    HW220796   0.036   0.204   1.024
 6633SOL     OW20797   1.456   4.368   6.788
 6633SOL    HW120798   1.357   4.362   6.800
 6633SOL    HW220799   1.501   4.304   6.850
 6634SOL     OW20800   5.279   2.395   5.101
 6634SOL    HW120801   5.215   2.369   5.173
 6634SOL    HW220802   5.338   2.469   5.134
 6635SOL     OW20803   4.806   4.790   3.053
 6635SOL    HW120804   4.747   4.826   3.126
 6635SOL    HW220805   4.780   4.832   2.966
 6636SOL     OW20806   4.474   1.701   5.973
 6636SOL    HW120807   4.501   1.663   6.061
 6636SOL    HW220808   4.547   1.758   5.937
 6637SOL     OW20809   1.049   6.807   6.756
 6637SOL    HW120810   1.133   6.801   6.810
 6637SOL    HW220811   1.012   6.900   6.761
 6638SOL     OW20812   2.917   3.811   3.167
 6638SOL    HW120813   2.841   3.872   3.193
 6638SOL    HW220814   2.912   3.793   3.069
 6639SOL     OW20815   5.294   4.934   6.469
 6639SOL    HW120816   5.202   4.910   6.500
 6639SOL    HW220817   5.322   4.872   6.396
 6640SOL     OW20818   0.851   1.820   5.097
 6640SOL    HW120819   0.768   1.872   5.118
 6640SOL    HW220820   0.916   1.829   5.171
 6641SOL     OW20821   2.736   1.330   5.986
 6641SOL    HW120822   2.768   1.242   5.952
 6641SOL    HW220823   2.765   1.402   5.923
 6642SOL     OW20824   2.028   5.694   6.610
 6642SOL    HW120825   1.933   5.725   6.613
 6642SOL    HW220826   2.061   5.677   6.703
 6643SOL     OW20827   6.174   5.297   0.476
 6643SOL    HW120828   6.265   5.334   0.494
 6643SOL    HW220829   6.113   5.319   0.552
 6644SOL     OW20830   2.591   5.698   1.212
 6644SOL    HW120831   2.507   5.645   1.208
 6644SOL    HW220832   2.648   5.676   1.133
 6645SOL     OW20833   6.046   4.569   0.402
 6645SOL    HW120834   6.034   4.655   0.351
 6645SOL    HW220835   6.143   4.547   0.407
 6646SOL     OW20836   3.567   0.392   4.717
 6646SOL    HW120837   3.561   0.468   4.783
 6646SOL    HW220838   3.576   0.306   4.767
 6647SOL     OW20839   5.041   1.026   0.908
 6647SOL    HW120840   5.076   0.945   0.954
 6647SOL    HW220841   4.978   1.075   0.969
 6648SOL     OW20842   3.650   6.299   3.749
 6648SOL    HW120843   3.606   6.380   3.789
 6648SOL    HW220844   3.640   6.221   3.812
 6649SOL     OW20845   5.469   1.322   6.744
 6649SOL    HW120846   5.379   1.336   6.786
 6649SOL    HW220847   5.457   1.298   6.648
 6650SOL     OW20848   3.578   1.352   5.867
 6650SOL    HW120849   3.602   1.328   5.773
 6650SOL    HW220850   3.656   1.335   5.927
 6651SOL     OW20851   2.741   1.092   5.813
 6651SOL    HW120852   2.718   0.997   5.831
 6651SOL    HW220853   2.760   1.104   5.716
 6652SOL     OW20854   0.697   4.235   0.739
 6652SOL    HW120855   0.663   4.221   0.832
 6652SOL    HW220856   0.658   4.320   0.702
 6653SOL     OW20857   3.755   3.700   1.879
 6653SOL    HW120858   3.851   3.672   1.877
 6653SOL    HW220859   3.744   3.785   1.828
 6654SOL     OW20860   1.234   4.949   1.344
 6654SOL    HW120861   1.188   4.983   1.263
 6654SOL    HW220862   1.300   5.016   1.376
 6655SOL     OW20863   1.114   0.514   3.941
 6655SOL    HW120864   1.033   0.556   3.901
 6655SOL    HW220865   1.167   0.468   3.870
 6656SOL     OW20866   4.992   2.189   3.895
 6656SOL    HW120867   4.989   2.089   3.904
 6656SOL    HW220868   5.074   2.216   3.844
 6657SOL     OW20869   6.296   4.769   6.623
 6657SOL    HW120870   6.299   4.670   6.619
 6657SOL    HW220871   6.373   4.802   6.679
 6658SOL     OW20872   6.578   0.864   4.598
 6658SOL    HW120873   6.550   0.840   4.690
 6658SOL    HW220874   6.670   0.829   4.581
 6659SOL     OW20875   1.938   3.454   0.285
 6659SOL    HW120876   1.930   3.464   0.384
 6659SOL    HW220877   1.856   3.409   0.249
 6660SOL     OW20878   1.185   5.519   1.386
 6660SOL    HW120879   1.197   5.422   1.408
 6660SOL    HW220880   1.209   5.535   1.290
 6661SOL     OW20881   1.184   6.674   4.984
 6661SOL    HW120882   1.203   6.768   5.012
 6661SOL    HW220883   1.174   6.616   5.065
 6662SOL     OW20884   1.343   0.081   0.109
 6662SOL    HW120885   1.384   0.121   0.028
 6662SOL    HW220886   1.415   0.060   0.176
 6663SOL     OW20887   6.116   5.419   4.257
 6663SOL    HW120888   6.200   5.411   4.204
 6663SOL    HW220889   6.123   5.496   4.320
 6664SOL     OW20890   2.394   6.970   0.759
 6664SOL    HW120891   2.438   6.978   0.848
 6664SOL    HW220892   2.460   6.935   0.692
 6665SOL     OW20893   1.999   5.706   4.398
 6665SOL    HW120894   2.033   5.671   4.486
 6665SOL    HW220895   1.952   5.633   4.349
 6666SOL     OW20896   6.554   6.765   5.789
 6666SOL    HW120897   6.561   6.825   5.869
 6666SOL    HW220898   6.458   6.759   5.761
 6667SOL     OW20899   6.957   6.349   6.543
 6667SOL    HW120900   7.001   6.302   6.619
 6667SOL    HW220901   6.864   6.313   6.530
 6668SOL     OW20902   6.678   5.179   0.473
 6668SOL    HW120903   6.619   5.114   0.521
 6668SOL    HW220904   6.729   5.131   0.401
 6669SOL     OW20905   1.595   2.434   3.093
 6669SOL    HW120906   1.546   2.363   3.145
 6669SOL    HW220907   1.585   2.522   3.140
 6670SOL     OW20908   3.793   0.959   5.422
 6670SOL    HW120909   3.797   0.913   5.510
 6670SOL    HW220910   3.697   0.967   5.393
 6671SOL     OW20911   5.055   6.584   0.704
 6671SOL    HW120912   4.966   6.626   0.683
 6671SOL    HW220913   5.041   6.494   0.746
 6672SOL     OW20914   6.550   2.761   6.934
 6672SOL    HW120915   6.611   2.730   6.861
 6672SOL    HW220916   6.456   2.763   6.901
 6673SOL     OW20917   5.072   4.514   4.370
 6673SOL    HW120918   5.139   4.458   4.419
 6673SOL    HW220919   5.064   4.603   4.415
 6674SOL     OW20920   0.581   3.818   6.468
 6674SOL    HW120921   0.541   3.787   6.554
 6674SOL    HW220922   0.510   3.823   6.398
 6675SOL     OW20923   5.337   3.621   0.824
 6675SOL    HW120924   5.379   3.684   0.759
 6675SOL    HW220925   5.273   3.561   0.777
 6676SOL     OW20926   0.929   4.311   5.869
 6676SOL    HW120927   0.832   4.287   5.856
 6676SOL    HW220928   0.960   4.367   5.792
 6677SOL     OW20929   1.434   1.810   6.132
 6677SOL    HW120930   1.371   1.887   6.144
 6677SOL    HW220931   1.526   1.839   6.156
 6678SOL     OW20932   3.323   3.357   6.316
 6678SOL    HW120933   3.265   3.312   6.384
 6678SOL    HW220934   3.382   3.289   6.272
 6679SOL     OW20935   3.391   1.257   3.772
 6679SOL    HW120936   3.369   1.298   3.861
 6679SOL    HW220937   3.483   1.220   3.775
 6680SOL     OW20938   5.332   6.983   6.776
 6680SOL    HW120939   5.372   7.017   6.691
 6680SOL    HW220940   5.404   6.972   6.844
 6681SOL     OW20941   3.751   5.889   1.687
 6681SOL    HW120942   3.745   5.867   1.784
 6681SOL    HW220943   3.663   5.924   1.655
 6682SOL     OW20944   1.035   4.318   2.291
 6682SOL    HW120945   1.064   4.412   2.277
 6682SOL    HW220946   1.001   4.280   2.205
 6683SOL     OW20947   5.918   3.608   5.211
 6683SOL    HW120948   5.925   3.590   5.113
 6683SOL    HW220949   5.883   3.700   5.226
 6684SOL     OW20950   3.014   0.136   1.234
 6684SOL    HW120951   2.995   0.221   1.283
 6684SOL    HW220952   2.930   0.083   1.224
 6685SOL     OW20953   6.347   2.863   5.414
 6685SOL    HW120954   6.348   2.781   5.472
 6685SOL    HW220955   6.357   2.944   5.471
 6686SOL     OW20956   4.995   6.264   4.409
 6686SOL    HW120957   5.084   6.277   4.367
 6686SOL    HW220958   4.976   6.340   4.471
 6687SOL     OW20959   1.040   3.344   0.899
 6687SOL    HW120960   1.134   3.319   0.925
 6687SOL    HW220961   1.000   3.398   0.973
 6688SOL     OW20962   5.966   4.671   2.568
 6688SOL    HW120963   5.933   4.765   2.569
 6688SOL    HW220964   6.004   4.647   2.657
 6689SOL     OW20965   4.200   3.070   6.872
 6689SOL    HW120966   4.261   3.022   6.935
 6689SOL    HW220967   4.107   3.038   6.885
 6690SOL     OW20968   1.023   0.877   0.720
 6690SOL    HW120969   1.106   0.828   0.748
 6690SOL    HW220970   1.038   0.975   0.729
 6691SOL     OW20971   2.492   6.206   2.198
 6691SOL    HW120972   2.431   6.193   2.120
 6691SOL    HW220973   2.544   6.291   2.185
 6692SOL     OW20974   3.290   2.927   4.545
 6692SOL    HW120975   3.389   2.911   4.548
 6692SOL    HW220976   3.250   2.909   4.635
 6693SOL     OW20977   4.153   3.345   5.614
 6693SOL    HW120978   4.116   3.377   5.526
 6693SOL    HW220979   4.253   3.341   5.609
 6694SOL     OW20980   3.883   5.746   1.237
 6694SOL    HW120981   3.836   5.729   1.323
 6694SOL    HW220982   3.828   5.711   1.161
 6695SOL     OW20983   3.050   1.913   0.090
 6695SOL    HW120984   3.028   1.828   0.138
 6695SOL    HW220985   3.077   1.983   0.156
 6696SOL     OW20986   3.088   2.908   5.548
 6696SOL    HW120987   3.105   3.003   5.572
 6696SOL    HW220988   3.045   2.904   5.457
 6697SOL     OW20989   4.985   1.966   3.044
 6697SOL    HW120990   4.996   1.918   3.131
 6697SOL    HW220991   4.996   1.902   2.969
 6698SOL     OW20992   2.824   2.330   1.098
 6698SOL    HW120993   2.919   2.305   1.120
 6698SOL    HW220994   2.807   2.312   1.001
 6699SOL     OW20995   2.462   5.772   5.078
 6699SOL    HW120996   2.396   5.732   5.014
 6699SOL    HW220997   2.416   5.791   5.165
 6700SOL     OW20998   1.020   0.035   1.496
 6700SOL    HW120999   0.977   0.097   1.430
 6700SOL    HW221000   0.972   0.042   1.583
 6701SOL     OW21001   5.755   4.552   2.388
 6701SOL    HW121002   5.831   4.595   2.438
 6701SOL    HW221003   5.780   4.460   2.361
 6702SOL     OW21004   3.245   2.342   1.639
 6702SOL    HW121005   3.171   2.279   1.662
 6702SOL    HW221006   3.280   2.321   1.548
 6703SOL     OW21007   6.483   1.867   0.231
 6703SOL    HW121008   6.537   1.785   0.250
 6703SOL    HW221009   6.502   1.936   0.301
 6704SOL     OW21010   3.573   1.473   3.353
 6704SOL    HW121011   3.646   1.478   3.284
 6704SOL    HW221012   3.573   1.383   3.395
 6705SOL     OW21013   6.558   3.554   1.677
 6705SOL    HW121014   6.557   3.457   1.654
 6705SOL    HW221015   6.613   3.569   1.759
 6706SOL     OW21016   1.789   4.729   2.394
 6706SOL    HW121017   1.818   4.664   2.324
 6706SOL    HW221018   1.868   4.781   2.426
 6707SOL     OW21019   6.579   6.423   3.519
 6707SOL    HW121020   6.647   6.378   3.578
 6707SOL    HW221021   6.578   6.377   3.430
 6708SOL     OW21022   6.763   4.866   1.222
 6708SOL    HW121023   6.839   4.912   1.268
 6708SOL    HW221024   6.676   4.903   1.256
 6709SOL     OW21025   2.720   6.423   2.958
 6709SOL    HW121026   2.654   6.493   2.985
 6709SOL    HW221027   2.709   6.402   2.861
 6710SOL     OW21028   3.590   0.477   6.438
 6710SOL    HW121029   3.599   0.517   6.346
 6710SOL    HW221030   3.538   0.539   6.496
 6711SOL     OW21031   4.721   5.697   5.834
 6711SOL    HW121032   4.663   5.625   5.872
 6711SOL    HW221033   4.691   5.718   5.741
 6712SOL     OW21034   5.034   4.088   0.545
 6712SOL    HW121035   5.124   4.119   0.576
 6712SOL    HW221036   5.011   4.001   0.590
 6713SOL     OW21037   2.147   0.282   2.670
 6713SOL    HW121038   2.142   0.375   2.634
 6713SOL    HW221039   2.162   0.285   2.769
 6714SOL     OW21040   6.538   0.605   5.741
 6714SOL    HW121041   6.597   0.528   5.763
 6714SOL    HW221042   6.593   0.689   5.737
 6715SOL     OW21043   0.472   0.332   0.061
 6715SOL    HW121044   0.451   0.392   7.008
 6715SOL    HW221045   0.387   0.309   0.109
 6716SOL     OW21046   0.399   5.723   1.928
 6716SOL    HW121047   0.308   5.732   1.888
 6716SOL    HW221048   0.418   5.800   1.989
 6717SOL     OW21049   3.831   2.901   6.368
 6717SOL    HW121050   3.913   2.934   6.323
 6717SOL    HW221051   3.753   2.958   6.343
 6718SOL     OW21052   5.686   0.468   0.535
 6718SOL    HW121053   5.641   0.534   0.475
 6718SOL    HW221054   5.726   0.394   0.480
 6719SOL     OW21055   2.449   6.839   6.408
 6719SOL    HW121056   2.467   6.803   6.499
 6719SOL    HW221057   2.526   6.819   6.348
 6720SOL     OW21058   1.151   0.171   4.139
 6720SOL    HW121059   1.228   0.226   4.171
 6720SOL    HW221060   1.167   0.075   4.162
 6721SOL     OW21061   6.852   0.433   0.346
 6721SOL    HW121062   6.917   0.469   0.413
 6721SOL    HW221063   6.816   0.508   0.291
 6722SOL     OW21064   6.468   2.670   2.169
 6722SOL    HW121065   6.506   2.730   2.240
 6722SOL    HW221066   6.454   2.723   2.085
 6723SOL     OW21067   2.215   6.256   2.958
 6723SOL    HW121068   2.180   6.350   2.952
 6723SOL    HW221069   2.315   6.257   2.952
 6724SOL     OW21070   2.273   3.460   6.186
 6724SOL    HW121071   2.340   3.494   6.120
 6724SOL    HW221072   2.318   3.403   6.254
 6725SOL     OW21073   6.954   3.366   1.679
 6725SOL    HW121074   6.883   3.382   1.611
 6725SOL    HW221075   6.932   3.415   1.763
 6726SOL     OW21076   0.449   2.315   5.729
 6726SOL    HW121077   0.542   2.352   5.735
 6726SOL    HW221078   0.437   2.244   5.798
 6727SOL     OW21079   0.034   4.191   5.077
 6727SOL    HW121080   6.995   4.121   5.110
 6727SOL    HW221081   0.120   4.186   5.128
 6728SOL     OW21082   3.561   2.046   2.971
 6728SOL    HW121083   3.613   2.033   2.886
 6728SOL    HW221084   3.519   1.959   2.998
 6729SOL     OW21085   6.959   1.379   3.089
 6729SOL    HW121086   6.881   1.367   3.151
 6729SOL    HW221087   6.928   1.370   2.994
 6730SOL     OW21088   1.853   6.824   1.056
 6730SOL    HW121089   1.759   6.825   1.089
 6730SOL    HW221090   1.916   6.819   1.134
 6731SOL     OW21091   0.681   6.024   0.966
 6731SOL    HW121092   0.755   5.977   0.918
 6731SOL    HW221093   0.593   5.996   0.927
 6732SOL     OW21094   5.595   4.522   4.763
 6732SOL    HW121095   5.589   4.466   4.845
 6732SOL    HW221096   5.520   4.500   4.701
 6733SOL     OW21097   4.123   5.755   0.033
 6733SOL    HW121098   4.033   5.776   7.019
 6733SOL    HW221099   4.153   5.666   0.001
 6734SOL     OW21100   6.132   2.502   4.260
 6734SOL    HW121101   6.108   2.514   4.163
 6734SOL    HW221102   6.070   2.556   4.317
 6735SOL     OW21103   6.732   4.411   5.368
 6735SOL    HW121104   6.671   4.332   5.363
 6735SOL    HW221105   6.714   4.461   5.453
 6736SOL     OW21106   3.075   3.923   0.356
 6736SOL    HW121107   3.014   3.844   0.368
 6736SOL    HW221108   3.146   3.920   0.425
 6737SOL     OW21109   1.449   2.703   0.659
 6737SOL    HW121110   1.438   2.705   0.559
 6737SOL    HW221111   1.364   2.731   0.703
 6738SOL     OW21112   1.848   5.911   3.026
 6738SOL    HW121113   1.941   5.878   3.006
 6738SOL    HW221114   1.781   5.853   2.980
 6739SOL     OW21115   3.465   5.755   5.444
 6739SOL    HW121116   3.411   5.809   5.509
 6739SOL    HW221117   3.446   5.658   5.459
 6740SOL     OW21118   1.467   0.043   4.427
 6740SOL    HW121119   1.386   0.070   4.479
 6740SOL    HW221120   1.509   6.988   4.470
 6741SOL     OW21121   4.049   1.658   5.662
 6741SOL    HW121122   4.132   1.662   5.717
 6741SOL    HW221123   3.972   1.695   5.715
 6742SOL     OW21124   6.050   6.190   2.522
 6742SOL    HW121125   6.129   6.233   2.478
 6742SOL    HW221126   6.013   6.251   2.592
 6743SOL     OW21127   3.557   5.802   0.268
 6743SOL    HW121128   3.514   5.729   0.322
 6743SOL    HW221129   3.628   5.761   0.210
 6744SOL     OW21130   5.879   3.997   5.615
 6744SOL    HW121131   5.947   3.990   5.688
 6744SOL    HW221132   5.910   3.947   5.534
 6745SOL     OW21133   6.626   0.085   2.806
 6745SOL    HW121134   6.617   0.095   2.707
 6745SOL    HW221135   6.537   0.101   2.849
 6746SOL     OW21136   0.654   1.602   4.186
 6746SOL    HW121137   0.609   1.573   4.270
 6746SOL    HW221138   0.589   1.600   4.110
 6747SOL     OW21139   5.501   1.286   5.050
 6747SOL    HW121140   5.434   1.226   5.094
 6747SOL    HW221141   5.570   1.313   5.118
 6748SOL     OW21142   2.415   1.049   3.710
 6748SOL    HW121143   2.508   1.054   3.746
 6748SOL    HW221144   2.395   0.954   3.684
 6749SOL     OW21145   2.794   5.552   0.601
 6749SOL    HW121146   2.883   5.519   0.633
 6749SOL    HW221147   2.722   5.502   0.650
 6750SOL     OW21148   4.133   2.162   4.861
 6750SOL    HW121149   4.209   2.227   4.859
 6750SOL    HW221150   4.168   2.071   4.882
 6751SOL     OW21151   4.166   0.087   3.534
 6751SOL    HW121152   4.229   0.027   3.485
 6751SOL    HW221153   4.138   0.162   3.474
 6752SOL     OW21154   0.865   1.556   3.085
 6752SOL    HW121155   0.786   1.618   3.088
 6752SOL    HW221156   0.853   1.491   3.010
 6753SOL     OW21157   3.219   0.467   6.532
 6753SOL    HW121158   3.221   0.550   6.477
 6753SOL    HW221159   3.293   0.471   6.600
 6754SOL     OW21160   0.690   1.841   0.415
 6754SOL    HW121161   0.672   1.760   0.471
 6754SOL    HW221162   0.788   1.855   0.406
 6755SOL     OW21163   4.332   0.577   3.347
 6755SOL    HW121164   4.248   0.549   3.395
 6755SOL    HW221165   4.368   0.660   3.390
 6756SOL     OW21166   3.949   4.787   5.506
 6756SOL    HW121167   4.025   4.795   5.440
 6756SOL    HW221168   3.867   4.758   5.458
 6757SOL     OW21169   4.504   1.832   1.354
 6757SOL    HW121170   4.429   1.829   1.420
 6757SOL    HW221171   4.470   1.806   1.264
 6758SOL     OW21172   6.578   2.047   1.798
 6758SOL    HW121173   6.613   2.006   1.882
 6758SOL    HW221174   6.527   1.979   1.746
 6759SOL     OW21175   0.968   4.304   4.798
 6759SOL    HW121176   0.878   4.264   4.814
 6759SOL    HW221177   1.017   4.250   4.730
 6760SOL     OW21178   6.412   4.069   2.640
 6760SOL    HW121179   6.376   4.007   2.571
 6760SOL    HW221180   6.446   4.152   2.595
 6761SOL     OW21181   6.409   2.397   6.142
 6761SOL    HW121182   6.377   2.368   6.232
 6761SOL    HW221183   6.354   2.353   6.071
 6762SOL     OW21184   0.625   5.887   4.262
 6762SOL    HW121185   0.642   5.829   4.182
 6762SOL    HW221186   0.526   5.891   4.279
 6763SOL     OW21187   0.851   5.081   2.606
 6763SOL    HW121188   0.853   5.155   2.673
 6763SOL    HW221189   0.878   5.115   2.517
 6764SOL     OW21190   1.950   4.775   0.437
 6764SOL    HW121191   1.859   4.815   0.452
 6764SOL    HW221192   2.018   4.848   0.439
 6765SOL     OW21193   5.532   3.976   3.441
 6765SOL    HW121194   5.461   4.031   3.484
 6765SOL    HW221195   5.494   3.928   3.361
 6766SOL     OW21196   4.968   6.694   6.234
 6766SOL    HW121197   5.027   6.774   6.246
 6766SOL    HW221198   4.938   6.661   6.324
 6767SOL     OW21199   1.340   2.616   1.015
 6767SOL    HW121200   1.323   2.518   1.026
 6767SOL    HW221201   1.296   2.649   0.932
 6768SOL     OW21202   1.276   6.609   3.887
 6768SOL    HW121203   1.285   6.526   3.833
 6768SOL    HW221204   1.363   6.632   3.929
 6769SOL     OW21205   2.577   0.421   5.195
 6769SOL    HW121206   2.492   0.414   5.143
 6769SOL    HW221207   2.558   0.460   5.285
 6770SOL     OW21208   4.837   2.250   3.455
 6770SOL    HW121209   4.906   2.296   3.510
 6770SOL    HW221210   4.844   2.152   3.468
 6771SOL     OW21211   3.986   1.299   2.352
 6771SOL    HW121212   4.055   1.368   2.333
 6771SOL    HW221213   3.911   1.339   2.404
 6772SOL     OW21214   4.723   2.545   2.221
 6772SOL    HW121215   4.774   2.460   2.204
 6772SOL    HW221216   4.683   2.541   2.313
 6773SOL     OW21217   0.872   6.528   2.118
 6773SOL    HW121218   0.820   6.446   2.094
 6773SOL    HW221219   0.963   6.524   2.077
 6774SOL     OW21220   2.085   3.656   4.772
 6774SOL    HW121221   1.987   3.656   4.755
 6774SOL    HW221222   2.132   3.707   4.700
 6775SOL     OW21223   1.346   2.606   3.301
 6775SOL    HW121224   1.355   2.591   3.399
 6775SOL    HW221225   1.258   2.573   3.269
 6776SOL     OW21226   4.317   3.370   0.469
 6776SOL    HW121227   4.316   3.453   0.413
 6776SOL    HW221228   4.224   3.351   0.502
 6777SOL     OW21229   4.908   4.985   1.094
 6777SOL    HW121230   4.832   5.035   1.136
 6777SOL    HW221231   4.950   5.042   1.023
 6778SOL     OW21232   6.862   5.186   1.671
 6778SOL    HW121233   6.889   5.102   1.624
 6778SOL    HW221234   6.918   5.197   1.753
 6779SOL     OW21235   5.917   4.656   6.183
 6779SOL    HW121236   5.920   4.754   6.206
 6779SOL    HW221237   5.947   4.603   6.262
 6780SOL     OW21238   1.223   2.769   2.808
 6780SOL    HW121239   1.313   2.726   2.804
 6780SOL    HW221240   1.211   2.815   2.896
 6781SOL     OW21241   6.333   1.392   4.871
 6781SOL    HW121242   6.336   1.396   4.971
 6781SOL    HW221243   6.241   1.414   4.839
 6782SOL     OW21244   0.893   1.396   3.296
 6782SOL    HW121245   0.893   1.455   3.215
 6782SOL    HW221246   0.949   1.437   3.368
 6783SOL     OW21247   1.117   1.963   5.761
 6783SOL    HW121248   1.027   1.924   5.739
 6783SOL    HW221249   1.130   1.962   5.861
 6784SOL     OW21250   2.179   3.821   0.742
 6784SOL    HW121251   2.216   3.733   0.711
 6784SOL    HW221252   2.080   3.816   0.747
 6785SOL     OW21253   6.032   5.292   5.127
 6785SOL    HW121254   6.080   5.291   5.215
 6785SOL    HW221255   6.062   5.215   5.072
 6786SOL     OW21256   1.142   2.398   0.334
 6786SOL    HW121257   1.192   2.319   0.371
 6786SOL    HW221258   1.203   2.451   0.275
 6787SOL     OW21259   3.589   3.739   0.379
 6787SOL    HW121260   3.591   3.755   0.280
 6787SOL    HW221261   3.591   3.827   0.427
 6788SOL     OW21262   1.061   4.466   2.022
 6788SOL    HW121263   0.978   4.507   2.060
 6788SOL    HW221264   1.105   4.531   1.960
 6789SOL     OW21265   0.386   4.479   3.885
 6789SOL    HW121266   0.331   4.430   3.953
 6789SOL    HW221267   0.339   4.478   3.797
 6790SOL     OW21268   0.749   3.404   0.130
 6790SOL    HW121269   0.673   3.345   0.157
 6790SOL    HW221270   0.789   3.445   0.212
 6791SOL     OW21271   3.909   2.140   2.138
 6791SOL    HW121272   3.853   2.208   2.090
 6791SOL    HW221273   3.852   2.091   2.204
 6792SOL     OW21274   5.035   6.911   5.073
 6792SOL    HW121275   5.088   6.852   5.012
 6792SOL    HW221276   5.090   6.991   5.098
 6793SOL     OW21277   2.536   0.875   6.498
 6793SOL    HW121278   2.611   0.816   6.527
 6793SOL    HW221279   2.449   0.832   6.520
 6794SOL     OW21280   5.711   1.319   5.279
 6794SOL    HW121281   5.642   1.377   5.322
 6794SOL    HW221282   5.788   1.375   5.248
 6795SOL     OW21283   0.849   6.094   1.528
 6795SOL    HW121284   0.931   6.056   1.485
 6795SOL    HW221285   0.806   6.160   1.466
 6796SOL     OW21286   6.440   1.179   3.151
 6796SOL    HW121287   6.482   1.089   3.154
 6796SOL    HW221288   6.344   1.170   3.122
 6797SOL     OW21289   0.069   2.256   1.964
 6797SOL    HW121290   7.007   2.303   1.948
 6797SOL    HW221291   0.055   2.158   1.968
 6798SOL     OW21292   6.386   6.396   1.680
 6798SOL    HW121293   6.485   6.404   1.673
 6798SOL    HW221294   6.346   6.405   1.589
 6799SOL     OW21295   6.039   0.888   2.196
 6799SOL    HW121296   6.020   0.816   2.128
 6799SOL    HW221297   6.073   0.846   2.280
 6800SOL     OW21298   2.377   2.674   2.147
 6800SOL    HW121299   2.384   2.773   2.156
 6800SOL    HW221300   2.281   2.647   2.153
 6801SOL     OW21301   1.277   0.592   3.357
 6801SOL    HW121302   1.304   0.498   3.378
 6801SOL    HW221303   1.229   0.631   3.436
 6802SOL     OW21304   3.111   5.678   1.697
 6802SOL    HW121305   3.021   5.634   1.698
 6802SOL    HW221306   3.176   5.622   1.748
 6803SOL     OW21307   4.069   4.156   6.611
 6803SOL    HW121308   4.008   4.133   6.535
 6803SOL    HW221309   4.119   4.240   6.590
 6804SOL     OW21310   4.035   4.969   3.342
 6804SOL    HW121311   3.984   4.928   3.267
 6804SOL    HW221312   4.013   4.921   3.427
 6805SOL     OW21313   0.871   4.636   6.329
 6805SOL    HW121314   0.908   4.724   6.299
 6805SOL    HW221315   0.847   4.581   6.249
 6806SOL     OW21316   6.611   1.482   3.360
 6806SOL    HW121317   6.520   1.474   3.320
 6806SOL    HW221318   6.604   1.488   3.459
 6807SOL     OW21319   3.395   3.122   1.687
 6807SOL    HW121320   3.467   3.150   1.751
 6807SOL    HW221321   3.424   3.039   1.640
 6808SOL     OW21322   6.807   2.068   5.875
 6808SOL    HW121323   6.811   2.161   5.912
 6808SOL    HW221324   6.800   2.072   5.775
 6809SOL     OW21325   6.777   3.430   1.491
 6809SOL    HW121326   6.681   3.458   1.498
 6809SOL    HW221327   6.834   3.511   1.474
 6810SOL     OW21328   3.280   1.375   2.304
 6810SOL    HW121329   3.269   1.352   2.401
 6810SOL    HW221330   3.280   1.474   2.293
 6811SOL     OW21331   5.948   3.594   2.061
 6811SOL    HW121332   6.048   3.601   2.055
 6811SOL    HW221333   5.924   3.543   2.143
 6812SOL     OW21334   3.213   4.119   4.940
 6812SOL    HW121335   3.124   4.150   4.974
 6812SOL    HW221336   3.229   4.157   4.849
 6813SOL     OW21337   5.613   3.227   2.528
 6813SOL    HW121338   5.515   3.211   2.538
 6813SOL    HW221339   5.633   3.253   2.434
 6814SOL     OW21340   4.028   2.160   6.250
 6814SOL    HW121341   4.123   2.151   6.221
 6814SOL    HW221342   4.005   2.086   6.314
 6815SOL     OW21343   2.194   6.137   6.961
 6815SOL    HW121344   2.250   6.126   6.879
 6815SOL    HW221345   2.119   6.200   6.941
 6816SOL     OW21346   6.788   0.814   5.743
 6816SOL    HW121347   6.834   0.887   5.794
 6816SOL    HW221348   6.693   0.840   5.725
 6817SOL     OW21349   2.398   2.591   3.762
 6817SOL    HW121350   2.424   2.618   3.855
 6817SOL    HW221351   2.384   2.672   3.706
 6818SOL     OW21352   2.082   6.346   0.785
 6818SOL    HW121353   2.029   6.405   0.846
 6818SOL    HW221354   2.175   6.335   0.821
 6819SOL     OW21355   4.022   1.433   2.685
 6819SOL    HW121356   3.985   1.462   2.774
 6819SOL    HW221357   3.947   1.424   2.619
 6820SOL     OW21358   1.904   6.043   1.421
 6820SOL    HW121359   1.960   6.047   1.504
 6820SOL    HW221360   1.949   6.093   1.348
 6821SOL     OW21361   3.922   2.382   5.356
 6821SOL    HW121362   3.988   2.440   5.308
 6821SOL    HW221363   3.832   2.424   5.351
 6822SOL     OW21364   6.025   2.120   5.560
 6822SOL    HW121365   6.035   2.181   5.639
 6822SOL    HW221366   5.980   2.168   5.485
 6823SOL     OW21367   5.483   3.710   5.795
 6823SOL    HW121368   5.539   3.763   5.731
 6823SOL    HW221369   5.396   3.757   5.809
 6824SOL     OW21370   0.970   1.911   0.625
 6824SOL    HW121371   1.061   1.939   0.655
 6824SOL    HW221372   0.915   1.886   0.705
 6825SOL     OW21373   5.911   0.239   6.956
 6825SOL    HW121374   5.878   0.328   6.986
 6825SOL    HW221375   5.961   0.248   6.870
 6826SOL     OW21376   1.874   3.685   3.549
 6826SOL    HW121377   1.786   3.679   3.501
 6826SOL    HW221378   1.942   3.725   3.488
 6827SOL     OW21379   5.081   4.969   6.221
 6827SOL    HW121380   5.066   4.982   6.123
 6827SOL    HW221381   5.154   4.902   6.235
 6828SOL     OW21382   3.786   1.529   1.562
 6828SOL    HW121383   3.771   1.554   1.657
 6828SOL    HW221384   3.723   1.581   1.504
 6829SOL     OW21385   5.607   6.140   6.038
 6829SOL    HW121386   5.536   6.104   6.098
 6829SOL    HW221387   5.601   6.240   6.034
 6830SOL     OW21388   5.573   0.701   3.428
 6830SOL    HW121389   5.557   0.783   3.373
 6830SOL    HW221390   5.666   0.702   3.464
 6831SOL     OW21391   1.830   1.543   6.247
 6831SOL    HW121392   1.923   1.530   6.283
 6831SOL    HW221393   1.801   1.461   6.199
 6832SOL     OW21394   2.136   4.326   0.863
 6832SOL    HW121395   2.136   4.249   0.799
 6832SOL    HW221396   2.051   4.378   0.854
 6833SOL     OW21397   2.464   4.767   0.144
 6833SOL    HW121398   2.410   4.743   0.063
 6833SOL    HW221399   2.417   4.735   0.226
 6834SOL     OW21400   6.500   0.133   0.544
 6834SOL    HW121401   6.403   0.157   0.544
 6834SOL    HW221402   6.511   0.037   0.517
 6835SOL     OW21403   3.906   1.185   4.508
 6835SOL    HW121404   3.874   1.097   4.543
 6835SOL    HW221405   3.930   1.176   4.411
 6836SOL     OW21406   3.364   4.728   6.888
 6836SOL    HW121407   3.297   4.760   6.821
 6836SOL    HW221408   3.317   4.675   6.959
 6837SOL     OW21409   0.660   2.494   3.356
 6837SOL    HW121410   0.740   2.541   3.318
 6837SOL    HW221411   0.683   2.398   3.372
 6838SOL     OW21412   3.197   6.080   6.229
 6838SOL    HW121413   3.170   6.067   6.324
 6838SOL    HW221414   3.190   6.177   6.204
 6839SOL     OW21415   5.343   0.708   5.443
 6839SOL    HW121416   5.396   0.792   5.448
 6839SOL    HW221417   5.388   0.636   5.496
 6840SOL     OW21418   3.373   6.672   4.782
 6840SOL    HW121419   3.367   6.572   4.781
 6840SOL    HW221420   3.300   6.709   4.840
 6841SOL     OW21421   3.872   4.843   0.352
 6841SOL    HW121422   3.950   4.793   0.315
 6841SOL    HW221423   3.814   4.780   0.404
 6842SOL     OW21424   2.368   2.889   0.801
 6842SOL    HW121425   2.400   2.875   0.895
 6842SOL    HW221426   2.269   2.878   0.797
 6843SOL     OW21427   5.602   0.172   1.831
 6843SOL    HW121428   5.652   0.255   1.856
 6843SOL    HW221429   5.519   0.197   1.782
 6844SOL     OW21430   5.828   6.962   3.683
 6844SOL    HW121431   5.735   6.941   3.656
 6844SOL    HW221432   5.881   6.992   3.603
 6845SOL     OW21433   5.670   5.257   3.048
 6845SOL    HW121434   5.761   5.298   3.040
 6845SOL    HW221435   5.637   5.231   2.957
 6846SOL     OW21436   4.437   3.250   1.007
 6846SOL    HW121437   4.526   3.269   0.966
 6846SOL    HW221438   4.365   3.273   0.941
 6847SOL     OW21439   6.944   4.993   3.126
 6847SOL    HW121440   6.969   5.088   3.144
 6847SOL    HW221441   6.882   4.961   3.197
 6848SOL     OW21442   3.465   6.501   3.882
 6848SOL    HW121443   3.415   6.440   3.944
 6848SOL    HW221444   3.497   6.581   3.933
 6849SOL     OW21445   3.219   5.195   5.519
 6849SOL    HW121446   3.179   5.269   5.466
 6849SOL    HW221447   3.173   5.109   5.497
 6850SOL     OW21448   5.929   3.823   2.227
 6850SOL    HW121449   5.927   3.749   2.160
 6850SOL    HW221450   6.001   3.888   2.203
 6851SOL     OW21451   0.841   2.928   3.471
 6851SOL    HW121452   0.919   2.952   3.414
 6851SOL    HW221453   0.822   2.830   3.463
 6852SOL     OW21454   1.685   4.867   0.550
 6852SOL    HW121455   1.688   4.845   0.648
 6852SOL    HW221456   1.688   4.966   0.538
 6853SOL     OW21457   6.764   3.766   0.055
 6853SOL    HW121458   6.838   3.699   0.047
 6853SOL    HW221459   6.676   3.720   0.045
 6854SOL     OW21460   4.788   1.615   6.207
 6854SOL    HW121461   4.696   1.576   6.211
 6854SOL    HW221462   4.782   1.713   6.190
 6855SOL     OW21463   3.099   5.587   3.452
 6855SOL    HW121464   3.116   5.552   3.360
 6855SOL    HW221465   3.144   5.675   3.463
 6856SOL     OW21466   4.763   3.622   5.646
 6856SOL    HW121467   4.731   3.646   5.555
 6856SOL    HW221468   4.685   3.594   5.703
 6857SOL     OW21469   2.981   2.247   0.117
 6857SOL    HW121470   2.995   2.156   0.155
 6857SOL    HW221471   3.069   2.295   0.113
 6858SOL     OW21472   3.600   3.814   3.962
 6858SOL    HW121473   3.638   3.742   4.020
 6858SOL    HW221474   3.505   3.830   3.985
 6859SOL     OW21475   0.491   0.660   0.843
 6859SOL    HW121476   0.466   0.750   0.878
 6859SOL    HW221477   0.420   0.627   0.781
 6860SOL     OW21478   6.385   5.139   0.827
 6860SOL    HW121479   6.424   5.101   0.911
 6860SOL    HW221480   6.289   5.111   0.819
 6861SOL     OW21481   4.794   4.213   0.647
 6861SOL    HW121482   4.718   4.233   0.585
 6861SOL    HW221483   4.845   4.135   0.612
 6862SOL     OW21484   2.015   4.422   5.566
 6862SOL    HW121485   2.088   4.401   5.501
 6862SOL    HW221486   1.939   4.359   5.553
 6863SOL     OW21487   5.751   0.713   5.651
 6863SOL    HW121488   5.688   0.709   5.729
 6863SOL    HW221489   5.842   0.683   5.680
 6864SOL     OW21490   2.728   5.736   4.480
 6864SOL    HW121491   2.796   5.790   4.431
 6864SOL    HW221492   2.774   5.672   4.541
 6865SOL     OW21493   0.215   5.749   2.973
 6865SOL    HW121494   0.238   5.846   2.985
 6865SOL    HW221495   0.283   5.706   2.913
 6866SOL     OW21496   6.425   5.020   3.180
 6866SOL    HW121497   6.440   4.923   3.160
 6866SOL    HW221498   6.480   5.075   3.116
 6867SOL     OW21499   1.955   4.418   1.520
 6867SOL    HW121500   1.998   4.489   1.464
 6867SOL    HW221501   1.985   4.328   1.489
 6868SOL     OW21502   1.138   5.523   6.456
 6868SOL    HW121503   1.191   5.471   6.389
 6868SOL    HW221504   1.059   5.470   6.486
 6869SOL     OW21505   4.859   0.225   4.792
 6869SOL    HW121506   4.923   0.236   4.716
 6869SOL    HW221507   4.788   0.159   4.767
 6870SOL     OW21508   6.677   4.706   2.326
 6870SOL    HW121509   6.763   4.661   2.302
 6870SOL    HW221510   6.602   4.640   2.319
 6871SOL     OW21511   6.486   4.695   3.103
 6871SOL    HW121512   6.578   4.659   3.087
 6871SOL    HW221513   6.437   4.703   3.016
 6872SOL     OW21514   0.567   3.178   1.349
 6872SOL    HW121515   0.541   3.264   1.306
 6872SOL    HW221516   0.486   3.133   1.386
 6873SOL     OW21517   6.903   3.966   5.111
 6873SOL    HW121518   6.830   3.994   5.173
 6873SOL    HW221519   6.865   3.912   5.036
 6874SOL     OW21520   0.688   5.886   2.237
 6874SOL    HW121521   0.785   5.904   2.220
 6874SOL    HW221522   0.677   5.794   2.276
 6875SOL     OW21523   1.761   2.489   3.526
 6875SOL    HW121524   1.721   2.518   3.613
 6875SOL    HW221525   1.698   2.511   3.452
 6876SOL     OW21526   3.897   6.269   3.682
 6876SOL    HW121527   3.927   6.207   3.754
 6876SOL    HW221528   3.801   6.295   3.698
 6877SOL     OW21529   2.772   3.728   0.787
 6877SOL    HW121530   2.819   3.706   0.873
 6877SOL    HW221531   2.726   3.646   0.753
 6878SOL     OW21532   3.393   1.514   5.344
 6878SOL    HW121533   3.390   1.463   5.258
 6878SOL    HW221534   3.489   1.532   5.368
 6879SOL     OW21535   1.271   1.952   6.963
 6879SOL    HW121536   1.224   2.003   0.010
 6879SOL    HW221537   1.205   1.902   6.907
 6880SOL     OW21538   2.192   4.121   5.265
 6880SOL    HW121539   2.262   4.083   5.204
 6880SOL    HW221540   2.148   4.199   5.221
 6881SOL     OW21541   1.198   3.510   1.765
 6881SOL    HW121542   1.115   3.542   1.809
 6881SOL    HW221543   1.189   3.518   1.666
 6882SOL     OW21544   3.148   0.463   6.965
 6882SOL    HW121545   3.057   0.439   6.932
 6882SOL    HW221546   3.143   0.545   7.022
 6883SOL     OW21547   4.390   1.502   0.407
 6883SOL    HW121548   4.455   1.442   0.455
 6883SOL    HW221549   4.324   1.539   0.472
 6884SOL     OW21550   1.880   4.405   4.453
 6884SOL    HW121551   1.950   4.447   4.395
 6884SOL    HW221552   1.893   4.306   4.454
 6885SOL     OW21553   3.635   5.474   3.973
 6885SOL    HW121554   3.556   5.432   4.016
 6885SOL    HW221555   3.651   5.564   4.013
 6886SOL     OW21556   6.692   0.258   4.374
 6886SOL    HW121557   6.758   0.330   4.351
 6886SOL    HW221558   6.689   0.246   4.473
 6887SOL     OW21559   5.302   6.072   5.781
 6887SOL    HW121560   5.287   6.170   5.797
 6887SOL    HW221561   5.232   6.020   5.829
 6888SOL     OW21562   5.324   6.357   6.456
 6888SOL    HW121563   5.367   6.392   6.372
 6888SOL    HW221564   5.381   6.285   6.495
 6889SOL     OW21565   1.962   1.878   5.098
 6889SOL    HW121566   1.943   1.843   5.006
 6889SOL    HW221567   2.054   1.917   5.100
 6890SOL     OW21568   4.049   6.348   1.625
 6890SOL    HW121569   4.088   6.359   1.716
 6890SOL    HW221570   4.121   6.321   1.560
 6891SOL     OW21571   2.046   4.395   3.633
 6891SOL    HW121572   1.969   4.387   3.697
 6891SOL    HW221573   2.128   4.354   3.674
 6892SOL     OW21574   3.170   2.142   3.659
 6892SOL    HW121575   3.117   2.208   3.711
 6892SOL    HW221576   3.139   2.141   3.564
 6893SOL     OW21577   4.631   4.419   6.787
 6893SOL    HW121578   4.704   4.454   6.728
 6893SOL    HW221579   4.670   4.362   6.858
 6894SOL     OW21580   6.077   4.758   0.213
 6894SOL    HW121581   6.140   4.681   0.201
 6894SOL    HW221582   6.048   4.792   0.123
 6895SOL     OW21583   2.664   6.111   6.846
 6895SOL    HW121584   2.674   6.143   6.941
 6895SOL    HW221585   2.732   6.156   6.789
 6896SOL     OW21586   1.956   0.082   3.518
 6896SOL    HW121587   1.983   0.177   3.537
 6896SOL    HW221588   1.974   0.026   3.599
 6897SOL     OW21589   3.357   3.646   6.289
 6897SOL    HW121590   3.357   3.547   6.298
 6897SOL    HW221591   3.428   3.674   6.223
 6898SOL     OW21592   3.888   1.613   2.238
 6898SOL    HW121593   3.797   1.644   2.211
 6898SOL    HW221594   3.901   1.518   2.206
 6899SOL     OW21595   5.829   6.862   0.607
 6899SOL    HW121596   5.841   6.921   0.686
 6899SOL    HW221597   5.732   6.859   0.582
 6900SOL     OW21598   6.739   6.609   5.617
 6900SOL    HW121599   6.839   6.608   5.628
 6900SOL    HW221600   6.699   6.670   5.686
 6901SOL     OW21601   0.379   6.308   6.241
 6901SOL    HW121602   0.389   6.408   6.238
 6901SOL    HW221603   0.282   6.285   6.242
 6902SOL     OW21604   6.039   6.300   6.956
 6902SOL    HW121605   6.135   6.326   6.969
 6902SOL    HW221606   6.017   6.301   6.859
 6903SOL     OW21607   3.570   5.528   4.633
 6903SOL    HW121608   3.624   5.448   4.608
 6903SOL    HW221609   3.620   5.611   4.609
 6904SOL     OW21610   6.253   1.385   4.566
 6904SOL    HW121611   6.168   1.390   4.515
 6904SOL    HW221612   6.236   1.403   4.663
 6905SOL     OW21613   6.137   5.906   6.277
 6905SOL    HW121614   6.109   5.991   6.322
 6905SOL    HW221615   6.162   5.838   6.345
 6906SOL     OW21616   4.962   1.356   3.916
 6906SOL    HW121617   4.977   1.447   3.878
 6906SOL    HW221618   4.966   1.360   4.015
 6907SOL     OW21619   5.361   2.550   1.133
 6907SOL    HW121620   5.296   2.534   1.059
 6907SOL    HW221621   5.362   2.471   1.195
 6908SOL     OW21622   0.874   5.954   6.137
 6908SOL    HW121623   0.889   6.033   6.196
 6908SOL    HW221624   0.927   5.876   6.171
 6909SOL     OW21625   6.077   4.367   1.199
 6909SOL    HW121626   6.158   4.361   1.258
 6909SOL    HW221627   6.002   4.410   1.250
 6910SOL     OW21628   6.643   2.780   3.646
 6910SOL    HW121629   6.713   2.796   3.715
 6910SOL    HW221630   6.554   2.770   3.690
 6911SOL     OW21631   4.200   6.063   3.652
 6911SOL    HW121632   4.209   6.020   3.741
 6911SOL    HW221633   4.289   6.099   3.623
 6912SOL     OW21634   3.201   5.464   0.459
 6912SOL    HW121635   3.137   5.426   0.391
 6912SOL    HW221636   3.150   5.508   0.532
 6913SOL     OW21637   4.597   5.072   4.921
 6913SOL    HW121638   4.662   5.093   4.994
 6913SOL    HW221639   4.582   5.153   4.864
 6914SOL     OW21640   6.177   3.991   5.789
 6914SOL    HW121641   6.129   3.938   5.859
 6914SOL    HW221642   6.254   4.040   5.832
 6915SOL     OW21643   6.026   3.685   1.535
 6915SOL    HW121644   6.043   3.641   1.448
 6915SOL    HW221645   5.955   3.755   1.524
 6916SOL     OW21646   6.785   3.283   0.094
 6916SOL    HW121647   6.697   3.271   0.139
 6916SOL    HW221648   6.856   3.238   0.148
 6917SOL     OW21649   2.955   6.238   1.039
 6917SOL    HW121650   3.025   6.290   1.088
 6917SOL    HW221651   2.998   6.189   0.963
 6918SOL     OW21652   6.695   2.971   4.668
 6918SOL    HW121653   6.777   2.966   4.725
 6918SOL    HW221654   6.679   3.065   4.640
 6919SOL     OW21655   0.304   6.131   2.259
 6919SOL    HW121656   0.351   6.083   2.185
 6919SOL    HW221657   0.213   6.159   2.228
 6920SOL     OW21658   4.847   4.987   5.556
 6920SOL    HW121659   4.917   5.020   5.492
 6920SOL    HW221660   4.788   5.064   5.582
 6921SOL     OW21661   5.581   6.156   3.055
 6921SOL    HW121662   5.630   6.209   3.125
 6921SOL    HW221663   5.483   6.176   3.060
 6922SOL     OW21664   2.049   5.927   5.891
 6922SOL    HW121665   2.148   5.928   5.905
 6922SOL    HW221666   2.011   6.018   5.911
 6923SOL     OW21667   4.798   5.166   3.586
 6923SOL    HW121668   4.709   5.127   3.560
 6923SOL    HW221669   4.786   5.262   3.611
 6924SOL     OW21670   1.727   3.956   6.852
 6924SOL    HW121671   1.649   3.900   6.879
 6924SOL    HW221672   1.811   3.902   6.860
 6925SOL     OW21673   4.265   6.014   4.929
 6925SOL    HW121674   4.302   6.106   4.940
 6925SOL    HW221675   4.263   5.990   4.832
 6926SOL     OW21676   3.736   2.829   1.309
 6926SOL    HW121677   3.651   2.787   1.279
 6926SOL    HW221678   3.715   2.910   1.365
 6927SOL     OW21679   5.169   2.979   6.097
 6927SOL    HW121680   5.166   3.063   6.043
 6927SOL    HW221681   5.209   2.905   6.043
 6928SOL     OW21682   6.537   5.895   1.003
 6928SOL    HW121683   6.627   5.851   0.998
 6928SOL    HW221684   6.513   5.930   0.912
 6929SOL     OW21685   5.523   4.866   0.896
 6929SOL    HW121686   5.546   4.768   0.892
 6929SOL    HW221687   5.424   4.876   0.888
 6930SOL     OW21688   0.484   6.465   2.133
 6930SOL    HW121689   0.421   6.468   2.056
 6930SOL    HW221690   0.434   6.443   2.216
 6931SOL     OW21691   1.893   0.695   2.113
 6931SOL    HW121692   1.900   0.680   2.015
 6931SOL    HW221693   1.856   0.787   2.130
 6932SOL     OW21694   3.979   6.567   0.548
 6932SOL    HW121695   3.881   6.570   0.530
 6932SOL    HW221696   4.013   6.474   0.529
 6933SOL     OW21697   2.937   6.569   4.379
 6933SOL    HW121698   2.908   6.643   4.441
 6933SOL    HW221699   2.931   6.601   4.285
 6934SOL     OW21700   4.765   3.415   5.990
 6934SOL    HW121701   4.724   3.377   5.907
 6934SOL    HW221702   4.699   3.474   6.036
 6935SOL     OW21703   3.940   4.886   3.061
 6935SOL    HW121704   3.923   4.947   2.984
 6935SOL    HW221705   4.011   4.821   3.037
 6936SOL     OW21706   6.765   2.388   4.363
 6936SOL    HW121707   6.684   2.443   4.343
 6936SOL    HW221708   6.763   2.358   4.458
 6937SOL     OW21709   0.008   6.321   0.173
 6937SOL    HW121710   6.994   6.294   0.261
 6937SOL    HW221711   0.104   6.292   0.168
 6938SOL     OW21712   5.261   3.594   5.654
 6938SOL    HW121713   5.163   3.604   5.672
 6938SOL    HW221714   5.299   3.682   5.627
 6939SOL     OW21715   0.464   4.591   2.203
 6939SOL    HW121716   0.366   4.604   2.186
 6939SOL    HW221717   0.476   4.522   2.275
 6940SOL     OW21718   4.618   0.777   0.323
 6940SOL    HW121719   4.681   0.843   0.364
 6940SOL    HW221720   4.667   0.721   0.257
 6941SOL     OW21721   3.869   3.342   2.135
 6941SOL    HW121722   3.894   3.250   2.103
 6941SOL    HW221723   3.785   3.372   2.089
 6942SOL     OW21724   5.542   1.110   1.794
 6942SOL    HW121725   5.463   1.111   1.855
 6942SOL    HW221726   5.562   1.017   1.766
 6943SOL     OW21727   4.310   6.087   6.710
 6943SOL    HW121728   4.396   6.049   6.676
 6943SOL    HW221729   4.236   6.066   6.646
 6944SOL     OW21730   1.016   3.650   6.678
 6944SOL    HW121731   0.946   3.657   6.606
 6944SOL    HW221732   0.975   3.672   6.766
 6945SOL     OW21733   6.431   2.568   6.658
 6945SOL    HW121734   6.367   2.628   6.610
 6945SOL    HW221735   6.391   2.477   6.668
 6946SOL     OW21736   5.902   6.533   1.286
 6946SOL    HW121737   5.968   6.494   1.222
 6946SOL    HW221738   5.869   6.620   1.251
 6947SOL     OW21739   3.799   6.103   6.177
 6947SOL    HW121740   3.885   6.153   6.183
 6947SOL    HW221741   3.801   6.042   6.098
 6948SOL     OW21742   6.649   0.394   6.681
 6948SOL    HW121743   6.595   0.314   6.705
 6948SOL    HW221744   6.718   0.411   6.752
 6949SOL     OW21745   5.229   6.509   2.846
 6949SOL    HW121746   5.174   6.428   2.864
 6949SOL    HW221747   5.236   6.563   2.930
 6950SOL     OW21748   2.548   1.365   4.584
 6950SOL    HW121749   2.498   1.386   4.668
 6950SOL    HW221750   2.646   1.361   4.603
 6951SOL     OW21751   6.741   5.834   5.620
 6951SOL    HW121752   6.671   5.899   5.590
 6951SOL    HW221753   6.734   5.750   5.566
 6952SOL     OW21754   0.476   6.129   3.762
 6952SOL    HW121755   0.525   6.178   3.834
 6952SOL    HW221756   0.482   6.031   3.779
 6953SOL     OW21757   5.186   6.193   0.655
 6953SOL    HW121758   5.237   6.267   0.612
 6953SOL    HW221759   5.105   6.230   0.700
 6954SOL     OW21760   6.973   3.648   3.839
 6954SOL    HW121761   0.046   3.636   3.820
 6954SOL    HW221762   6.937   3.564   3.879
 6955SOL     OW21763   6.689   0.795   2.115
 6955SOL    HW121764   6.608   0.847   2.142
 6955SOL    HW221765   6.667   0.735   2.039
 6956SOL     OW21766   4.950   5.825   3.223
 6956SOL    HW121767   4.897   5.778   3.152
 6956SOL    HW221768   4.980   5.758   3.291
 6957SOL     OW21769   6.130   5.055   0.823
 6957SOL    HW121770   6.063   5.078   0.754
 6957SOL    HW221771   6.139   4.955   0.829
 6958SOL     OW21772   2.948   3.279   4.321
 6958SOL    HW121773   2.993   3.191   4.337
 6958SOL    HW221774   2.950   3.300   4.223
 6959SOL     OW21775   1.819   1.637   4.541
 6959SOL    HW121776   1.917   1.619   4.551
 6959SOL    HW221777   1.801   1.734   4.561
 6960SOL     OW21778   2.288   5.413   1.613
 6960SOL    HW121779   2.195   5.376   1.622
 6960SOL    HW221780   2.336   5.365   1.540
 6961SOL     OW21781   5.833   1.944   4.409
 6961SOL    HW121782   5.907   1.948   4.477
 6961SOL    HW221783   5.872   1.926   4.319
 6962SOL     OW21784   4.871   5.891   1.820
 6962SOL    HW121785   4.906   5.839   1.743
 6962SOL    HW221786   4.946   5.942   1.862
 6963SOL     OW21787   5.753   5.957   1.448
 6963SOL    HW121788   5.817   5.979   1.374
 6963SOL    HW221789   5.736   6.039   1.503
 6964SOL     OW21790   3.134   0.371   4.896
 6964SOL    HW121791   3.164   0.429   4.821
 6964SOL    HW221792   3.199   0.297   4.909
 6965SOL     OW21793   0.543   3.345   1.079
 6965SOL    HW121794   0.478   3.274   1.050
 6965SOL    HW221795   0.514   3.382   1.167
 6966SOL     OW21796   0.062   2.296   3.021
 6966SOL    HW121797   0.138   2.356   2.995
 6966SOL    HW221798   0.091   2.201   3.016
 6967SOL     OW21799   2.107   6.459   4.746
 6967SOL    HW121800   2.153   6.407   4.674
 6967SOL    HW221801   2.059   6.395   4.807
 6968SOL     OW21802   4.794   6.540   2.803
 6968SOL    HW121803   4.805   6.491   2.716
 6968SOL    HW221804   4.700   6.529   2.835
 6969SOL     OW21805   2.779   2.203   1.340
 6969SOL    HW121806   2.787   2.263   1.260
 6969SOL    HW221807   2.808   2.254   1.422
 6970SOL     OW21808   3.317   4.362   6.532
 6970SOL    HW121809   3.316   4.265   6.559
 6970SOL    HW221810   3.234   4.407   6.567
 6971SOL     OW21811   6.143   4.630   1.898
 6971SOL    HW121812   6.112   4.643   1.992
 6971SOL    HW221813   6.236   4.595   1.898
 6972SOL     OW21814   4.851   3.922   3.411
 6972SOL    HW121815   4.825   3.883   3.322
 6972SOL    HW221816   4.944   3.892   3.435
 6973SOL     OW21817   0.309   3.219   4.492
 6973SOL    HW121818   0.274   3.132   4.529
 6973SOL    HW221819   0.322   3.283   4.567
 6974SOL     OW21820   2.940   3.736   2.143
 6974SOL    HW121821   2.993   3.804   2.193
 6974SOL    HW221822   2.844   3.762   2.142
 6975SOL     OW21823   2.126   6.571   6.580
 6975SOL    HW121824   2.159   6.500   6.643
 6975SOL    HW221825   2.026   6.570   6.578
 6976SOL     OW21826   4.901   5.992   5.092
 6976SOL    HW121827   4.821   5.938   5.068
 6976SOL    HW221828   4.922   5.979   5.189
 6977SOL     OW21829   4.315   2.464   1.495
 6977SOL    HW121830   4.341   2.507   1.581
 6977SOL    HW221831   4.396   2.425   1.451
 6978SOL     OW21832   4.096   1.105   2.752
 6978SOL    HW121833   4.162   1.166   2.708
 6978SOL    HW221834   4.032   1.071   2.683
 6979SOL     OW21835   1.063   4.211   1.215
 6979SOL    HW121836   1.020   4.239   1.302
 6979SOL    HW221837   1.026   4.267   1.141
 6980SOL     OW21838   1.596   1.293   3.769
 6980SOL    HW121839   1.656   1.344   3.708
 6980SOL    HW221840   1.634   1.202   3.785
 6981SOL     OW21841   3.878   2.529   5.619
 6981SOL    HW121842   3.912   2.503   5.528
 6981SOL    HW221843   3.897   2.455   5.683
 6982SOL     OW21844   1.567   0.628   4.391
 6982SOL    HW121845   1.515   0.549   4.424
 6982SOL    HW221846   1.513   0.711   4.403
 6983SOL     OW21847   4.117   2.092   3.759
 6983SOL    HW121848   4.192   2.051   3.707
 6983SOL    HW221849   4.142   2.184   3.787
 6984SOL     OW21850   2.721   1.700   3.690
 6984SOL    HW121851   2.633   1.655   3.707
 6984SOL    HW221852   2.743   1.760   3.767
 6985SOL     OW21853   4.489   5.130   1.925
 6985SOL    HW121854   4.574   5.140   1.978
 6985SOL    HW221855   4.464   5.218   1.885
 6986SOL     OW21856   1.592   6.806   6.615
 6986SOL    HW121857   1.553   6.896   6.633
 6986SOL    HW221858   1.536   6.760   6.545
 6987SOL     OW21859   6.752   1.425   5.930
 6987SOL    HW121860   6.779   1.330   5.948
 6987SOL    HW221861   6.813   1.487   5.980
 6988SOL     OW21862   0.565   0.329   5.381
 6988SOL    HW121863   0.555   0.362   5.476
 6988SOL    HW221864   0.661   0.333   5.355
 6989SOL     OW21865   0.972   4.522   2.926
 6989SOL    HW121866   0.987   4.512   3.024
 6989SOL    HW221867   1.000   4.438   2.879
 6990SOL     OW21868   5.067   2.806   1.057
 6990SOL    HW121869   5.081   2.797   1.156
 6990SOL    HW221870   4.970   2.799   1.036
 6991SOL     OW21871   3.117   4.899   3.694
 6991SOL    HW121872   3.122   4.942   3.603
 6991SOL    HW221873   3.022   4.878   3.716
 6992SOL     OW21874   5.209   6.160   6.128
 6992SOL    HW121875   5.296   6.125   6.163
 6992SOL    HW221876   5.174   6.097   6.058
 6993SOL     OW21877   6.190   0.693   3.014
 6993SOL    HW121878   6.226   0.711   3.106
 6993SOL    HW221879   6.155   0.600   3.009
 6994SOL     OW21880   0.440   2.615   4.376
 6994SOL    HW121881   0.452   2.600   4.474
 6994SOL    HW221882   0.388   2.538   4.337
 6995SOL     OW21883   6.666   4.696   6.023
 6995SOL    HW121884   6.720   4.732   6.100
 6995SOL    HW221885   6.715   4.713   5.938
 6996SOL     OW21886   1.430   7.015   6.663
 6996SOL    HW121887   1.368   6.951   6.707
 6996SOL    HW221888   1.391   0.083   6.666
 6997SOL     OW21889   6.684   5.708   5.039
 6997SOL    HW121890   6.657   5.788   5.091
 6997SOL    HW221891   6.771   5.727   4.992
 6998SOL     OW21892   2.362   1.109   1.891
 6998SOL    HW121893   2.322   1.162   1.966
 6998SOL    HW221894   2.292   1.089   1.823
 6999SOL     OW21895   2.517   2.665   5.971
 6999SOL    HW121896   2.425   2.706   5.972
 6999SOL    HW221897   2.520   2.589   6.036
 7000SOL     OW21898   5.431   6.211   1.332
 7000SOL    HW121899   5.476   6.163   1.257
 7000SOL    HW221900   5.490   6.212   1.413
 7001SOL     OW21901   1.799   2.522   5.221
 7001SOL    HW121902   1.891   2.556   5.239
 7001SOL    HW221903   1.774   2.543   5.126
 7002SOL     OW21904   2.054   5.626   3.544
 7002SOL    HW121905   2.140   5.579   3.526
 7002SOL    HW221906   2.017   5.663   3.458
 7003SOL     OW21907   3.729   5.283   0.472
 7003SOL    HW121908   3.709   5.213   0.404
 7003SOL    HW221909   3.754   5.240   0.558
 7004SOL     OW21910   1.008   4.595   2.391
 7004SOL    HW121911   1.088   4.565   2.443
 7004SOL    HW221912   0.966   4.674   2.437
 7005SOL     OW21913   1.996   0.363   0.205
 7005SOL    HW121914   1.928   0.427   0.240
 7005SOL    HW221915   1.989   0.358   0.106
 7006SOL     OW21916   5.047   4.890   4.104
 7006SOL    HW121917   5.100   4.918   4.024
 7006SOL    HW221918   5.066   4.794   4.124
 7007SOL     OW21919   5.351   0.189   3.155
 7007SOL    HW121920   5.440   0.232   3.140
 7007SOL    HW221921   5.355   0.093   3.126
 7008SOL     OW21922   0.650   3.992   4.635
 7008SOL    HW121923   0.606   3.916   4.683
 7008SOL    HW221924   0.741   3.965   4.605
 7009SOL     OW21925   5.869   6.396   2.033
 7009SOL    HW121926   5.922   6.360   1.956
 7009SOL    HW221927   5.926   6.397   2.115
 7010SOL     OW21928   5.140   4.620   4.081
 7010SOL    HW121929   5.219   4.573   4.041
 7010SOL    HW221930   5.119   4.580   4.170
 7011SOL     OW21931   3.478   6.710   6.677
 7011SOL    HW121932   3.506   6.667   6.592
 7011SOL    HW221933   3.384   6.743   6.668
 7012SOL     OW21934   1.518   2.405   1.647
 7012SOL    HW121935   1.560   2.428   1.735
 7012SOL    HW221936   1.419   2.402   1.657
 7013SOL     OW21937   0.531   0.311   0.619
 7013SOL    HW121938   0.505   0.234   0.677
 7013SOL    HW221939   0.616   0.289   0.572
 7014SOL     OW21940   4.315   3.562   1.160
 7014SOL    HW121941   4.304   3.472   1.119
 7014SOL    HW221942   4.227   3.592   1.197
 7015SOL     OW21943   5.626   4.936   2.235
 7015SOL    HW121944   5.697   4.871   2.207
 7015SOL    HW221945   5.666   5.005   2.295
 7016SOL     OW21946   3.694   4.599   1.431
 7016SOL    HW121947   3.713   4.659   1.353
 7016SOL    HW221948   3.604   4.556   1.419
 7017SOL     OW21949   2.186   4.829   2.101
 7017SOL    HW121950   2.147   4.772   2.029
 7017SOL    HW221951   2.285   4.827   2.096
 7018SOL     OW21952   5.624   3.895   4.377
 7018SOL    HW121953   5.557   3.844   4.323
 7018SOL    HW221954   5.691   3.833   4.416
 7019SOL     OW21955   3.358   3.976   0.266
 7019SOL    HW121956   3.362   3.921   0.349
 7019SOL    HW221957   3.424   3.941   0.199
 7020SOL     OW21958   6.732   5.500   6.746
 7020SOL    HW121959   6.741   5.585   6.800
 7020SOL    HW221960   6.643   5.499   6.701
 7021SOL     OW21961   1.465   1.617   5.945
 7021SOL    HW121962   1.409   1.534   5.958
 7021SOL    HW221963   1.435   1.687   6.010
 7022SOL     OW21964   4.843   6.871   6.460
 7022SOL    HW121965   4.909   6.922   6.516
 7022SOL    HW221966   4.813   6.928   6.384
 7023SOL     OW21967   0.631   2.044   4.672
 7023SOL    HW121968   0.729   2.026   4.668
 7023SOL    HW221969   0.583   1.959   4.694
 7024SOL     OW21970   2.630   3.951   5.331
 7024SOL    HW121971   2.547   3.974   5.280
 7024SOL    HW221972   2.681   4.034   5.352
 7025SOL     OW21973   2.705   1.393   0.429
 7025SOL    HW121974   2.648   1.340   0.366
 7025SOL    HW221975   2.799   1.393   0.397
 7026SOL     OW21976   3.459   1.776   2.015
 7026SOL    HW121977   3.377   1.720   2.004
 7026SOL    HW221978   3.436   1.872   1.999
 7027SOL     OW21979   2.431   5.378   4.342
 7027SOL    HW121980   2.365   5.302   4.347
 7027SOL    HW221981   2.385   5.460   4.308
 7028SOL     OW21982   3.824   0.767   4.026
 7028SOL    HW121983   3.914   0.753   3.984
 7028SOL    HW221984   3.786   0.854   3.995
 7029SOL     OW21985   5.019   4.810   5.193
 7029SOL    HW121986   5.093   4.804   5.126
 7029SOL    HW221987   5.009   4.722   5.239
 7030SOL     OW21988   1.478   0.860   5.320
 7030SOL    HW121989   1.438   0.904   5.401
 7030SOL    HW221990   1.518   0.772   5.347
 7031SOL     OW21991   2.645   6.069   4.793
 7031SOL    HW121992   2.601   6.063   4.883
 7031SOL    HW221993   2.602   6.004   4.731
 7032SOL     OW21994   3.912   0.684   3.286
 7032SOL    HW121995   3.962   0.614   3.235
 7032SOL    HW221996   3.971   0.722   3.357
 7033SOL     OW21997   1.493   2.368   3.879
 7033SOL    HW121998   1.545   2.434   3.825
 7033SOL    HW221999   1.426   2.322   3.821
 7034SOL     OW22000   5.936   0.611   3.770
 7034SOL    HW122001   5.878   0.557   3.831
 7034SOL    HW222002   5.990   0.549   3.712
 7035SOL     OW22003   1.619   6.759   1.456
 7035SOL    HW122004   1.592   6.718   1.542
 7035SOL    HW222005   1.588   6.854   1.453
 7036SOL     OW22006   0.559   0.717   2.863
 7036SOL    HW122007   0.597   0.797   2.910
 7036SOL    HW222008   0.461   0.728   2.850
 7037SOL     OW22009   1.886   1.996   6.671
 7037SOL    HW122010   1.932   1.934   6.734
 7037SOL    HW222011   1.902   2.091   6.699
 7038SOL     OW22012   2.718   3.324   5.648
 7038SOL    HW122013   2.724   3.401   5.712
 7038SOL    HW222014   2.774   3.248   5.682
 7039SOL     OW22015   2.835   5.184   1.534
 7039SOL    HW122016   2.814   5.135   1.449
 7039SOL    HW222017   2.908   5.136   1.583
 7040SOL     OW22018   6.345   1.604   5.066
 7040SOL    HW122019   6.382   1.630   4.977
 7040SOL    HW222020   6.419   1.596   5.132
 7041SOL     OW22021   6.628   1.883   2.017
 7041SOL    HW122022   6.555   1.815   2.023
 7041SOL    HW222023   6.636   1.930   2.105
 7042SOL     OW22024   4.644   4.915   5.316
 7042SOL    HW122025   4.545   4.925   5.331
 7042SOL    HW222026   4.691   4.911   5.404
 7043SOL     OW22027   1.783   3.990   2.745
 7043SOL    HW122028   1.777   3.896   2.710
 7043SOL    HW222029   1.700   4.040   2.721
 7044SOL     OW22030   4.370   4.780   4.207
 7044SOL    HW122031   4.280   4.813   4.235
 7044SOL    HW222032   4.436   4.855   4.212
 7045SOL     OW22033   4.785   5.844   3.591
 7045SOL    HW122034   4.836   5.787   3.527
 7045SOL    HW222035   4.745   5.922   3.542
 7046SOL     OW22036   3.422   0.813   3.197
 7046SOL    HW122037   3.420   0.878   3.122
 7046SOL    HW222038   3.489   0.741   3.177
 7047SOL     OW22039   0.182   2.003   2.700
 7047SOL    HW122040   0.180   2.035   2.794
 7047SOL    HW222041   0.185   1.903   2.699
 7048SOL     OW22042   5.694   6.394   2.921
 7048SOL    HW122043   5.789   6.421   2.935
 7048SOL    HW222044   5.673   6.312   2.975
 7049SOL     OW22045   3.669   1.773   0.715
 7049SOL    HW122046   3.724   1.693   0.690
 7049SOL    HW222047   3.595   1.785   0.649
 7050SOL     OW22048   4.307   3.551   1.502
 7050SOL    HW122049   4.219   3.564   1.456
 7050SOL    HW222050   4.329   3.632   1.555
 7051SOL     OW22051   6.827   0.253   1.743
 7051SOL    HW122052   6.898   0.201   1.694
 7051SOL    HW222053   6.784   0.194   1.811
 7052SOL     OW22054   5.653   2.828   3.453
 7052SOL    HW122055   5.661   2.897   3.380
 7052SOL    HW222056   5.697   2.862   3.535
 7053SOL     OW22057   1.051   3.242   5.390
 7053SOL    HW122058   1.110   3.249   5.470
 7053SOL    HW222059   0.979   3.174   5.408
 7054SOL     OW22060   0.928   6.753   0.342
 7054SOL    HW122061   1.008   6.709   0.382
 7054SOL    HW222062   0.955   6.836   0.294
 7055SOL     OW22063   2.742   6.996   5.257
 7055SOL    HW122064   2.771   6.977   5.163
 7055SOL    HW222065   2.665   0.035   5.255
 7056SOL     OW22066   6.406   4.526   1.859
 7056SOL    HW122067   6.420   4.487   1.768
 7056SOL    HW222068   6.448   4.616   1.863
 7057SOL     OW22069   1.815   5.576   3.666
 7057SOL    HW122070   1.819   5.648   3.735
 7057SOL    HW222071   1.901   5.571   3.616
 7058SOL     OW22072   5.900   4.586   5.648
 7058SOL    HW122073   5.934   4.633   5.729
 7058SOL    HW222074   5.803   4.604   5.637
 7059SOL     OW22075   6.812   1.223   3.831
 7059SOL    HW122076   6.776   1.197   3.741
 7059SOL    HW222077   6.828   1.140   3.885
 7060SOL     OW22078   4.254   0.235   1.578
 7060SOL    HW122079   4.320   0.286   1.521
 7060SOL    HW222080   4.270   0.137   1.568
 7061SOL     OW22081   0.522   2.912   3.221
 7061SOL    HW122082   0.551   2.818   3.202
 7061SOL    HW222083   0.603   2.970   3.232
 7062SOL     OW22084   4.287   0.735   5.396
 7062SOL    HW122085   4.217   0.802   5.373
 7062SOL    HW222086   4.281   0.710   5.492
 7063SOL     OW22087   1.282   6.989   1.710
 7063SOL    HW122088   1.350   7.009   1.780
 7063SOL    HW222089   1.249   0.050   1.669
 7064SOL     OW22090   4.215   1.920   0.801
 7064SOL    HW122091   4.168   1.832   0.792
 7064SOL    HW222092   4.269   1.937   0.719
 7065SOL     OW22093   3.909   3.987   5.898
 7065SOL    HW122094   3.824   4.033   5.922
 7065SOL    HW222095   3.904   3.890   5.924
 7066SOL     OW22096   4.685   0.621   0.021
 7066SOL    HW122097   4.686   0.677   6.962
 7066SOL    HW222098   4.642   0.533   0.002
 7067SOL     OW22099   2.013   2.711   5.026
 7067SOL    HW122100   2.070   2.737   4.949
 7067SOL    HW222101   1.933   2.662   4.993
 7068SOL     OW22102   6.314   4.475   4.281
 7068SOL    HW122103   6.357   4.454   4.368
 7068SOL    HW222104   6.253   4.400   4.255
 7069SOL     OW22105   5.671   1.354   4.545
 7069SOL    HW122106   5.659   1.438   4.492
 7069SOL    HW222107   5.704   1.376   4.637
 7070SOL     OW22108   6.998   6.084   4.698
 7070SOL    HW122109   7.009   6.163   4.637
 7070SOL    HW222110   0.061   6.035   4.706
 7071SOL     OW22111   2.999   5.582   5.960
 7071SOL    HW122112   3.033   5.571   6.053
 7071SOL    HW222113   2.900   5.598   5.963
 7072SOL     OW22114   1.480   6.287   0.403
 7072SOL    HW122115   1.382   6.308   0.406
 7072SOL    HW222116   1.510   6.256   0.493
 7073SOL     OW22117   4.771   6.626   4.463
 7073SOL    HW122118   4.706   6.563   4.419
 7073SOL    HW222119   4.834   6.662   4.394
 7074SOL     OW22120   4.981   2.496   1.697
 7074SOL    HW122121   5.017   2.422   1.640
 7074SOL    HW222122   4.938   2.458   1.779
 7075SOL     OW22123   1.991   4.010   5.654
 7075SOL    HW122124   2.074   4.019   5.598
 7075SOL    HW222125   1.912   3.997   5.594
 7076SOL     OW22126   6.128   2.362   6.070
 7076SOL    HW122127   6.116   2.276   6.022
 7076SOL    HW222128   6.040   2.407   6.082
 7077SOL     OW22129   2.570   5.035   4.051
 7077SOL    HW122130   2.517   4.971   4.106
 7077SOL    HW222131   2.597   4.991   3.965
 7078SOL     OW22132   0.077   6.798   1.681
 7078SOL    HW122133   0.012   6.852   1.733
 7078SOL    HW222134   0.169   6.834   1.694
 7079SOL     OW22135   0.322   6.043   4.014
 7079SOL    HW122136   0.287   5.974   3.950
 7079SOL    HW222137   0.347   6.126   3.964
 7080SOL     OW22138   3.577   1.134   4.734
 7080SOL    HW122139   3.635   1.056   4.709
 7080SOL    HW222140   3.634   1.214   4.753
 7081SOL     OW22141   3.001   6.689   6.985
 7081SOL    HW122142   2.942   6.629   6.930
 7081SOL    HW222143   3.075   6.635   0.000
 7082SOL     OW22144   6.375   3.958   0.054
 7082SOL    HW122145   6.352   3.863   0.076
 7082SOL    HW222146   6.420   4.000   0.133
 7083SOL     OW22147   2.833   0.302   0.747
 7083SOL    HW122148   2.858   0.207   0.763
 7083SOL    HW222149   2.735   0.315   0.761
 7084SOL     OW22150   0.230   5.493   5.718
 7084SOL    HW122151   0.215   5.415   5.658
 7084SOL    HW222152   0.282   5.563   5.669
 7085SOL     OW22153   0.823   1.749   2.051
 7085SOL    HW122154   0.741   1.727   1.998
 7085SOL    HW222155   0.886   1.804   1.996
 7086SOL     OW22156   4.954   6.937   5.454
 7086SOL    HW122157   4.921   0.006   5.463
 7086SOL    HW222158   5.031   6.922   5.515
 7087SOL     OW22159   6.055   4.124   4.300
 7087SOL    HW122160   6.045   4.213   4.257
 7087SOL    HW222161   6.142   4.083   4.273
 7088SOL     OW22162   5.177   2.797   3.641
 7088SOL    HW122163   5.138   2.845   3.720
 7088SOL    HW222164   5.155   2.847   3.558
 7089SOL     OW22165   2.791   1.925   4.765
 7089SOL    HW122166   2.783   1.986   4.843
 7089SOL    HW222167   2.764   1.974   4.682
 7090SOL     OW22168   2.100   0.615   6.899
 7090SOL    HW122169   2.120   0.530   6.849
 7090SOL    HW222170   2.186   0.660   6.922
 7091SOL     OW22171   0.482   2.037   0.373
 7091SOL    HW122172   0.543   1.968   0.414
 7091SOL    HW222173   0.510   2.128   0.404
 7092SOL     OW22174   3.616   3.384   5.603
 7092SOL    HW122175   3.563   3.313   5.650
 7092SOL    HW222176   3.712   3.359   5.601
 7093SOL     OW22177   3.052   3.962   2.557
 7093SOL    HW122178   3.035   3.962   2.459
 7093SOL    HW222179   3.137   4.012   2.576
 7094SOL     OW22180   0.028   5.673   6.115
 7094SOL    HW122181   7.005   5.758   6.138
 7094SOL    HW222182   0.102   5.658   6.180
 7095SOL     OW22183   4.365   4.512   5.647
 7095SOL    HW122184   4.266   4.500   5.653
 7095SOL    HW222185   4.399   4.553   5.731
 7096SOL     OW22186   6.705   0.642   3.753
 7096SOL    HW122187   6.622   0.677   3.710
 7096SOL    HW222188   6.781   0.706   3.737
 7097SOL     OW22189   5.886   1.884   1.308
 7097SOL    HW122190   5.873   1.863   1.405
 7097SOL    HW222191   5.984   1.878   1.286
 7098SOL     OW22192   1.700   5.586   5.807
 7098SOL    HW122193   1.646   5.502   5.799
 7098SOL    HW222194   1.720   5.604   5.903
 7099SOL     OW22195   3.986   1.305   5.076
 7099SOL    HW122196   4.042   1.305   5.159
 7099SOL    HW222197   4.038   1.345   5.001
 7100SOL     OW22198   5.855   3.283   0.317
 7100SOL    HW122199   5.866   3.200   0.371
 7100SOL    HW222200   5.924   3.350   0.344
 7101SOL     OW22201   1.905   1.207   4.817
 7101SOL    HW122202   1.856   1.224   4.732
 7101SOL    HW222203   2.001   1.231   4.806
 7102SOL     OW22204   5.258   6.624   0.879
 7102SOL    HW122205   5.168   6.634   0.837
 7102SOL    HW222206   5.312   6.707   0.865
 7103SOL     OW22207   4.798   4.850   2.343
 7103SOL    HW122208   4.828   4.836   2.437
 7103SOL    HW222209   4.792   4.948   2.324
 7104SOL     OW22210   0.126   2.953   3.867
 7104SOL    HW122211   0.053   3.017   3.891
 7104SOL    HW222212   0.097   2.898   3.789
 7105SOL     OW22213   3.488   3.087   5.254
 7105SOL    HW122214   3.426   3.095   5.333
 7105SOL    HW222215   3.459   3.011   5.197
 7106SOL     OW22216   3.798   3.692   2.468
 7106SOL    HW122217   3.889   3.733   2.475
 7106SOL    HW222218   3.783   3.632   2.546
 7107SOL     OW22219   4.825   0.921   0.441
 7107SOL    HW122220   4.869   0.887   0.524
 7107SOL    HW222221   4.894   0.967   0.383
 7108SOL     OW22222   3.836   6.468   2.404
 7108SOL    HW122223   3.901   6.544   2.405
 7108SOL    HW222224   3.870   6.394   2.346
 7109SOL     OW22225   2.420   0.311   5.900
 7109SOL    HW122226   2.483   0.300   5.977
 7109SOL    HW222227   2.389   0.221   5.868
 7110SOL     OW22228   3.194   5.721   4.330
 7110SOL    HW122229   3.171   5.691   4.238
 7110SOL    HW222230   3.239   5.646   4.379
 7111SOL     OW22231   1.417   2.884   5.075
 7111SOL    HW122232   1.321   2.895   5.047
 7111SOL    HW222233   1.420   2.856   5.171
 7112SOL     OW22234   1.828   4.707   4.557
 7112SOL    HW122235   1.889   4.673   4.486
 7112SOL    HW222236   1.832   4.645   4.636
 7113SOL     OW22237   3.600   3.836   4.670
 7113SOL    HW122238   3.569   3.772   4.600
 7113SOL    HW222239   3.699   3.848   4.663
 7114SOL     OW22240   5.056   6.270   1.481
 7114SOL    HW122241   5.123   6.316   1.422
 7114SOL    HW222242   4.978   6.240   1.426
 7115SOL     OW22243   5.435   3.151   0.819
 7115SOL    HW122244   5.493   3.133   0.899
 7115SOL    HW222245   5.343   3.118   0.836
 7116SOL     OW22246   5.885   4.298   3.088
 7116SOL    HW122247   5.920   4.354   3.164
 7116SOL    HW222248   5.854   4.210   3.123
 7117SOL     OW22249   0.206   6.262   5.524
 7117SOL    HW122250   0.267   6.203   5.470
 7117SOL    HW222251   0.204   6.353   5.484
 7118SOL     OW22252   2.785   4.902   0.837
 7118SOL    HW122253   2.755   4.970   0.903
 7118SOL    HW222254   2.787   4.812   0.880
 7119SOL     OW22255   4.701   2.366   4.204
 7119SOL    HW122256   4.635   2.441   4.214
 7119SOL    HW222257   4.725   2.355   4.108
 7120SOL     OW22258   3.767   2.039   2.346
 7120SOL    HW122259   3.710   1.960   2.324
 7120SOL    HW222260   3.716   2.102   2.406
 7121SOL     OW22261   0.871   0.147   3.856
 7121SOL    HW122262   0.879   0.115   3.951
 7121SOL    HW222263   0.828   0.075   3.801
 7122SOL     OW22264   1.532   0.464   5.828
 7122SOL    HW122265   1.464   0.524   5.870
 7122SOL    HW222266   1.546   0.492   5.733
 7123SOL     OW22267   1.601   4.424   3.217
 7123SOL    HW122268   1.655   4.390   3.140
 7123SOL    HW222269   1.551   4.506   3.189
 7124SOL     OW22270   6.785   2.164   1.688
 7124SOL    HW122271   6.833   2.101   1.627
 7124SOL    HW222272   6.697   2.123   1.715
 7125SOL     OW22273   0.553   6.837   1.180
 7125SOL    HW122274   0.562   6.890   1.264
 7125SOL    HW222275   0.519   6.897   1.107
 7126SOL     OW22276   3.167   4.957   0.467
 7126SOL    HW122277   3.119   4.988   0.550
 7126SOL    HW222278   3.224   5.031   0.433
 7127SOL     OW22279   1.876   4.903   6.089
 7127SOL    HW122280   1.971   4.918   6.063
 7127SOL    HW222281   1.858   4.805   6.097
 7128SOL     OW22282   2.625   5.002   0.105
 7128SOL    HW122283   2.712   4.988   0.151
 7128SOL    HW222284   2.579   4.914   0.092
 7129SOL     OW22285   2.474   1.997   0.079
 7129SOL    HW122286   2.418   1.925   0.037
 7129SOL    HW222287   2.532   2.039   0.010
 7130SOL     OW22288   4.109   5.018   5.404
 7130SOL    HW122289   4.037   5.003   5.471
 7130SOL    HW222290   4.123   5.116   5.392
 7131SOL     OW22291   2.687   0.573   1.036
 7131SOL    HW122292   2.751   0.603   1.106
 7131SOL    HW222293   2.732   0.575   0.947
 7132SOL     OW22294   4.026   4.118   0.353
 7132SOL    HW122295   4.044   4.155   0.261
 7132SOL    HW222296   3.954   4.173   0.397
 7133SOL     OW22297   5.141   5.202   6.021
 7133SOL    HW122298   5.087   5.126   5.986
 7133SOL    HW222299   5.129   5.208   6.121
 7134SOL     OW22300   5.042   6.618   1.835
 7134SOL    HW122301   5.056   6.538   1.893
 7134SOL    HW222302   4.975   6.678   1.877
 7135SOL     OW22303   1.423   2.591   3.557
 7135SOL    HW122304   1.495   2.646   3.597
 7135SOL    HW222305   1.343   2.592   3.617
 7136SOL     OW22306   2.359   1.846   0.594
 7136SOL    HW122307   2.424   1.912   0.634
 7136SOL    HW222308   2.323   1.787   0.665
 7137SOL     OW22309   4.086   0.011   6.672
 7137SOL    HW122310   4.073   6.941   6.702
 7137SOL    HW222311   4.031   0.028   6.590
 7138SOL     OW22312   2.699   2.209   0.536
 7138SOL    HW122313   2.793   2.197   0.565
 7138SOL    HW222314   2.683   2.158   0.452
 7139SOL     OW22315   6.253   4.154   1.665
 7139SOL    HW122316   6.229   4.066   1.625
 7139SOL    HW222317   6.173   4.214   1.664
 7140SOL     OW22318   6.620   3.959   3.005
 7140SOL    HW122319   6.528   3.928   2.981
 7140SOL    HW222320   6.673   3.882   3.040
 7141SOL     OW22321   3.687   6.298   0.752
 7141SOL    HW122322   3.620   6.372   0.754
 7141SOL    HW222323   3.729   6.289   0.842
 7142SOL     OW22324   4.106   0.203   3.056
 7142SOL    HW122325   4.140   0.115   3.023
 7142SOL    HW222326   4.008   0.211   3.036
 7143SOL     OW22327   1.632   2.653   5.753
 7143SOL    HW122328   1.730   2.640   5.764
 7143SOL    HW222329   1.599   2.600   5.675
 7144SOL     OW22330   1.965   2.071   2.569
 7144SOL    HW122331   1.946   2.152   2.514
 7144SOL    HW222332   2.056   2.080   2.609
 7145SOL     OW22333   4.277   0.139   0.398
 7145SOL    HW122334   4.326   0.084   0.331
 7145SOL    HW222335   4.179   0.120   0.392
 7146SOL     OW22336   1.918   6.686   0.421
 7146SOL    HW122337   1.975   6.614   0.461
 7146SOL    HW222338   1.970   6.735   0.351
 7147SOL     OW22339   6.845   6.928   2.303
 7147SOL    HW122340   6.771   6.988   2.333
 7147SOL    HW222341   6.880   6.876   2.380
 7148SOL     OW22342   0.088   6.269   0.943
 7148SOL    HW122343   0.058   6.348   0.889
 7148SOL    HW222344   0.064   6.284   1.039
 7149SOL     OW22345   6.443   6.970   3.227
 7149SOL    HW122346   6.425   6.891   3.170
 7149SOL    HW222347   6.367   0.011   3.219
 7150SOL     OW22348   3.776   2.591   0.969
 7150SOL    HW122349   3.824   2.627   1.049
 7150SOL    HW222350   3.804   2.495   0.954
 7151SOL     OW22351   2.663   6.566   0.569
 7151SOL    HW122352   2.563   6.566   0.575
 7151SOL    HW222353   2.691   6.545   0.476
 7152SOL     OW22354   0.416   0.852   5.752
 7152SOL    HW122355   0.368   0.900   5.825
 7152SOL    HW222356   0.418   0.909   5.670
 7153SOL     OW22357   4.152   5.311   1.855
 7153SOL    HW122358   4.082   5.309   1.926
 7153SOL    HW222359   4.134   5.388   1.793
 7154SOL     OW22360   4.714   6.761   3.386
 7154SOL    HW122361   4.626   6.771   3.433
 7154SOL    HW222362   4.760   6.849   3.382
 7155SOL     OW22363   1.730   3.458   1.077
 7155SOL    HW122364   1.746   3.433   1.172
 7155SOL    HW222365   1.633   3.480   1.064
 7156SOL     OW22366   6.620   3.196   4.339
 7156SOL    HW122367   6.702   3.197   4.282
 7156SOL    HW222368   6.640   3.242   4.426
 7157SOL     OW22369   0.206   3.464   1.403
 7157SOL    HW122370   0.109   3.442   1.403
 7157SOL    HW222371   0.229   3.510   1.489
 7158SOL     OW22372   1.542   0.162   3.776
 7158SOL    HW122373   1.534   0.241   3.715
 7158SOL    HW222374   1.468   0.164   3.843
 7159SOL     OW22375   0.767   4.608   2.746
 7159SOL    HW122376   0.832   4.577   2.816
 7159SOL    HW222377   0.702   4.672   2.788
 7160SOL     OW22378   5.739   0.597   2.783
 7160SOL    HW122379   5.789   0.515   2.812
 7160SOL    HW222380   5.725   0.657   2.862
 7161SOL     OW22381   3.316   4.112   3.325
 7161SOL    HW122382   3.263   4.040   3.281
 7161SOL    HW222383   3.281   4.127   3.418
 7162SOL     OW22384   0.913   5.277   0.047
 7162SOL    HW122385   0.841   5.327   0.095
 7162SOL    HW222386   0.922   5.312   6.978
 7163SOL     OW22387   2.950   6.396   2.425
 7163SOL    HW122388   2.906   6.486   2.430
 7163SOL    HW222389   2.880   6.325   2.432
 7164SOL     OW22390   3.030   0.714   4.104
 7164SOL    HW122391   2.948   0.688   4.154
 7164SOL    HW222392   3.108   0.716   4.166
 7165SOL     OW22393   0.002   1.024   2.957
 7165SOL    HW122394   7.014   1.018   2.858
 7165SOL    HW222395   6.966   1.093   2.994
 7166SOL     OW22396   5.044   2.157   0.728
 7166SOL    HW122397   5.128   2.104   0.732
 7166SOL    HW222398   4.965   2.096   0.725
 7167SOL     OW22399   5.803   3.241   4.398
 7167SOL    HW122400   5.868   3.279   4.463
 7167SOL    HW222401   5.723   3.300   4.391
 7168SOL     OW22402   1.438   2.623   2.764
 7168SOL    HW122403   1.476   2.635   2.672
 7168SOL    HW222404   1.477   2.541   2.806
 7169SOL     OW22405   0.880   3.056   5.493
 7169SOL    HW122406   0.851   3.077   5.587
 7169SOL    HW222407   0.836   2.971   5.464
 7170SOL     OW22408   5.060   6.762   3.474
 7170SOL    HW122409   4.991   6.741   3.404
 7170SOL    HW222410   5.015   6.767   3.564
 7171SOL     OW22411   6.253   3.716   0.087
 7171SOL    HW122412   6.194   3.684   0.013
 7171SOL    HW222413   6.331   3.654   0.097
 7172SOL     OW22414   0.922   0.030   4.423
 7172SOL    HW122415   0.825   0.004   4.413
 7172SOL    HW222416   0.955   0.002   4.513
 7173SOL     OW22417   6.725   4.313   6.709
 7173SOL    HW122418   6.752   4.380   6.779
 7173SOL    HW222419   6.769   4.226   6.729
 7174SOL     OW22420   1.405   3.571   0.680
 7174SOL    HW122421   1.353   3.487   0.667
 7174SOL    HW222422   1.359   3.629   0.747
 7175SOL     OW22423   5.450   3.007   6.533
 7175SOL    HW122424   5.361   2.967   6.512
 7175SOL    HW222425   5.474   2.986   6.628
 7176SOL     OW22426   6.787   0.446   3.034
 7176SOL    HW122427   6.832   0.517   2.981
 7176SOL    HW222428   6.759   0.483   3.123
 7177SOL     OW22429   1.501   4.853   4.695
 7177SOL    HW122430   1.589   4.853   4.743
 7177SOL    HW222431   1.456   4.942   4.707
 7178SOL     OW22432   0.939   1.452   5.742
 7178SOL    HW122433   1.006   1.516   5.779
 7178SOL    HW222434   0.863   1.503   5.702
 7179SOL     OW22435   2.189   3.224   4.232
 7179SOL    HW122436   2.109   3.263   4.277
 7179SOL    HW222437   2.230   3.154   4.291
 7180SOL     OW22438   2.017   5.200   0.248
 7180SOL    HW122439   2.040   5.296   0.234
 7180SOL    HW222440   2.022   5.151   0.161
 7181SOL     OW22441   2.159   0.036   0.415
 7181SOL    HW122442   2.230   0.070   0.353
 7181SOL    HW222443   2.179   6.965   0.440
 7182SOL     OW22444   0.391   2.857   4.974
 7182SOL    HW122445   0.381   2.760   4.997
 7182SOL    HW222446   0.445   2.903   5.045
 7183SOL     OW22447   1.844   5.644   1.007
 7183SOL    HW122448   1.877   5.557   0.972
 7183SOL    HW222449   1.886   5.662   1.096
 7184SOL     OW22450   6.842   1.356   3.374
 7184SOL    HW122451   6.748   1.384   3.355
 7184SOL    HW222452   6.877   1.409   3.451
 7185SOL     OW22453   5.771   0.297   4.497
 7185SOL    HW122454   5.696   0.234   4.477
 7185SOL    HW222455   5.737   0.374   4.550
 7186SOL     OW22456   6.854   1.993   1.464
 7186SOL    HW122457   6.840   1.897   1.437
 7186SOL    HW222458   6.866   2.049   1.382
 7187SOL     OW22459   4.086   4.276   6.207
 7187SOL    HW122460   4.104   4.373   6.189
 7187SOL    HW222461   4.003   4.268   6.262
 7188SOL     OW22462   5.624   0.272   0.187
 7188SOL    HW122463   5.588   0.178   0.188
 7188SOL    HW222464   5.700   0.277   0.122
 7189SOL     OW22465   6.583   0.995   5.330
 7189SOL    HW122466   6.555   1.070   5.389
 7189SOL    HW222467   6.671   0.958   5.362
 7190SOL     OW22468   6.981   3.951   2.286
 7190SOL    HW122469   6.998   3.858   2.253
 7190SOL    HW222470   6.915   3.996   2.227
 7191SOL     OW22471   1.025   5.362   2.480
 7191SOL    HW122472   1.071   5.361   2.569
 7191SOL    HW222473   0.983   5.452   2.465
 7192SOL     OW22474   2.648   4.543   5.671
 7192SOL    HW122475   2.734   4.499   5.696
 7192SOL    HW222476   2.574   4.505   5.727
 7193SOL     OW22477   0.956   2.901   2.481
 7193SOL    HW122478   0.969   2.837   2.405
 7193SOL    HW222479   0.920   2.852   2.560
 7194SOL     OW22480   2.727   2.898   0.622
 7194SOL    HW122481   2.802   2.877   0.558
 7194SOL    HW222482   2.746   2.985   0.668
 7195SOL     OW22483   1.061   3.824   6.988
 7195SOL    HW122484   1.063   3.893   6.915
 7195SOL    HW222485   1.140   3.764   6.978
 7196SOL     OW22486   2.894   3.733   1.479
 7196SOL    HW122487   2.816   3.741   1.541
 7196SOL    HW222488   2.872   3.669   1.405
 7197SOL     OW22489   0.426   2.339   6.388
 7197SOL    HW122490   0.504   2.352   6.326
 7197SOL    HW222491   0.427   2.412   6.457
 7198SOL     OW22492   6.777   0.681   0.776
 7198SOL    HW122493   6.810   0.595   0.816
 7198SOL    HW222494   6.804   0.686   0.680
 7199SOL     OW22495   1.638   0.724   2.291
 7199SOL    HW122496   1.736   0.740   2.297
 7199SOL    HW222497   1.592   0.808   2.261
 7200SOL     OW22498   2.847   2.691   0.063
 7200SOL    HW122499   2.856   2.712   6.990
 7200SOL    HW222500   2.759   2.723   0.096
 7201SOL     OW22501   0.653   5.526   4.528
 7201SOL    HW122502   0.631   5.533   4.431
 7201SOL    HW222503   0.741   5.570   4.546
 7202SOL     OW22504   5.510   6.889   6.987
 7202SOL    HW122505   5.568   6.970   6.982
 7202SOL    HW222506   5.428   6.910   0.014
 7203SOL     OW22507   0.329   1.747   0.968
 7203SOL    HW122508   0.269   1.744   0.888
 7203SOL    HW222509   0.274   1.735   1.051
 7204SOL     OW22510   0.305   0.423   5.423
 7204SOL    HW122511   0.398   0.387   5.413
 7204SOL    HW222512   0.247   0.386   5.350
 7205SOL     OW22513   0.881   4.192   3.779
 7205SOL    HW122514   0.830   4.173   3.863
 7205SOL    HW222515   0.966   4.239   3.801
 7206SOL     OW22516   1.359   0.670   1.685
 7206SOL    HW122517   1.315   0.686   1.774
 7206SOL    HW222518   1.289   0.665   1.614
 7207SOL     OW22519   3.635   0.909   2.656
 7207SOL    HW122520   3.666   0.963   2.578
 7207SOL    HW222521   3.713   0.860   2.696
 7208SOL     OW22522   4.037   6.936   3.685
 7208SOL    HW122523   4.087   6.905   3.766
 7208SOL    HW222524   4.086   7.013   3.644
 7209SOL     OW22525   2.678   3.399   1.686
 7209SOL    HW122526   2.731   3.372   1.766
 7209SOL    HW222527   2.580   3.390   1.707
 7210SOL     OW22528   4.511   1.222   3.606
 7210SOL    HW122529   4.549   1.210   3.514
 7210SOL    HW222530   4.576   1.272   3.662
 7211SOL     OW22531   3.072   6.947   4.448
 7211SOL    HW122532   3.099   6.966   4.354
 7211SOL    HW222533   2.984   6.899   4.449
 7212SOL     OW22534   0.411   6.246   4.738
 7212SOL    HW122535   0.408   6.252   4.638
 7212SOL    HW222536   0.414   6.339   4.776
 7213SOL     OW22537   5.360   6.153   0.079
 7213SOL    HW122538   5.386   6.063   0.043
 7213SOL    HW222539   5.433   6.218   0.061
 7214SOL     OW22540   6.260   6.531   5.638
 7214SOL    HW122541   6.304   6.476   5.710
 7214SOL    HW222542   6.177   6.572   5.674
 7215SOL     OW22543   0.015   3.507   4.767
 7215SOL    HW122544   0.036   3.534   4.861
 7215SOL    HW222545   0.022   3.588   4.707
 7216SOL     OW22546   3.364   0.142   6.885
 7216SOL    HW122547   3.329   0.216   6.943
 7216SOL    HW222548   3.308   0.060   6.899
 7217SOL     OW22549   2.088   3.778   3.408
 7217SOL    HW122550   2.043   3.849   3.353
 7217SOL    HW222551   2.117   3.703   3.348
 7218SOL     OW22552   5.548   3.370   5.321
 7218SOL    HW122553   5.458   3.359   5.363
 7218SOL    HW222554   5.619   3.339   5.384
 7219SOL     OW22555   5.120   0.340   3.098
 7219SOL    HW122556   5.186   0.286   3.149
 7219SOL    HW222557   5.027   0.314   3.124
 7220SOL     OW22558   1.263   4.664   4.990
 7220SOL    HW122559   1.180   4.612   4.971
 7220SOL    HW222560   1.239   4.756   5.022
 7221SOL     OW22561   3.740   6.189   4.204
 7221SOL    HW122562   3.651   6.167   4.243
 7221SOL    HW222563   3.809   6.126   4.241
 7222SOL     OW22564   6.026   0.138   3.008
 7222SOL    HW122565   6.011   0.172   2.916
 7222SOL    HW222566   5.945   0.088   3.039
 7223SOL     OW22567   3.029   1.046   0.615
 7223SOL    HW122568   2.956   1.062   0.548
 7223SOL    HW222569   3.000   0.973   0.678
 7224SOL     OW22570   5.565   1.665   4.066
 7224SOL    HW122571   5.581   1.567   4.055
 7224SOL    HW222572   5.534   1.704   3.980
 7225SOL     OW22573   0.942   5.422   0.878
 7225SOL    HW122574   0.913   5.468   0.795
 7225SOL    HW222575   0.934   5.485   0.956
 7226SOL     OW22576   6.950   1.631   1.556
 7226SOL    HW122577   6.922   1.698   1.625
 7226SOL    HW222578   6.913   1.658   1.467
 7227SOL     OW22579   1.758   2.232   1.093
 7227SOL    HW122580   1.843   2.187   1.120
 7227SOL    HW222581   1.716   2.274   1.174
 7228SOL     OW22582   1.062   1.994   2.849
 7228SOL    HW122583   0.990   1.932   2.817
 7228SOL    HW222584   1.144   1.979   2.794
 7229SOL     OW22585   1.781   6.222   5.560
 7229SOL    HW122586   1.779   6.178   5.650
 7229SOL    HW222587   1.825   6.311   5.568
 7230SOL     OW22588   3.720   5.311   4.569
 7230SOL    HW122589   3.679   5.276   4.485
 7230SOL    HW222590   3.810   5.269   4.582
 7231SOL     OW22591   3.987   0.917   6.629
 7231SOL    HW122592   3.918   0.986   6.649
 7231SOL    HW222593   3.942   0.833   6.599
 7232SOL     OW22594   5.202   6.020   3.519
 7232SOL    HW122595   5.264   5.956   3.475
 7232SOL    HW222596   5.231   6.114   3.499
 7233SOL     OW22597   0.860   2.002   3.896
 7233SOL    HW122598   0.874   1.998   3.797
 7233SOL    HW222599   0.774   1.957   3.920
 7234SOL     OW22600   5.340   3.236   4.227
 7234SOL    HW122601   5.314   3.265   4.319
 7234SOL    HW222602   5.365   3.140   4.228
 7235SOL     OW22603   7.022   4.637   1.949
 7235SOL    HW122604   0.046   4.582   1.883
 7235SOL    HW222605   6.930   4.600   1.963
 7236SOL     OW22606   2.096   2.145   1.716
 7236SOL    HW122607   2.113   2.178   1.623
 7236SOL    HW222608   2.122   2.216   1.782
 7237SOL     OW22609   3.992   0.492   4.971
 7237SOL    HW122610   4.077   0.454   4.934
 7237SOL    HW222611   3.916   0.469   4.911
 7238SOL     OW22612   3.311   1.985   0.679
 7238SOL    HW122613   3.395   1.975   0.625
 7238SOL    HW222614   3.274   1.895   0.699
 7239SOL     OW22615   1.173   2.559   2.603
 7239SOL    HW122616   1.078   2.534   2.582
 7239SOL    HW222617   1.173   2.643   2.657
 7240SOL     OW22618   1.062   6.818   5.998
 7240SOL    HW122619   0.964   6.830   6.011
 7240SOL    HW222620   1.078   6.748   5.928
 7241SOL     OW22621   1.477   0.775   0.558
 7241SOL    HW122622   1.570   0.779   0.519
 7241SOL    HW222623   1.455   0.680   0.582
 7242SOL     OW22624   6.320   6.037   0.433
 7242SOL    HW122625   6.342   6.114   0.374
 7242SOL    HW222626   6.387   6.031   0.507
 7243SOL     OW22627   6.838   4.469   6.427
 7243SOL    HW122628   6.882   4.470   6.517
 7243SOL    HW222629   6.743   4.442   6.437
 7244SOL     OW22630   5.963   1.071   1.883
 7244SOL    HW122631   6.060   1.091   1.900
 7244SOL    HW222632   5.910   1.098   1.963
 7245SOL     OW22633   1.032   2.120   5.155
 7245SOL    HW122634   1.091   2.053   5.200
 7245SOL    HW222635   1.089   2.187   5.106
 7246SOL     OW22636   0.028   0.156   4.148
 7246SOL    HW122637   0.111   0.109   4.120
 7246SOL    HW222638   7.002   0.186   4.067
 7247SOL     OW22639   2.117   0.677   4.454
 7247SOL    HW122640   2.090   0.650   4.362
 7247SOL    HW222641   2.171   0.762   4.450
 7248SOL     OW22642   2.346   1.509   3.534
 7248SOL    HW122643   2.397   1.521   3.618
 7248SOL    HW222644   2.409   1.490   3.458
 7249SOL     OW22645   6.334   4.813   2.637
 7249SOL    HW122646   6.366   4.773   2.551
 7249SOL    HW222647   6.273   4.890   2.618
 7250SOL     OW22648   4.520   6.766   6.280
 7250SOL    HW122649   4.570   6.685   6.251
 7250SOL    HW222650   4.443   6.738   6.337
 7251SOL     OW22651   0.503   6.451   5.725
 7251SOL    HW122652   0.596   6.418   5.710
 7251SOL    HW222653   0.446   6.375   5.757
 7252SOL     OW22654   3.763   3.636   2.730
 7252SOL    HW122655   3.691   3.689   2.775
 7252SOL    HW222656   3.850   3.653   2.777
 7253SOL     OW22657   1.952   6.225   6.706
 7253SOL    HW122658   1.929   6.228   6.608
 7253SOL    HW222659   1.898   6.155   6.751
 7254SOL     OW22660   4.655   5.323   4.267
 7254SOL    HW122661   4.646   5.272   4.182
 7254SOL    HW222662   4.629   5.264   4.344
 7255SOL     OW22663   3.187   3.766   1.092
 7255SOL    HW122664   3.222   3.698   1.157
 7255SOL    HW222665   3.099   3.736   1.056
 7256SOL     OW22666   3.551   5.163   4.365
 7256SOL    HW122667   3.519   5.133   4.275
 7256SOL    HW222668   3.522   5.097   4.435
 7257SOL     OW22669   5.854   2.923   3.694
 7257SOL    HW122670   5.926   2.988   3.720
 7257SOL    HW222671   5.895   2.844   3.648
 7258SOL     OW22672   4.170   1.803   3.747
 7258SOL    HW122673   4.182   1.876   3.680
 7258SOL    HW222674   4.199   1.836   3.837
 7259SOL     OW22675   3.079   3.379   1.299
 7259SOL    HW122676   3.108   3.294   1.343
 7259SOL    HW222677   2.995   3.411   1.343
 7260SOL     OW22678   3.613   1.631   2.180
 7260SOL    HW122679   3.555   1.676   2.111
 7260SOL    HW222680   3.555   1.586   2.247
 7261SOL     OW22681   1.640   2.564   1.459
 7261SOL    HW122682   1.571   2.636   1.449
 7261SOL    HW222683   1.610   2.499   1.529
 7262SOL     OW22684   5.079   1.811   5.500
 7262SOL    HW122685   4.998   1.753   5.497
 7262SOL    HW222686   5.153   1.763   5.547
 7263SOL     OW22687   0.968   0.116   0.629
 7263SOL    HW122688   0.906   0.131   0.552
 7263SOL    HW222689   1.046   0.177   0.621
 7264SOL     OW22690   5.850   1.676   6.397
 7264SOL    HW122691   5.834   1.671   6.299
 7264SOL    HW222692   5.768   1.646   6.446
 7265SOL     OW22693   5.485   5.282   5.911
 7265SOL    HW122694   5.474   5.362   5.971
 7265SOL    HW222695   5.576   5.282   5.871
 7266SOL     OW22696   5.515   0.092   1.264
 7266SOL    HW122697   5.480   0.007   1.225
 7266SOL    HW222698   5.615   0.092   1.261
 7267SOL     OW22699   6.440   5.555   5.405
 7267SOL    HW122700   6.495   5.583   5.326
 7267SOL    HW222701   6.498   5.546   5.485
 7268SOL     OW22702   5.460   5.245   3.897
 7268SOL    HW122703   5.413   5.224   3.811
 7268SOL    HW222704   5.398   5.295   3.957
 7269SOL     OW22705   0.343   6.665   0.150
 7269SOL    HW122706   0.323   6.720   0.068
 7269SOL    HW222707   0.409   6.714   0.207
 7270SOL     OW22708   1.714   3.285   5.673
 7270SOL    HW122709   1.770   3.323   5.746
 7270SOL    HW222710   1.748   3.315   5.584
 7271SOL     OW22711   0.223   6.063   2.942
 7271SOL    HW122712   0.212   6.040   3.039
 7271SOL    HW222713   0.192   6.156   2.926
 7272SOL     OW22714   5.892   5.506   2.191
 7272SOL    HW122715   5.912   5.424   2.138
 7272SOL    HW222716   5.868   5.581   2.128
 7273SOL     OW22717   5.749   4.892   1.743
 7273SOL    HW122718   5.692   4.836   1.803
 7273SOL    HW222719   5.831   4.920   1.794
 7274SOL     OW22720   0.907   5.882   6.656
 7274SOL    HW122721   0.818   5.921   6.631
 7274SOL    HW222722   0.921   5.893   6.755
 7275SOL     OW22723   6.652   0.166   2.551
 7275SOL    HW122724   6.635   0.124   2.462
 7275SOL    HW222725   6.665   0.265   2.540
 7276SOL     OW22726   3.586   1.789   3.114
 7276SOL    HW122727   3.665   1.746   3.157
 7276SOL    HW222728   3.502   1.754   3.157
 7277SOL     OW22729   5.030   0.397   3.416
 7277SOL    HW122730   4.992   0.489   3.419
 7277SOL    HW222731   5.013   0.350   3.503
 7278SOL     OW22732   3.232   2.771   1.480
 7278SOL    HW122733   3.145   2.752   1.526
 7278SOL    HW222734   3.224   2.747   1.384
 7279SOL     OW22735   3.663   4.087   5.611
 7279SOL    HW122736   3.717   4.005   5.593
 7279SOL    HW222737   3.701   4.165   5.560
 7280SOL     OW22738   0.168   1.983   4.022
 7280SOL    HW122739   0.240   1.998   3.954
 7280SOL    HW222740   0.175   1.890   4.057
 7281SOL     OW22741   1.644   1.329   0.225
 7281SOL    HW122742   1.741   1.305   0.215
 7281SOL    HW222743   1.587   1.251   0.199
 7282SOL     OW22744   5.964   6.405   1.525
 7282SOL    HW122745   5.997   6.313   1.502
 7282SOL    HW222746   5.946   6.456   1.440
 7283SOL     OW22747   3.782   0.966   1.882
 7283SOL    HW122748   3.817   0.925   1.798
 7283SOL    HW222749   3.855   0.972   1.950
 7284SOL     OW22750   6.916   2.103   5.561
 7284SOL    HW122751   6.949   2.015   5.528
 7284SOL    HW222752   6.993   2.164   5.578
 7285SOL     OW22753   5.228   3.839   1.788
 7285SOL    HW122754   5.295   3.913   1.799
 7285SOL    HW222755   5.180   3.851   1.701
 7286SOL     OW22756   0.666   0.647   1.160
 7286SOL    HW122757   0.708   0.689   1.240
 7286SOL    HW222758   0.728   0.653   1.082
 7287SOL     OW22759   6.316   2.945   5.117
 7287SOL    HW122760   6.229   2.952   5.067
 7287SOL    HW222761   6.298   2.905   5.207
 7288SOL     OW22762   1.523   1.942   1.327
 7288SOL    HW122763   1.501   2.021   1.385
 7288SOL    HW222764   1.604   1.896   1.364
 7289SOL     OW22765   5.576   2.609   4.460
 7289SOL    HW122766   5.640   2.539   4.493
 7289SOL    HW222767   5.520   2.641   4.536
 7290SOL     OW22768   2.153   1.301   4.812
 7290SOL    HW122769   2.237   1.338   4.773
 7290SOL    HW222770   2.153   1.314   4.911
 7291SOL     OW22771   1.490   0.043   0.349
 7291SOL    HW122772   1.554   6.995   0.376
 7291SOL    HW222773   1.401   0.026   0.390
 7292SOL     OW22774   3.422   0.453   2.991
 7292SOL    HW122775   3.331   0.482   3.021
 7292SOL    HW222776   3.485   0.530   2.997
 7293SOL     OW22777   0.971   1.806   5.364
 7293SOL    HW122778   0.880   1.786   5.402
 7293SOL    HW222779   1.008   1.888   5.408
 7294SOL     OW22780   2.969   4.806   0.340
 7294SOL    HW122781   2.877   4.803   0.378
 7294SOL    HW222782   3.030   4.848   0.408
 7295SOL     OW22783   6.268   3.875   0.871
 7295SOL    HW122784   6.289   3.850   0.776
 7295SOL    HW222785   6.174   3.910   0.876
 7296SOL     OW22786   4.187   5.874   1.876
 7296SOL    HW122787   4.214   5.833   1.788
 7296SOL    HW222788   4.269   5.895   1.929
 7297SOL     OW22789   3.242   6.628   1.122
 7297SOL    HW122790   3.176   6.667   1.058
 7297SOL    HW222791   3.255   6.691   1.199
 7298SOL     OW22792   4.756   5.011   5.901
 7298SOL    HW122793   4.734   5.019   5.998
 7298SOL    HW222794   4.757   5.102   5.860
 7299SOL     OW22795   1.277   2.402   0.688
 7299SOL    HW122796   1.354   2.370   0.631
 7299SOL    HW222797   1.256   2.332   0.757
 7300SOL     OW22798   0.570   6.994   2.425
 7300SOL    HW122799   0.660   0.007   2.400
 7300SOL    HW222800   0.557   6.906   2.378
 7301SOL     OW22801   5.626   2.459   5.165
 7301SOL    HW122802   5.607   2.524   5.091
 7301SOL    HW222803   5.711   2.409   5.145
 7302SOL     OW22804   0.102   2.480   6.297
 7302SOL    HW122805   0.114   2.495   6.395
 7302SOL    HW222806   0.041   2.550   6.259
 7303SOL     OW22807   3.709   0.833   6.767
 7303SOL    HW122808   3.691   0.793   6.857
 7303SOL    HW222809   3.692   0.932   6.771
 7304SOL     OW22810   3.031   5.419   1.516
 7304SOL    HW122811   3.031   5.486   1.442
 7304SOL    HW222812   2.966   5.347   1.496
 7305SOL     OW22813   5.302   1.731   1.473
 7305SOL    HW122814   5.306   1.634   1.449
 7305SOL    HW222815   5.272   1.740   1.568
 7306SOL     OW22816   3.836   1.907   1.576
 7306SOL    HW122817   3.853   1.891   1.673
 7306SOL    HW222818   3.779   1.988   1.565
 7307SOL     OW22819   3.175   6.252   2.370
 7307SOL    HW122820   3.196   6.202   2.454
 7307SOL    HW222821   3.120   6.333   2.392
 7308SOL     OW22822   6.384   1.724   4.271
 7308SOL    HW122823   6.309   1.660   4.291
 7308SOL    HW222824   6.432   1.693   4.189
 7309SOL     OW22825   4.022   5.778   1.589
 7309SOL    HW122826   4.076   5.855   1.555
 7309SOL    HW222827   3.934   5.811   1.623
 7310SOL     OW22828   1.945   3.555   0.541
 7310SOL    HW122829   1.886   3.619   0.492
 7310SOL    HW222830   1.919   3.551   0.637
 7311SOL     OW22831   1.545   1.748   1.111
 7311SOL    HW122832   1.591   1.791   1.190
 7311SOL    HW222833   1.473   1.808   1.078
 7312SOL     OW22834   0.961   2.630   4.737
 7312SOL    HW122835   0.922   2.549   4.694
 7312SOL    HW222836   0.982   2.698   4.667
 7313SOL     OW22837   2.143   1.594   0.087
 7313SOL    HW122838   2.201   1.588   0.168
 7313SOL    HW222839   2.047   1.600   0.115
 7314SOL     OW22840   0.344   3.824   6.321
 7314SOL    HW122841   0.293   3.740   6.304
 7314SOL    HW222842   0.295   3.879   6.389
 7315SOL     OW22843   5.036   5.603   1.694
 7315SOL    HW122844   5.044   5.648   1.606
 7315SOL    HW222845   5.101   5.643   1.758
 7316SOL     OW22846   3.098   3.494   6.951
 7316SOL    HW122847   3.083   3.540   6.864
 7316SOL    HW222848   3.172   3.428   6.942
 7317SOL     OW22849   4.168   1.991   1.446
 7317SOL    HW122850   4.230   2.065   1.474
 7317SOL    HW222851   4.084   2.029   1.410
 7318SOL     OW22852   2.797   0.401   2.154
 7318SOL    HW122853   2.769   0.429   2.063
 7318SOL    HW222854   2.822   0.304   2.153
 7319SOL     OW22855   6.088   3.650   6.915
 7319SOL    HW122856   6.147   3.628   6.837
 7319SOL    HW222857   5.994   3.625   6.894
 7320SOL     OW22858   0.471   3.449   1.335
 7320SOL    HW122859   0.513   3.525   1.384
 7320SOL    HW222860   0.372   3.448   1.353
 7321SOL     OW22861   2.079   6.507   5.484
 7321SOL    HW122862   2.133   6.488   5.402
 7321SOL    HW222863   2.139   6.537   5.558
 7322SOL     OW22864   6.627   2.742   3.178
 7322SOL    HW122865   6.724   2.735   3.156
 7322SOL    HW222866   6.574   2.729   3.094
 7323SOL     OW22867   2.082   2.828   1.581
 7323SOL    HW122868   2.021   2.775   1.522
 7323SOL    HW222869   2.045   2.921   1.592
 7324SOL     OW22870   5.640   5.138   1.619
 7324SOL    HW122871   5.699   5.132   1.538
 7324SOL    HW222872   5.660   5.062   1.680
 7325SOL     OW22873   2.651   0.267   6.057
 7325SOL    HW122874   2.609   0.272   6.147
 7325SOL    HW222875   2.738   0.318   6.058
 7326SOL     OW22876   3.501   5.730   6.202
 7326SOL    HW122877   3.593   5.721   6.240
 7326SOL    HW222878   3.437   5.676   6.257
 7327SOL     OW22879   6.305   2.627   5.069
 7327SOL    HW122880   6.246   2.688   5.122
 7327SOL    HW222881   6.394   2.619   5.115
 7328SOL     OW22882   4.657   6.998   5.938
 7328SOL    HW122883   4.588   7.002   6.010
 7328SOL    HW222884   4.699   6.907   5.937
 7329SOL     OW22885   0.315   4.160   0.558
 7329SOL    HW122886   0.247   4.118   0.498
 7329SOL    HW222887   0.271   4.230   0.614
 7330SOL     OW22888   2.580   3.314   0.247
 7330SOL    HW122889   2.557   3.291   0.341
 7330SOL    HW222890   2.670   3.278   0.225
 7331SOL     OW22891   5.440   6.420   0.836
 7331SOL    HW122892   5.419   6.325   0.813
 7331SOL    HW222893   5.357   6.466   0.866
 7332SOL     OW22894   3.344   4.909   0.165
 7332SOL    HW122895   3.345   5.004   0.196
 7332SOL    HW222896   3.283   4.901   0.086
 7333SOL     OW22897   6.024   2.733   3.237
 7333SOL    HW122898   5.949   2.668   3.244
 7333SOL    HW222899   5.987   2.824   3.217
 7334SOL     OW22900   1.776   6.798   6.160
 7334SOL    HW122901   1.781   6.856   6.241
 7334SOL    HW222902   1.681   6.793   6.128
 7335SOL     OW22903   0.258   3.267   3.178
 7335SOL    HW122904   0.307   3.265   3.265
 7335SOL    HW222905   0.279   3.351   3.129
 7336SOL     OW22906   2.317   6.830   2.304
 7336SOL    HW122907   2.247   6.866   2.366
 7336SOL    HW222908   2.273   6.790   2.224
 7337SOL     OW22909   1.601   2.998   2.370
 7337SOL    HW122910   1.608   3.020   2.468
 7337SOL    HW222911   1.692   2.975   2.335
 7338SOL     OW22912   5.579   1.685   1.545
 7338SOL    HW122913   5.502   1.697   1.482
 7338SOL    HW222914   5.545   1.651   1.633
 7339SOL     OW22915   6.072   0.288   4.858
 7339SOL    HW122916   6.003   0.239   4.804
 7339SOL    HW222917   6.131   0.222   4.904
 7340SOL     OW22918   3.468   1.433   0.236
 7340SOL    HW122919   3.392   1.455   0.175
 7340SOL    HW222920   3.461   1.338   0.266
 7341SOL     OW22921   0.832   4.685   4.740
 7341SOL    HW122922   0.781   4.764   4.774
 7341SOL    HW222923   0.891   4.650   4.813
 7342SOL     OW22924   0.197   6.609   6.359
 7342SOL    HW122925   0.222   6.578   6.451
 7342SOL    HW222926   0.127   6.681   6.366
 7343SOL     OW22927   5.724   4.663   1.289
 7343SOL    HW122928   5.665   4.588   1.260
 7343SOL    HW222929   5.695   4.696   1.378
 7344SOL     OW22930   1.114   0.644   5.824
 7344SOL    HW122931   1.119   0.545   5.815
 7344SOL    HW222932   1.195   0.678   5.873
 7345SOL     OW22933   5.034   5.682   5.286
 7345SOL    HW122934   5.133   5.694   5.282
 7345SOL    HW222935   5.010   5.633   5.371
 7346SOL     OW22936   4.454   4.088   1.579
 7346SOL    HW122937   4.394   4.131   1.647
 7346SOL    HW222938   4.432   4.124   1.488
 7347SOL     OW22939   0.679   3.056   1.120
 7347SOL    HW122940   0.607   3.061   1.051
 7347SOL    HW222941   0.647   3.098   1.205
 7348SOL     OW22942   1.263   3.628   3.387
 7348SOL    HW122943   1.189   3.694   3.399
 7348SOL    HW222944   1.330   3.665   3.322
 7349SOL     OW22945   4.690   1.972   0.465
 7349SOL    HW122946   4.632   1.892   0.483
 7349SOL    HW222947   4.766   1.945   0.406
 7350SOL     OW22948   1.971   3.028   5.540
 7350SOL    HW122949   2.052   3.085   5.533
 7350SOL    HW222950   1.894   3.073   5.493
 7351SOL     OW22951   5.003   5.974   5.356
 7351SOL    HW122952   5.050   6.006   5.438
 7351SOL    HW222953   5.002   5.874   5.355
 7352SOL     OW22954   1.603   2.747   3.022
 7352SOL    HW122955   1.586   2.725   3.118
 7352SOL    HW222956   1.518   2.783   2.981
 7353SOL     OW22957   0.367   6.782   6.003
 7353SOL    HW122958   0.292   6.759   5.941
 7353SOL    HW222959   0.368   6.880   6.020
 7354SOL     OW22960   0.731   1.909   6.690
 7354SOL    HW122961   0.715   1.856   6.773
 7354SOL    HW222962   0.816   1.960   6.700
 7355SOL     OW22963   2.104   1.271   0.520
 7355SOL    HW122964   2.151   1.184   0.532
 7355SOL    HW222965   2.158   1.344   0.563
 7356SOL     OW22966   3.774   3.593   5.797
 7356SOL    HW122967   3.798   3.497   5.810
 7356SOL    HW222968   3.847   3.651   5.833
 7357SOL     OW22969   4.487   0.110   1.855
 7357SOL    HW122970   4.468   0.021   1.815
 7357SOL    HW222971   4.565   0.152   1.809
 7358SOL     OW22972   0.045   2.920   2.624
 7358SOL    HW122973   0.126   2.965   2.587
 7358SOL    HW222974   0.025   2.839   2.569
 7359SOL     OW22975   2.398   2.733   6.316
 7359SOL    HW122976   2.344   2.719   6.233
 7359SOL    HW222977   2.398   2.831   6.339
 7360SOL     OW22978   3.454   4.329   5.892
 7360SOL    HW122979   3.360   4.310   5.919
 7360SOL    HW222980   3.470   4.295   5.799
 7361SOL     OW22981   4.382   0.424   1.732
 7361SOL    HW122982   4.368   0.367   1.813
 7361SOL    HW222983   4.299   0.425   1.676
 7362SOL     OW22984   0.969   5.330   4.184
 7362SOL    HW122985   0.991   5.380   4.100
 7362SOL    HW222986   1.007   5.379   4.263
 7363SOL     OW22987   4.313   1.261   1.332
 7363SOL    HW122988   4.371   1.339   1.309
 7363SOL    HW222989   4.218   1.285   1.313
 7364SOL     OW22990   4.216   0.606   1.165
 7364SOL    HW122991   4.217   0.690   1.219
 7364SOL    HW222992   4.197   0.628   1.070
 7365SOL     OW22993   1.420   0.168   1.835
 7365SOL    HW122994   1.388   0.190   1.743
 7365SOL    HW222995   1.516   0.139   1.830
 7366SOL     OW22996   2.154   5.643   6.944
 7366SOL    HW122997   2.149   5.733   6.986
 7366SOL    HW222998   2.069   5.593   6.960
 7367SOL     OW22999   4.920   3.569   1.287
 7367SOL    HW123000   4.822   3.569   1.305
 7367SOL    HW223001   4.968   3.528   1.365
 7368SOL     OW23002   3.720   3.042   3.504
 7368SOL    HW123003   3.644   2.978   3.494
 7368SOL    HW223004   3.734   3.062   3.601
 7369SOL     OW23005   4.165   2.550   6.958
 7369SOL    HW123006   4.183   2.452   6.951
 7369SOL    HW223007   4.184   2.580   0.027
 7370SOL     OW23008   2.874   0.870   4.741
 7370SOL    HW123009   2.921   0.795   4.694
 7370SOL    HW223010   2.930   0.953   4.736
 7371SOL     OW23011   2.026   6.079   3.512
 7371SOL    HW123012   2.017   6.151   3.444
 7371SOL    HW223013   2.123   6.063   3.531
 7372SOL     OW23014   4.059   1.369   4.799
 7372SOL    HW123015   4.079   1.283   4.752
 7372SOL    HW223016   4.143   1.408   4.836
 7373SOL     OW23017   5.948   1.305   4.510
 7373SOL    HW123018   5.850   1.315   4.494
 7373SOL    HW223019   5.966   1.310   4.609
 7374SOL     OW23020   3.205   1.329   5.488
 7374SOL    HW123021   3.245   1.411   5.447
 7374SOL    HW223022   3.263   1.297   5.563
 7375SOL     OW23023   2.118   3.291   3.140
 7375SOL    HW123024   2.043   3.225   3.143
 7375SOL    HW223025   2.131   3.324   3.047
 7376SOL     OW23026   3.356   1.913   0.344
 7376SOL    HW123027   3.427   1.948   0.404
 7376SOL    HW223028   3.362   1.959   0.255
 7377SOL     OW23029   5.379   4.643   0.574
 7377SOL    HW123030   5.304   4.583   0.546
 7377SOL    HW223031   5.433   4.598   0.646
 7378SOL     OW23032   0.853   1.167   5.652
 7378SOL    HW123033   0.861   1.265   5.671
 7378SOL    HW223034   0.944   1.126   5.654
 7379SOL     OW23035   3.056   2.179   2.947
 7379SOL    HW123036   2.978   2.192   2.886
 7379SOL    HW223037   3.139   2.169   2.893
 7380SOL     OW23038   0.606   3.899   5.081
 7380SOL    HW123039   0.580   3.884   5.177
 7380SOL    HW223040   0.554   3.975   5.044
 7381SOL     OW23041   5.051   3.781   1.968
 7381SOL    HW123042   4.964   3.815   1.934
 7381SOL    HW223043   5.126   3.821   1.915
 7382SOL     OW23044   0.349   5.326   6.357
 7382SOL    HW123045   0.298   5.409   6.337
 7382SOL    HW223046   0.291   5.246   6.340
 7383SOL     OW23047   1.109   6.590   0.823
 7383SOL    HW123048   1.104   6.685   0.853
 7383SOL    HW223049   1.197   6.573   0.779
 7384SOL     OW23050   5.585   1.096   3.647
 7384SOL    HW123051   5.590   1.013   3.703
 7384SOL    HW223052   5.661   1.156   3.670
 7385SOL     OW23053   4.420   5.889   2.026
 7385SOL    HW123054   4.497   5.951   2.016
 7385SOL    HW223055   4.454   5.797   2.049
 7386SOL     OW23056   0.755   2.148   5.620
 7386SOL    HW123057   0.787   2.166   5.527
 7386SOL    HW223058   0.833   2.130   5.680
 7387SOL     OW23059   4.618   6.417   4.367
 7387SOL    HW123060   4.539   6.412   4.305
 7387SOL    HW223061   4.677   6.338   4.350
 7388SOL     OW23062   0.093   4.803   2.401
 7388SOL    HW123063   0.112   4.901   2.407
 7388SOL    HW223064   0.163   4.752   2.450
 7389SOL     OW23065   0.465   3.123   6.300
 7389SOL    HW123066   0.535   3.189   6.327
 7389SOL    HW223067   0.471   3.105   6.202
 7390SOL     OW23068   2.105   2.208   0.106
 7390SOL    HW123069   2.132   2.297   0.144
 7390SOL    HW223070   2.184   2.146   0.107
 7391SOL     OW23071   4.223   3.769   5.209
 7391SOL    HW123072   4.308   3.813   5.239
 7391SOL    HW223073   4.204   3.796   5.114
 7392SOL     OW23074   2.353   6.107   6.742
 7392SOL    HW123075   2.453   6.115   6.752
 7392SOL    HW223076   2.332   6.076   6.650
 7393SOL     OW23077   5.139   4.964   2.346
 7393SOL    HW123078   5.073   4.969   2.272
 7393SOL    HW223079   5.217   4.909   2.317
 7394SOL     OW23080   2.983   2.266   5.747
 7394SOL    HW123081   2.986   2.264   5.847
 7394SOL    HW223082   3.071   2.236   5.711
 7395SOL     OW23083   1.999   2.526   0.263
 7395SOL    HW123084   2.052   2.502   0.344
 7395SOL    HW223085   1.923   2.586   0.290
 7396SOL     OW23086   1.232   6.978   0.426
 7396SOL    HW123087   1.225   6.927   0.512
 7396SOL    HW223088   1.235   6.914   0.349
 7397SOL     OW23089   4.353   5.196   5.221
 7397SOL    HW123090   4.425   5.265   5.222
 7397SOL    HW223091   4.349   5.153   5.131
 7398SOL     OW23092   2.619   4.903   4.379
 7398SOL    HW123093   2.577   4.852   4.455
 7398SOL    HW223094   2.656   4.838   4.312
 7399SOL     OW23095   0.993   2.203   5.751
 7399SOL    HW123096   0.933   2.224   5.829
 7399SOL    HW223097   1.039   2.116   5.767
 7400SOL     OW23098   4.076   2.855   5.902
 7400SOL    HW123099   4.117   2.886   5.816
 7400SOL    HW223100   4.145   2.857   5.974
 7401SOL     OW23101   1.674   0.581   4.726
 7401SOL    HW123102   1.591   0.622   4.688
 7401SOL    HW223103   1.745   0.578   4.657
 7402SOL     OW23104   3.091   6.036   6.474
 7402SOL    HW123105   3.073   5.940   6.500
 7402SOL    HW223106   3.077   6.094   6.554
 7403SOL     OW23107   2.182   3.992   2.598
 7403SOL    HW123108   2.138   3.993   2.688
 7403SOL    HW223109   2.242   4.072   2.590
 7404SOL     OW23110   2.017   5.015   1.274
 7404SOL    HW123111   2.046   5.073   1.198
 7404SOL    HW223112   1.986   4.927   1.239
 7405SOL     OW23113   3.772   4.888   4.064
 7405SOL    HW123114   3.710   4.922   3.994
 7405SOL    HW223115   3.787   4.959   4.133
 7406SOL     OW23116   0.457   3.238   3.389
 7406SOL    HW123117   0.498   3.159   3.435
 7406SOL    HW223118   0.526   3.281   3.330
 7407SOL     OW23119   0.042   6.167   4.113
 7407SOL    HW123120   0.119   6.163   4.049
 7407SOL    HW223121   0.076   6.170   4.206
 7408SOL     OW23122   2.317   4.302   6.653
 7408SOL    HW123123   2.287   4.352   6.735
 7408SOL    HW223124   2.391   4.239   6.676
 7409SOL     OW23125   0.417   1.671   6.137
 7409SOL    HW123126   0.488   1.600   6.145
 7409SOL    HW223127   0.447   1.754   6.185
 7410SOL     OW23128   0.166   6.666   1.084
 7410SOL    HW123129   0.227   6.596   1.047
 7410SOL    HW223130   0.220   6.735   1.133
 7411SOL     OW23131   2.961   0.166   4.868
 7411SOL    HW123132   2.862   0.169   4.855
 7411SOL    HW223133   2.996   0.258   4.883
 7412SOL     OW23134   4.759   0.274   1.913
 7412SOL    HW123135   4.706   0.328   1.978
 7412SOL    HW223136   4.856   0.289   1.929
 7413SOL     OW23137   4.987   5.746   4.367
 7413SOL    HW123138   4.901   5.781   4.406
 7413SOL    HW223139   5.054   5.820   4.365
 7414SOL     OW23140   0.472   0.291   3.793
 7414SOL    HW123141   0.466   0.216   3.727
 7414SOL    HW223142   0.395   0.286   3.856
 7415SOL     OW23143   1.909   4.098   4.494
 7415SOL    HW123144   1.835   4.047   4.451
 7415SOL    HW223145   1.884   4.120   4.588
 7416SOL     OW23146   2.372   1.947   3.742
 7416SOL    HW123147   2.354   1.872   3.806
 7416SOL    HW223148   2.452   1.999   3.774
 7417SOL     OW23149   1.918   0.572   6.699
 7417SOL    HW123150   1.929   0.482   6.656
 7417SOL    HW223151   1.974   0.576   6.782
 7418SOL     OW23152   3.263   5.926   0.915
 7418SOL    HW123153   3.328   5.860   0.879
 7418SOL    HW223154   3.204   5.880   0.982
 7419SOL     OW23155   5.655   3.469   5.089
 7419SOL    HW123156   5.634   3.447   5.184
 7419SOL    HW223157   5.672   3.385   5.038
 7420SOL     OW23158   0.547   6.979   1.985
 7420SOL    HW123159   0.625   7.017   2.035
 7420SOL    HW223160   0.488   6.928   2.049
 7421SOL     OW23161   3.363   4.017   0.869
 7421SOL    HW123162   3.270   3.998   0.838
 7421SOL    HW223163   3.428   3.971   0.809
 7422SOL     OW23164   0.183   3.305   2.829
 7422SOL    HW123165   0.204   3.399   2.855
 7422SOL    HW223166   0.087   3.285   2.849
 7423SOL     OW23167   6.257   3.799   5.601
 7423SOL    HW123168   6.259   3.876   5.665
 7423SOL    HW223169   6.163   3.783   5.572
 7424SOL     OW23170   6.990   6.945   5.428
 7424SOL    HW123171   7.003   0.019   5.419
 7424SOL    HW223172   6.892   6.923   5.423
 7425SOL     OW23173   4.559   5.457   6.492
 7425SOL    HW123174   4.617   5.536   6.509
 7425SOL    HW223175   4.532   5.455   6.396
 7426SOL     OW23176   2.234   1.055   5.709
 7426SOL    HW123177   2.252   1.116   5.632
 7426SOL    HW223178   2.151   1.086   5.757
 7427SOL     OW23179   3.515   0.097   3.970
 7427SOL    HW123180   3.468   0.184   3.962
 7427SOL    HW223181   3.614   0.113   3.972
 7428SOL     OW23182   3.987   1.109   6.312
 7428SOL    HW123183   3.964   1.206   6.319
 7428SOL    HW223184   3.902   1.055   6.313
 7429SOL     OW23185   0.126   6.821   4.067
 7429SOL    HW123186   0.096   6.883   3.994
 7429SOL    HW223187   0.206   6.860   4.113
 7430SOL     OW23188   1.023   3.233   6.971
 7430SOL    HW123189   1.038   3.137   6.948
 7430SOL    HW223190   0.938   3.264   6.929
 7431SOL     OW23191   0.691   3.091   2.995
 7431SOL    HW123192   0.611   3.124   2.944
 7431SOL    HW223193   0.718   3.001   2.960
 7432SOL     OW23194   0.693   0.944   3.325
 7432SOL    HW123195   0.766   0.880   3.351
 7432SOL    HW223196   0.734   1.026   3.286
 7433SOL     OW23197   4.943   5.691   6.280
 7433SOL    HW123198   4.868   5.642   6.236
 7433SOL    HW223199   4.931   5.690   6.379
 7434SOL     OW23200   5.098   6.418   5.797
 7434SOL    HW123201   5.100   6.419   5.897
 7434SOL    HW223202   5.187   6.386   5.762
 7435SOL     OW23203   3.751   5.643   1.019
 7435SOL    HW123204   3.727   5.711   0.950
 7435SOL    HW223205   3.809   5.572   0.978
 7436SOL     OW23206   5.799   3.787   6.486
 7436SOL    HW123207   5.793   3.809   6.389
 7436SOL    HW223208   5.710   3.758   6.519
 7437SOL     OW23209   0.953   6.337   0.487
 7437SOL    HW123210   0.897   6.400   0.540
 7437SOL    HW223211   0.925   6.243   0.507
 7438SOL     OW23212   0.976   5.639   0.115
 7438SOL    HW123213   1.039   5.565   0.089
 7438SOL    HW223214   0.887   5.600   0.139
 7439SOL     OW23215   1.557   5.700   5.445
 7439SOL    HW123216   1.596   5.757   5.518
 7439SOL    HW223217   1.465   5.671   5.472
 7440SOL     OW23218   0.040   3.918   4.400
 7440SOL    HW123219   0.000   3.939   4.310
 7440SOL    HW223220   0.139   3.927   4.395
 7441SOL     OW23221   5.417   6.287   3.827
 7441SOL    HW123222   5.435   6.375   3.872
 7441SOL    HW223223   5.340   6.242   3.871
 7442SOL     OW23224   6.537   0.935   5.743
 7442SOL    HW123225   6.437   0.927   5.738
 7442SOL    HW223226   6.565   0.941   5.838
 7443SOL     OW23227   7.023   6.940   2.072
 7443SOL    HW123228   0.093   6.968   2.059
 7443SOL    HW223229   6.992   6.965   2.163
 7444SOL     OW23230   6.022   2.971   5.660
 7444SOL    HW123231   5.938   3.021   5.681
 7444SOL    HW223232   6.027   2.889   5.716
 7445SOL     OW23233   3.778   1.462   1.170
 7445SOL    HW123234   3.843   1.435   1.099
 7445SOL    HW223235   3.721   1.537   1.135
 7446SOL     OW23236   5.663   3.601   1.148
 7446SOL    HW123237   5.646   3.550   1.233
 7446SOL    HW223238   5.602   3.566   1.076
 7447SOL     OW23239   0.674   3.321   6.374
 7447SOL    HW123240   0.689   3.302   6.471
 7447SOL    HW223241   0.595   3.383   6.365
 7448SOL     OW23242   6.594   6.198   5.682
 7448SOL    HW123243   6.517   6.150   5.724
 7448SOL    HW223244   6.571   6.221   5.587
 7449SOL     OW23245   6.428   3.380   1.944
 7449SOL    HW123246   6.353   3.389   1.878
 7449SOL    HW223247   6.410   3.303   2.004
 7450SOL     OW23248   5.567   1.999   4.469
 7450SOL    HW123249   5.519   1.938   4.406
 7450SOL    HW223250   5.664   1.973   4.473
 7451SOL     OW23251   0.072   0.436   3.171
 7451SOL    HW123252   0.071   0.346   3.128
 7451SOL    HW223253   0.166   0.461   3.193
 7452SOL     OW23254   0.796   6.060   4.654
 7452SOL    HW123255   0.856   6.048   4.574
 7452SOL    HW223256   0.738   6.140   4.640
 7453SOL     OW23257   4.966   6.718   5.766
 7453SOL    HW123258   4.878   6.698   5.723
 7453SOL    HW223259   5.003   6.634   5.807
 7454SOL     OW23260   0.587   2.515   2.645
 7454SOL    HW123261   0.555   2.450   2.577
 7454SOL    HW223262   0.522   2.592   2.651
 7455SOL     OW23263   6.896   1.724   2.479
 7455SOL    HW123264   6.971   1.743   2.415
 7455SOL    HW223265   6.839   1.650   2.443
 7456SOL     OW23266   1.021   1.363   4.417
 7456SOL    HW123267   1.024   1.275   4.465
 7456SOL    HW223268   0.940   1.414   4.445
 7457SOL     OW23269   3.800   0.200   6.260
 7457SOL    HW123270   3.855   0.279   6.289
 7457SOL    HW223271   3.848   0.116   6.284
 7458SOL     OW23272   1.751   6.565   5.934
 7458SOL    HW123273   1.662   6.529   5.906
 7458SOL    HW223274   1.739   6.629   6.010
 7459SOL     OW23275   4.854   0.619   1.961
 7459SOL    HW123276   4.901   0.532   1.953
 7459SOL    HW223277   4.916   0.694   1.937
 7460SOL     OW23278   1.385   5.401   0.895
 7460SOL    HW123279   1.473   5.355   0.878
 7460SOL    HW223280   1.339   5.416   0.808
 7461SOL     OW23281   6.094   1.465   5.947
 7461SOL    HW123282   6.121   1.466   5.850
 7461SOL    HW223283   6.139   1.542   5.994
 7462SOL     OW23284   1.603   4.197   2.759
 7462SOL    HW123285   1.518   4.165   2.800
 7462SOL    HW223286   1.584   4.237   2.669
 7463SOL     OW23287   2.599   4.535   1.133
 7463SOL    HW123288   2.602   4.574   1.225
 7463SOL    HW223289   2.503   4.522   1.106
 7464SOL     OW23290   4.752   0.153   6.556
 7464SOL    HW123291   4.744   0.229   6.491
 7464SOL    HW223292   4.663   0.107   6.564
 7465SOL     OW23293   0.799   5.711   0.411
 7465SOL    HW123294   0.813   5.773   0.334
 7465SOL    HW223295   0.726   5.747   0.470
 7466SOL     OW23296   6.978   0.703   5.590
 7466SOL    HW123297   6.922   0.736   5.666
 7466SOL    HW223298   6.939   0.618   5.554
 7467SOL     OW23299   0.218   2.119   1.095
 7467SOL    HW123300   0.252   2.083   1.008
 7467SOL    HW223301   0.160   2.198   1.079
 7468SOL     OW23302   5.456   2.944   3.642
 7468SOL    HW123303   5.477   3.025   3.588
 7468SOL    HW223304   5.406   2.878   3.586
 7469SOL     OW23305   6.834   0.984   0.511
 7469SOL    HW123306   6.740   0.957   0.493
 7469SOL    HW223307   6.835   1.074   0.554
 7470SOL     OW23308   6.619   3.549   3.774
 7470SOL    HW123309   6.602   3.527   3.678
 7470SOL    HW223310   6.548   3.506   3.831
 7471SOL     OW23311   6.602   5.914   6.113
 7471SOL    HW123312   6.648   5.860   6.042
 7471SOL    HW223313   6.514   5.946   6.077
 7472SOL     OW23314   6.455   6.717   4.961
 7472SOL    HW123315   6.395   6.786   5.001
 7472SOL    HW223316   6.437   6.628   5.004
 7473SOL     OW23317   6.277   5.254   3.269
 7473SOL    HW123318   6.330   5.175   3.238
 7473SOL    HW223319   6.338   5.331   3.285
 7474SOL     OW23320   1.729   1.250   5.492
 7474SOL    HW123321   1.794   1.317   5.528
 7474SOL    HW223322   1.708   1.183   5.563
 7475SOL     OW23323   4.647   2.149   2.177
 7475SOL    HW123324   4.585   2.127   2.252
 7475SOL    HW223325   4.612   2.230   2.129
 7476SOL     OW23326   3.226   6.243   3.502
 7476SOL    HW123327   3.204   6.258   3.406
 7476SOL    HW223328   3.214   6.146   3.524
 7477SOL     OW23329   0.507   0.874   5.117
 7477SOL    HW123330   0.556   0.799   5.072
 7477SOL    HW223331   0.410   0.850   5.124
 7478SOL     OW23332   4.880   5.557   6.515
 7478SOL    HW123333   4.879   5.495   6.594
 7478SOL    HW223334   4.911   5.508   6.434
 7479SOL     OW23335   4.566   2.523   1.673
 7479SOL    HW123336   4.600   2.599   1.729
 7479SOL    HW223337   4.525   2.454   1.731
 7480SOL     OW23338   0.422   4.258   1.896
 7480SOL    HW123339   0.390   4.299   1.811
 7480SOL    HW223340   0.377   4.170   1.909
 7481SOL     OW23341   6.036   5.089   1.095
 7481SOL    HW123342   6.052   5.085   0.996
 7481SOL    HW223343   6.099   5.155   1.136
 7482SOL     OW23344   4.328   2.093   3.057
 7482SOL    HW123345   4.248   2.033   3.049
 7482SOL    HW223346   4.306   2.182   3.017
 7483SOL     OW23347   4.789   2.893   4.712
 7483SOL    HW123348   4.825   2.986   4.704
 7483SOL    HW223349   4.817   2.854   4.800
 7484SOL     OW23350   1.596   0.672   3.627
 7484SOL    HW123351   1.530   0.746   3.637
 7484SOL    HW223352   1.637   0.676   3.536
 7485SOL     OW23353   3.646   0.213   5.177
 7485SOL    HW123354   3.702   0.155   5.118
 7485SOL    HW223355   3.550   0.203   5.152
 7486SOL     OW23356   2.005   0.120   0.684
 7486SOL    HW123357   2.066   0.127   0.605
 7486SOL    HW223358   1.989   0.211   0.722
 7487SOL     OW23359   2.305   6.305   2.617
 7487SOL    HW123360   2.345   6.269   2.533
 7487SOL    HW223361   2.346   6.260   2.696
 7488SOL     OW23362   2.354   6.861   4.046
 7488SOL    HW123363   2.285   6.793   4.022
 7488SOL    HW223364   2.355   6.873   4.146
 7489SOL     OW23365   5.194   2.964   5.247
 7489SOL    HW123366   5.164   3.047   5.200
 7489SOL    HW223367   5.237   2.902   5.181
 7490SOL     OW23368   1.277   0.682   1.927
 7490SOL    HW123369   1.285   0.586   1.956
 7490SOL    HW223370   1.296   0.742   2.005
 7491SOL     OW23371   5.977   2.314   5.780
 7491SOL    HW123372   6.074   2.331   5.796
 7491SOL    HW223373   5.941   2.254   5.852
 7492SOL     OW23374   1.775   0.484   3.026
 7492SOL    HW123375   1.681   0.491   3.058
 7492SOL    HW223376   1.816   0.576   3.022
 7493SOL     OW23377   0.175   3.588   6.616
 7493SOL    HW123378   0.084   3.588   6.657
 7493SOL    HW223379   0.221   3.501   6.637
 7494SOL     OW23380   4.628   1.375   2.627
 7494SOL    HW123381   4.615   1.334   2.537
 7494SOL    HW223382   4.540   1.403   2.665
 7495SOL     OW23383   2.146   1.326   0.062
 7495SOL    HW123384   2.146   1.425   0.048
 7495SOL    HW223385   2.241   1.293   0.064
 7496SOL     OW23386   6.252   3.586   6.018
 7496SOL    HW123387   6.274   3.506   6.074
 7496SOL    HW223388   6.171   3.632   6.055
 7497SOL     OW23389   1.925   4.219   0.143
 7497SOL    HW123390   2.014   4.265   0.148
 7497SOL    HW223391   1.903   4.199   0.047
 7498SOL     OW23392   2.983   0.677   6.022
 7498SOL    HW123393   2.915   0.720   6.082
 7498SOL    HW223394   2.966   0.705   5.928
 7499SOL     OW23395   3.114   1.916   3.083
 7499SOL    HW123396   3.152   1.926   3.175
 7499SOL    HW223397   3.155   1.985   3.023
 7500SOL     OW23398   3.114   5.378   2.942
 7500SOL    HW123399   3.170   5.400   2.862
 7500SOL    HW223400   3.118   5.280   2.959
 7501SOL     OW23401   5.136   4.294   4.626
 7501SOL    HW123402   5.131   4.194   4.628
 7501SOL    HW223403   5.043   4.332   4.628
 7502SOL     OW23404   1.885   0.275   3.775
 7502SOL    HW123405   1.941   0.322   3.707
 7502SOL    HW223406   1.808   0.334   3.802
 7503SOL     OW23407   2.451   0.690   0.964
 7503SOL    HW123408   2.472   0.753   0.889
 7503SOL    HW223409   2.534   0.672   1.017
 7504SOL     OW23410   1.288   0.043   3.057
 7504SOL    HW123411   1.343   0.053   3.139
 7504SOL    HW223412   1.298   0.125   3.000
 7505SOL     OW23413   2.125   1.428   5.520
 7505SOL    HW123414   2.175   1.497   5.573
 7505SOL    HW223415   2.059   1.382   5.579
 7506SOL     OW23416   5.905   0.741   3.269
 7506SOL    HW123417   5.840   0.717   3.196
 7506SOL    HW223418   5.909   0.840   3.279
 7507SOL     OW23419   0.535   0.972   2.587
 7507SOL    HW123420   0.565   0.877   2.579
 7507SOL    HW223421   0.576   1.013   2.669
 7508SOL     OW23422   0.765   6.985   1.340
 7508SOL    HW123423   0.805   0.021   1.271
 7508SOL    HW223424   0.819   6.901   1.346
 7509SOL     OW23425   5.362   4.263   0.341
 7509SOL    HW123426   5.324   4.346   0.301
 7509SOL    HW223427   5.308   4.184   0.312
 7510SOL     OW23428   3.827   4.254   5.432
 7510SOL    HW123429   3.912   4.286   5.390
 7510SOL    HW223430   3.750   4.271   5.369
 7511SOL     OW23431   2.621   6.832   4.001
 7511SOL    HW123432   2.522   6.825   4.015
 7511SOL    HW223433   2.643   6.924   3.968
 7512SOL     OW23434   2.733   6.564   6.280
 7512SOL    HW123435   2.833   6.566   6.280
 7512SOL    HW223436   2.698   6.653   6.249
 7513SOL     OW23437   2.628   0.718   1.390
 7513SOL    HW123438   2.698   0.674   1.334
 7513SOL    HW223439   2.654   0.813   1.408
 7514SOL     OW23440   2.389   5.788   1.909
 7514SOL    HW123441   2.355   5.836   1.828
 7514SOL    HW223442   2.418   5.696   1.883
 7515SOL     OW23443   6.851   4.842   2.720
 7515SOL    HW123444   6.949   4.859   2.708
 7515SOL    HW223445   6.830   4.748   2.693
 7516SOL     OW23446   6.917   6.547   5.310
 7516SOL    HW123447   6.909   6.617   5.239
 7516SOL    HW223448   6.826   6.522   5.342
 7517SOL     OW23449   0.213   2.925   0.840
 7517SOL    HW123450   0.256   2.873   0.766
 7517SOL    HW223451   0.118   2.896   0.850
 7518SOL     OW23452   4.198   4.708   3.931
 7518SOL    HW123453   4.243   4.645   3.994
 7518SOL    HW223454   4.233   4.693   3.839
 7519SOL     OW23455   0.284   6.779   3.805
 7519SOL    HW123456   0.200   6.833   3.800
 7519SOL    HW223457   0.287   6.715   3.728
 7520SOL     OW23458   2.464   0.195   2.248
 7520SOL    HW123459   2.408   0.149   2.317
 7520SOL    HW223460   2.483   0.288   2.277
 7521SOL     OW23461   4.990   3.980   6.140
 7521SOL    HW123462   4.899   3.939   6.149
 7521SOL    HW223463   4.981   4.074   6.108
 7522SOL     OW23464   1.688   0.831   6.211
 7522SOL    HW123465   1.756   0.816   6.282
 7522SOL    HW223466   1.681   0.929   6.192
 7523SOL     OW23467   5.724   0.176   5.304
 7523SOL    HW123468   5.689   0.251   5.360
 7523SOL    HW223469   5.781   0.213   5.231
 7524SOL     OW23470   1.450   1.991   5.458
 7524SOL    HW123471   1.523   2.035   5.406
 7524SOL    HW223472   1.451   1.893   5.441
 7525SOL     OW23473   3.322   0.726   6.451
 7525SOL    HW123474   3.359   0.735   6.543
 7525SOL    HW223475   3.225   0.753   6.451
 7526SOL     OW23476   2.809   3.281   1.973
 7526SOL    HW123477   2.866   3.362   1.988
 7526SOL    HW223478   2.749   3.268   2.052
 7527SOL     OW23479   2.813   5.889   2.984
 7527SOL    HW123480   2.753   5.967   2.970
 7527SOL    HW223481   2.875   5.908   3.060
 7528SOL     OW23482   5.605   1.981   0.006
 7528SOL    HW123483   5.526   1.948   6.979
 7528SOL    HW223484   5.636   1.908   0.068
 7529SOL     OW23485   4.788   0.889   4.482
 7529SOL    HW123486   4.745   0.977   4.462
 7529SOL    HW223487   4.869   0.904   4.539
 7530SOL     OW23488   0.192   3.194   2.568
 7530SOL    HW123489   0.204   3.219   2.664
 7530SOL    HW223490   0.281   3.188   2.523
 7531SOL     OW23491   5.343   3.290   4.582
 7531SOL    HW123492   5.307   3.218   4.640
 7531SOL    HW223493   5.269   3.334   4.532
 7532SOL     OW23494   5.370   5.854   0.042
 7532SOL    HW123495   5.290   5.855   0.102
 7532SOL    HW223496   5.417   5.766   0.051
 7533SOL     OW23497   2.597   1.750   1.820
 7533SOL    HW123498   2.608   1.651   1.820
 7533SOL    HW223499   2.532   1.776   1.748
 7534SOL     OW23500   4.551   6.028   5.229
 7534SOL    HW123501   4.598   6.114   5.212
 7534SOL    HW223502   4.456   6.035   5.197
 7535SOL     OW23503   1.655   0.084   4.953
 7535SOL    HW123504   1.642   0.110   4.857
 7535SOL    HW223505   1.752   0.084   4.974
 7536SOL     OW23506   4.525   4.479   4.812
 7536SOL    HW123507   4.464   4.483   4.891
 7536SOL    HW223508   4.477   4.512   4.731
 7537SOL     OW23509   2.911   5.646   2.449
 7537SOL    HW123510   2.891   5.718   2.383
 7537SOL    HW223511   3.010   5.635   2.458
 7538SOL     OW23512   2.538   3.228   1.429
 7538SOL    HW123513   2.466   3.257   1.367
 7538SOL    HW223514   2.536   3.285   1.512
 7539SOL     OW23515   1.043   3.764   4.387
 7539SOL    HW123516   1.089   3.791   4.472
 7539SOL    HW223517   1.099   3.697   4.339
 7540SOL     OW23518   3.932   0.061   4.636
 7540SOL    HW123519   3.843   0.067   4.590
 7540SOL    HW223520   3.918   0.035   4.731
 7541SOL     OW23521   0.207   4.311   5.324
 7541SOL    HW123522   0.120   4.283   5.365
 7541SOL    HW223523   0.236   4.242   5.258
 7542SOL     OW23524   1.111   5.174   6.549
 7542SOL    HW123525   1.200   5.211   6.575
 7542SOL    HW223526   1.039   5.223   6.598
 7543SOL     OW23527   3.460   2.048   6.781
 7543SOL    HW123528   3.489   2.143   6.790
 7543SOL    HW223529   3.409   2.036   6.695
 7544SOL     OW23530   6.898   2.659   3.092
 7544SOL    HW123531   6.991   2.693   3.085
 7544SOL    HW223532   6.883   2.620   3.183
 7545SOL     OW23533   0.219   5.797   0.812
 7545SOL    HW123534   0.146   5.864   0.828
 7545SOL    HW223535   0.198   5.744   0.731
 7546SOL     OW23536   3.386   1.957   1.694
 7546SOL    HW123537   3.320   1.988   1.762
 7546SOL    HW223538   3.435   2.035   1.656
 7547SOL     OW23539   5.391   1.074   0.850
 7547SOL    HW123540   5.386   1.048   0.946
 7547SOL    HW223541   5.340   1.007   0.795
 7548SOL     OW23542   4.057   1.224   0.271
 7548SOL    HW123543   4.001   1.216   0.189
 7548SOL    HW223544   4.027   1.157   0.339
 7549SOL     OW23545   4.770   2.434   0.669
 7549SOL    HW123546   4.757   2.525   0.708
 7549SOL    HW223547   4.709   2.422   0.590
 7550SOL     OW23548   2.581   4.970   2.327
 7550SOL    HW123549   2.537   4.914   2.256
 7550SOL    HW223550   2.515   5.035   2.364
 7551SOL     OW23551   5.569   3.478   6.720
 7551SOL    HW123552   5.500   3.486   6.791
 7551SOL    HW223553   5.555   3.549   6.651
 7552SOL     OW23554   1.598   6.339   2.536
 7552SOL    HW123555   1.518   6.280   2.525
 7552SOL    HW223556   1.577   6.409   2.605
 7553SOL     OW23557   4.462   6.185   5.896
 7553SOL    HW123558   4.521   6.218   5.823
 7553SOL    HW223559   4.453   6.256   5.966
 7554SOL     OW23560   4.581   1.134   0.424
 7554SOL    HW123561   4.495   1.128   0.373
 7554SOL    HW223562   4.585   1.059   0.491
 7555SOL     OW23563   2.437   4.630   6.085
 7555SOL    HW123564   2.516   4.670   6.038
 7555SOL    HW223565   2.376   4.702   6.116
 7556SOL     OW23566   2.142   3.267   0.181
 7556SOL    HW123567   2.104   3.354   0.213
 7556SOL    HW223568   2.070   3.198   0.177
 7557SOL     OW23569   4.920   1.255   5.087
 7557SOL    HW123570   4.897   1.195   5.163
 7557SOL    HW223571   5.014   1.287   5.097
 7558SOL     OW23572   1.241   2.722   4.009
 7558SOL    HW123573   1.324   2.757   4.053
 7558SOL    HW223574   1.172   2.794   4.006
 7559SOL     OW23575   5.193   3.547   6.959
 7559SOL    HW123576   5.219   3.474   6.895
 7559SOL    HW223577   5.098   3.573   6.943
 7560SOL     OW23578   5.013   0.194   0.933
 7560SOL    HW123579   4.930   0.162   0.886
 7560SOL    HW223580   5.031   0.289   0.908
 7561SOL     OW23581   0.836   3.581   6.944
 7561SOL    HW123582   0.917   3.586   7.001
 7561SOL    HW223583   0.770   3.517   6.985
 7562SOL     OW23584   0.100   6.549   4.051
 7562SOL    HW123585   0.120   6.644   4.073
 7562SOL    HW223586   0.001   6.536   4.045
 7563SOL     OW23587   3.372   0.502   1.355
 7563SOL    HW123588   3.327   0.433   1.299
 7563SOL    HW223589   3.447   0.461   1.406
 7564SOL     OW23590   4.856   0.285   3.188
 7564SOL    HW123591   4.853   0.349   3.265
 7564SOL    HW223592   4.775   0.296   3.131
 7565SOL     OW23593   5.099   3.449   0.774
 7565SOL    HW123594   5.098   3.387   0.852
 7565SOL    HW223595   5.007   3.484   0.757
 7566SOL     OW23596   5.656   4.922   2.890
 7566SOL    HW123597   5.634   4.838   2.841
 7566SOL    HW223598   5.665   4.902   2.988
 7567SOL     OW23599   2.010   2.215   4.347
 7567SOL    HW123600   2.016   2.231   4.445
 7567SOL    HW223601   1.983   2.120   4.330
 7568SOL     OW23602   5.008   5.752   2.753
 7568SOL    HW123603   4.966   5.780   2.667
 7568SOL    HW223604   4.968   5.805   2.828
 7569SOL     OW23605   4.026   5.337   6.349
 7569SOL    HW123606   4.071   5.252   6.374
 7569SOL    HW223607   3.983   5.378   6.429
 7570SOL     OW23608   5.780   3.251   5.487
 7570SOL    HW123609   5.857   3.205   5.443
 7570SOL    HW223610   5.752   3.198   5.567
 7571SOL     OW23611   3.929   5.250   3.325
 7571SOL    HW123612   3.907   5.276   3.231
 7571SOL    HW223613   3.953   5.153   3.328
 7572SOL     OW23614   4.762   1.057   1.291
 7572SOL    HW123615   4.756   0.966   1.333
 7572SOL    HW223616   4.692   1.116   1.331
 7573SOL     OW23617   0.446   0.280   5.112
 7573SOL    HW123618   0.478   0.309   5.202
 7573SOL    HW223619   0.515   0.304   5.044
 7574SOL     OW23620   5.361   0.578   5.759
 7574SOL    HW123621   5.397   0.626   5.838
 7574SOL    HW223622   5.435   0.558   5.694
 7575SOL     OW23623   5.153   7.011   6.505
 7575SOL    HW123624   5.131   0.083   6.516
 7575SOL    HW223625   5.118   6.960   6.583
 7576SOL     OW23626   4.983   4.595   0.145
 7576SOL    HW123627   4.970   4.694   0.142
 7576SOL    HW223628   4.894   4.551   0.161
 7577SOL     OW23629   0.634   7.010   7.022
 7577SOL    HW123630   0.618   6.922   6.978
 7577SOL    HW223631   0.729   0.014   7.005
 7578SOL     OW23632   1.745   5.261   1.618
 7578SOL    HW123633   1.665   5.281   1.675
 7578SOL    HW223634   1.739   5.167   1.585
 7579SOL     OW23635   6.945   0.902   1.772
 7579SOL    HW123636   6.871   0.967   1.789
 7579SOL    HW223637   7.023   0.923   1.831
 7580SOL     OW23638   0.498   3.793   4.730
 7580SOL    HW123639   0.501   3.708   4.783
 7580SOL    HW223640   0.414   3.794   4.675
 7581SOL     OW23641   6.810   1.180   1.201
 7581SOL    HW123642   6.789   1.087   1.233
 7581SOL    HW223643   6.761   1.246   1.257
 7582SOL     OW23644   4.350   1.385   1.719
 7582SOL    HW123645   4.267   1.353   1.673
 7582SOL    HW223646   4.396   1.452   1.661
 7583SOL     OW23647   6.091   3.434   2.303
 7583SOL    HW123648   6.175   3.397   2.343
 7583SOL    HW223649   6.112   3.479   2.216
 7584SOL     OW23650   3.597   0.015   1.203
 7584SOL    HW123651   3.507   7.020   1.164
 7584SOL    HW223652   3.651   6.956   1.208
 7585SOL     OW23653   1.556   3.005   6.557
 7585SOL    HW123654   1.622   2.940   6.520
 7585SOL    HW223655   1.473   2.956   6.584
 7586SOL     OW23656   2.600   0.439   3.685
 7586SOL    HW123657   2.678   0.379   3.703
 7586SOL    HW223658   2.615   0.527   3.728
 7587SOL     OW23659   2.642   2.840   0.197
 7587SOL    HW123660   2.587   2.829   0.280
 7587SOL    HW223661   2.611   2.923   0.149
 7588SOL     OW23662   1.637   2.925   3.400
 7588SOL    HW123663   1.671   3.017   3.420
 7588SOL    HW223664   1.630   2.873   3.485
 7589SOL     OW23665   0.766   0.433   2.555
 7589SOL    HW123666   0.819   0.383   2.624
 7589SOL    HW223667   0.750   0.526   2.587
 7590SOL     OW23668   4.057   1.419   5.951
 7590SOL    HW123669   4.042   1.516   5.971
 7590SOL    HW223670   4.155   1.401   5.946
 7591SOL     OW23671   0.245   3.782   0.734
 7591SOL    HW123672   0.291   3.869   0.751
 7591SOL    HW223673   0.147   3.791   0.754
 7592SOL     OW23674   6.794   4.534   4.770
 7592SOL    HW123675   6.838   4.494   4.689
 7592SOL    HW223676   6.695   4.534   4.758
 7593SOL     OW23677   5.907   3.447   1.113
 7593SOL    HW123678   5.825   3.408   1.154
 7593SOL    HW223679   5.883   3.532   1.065
 7594SOL     OW23680   1.316   5.486   2.356
 7594SOL    HW123681   1.242   5.441   2.306
 7594SOL    HW223682   1.298   5.481   2.455
 7595SOL     OW23683   6.309   2.976   5.893
 7595SOL    HW123684   6.331   2.995   5.797
 7595SOL    HW223685   6.382   2.922   5.934
 7596SOL     OW23686   3.916   5.321   4.319
 7596SOL    HW123687   3.877   5.409   4.348
 7596SOL    HW223688   3.983   5.291   4.387
 7597SOL     OW23689   2.696   6.374   2.686
 7597SOL    HW123690   2.690   6.446   2.617
 7597SOL    HW223691   2.734   6.291   2.644
 7598SOL     OW23692   0.066   1.571   3.293
 7598SOL    HW123693   0.024   1.520   3.218
 7598SOL    HW223694   0.028   1.541   3.380
 7599SOL     OW23695   5.385   2.184   2.521
 7599SOL    HW123696   5.323   2.146   2.590
 7599SOL    HW223697   5.468   2.128   2.515
 7600SOL     OW23698   1.507   1.740   2.719
 7600SOL    HW123699   1.552   1.782   2.798
 7600SOL    HW223700   1.560   1.757   2.636
 7601SOL     OW23701   1.877   5.703   2.672
 7601SOL    HW123702   1.866   5.664   2.581
 7601SOL    HW223703   1.789   5.739   2.704
 7602SOL     OW23704   2.121   4.042   6.509
 7602SOL    HW123705   2.065   3.976   6.460
 7602SOL    HW223706   2.212   4.003   6.525
 7603SOL     OW23707   1.563   5.947   6.216
 7603SOL    HW123708   1.484   6.005   6.195
 7603SOL    HW223709   1.531   5.855   6.241
 7604SOL     OW23710   2.156   3.870   4.549
 7604SOL    HW123711   2.186   3.934   4.478
 7604SOL    HW223712   2.133   3.921   4.632
 7605SOL     OW23713   1.100   0.750   0.997
 7605SOL    HW123714   1.048   0.695   0.932
 7605SOL    HW223715   1.048   0.758   1.082
 7606SOL     OW23716   5.805   4.111   5.333
 7606SOL    HW123717   5.900   4.112   5.301
 7606SOL    HW223718   5.744   4.103   5.254
 7607SOL     OW23719   3.037   5.330   0.280
 7607SOL    HW123720   3.043   5.343   0.181
 7607SOL    HW223721   2.962   5.266   0.300
 7608SOL     OW23722   4.018   3.924   2.132
 7608SOL    HW123723   3.944   3.906   2.196
 7608SOL    HW223724   4.089   3.978   2.177
 7609SOL     OW23725   1.137   3.350   4.556
 7609SOL    HW123726   1.116   3.253   4.542
 7609SOL    HW223727   1.153   3.393   4.467
 7610SOL     OW23728   4.646   4.745   6.135
 7610SOL    HW123729   4.677   4.713   6.045
 7610SOL    HW223730   4.665   4.843   6.143
 7611SOL     OW23731   6.118   3.291   1.808
 7611SOL    HW123732   6.151   3.224   1.874
 7611SOL    HW223733   6.088   3.245   1.725
 7612SOL     OW23734   4.598   2.672   3.388
 7612SOL    HW123735   4.527   2.628   3.333
 7612SOL    HW223736   4.674   2.699   3.328
 7613SOL     OW23737   6.741   3.138   1.030
 7613SOL    HW123738   6.753   3.197   1.109
 7613SOL    HW223739   6.688   3.185   0.959
 7614SOL     OW23740   4.882   3.229   0.373
 7614SOL    HW123741   4.949   3.267   0.309
 7614SOL    HW223742   4.856   3.299   0.440
 7615SOL     OW23743   3.540   5.535   0.650
 7615SOL    HW123744   3.613   5.537   0.581
 7615SOL    HW223745   3.518   5.441   0.674
 7616SOL     OW23746   5.707   6.278   4.483
 7616SOL    HW123747   5.609   6.294   4.467
 7616SOL    HW223748   5.758   6.307   4.402
 7617SOL     OW23749   3.964   5.386   2.541
 7617SOL    HW123750   4.036   5.422   2.601
 7617SOL    HW223751   3.906   5.462   2.510
 7618SOL     OW23752   6.874   1.299   5.513
 7618SOL    HW123753   6.931   1.217   5.521
 7618SOL    HW223754   6.818   1.293   5.431
 7619SOL     OW23755   5.718   2.686   5.293
 7619SOL    HW123756   5.763   2.679   5.204
 7619SOL    HW223757   5.620   2.673   5.282
 7620SOL     OW23758   3.976   5.989   1.151
 7620SOL    HW123759   3.939   5.899   1.175
 7620SOL    HW223760   3.948   6.056   1.220
 7621SOL     OW23761   6.627   1.452   1.018
 7621SOL    HW123762   6.722   1.458   1.047
 7621SOL    HW223763   6.618   1.488   0.924
 7622SOL     OW23764   4.885   5.325   0.065
 7622SOL    HW123765   4.916   5.419   0.058
 7622SOL    HW223766   4.849   5.308   0.157
 7623SOL     OW23767   4.516   4.130   0.098
 7623SOL    HW123768   4.531   4.105   0.193
 7623SOL    HW223769   4.421   4.159   0.085
 7624SOL     OW23770   6.849   3.771   4.921
 7624SOL    HW123771   6.941   3.775   4.883
 7624SOL    HW223772   6.820   3.676   4.929
 7625SOL     OW23773   4.735   0.795   1.682
 7625SOL    HW123774   4.679   0.876   1.700
 7625SOL    HW223775   4.739   0.739   1.765
 7626SOL     OW23776   5.894   0.268   4.268
 7626SOL    HW123777   5.951   0.349   4.256
 7626SOL    HW223778   5.862   0.263   4.363
 7627SOL     OW23779   4.631   2.954   6.787
 7627SOL    HW123780   4.547   2.986   6.742
 7627SOL    HW223781   4.633   2.854   6.787
 7628SOL     OW23782   3.482   2.079   2.129
 7628SOL    HW123783   3.558   2.120   2.079
 7628SOL    HW223784   3.434   2.150   2.181
 7629SOL     OW23785   6.964   6.389   3.024
 7629SOL    HW123786   6.916   6.301   3.034
 7629SOL    HW223787   7.023   6.404   3.103
 7630SOL     OW23788   0.204   6.634   1.483
 7630SOL    HW123789   0.125   6.661   1.538
 7630SOL    HW223790   0.177   6.562   1.419
 7631SOL     OW23791   0.681   0.936   6.403
 7631SOL    HW123792   0.681   0.840   6.432
 7631SOL    HW223793   0.611   0.950   6.333
 7632SOL     OW23794   4.005   3.011   1.325
 7632SOL    HW123795   3.969   3.071   1.398
 7632SOL    HW223796   4.101   3.033   1.308
 7633SOL     OW23797   5.288   0.621   1.091
 7633SOL    HW123798   5.388   0.619   1.103
 7633SOL    HW223799   5.258   0.716   1.083
 7634SOL     OW23800   1.595   2.227   2.391
 7634SOL    HW123801   1.519   2.257   2.334
 7634SOL    HW223802   1.662   2.177   2.335
 7635SOL     OW23803   3.220   5.311   4.968
 7635SOL    HW123804   3.162   5.231   4.984
 7635SOL    HW223805   3.282   5.293   4.892
 7636SOL     OW23806   1.414   2.823   4.215
 7636SOL    HW123807   1.354   2.897   4.243
 7636SOL    HW223808   1.508   2.846   4.238
 7637SOL     OW23809   1.915   5.330   2.385
 7637SOL    HW123810   1.906   5.240   2.427
 7637SOL    HW223811   1.924   5.320   2.286
 7638SOL     OW23812   2.645   6.043   1.381
 7638SOL    HW123813   2.700   6.101   1.442
 7638SOL    HW223814   2.676   6.055   1.287
 7639SOL     OW23815   0.751   2.316   0.619
 7639SOL    HW123816   0.846   2.343   0.605
 7639SOL    HW223817   0.703   2.311   0.532
 7640SOL     OW23818   3.066   1.072   5.695
 7640SOL    HW123819   2.997   1.111   5.635
 7640SOL    HW223820   3.138   1.029   5.641
 7641SOL     OW23821   1.089   3.883   2.617
 7641SOL    HW123822   1.167   3.824   2.598
 7641SOL    HW223823   1.023   3.834   2.674
 7642SOL     OW23824   3.490   1.371   3.012
 7642SOL    HW123825   3.437   1.315   3.077
 7642SOL    HW223826   3.431   1.399   2.937
 7643SOL     OW23827   4.670   2.706   3.650
 7643SOL    HW123828   4.623   2.715   3.562
 7643SOL    HW223829   4.764   2.675   3.635
 7644SOL     OW23830   5.745   1.683   2.045
 7644SOL    HW123831   5.699   1.742   1.978
 7644SOL    HW223832   5.844   1.688   2.031
 7645SOL     OW23833   4.334   3.682   5.586
 7645SOL    HW123834   4.293   3.609   5.531
 7645SOL    HW223835   4.326   3.769   5.537
 7646SOL     OW23836   1.182   3.390   3.186
 7646SOL    HW123837   1.109   3.446   3.146
 7646SOL    HW223838   1.205   3.426   3.277
 7647SOL     OW23839   6.793   2.558   3.544
 7647SOL    HW123840   6.752   2.649   3.552
 7647SOL    HW223841   6.764   2.501   3.621
 7648SOL     OW23842   3.152   1.643   2.946
 7648SOL    HW123843   3.110   1.721   2.994
 7648SOL    HW223844   3.086   1.605   2.882
 7649SOL     OW23845   0.586   1.068   2.850
 7649SOL    HW123846   0.666   1.052   2.907
 7649SOL    HW223847   0.513   1.109   2.906
 7650SOL     OW23848   4.998   1.453   0.330
 7650SOL    HW123849   4.914   1.434   0.382
 7650SOL    HW223850   5.059   1.509   0.386
 7651SOL     OW23851   2.344   0.791   3.620
 7651SOL    HW123852   2.337   0.817   3.523
 7651SOL    HW223853   2.277   0.720   3.640
 7652SOL     OW23854   6.200   3.207   5.977
 7652SOL    HW123855   6.239   3.117   5.956
 7652SOL    HW223856   6.153   3.243   5.897
 7653SOL     OW23857   1.169   1.545   0.210
 7653SOL    HW123858   1.227   1.571   0.287
 7653SOL    HW223859   1.074   1.536   0.241
 7654SOL     OW23860   4.795   3.107   4.342
 7654SOL    HW123861   4.789   3.007   4.350
 7654SOL    HW223862   4.767   3.149   4.428
 7655SOL     OW23863   4.640   6.736   3.081
 7655SOL    HW123864   4.595   6.687   3.006
 7655SOL    HW223865   4.735   6.705   3.089
 7656SOL     OW23866   2.918   3.806   6.157
 7656SOL    HW123867   2.948   3.817   6.062
 7656SOL    HW223868   2.902   3.897   6.197
 7657SOL     OW23869   1.271   2.445   4.031
 7657SOL    HW123870   1.357   2.420   3.988
 7657SOL    HW223871   1.259   2.545   4.028
 7658SOL     OW23872   4.199   6.790   6.340
 7658SOL    HW123873   4.194   6.890   6.330
 7658SOL    HW223874   4.175   6.746   6.254
 7659SOL     OW23875   5.939   4.713   5.918
 7659SOL    HW123876   6.007   4.785   5.907
 7659SOL    HW223877   5.939   4.682   6.014
 7660SOL     OW23878   0.495   5.829   3.787
 7660SOL    HW123879   0.406   5.783   3.793
 7660SOL    HW223880   0.556   5.792   3.857
 7661SOL     OW23881   5.812   2.265   5.078
 7661SOL    HW123882   5.874   2.243   5.002
 7661SOL    HW223883   5.863   2.260   5.164
 7662SOL     OW23884   1.089   2.932   3.304
 7662SOL    HW123885   1.072   3.031   3.308
 7662SOL    HW223886   1.171   2.911   3.357
 7663SOL     OW23887   0.226   4.923   5.286
 7663SOL    HW123888   0.136   4.880   5.282
 7663SOL    HW223889   0.294   4.863   5.243
 7664SOL     OW23890   4.187   6.979   1.599
 7664SOL    HW123891   4.098   7.007   1.634
 7664SOL    HW223892   4.174   6.905   1.533
 7665SOL     OW23893   6.338   0.317   4.745
 7665SOL    HW123894   6.266   0.277   4.803
 7665SOL    HW223895   6.416   0.342   4.802
 7666SOL     OW23896   0.677   5.357   1.972
 7666SOL    HW123897   0.723   5.443   1.993
 7666SOL    HW223898   0.707   5.286   2.035
 7667SOL     OW23899   4.832   6.662   2.249
 7667SOL    HW123900   4.785   6.601   2.312
 7667SOL    HW223901   4.800   6.756   2.263
 7668SOL     OW23902   3.250   4.652   0.370
 7668SOL    HW123903   3.193   4.734   0.378
 7668SOL    HW223904   3.334   4.675   0.321
 7669SOL     OW23905   4.673   1.357   4.974
 7669SOL    HW123906   4.757   1.329   5.021
 7669SOL    HW223907   4.691   1.363   4.876
 7670SOL     OW23908   0.897   4.718   0.144
 7670SOL    HW123909   0.987   4.740   0.107
 7670SOL    HW223910   0.834   4.793   0.127
 7671SOL     OW23911   4.791   1.246   1.810
 7671SOL    HW123912   4.828   1.312   1.744
 7671SOL    HW223913   4.706   1.207   1.775
 7672SOL     OW23914   0.693   6.710   2.152
 7672SOL    HW123915   0.621   6.682   2.088
 7672SOL    HW223916   0.773   6.651   2.141
 7673SOL     OW23917   1.509   6.658   0.859
 7673SOL    HW123918   1.506   6.749   0.817
 7673SOL    HW223919   1.431   6.604   0.827
 7674SOL     OW23920   5.836   1.074   3.188
 7674SOL    HW123921   5.928   1.042   3.209
 7674SOL    HW223922   5.826   1.084   3.089
 7675SOL     OW23923   6.537   6.664   2.121
 7675SOL    HW123924   6.498   6.692   2.034
 7675SOL    HW223925   6.537   6.564   2.128
 7676SOL     OW23926   3.149   2.263   0.713
 7676SOL    HW123927   3.137   2.359   0.687
 7676SOL    HW223928   3.243   2.235   0.693
 7677SOL     OW23929   0.256   4.934   1.505
 7677SOL    HW123930   0.214   4.978   1.585
 7677SOL    HW223931   0.288   5.004   1.442
 7678SOL     OW23932   1.763   3.347   5.065
 7678SOL    HW123933   1.812   3.273   5.111
 7678SOL    HW223934   1.815   3.433   5.075
 7679SOL     OW23935   3.245   6.060   5.361
 7679SOL    HW123936   3.174   5.991   5.376
 7679SOL    HW223937   3.278   6.094   5.450
 7680SOL     OW23938   0.994   0.898   0.356
 7680SOL    HW123939   1.020   0.948   0.273
 7680SOL    HW223940   1.071   0.896   0.419
 7681SOL     OW23941   2.792   1.394   1.104
 7681SOL    HW123942   2.736   1.473   1.078
 7681SOL    HW223943   2.876   1.394   1.051
 7682SOL     OW23944   3.273   0.147   2.035
 7682SOL    HW123945   3.274   0.242   2.004
 7682SOL    HW223946   3.250   0.087   1.958
 7683SOL     OW23947   5.343   1.627   4.669
 7683SOL    HW123948   5.308   1.720   4.672
 7683SOL    HW223949   5.365   1.596   4.761
 7684SOL     OW23950   2.811   2.048   1.777
 7684SOL    HW123951   2.893   2.106   1.778
 7684SOL    HW223952   2.838   1.952   1.775
 7685SOL     OW23953   2.705   2.208   6.055
 7685SOL    HW123954   2.655   2.293   6.073
 7685SOL    HW223955   2.687   2.143   6.128
 7686SOL     OW23956   6.671   6.636   3.136
 7686SOL    HW123957   6.711   6.695   3.066
 7686SOL    HW223958   6.574   6.660   3.148
 7687SOL     OW23959   5.831   4.994   3.452
 7687SOL    HW123960   5.883   5.063   3.401
 7687SOL    HW223961   5.892   4.949   3.518
 7688SOL     OW23962   0.544   5.739   5.332
 7688SOL    HW123963   0.602   5.662   5.357
 7688SOL    HW223964   0.600   5.815   5.301
 7689SOL     OW23965   5.635   6.546   2.510
 7689SOL    HW123966   5.682   6.634   2.508
 7689SOL    HW223967   5.566   6.547   2.582
 7690SOL     OW23968   5.450   5.385   0.675
 7690SOL    HW123969   5.451   5.368   0.577
 7690SOL    HW223970   5.466   5.300   0.725
 7691SOL     OW23971   5.143   3.792   4.269
 7691SOL    HW123972   5.176   3.873   4.317
 7691SOL    HW223973   5.171   3.710   4.319
 7692SOL     OW23974   0.701   6.305   2.103
 7692SOL    HW123975   0.615   6.345   2.134
 7692SOL    HW223976   0.685   6.212   2.071
 7693SOL     OW23977   3.283   6.665   1.549
 7693SOL    HW123978   3.350   6.591   1.552
 7693SOL    HW223979   3.199   6.635   1.595
 7694SOL     OW23980   6.099   3.766   4.552
 7694SOL    HW123981   6.048   3.741   4.634
 7694SOL    HW223982   6.196   3.777   4.575
 7695SOL     OW23983   5.308   0.531   0.764
 7695SOL    HW123984   5.335   0.572   0.851
 7695SOL    HW223985   5.360   0.447   0.750
 7696SOL     OW23986   0.822   0.856   5.511
 7696SOL    HW123987   0.751   0.891   5.449
 7696SOL    HW223988   0.784   0.843   5.602
 7697SOL     OW23989   2.183   6.692   2.828
 7697SOL    HW123990   2.254   6.725   2.766
 7697SOL    HW223991   2.147   6.768   2.882
 7698SOL     OW23992   5.937   0.955   3.931
 7698SOL    HW123993   5.895   0.886   3.990
 7698SOL    HW223994   6.007   0.912   3.874
 7699SOL     OW23995   3.514   5.592   6.887
 7699SOL    HW123996   3.415   5.606   6.876
 7699SOL    HW223997   3.535   5.581   6.984
 7700SOL     OW23998   3.925   6.119   3.021
 7700SOL    HW123999   3.924   6.078   3.112
 7700SOL    HW224000   4.018   6.122   2.986
 7701SOL     OW24001   6.573   1.785   0.971
 7701SOL    HW124002   6.526   1.867   0.939
 7701SOL    HW224003   6.667   1.808   0.996
 7702SOL     OW24004   3.348   6.757   5.170
 7702SOL    HW124005   3.431   6.701   5.168
 7702SOL    HW224006   3.296   6.742   5.086
 7703SOL     OW24007   6.713   6.026   6.867
 7703SOL    HW124008   6.662   6.018   6.782
 7703SOL    HW224009   6.776   6.104   6.862
 7704SOL     OW24010   5.990   6.707   4.684
 7704SOL    HW124011   6.046   6.658   4.617
 7704SOL    HW224012   5.944   6.783   4.638
 7705SOL     OW24013   2.524   5.886   6.891
 7705SOL    HW124014   2.439   5.936   6.876
 7705SOL    HW224015   2.602   5.946   6.872
 7706SOL     OW24016   3.890   3.520   5.271
 7706SOL    HW124017   3.883   3.585   5.196
 7706SOL    HW224018   3.956   3.553   5.338
 7707SOL     OW24019   6.951   5.004   5.532
 7707SOL    HW124020   6.986   4.920   5.491
 7707SOL    HW224021   6.869   5.033   5.483
 7708SOL     OW24022   0.905   6.592   6.187
 7708SOL    HW124023   0.859   6.531   6.122
 7708SOL    HW224024   1.000   6.604   6.158
 7709SOL     OW24025   6.443   4.088   1.860
 7709SOL    HW124026   6.376   4.137   1.804
 7709SOL    HW224027   6.412   3.993   1.872
 7710SOL     OW24028   3.124   2.093   0.323
 7710SOL    HW124029   3.154   2.180   0.362
 7710SOL    HW224030   3.193   2.023   0.341
 7711SOL     OW24031   5.886   6.382   6.022
 7711SOL    HW124032   5.981   6.411   6.038
 7711SOL    HW224033   5.883   6.282   6.018
 7712SOL     OW24034   6.240   5.403   1.970
 7712SOL    HW124035   6.320   5.382   1.913
 7712SOL    HW224036   6.270   5.425   2.063
 7713SOL     OW24037   2.415   4.163   1.276
 7713SOL    HW124038   2.435   4.145   1.373
 7713SOL    HW224039   2.475   4.107   1.219
 7714SOL     OW24040   0.429   3.529   5.817
 7714SOL    HW124041   0.370   3.595   5.862
 7714SOL    HW224042   0.450   3.454   5.880
 7715SOL     OW24043   2.772   1.888   0.611
 7715SOL    HW124044   2.839   1.943   0.562
 7715SOL    HW224045   2.804   1.872   0.705
 7716SOL     OW24046   6.607   4.374   2.164
 7716SOL    HW124047   6.525   4.344   2.115
 7716SOL    HW224048   6.657   4.439   2.106
 7717SOL     OW24049   2.124   0.694   5.371
 7717SOL    HW124050   2.143   0.786   5.403
 7717SOL    HW224051   2.158   0.628   5.438
 7718SOL     OW24052   6.915   3.908   3.907
 7718SOL    HW124053   6.951   3.816   3.898
 7718SOL    HW224054   6.815   3.905   3.910
 7719SOL     OW24055   6.985   4.271   5.408
 7719SOL    HW124056   6.917   4.327   5.360
 7719SOL    HW224057   6.941   4.224   5.485
 7720SOL     OW24058   0.082   1.203   6.851
 7720SOL    HW124059   7.015   1.180   6.819
 7720SOL    HW224060   0.086   1.301   6.872
 7721SOL     OW24061   0.465   5.300   2.634
 7721SOL    HW124062   0.463   5.208   2.596
 7721SOL    HW224063   0.432   5.299   2.729
 7722SOL     OW24064   1.318   4.260   3.480
 7722SOL    HW124065   1.308   4.165   3.510
 7722SOL    HW224066   1.275   4.272   3.391
 7723SOL     OW24067   4.459   3.266   6.273
 7723SOL    HW124068   4.421   3.267   6.181
 7723SOL    HW224069   4.550   3.308   6.273
 7724SOL     OW24070   3.153   4.061   1.201
 7724SOL    HW124071   3.168   3.965   1.180
 7724SOL    HW224072   3.178   4.078   1.297
 7725SOL     OW24073   6.851   1.646   2.888
 7725SOL    HW124074   6.782   1.692   2.832
 7725SOL    HW224075   6.810   1.619   2.976
 7726SOL     OW24076   1.534   4.799   5.298
 7726SOL    HW124077   1.610   4.739   5.322
 7726SOL    HW224078   1.454   4.775   5.352
 7727SOL     OW24079   0.109   2.358   2.700
 7727SOL    HW124080   0.159   2.373   2.785
 7727SOL    HW224081   0.171   2.372   2.622
 7728SOL     OW24082   1.851   3.630   5.113
 7728SOL    HW124083   1.949   3.626   5.098
 7728SOL    HW224084   1.829   3.708   5.172
 7729SOL     OW24085   5.620   2.161   1.383
 7729SOL    HW124086   5.526   2.195   1.387
 7729SOL    HW224087   5.633   2.107   1.300
 7730SOL     OW24088   6.159   5.739   0.329
 7730SOL    HW124089   6.212   5.818   0.360
 7730SOL    HW224090   6.079   5.771   0.277
 7731SOL     OW24091   0.028   1.431   7.025
 7731SOL    HW124092   6.952   1.434   0.003
 7731SOL    HW224093   0.064   1.422   0.093
 7732SOL     OW24094   5.108   0.042   0.527
 7732SOL    HW124095   5.131   6.969   0.521
 7732SOL    HW224096   5.025   0.053   0.581
 7733SOL     OW24097   4.805   6.135   2.771
 7733SOL    HW124098   4.760   6.095   2.691
 7733SOL    HW224099   4.864   6.067   2.814
 7734SOL     OW24100   1.534   4.951   3.565
 7734SOL    HW124101   1.621   4.974   3.607
 7734SOL    HW224102   1.547   4.934   3.468
 7735SOL     OW24103   4.472   6.501   6.901
 7735SOL    HW124104   4.534   6.449   6.960
 7735SOL    HW224105   4.447   6.446   6.821
 7736SOL     OW24106   3.763   2.970   0.048
 7736SOL    HW124107   3.799   2.993   6.982
 7736SOL    HW224108   3.724   2.878   0.046
 7737SOL     OW24109   3.359   6.532   2.534
 7737SOL    HW124110   3.292   6.481   2.587
 7737SOL    HW224111   3.311   6.589   2.466
 7738SOL     OW24112   2.939   5.641   6.862
 7738SOL    HW124113   2.953   5.547   6.831
 7738SOL    HW224114   2.922   5.641   6.961
 7739SOL     OW24115   0.021   2.320   1.089
 7739SOL    HW124116   6.964   2.338   1.035
 7739SOL    HW224117   0.038   2.396   1.151
 7740SOL     OW24118   2.585   1.725   2.886
 7740SOL    HW124119   2.542   1.658   2.947
 7740SOL    HW224120   2.625   1.678   2.808
 7741SOL     OW24121   0.690   4.783   5.665
 7741SOL    HW124122   0.680   4.875   5.627
 7741SOL    HW224123   0.731   4.723   5.597
 7742SOL     OW24124   4.324   2.016   3.590
 7742SOL    HW124125   4.418   2.015   3.625
 7742SOL    HW224126   4.326   2.029   3.491
 7743SOL     OW24127   5.492   1.627   0.007
 7743SOL    HW124128   5.478   1.543   0.060
 7743SOL    HW224129   5.561   1.683   0.052
 7744SOL     OW24130   0.386   0.314   4.210
 7744SOL    HW124131   0.360   0.220   4.233
 7744SOL    HW224132   0.480   0.315   4.177
 7745SOL     OW24133   3.860   1.084   0.142
 7745SOL    HW124134   3.894   1.018   0.209
 7745SOL    HW224135   3.769   1.056   0.111
 7746SOL     OW24136   1.769   0.548   0.267
 7746SOL    HW124137   1.745   0.616   0.337
 7746SOL    HW224138   1.776   0.593   0.178
 7747SOL     OW24139   5.238   6.069   1.524
 7747SOL    HW124140   5.314   6.099   1.582
 7747SOL    HW224141   5.179   6.147   1.504
 7748SOL     OW24142   2.875   3.509   4.448
 7748SOL    HW124143   2.859   3.477   4.541
 7748SOL    HW224144   2.872   3.431   4.385
 7749SOL     OW24145   3.083   3.190   5.529
 7749SOL    HW124146   3.091   3.215   5.625
 7749SOL    HW224147   3.046   3.267   5.477
 7750SOL     OW24148   0.360   6.126   1.497
 7750SOL    HW124149   0.261   6.117   1.504
 7750SOL    HW224150   0.386   6.222   1.512
 7751SOL     OW24151   1.755   2.720   2.312
 7751SOL    HW124152   1.809   2.640   2.338
 7751SOL    HW224153   1.815   2.798   2.298
 7752SOL     OW24154   5.867   6.082   6.011
 7752SOL    HW124155   5.780   6.123   5.984
 7752SOL    HW224156   5.850   5.999   6.063
 7753SOL     OW24157   1.989   0.920   3.972
 7753SOL    HW124158   2.010   0.822   3.970
 7753SOL    HW224159   1.905   0.935   4.024
 7754SOL     OW24160   3.693   6.866   2.345
 7754SOL    HW124161   3.652   6.957   2.352
 7754SOL    HW224162   3.622   6.797   2.347
 7755SOL     OW24163   1.271   2.255   5.831
 7755SOL    HW124164   1.185   2.305   5.823
 7755SOL    HW224165   1.304   2.231   5.739
 7756SOL     OW24166   2.437   6.151   2.445
 7756SOL    HW124167   2.478   6.066   2.478
 7756SOL    HW224168   2.464   6.165   2.349
 7757SOL     OW24169   6.299   4.788   6.322
 7757SOL    HW124170   6.237   4.711   6.340
 7757SOL    HW224171   6.328   4.829   6.408
 7758SOL     OW24172   1.371   0.724   5.932
 7758SOL    HW124173   1.348   0.729   6.029
 7758SOL    HW224174   1.452   0.779   5.914
 7759SOL     OW24175   1.297   1.366   5.649
 7759SOL    HW124176   1.378   1.391   5.596
 7759SOL    HW224177   1.232   1.442   5.651
 7760SOL     OW24178   5.510   3.674   3.029
 7760SOL    HW124179   5.464   3.586   3.019
 7760SOL    HW224180   5.609   3.660   3.023
 7761SOL     OW24181   0.285   0.507   4.812
 7761SOL    HW124182   0.362   0.529   4.751
 7761SOL    HW224183   0.241   0.592   4.841
 7762SOL     OW24184   3.229   6.770   3.953
 7762SOL    HW124185   3.194   6.825   3.878
 7762SOL    HW224186   3.280   6.828   4.017
 7763SOL     OW24187   1.705   1.270   6.543
 7763SOL    HW124188   1.805   1.271   6.536
 7763SOL    HW224189   1.678   1.289   6.637
 7764SOL     OW24190   3.721   3.205   3.743
 7764SOL    HW124191   3.695   3.185   3.838
 7764SOL    HW224192   3.820   3.202   3.734
 7765SOL     OW24193   6.423   3.145   5.279
 7765SOL    HW124194   6.407   3.095   5.195
 7765SOL    HW224195   6.336   3.177   5.317
 7766SOL     OW24196   6.998   3.453   0.514
 7766SOL    HW124197   0.061   3.459   0.562
 7766SOL    HW224198   6.951   3.541   0.519
 7767SOL     OW24199   4.894   6.336   2.592
 7767SOL    HW124200   4.882   6.258   2.653
 7767SOL    HW224201   4.886   6.306   2.497
 7768SOL     OW24202   4.181   4.797   2.882
 7768SOL    HW124203   4.104   4.792   2.818
 7768SOL    HW224204   4.201   4.892   2.903
 7769SOL     OW24205   3.996   1.912   3.364
 7769SOL    HW124206   3.928   1.954   3.304
 7769SOL    HW224207   3.981   1.943   3.458
 7770SOL     OW24208   1.892   4.541   3.273
 7770SOL    HW124209   1.796   4.513   3.261
 7770SOL    HW224210   1.905   4.632   3.236
 7771SOL     OW24211   3.408   2.081   5.138
 7771SOL    HW124212   3.504   2.052   5.129
 7771SOL    HW224213   3.368   2.091   5.047
 7772SOL     OW24214   4.611   0.123   2.546
 7772SOL    HW124215   4.601   0.055   2.618
 7772SOL    HW224216   4.600   0.215   2.585
 7773SOL     OW24217   2.997   6.060   4.877
 7773SOL    HW124218   2.903   6.066   4.911
 7773SOL    HW224219   2.995   6.038   4.779
 7774SOL     OW24220   4.974   2.083   5.443
 7774SOL    HW124221   4.888   2.132   5.432
 7774SOL    HW224222   4.972   1.999   5.388
 7775SOL     OW24223   4.581   5.519   0.894
 7775SOL    HW124224   4.635   5.537   0.812
 7775SOL    HW224225   4.518   5.443   0.876
 7776SOL     OW24226   0.808   5.557   5.856
 7776SOL    HW124227   0.756   5.605   5.786
 7776SOL    HW224228   0.797   5.603   5.944
 7777SOL     OW24229   6.261   6.380   4.530
 7777SOL    HW124230   6.244   6.384   4.628
 7777SOL    HW224231   6.280   6.285   4.504
 7778SOL     OW24232   5.314   4.147   0.618
 7778SOL    HW124233   5.342   4.205   0.541
 7778SOL    HW224234   5.315   4.201   0.702
 7779SOL     OW24235   2.761   2.455   1.724
 7779SOL    HW124236   2.676   2.456   1.777
 7779SOL    HW224237   2.838   2.443   1.787
 7780SOL     OW24238   0.963   4.835   5.076
 7780SOL    HW124239   0.954   4.819   5.175
 7780SOL    HW224240   1.057   4.862   5.055
 7781SOL     OW24241   1.807   5.083   0.942
 7781SOL    HW124242   1.803   5.167   0.996
 7781SOL    HW224243   1.903   5.053   0.935
 7782SOL     OW24244   5.763   5.277   4.331
 7782SOL    HW124245   5.679   5.223   4.324
 7782SOL    HW224246   5.776   5.330   4.247
 7783SOL     OW24247   1.312   5.739   5.018
 7783SOL    HW124248   1.253   5.813   5.051
 7783SOL    HW224249   1.289   5.720   4.923
 7784SOL     OW24250   3.495   2.225   1.664
 7784SOL    HW124251   3.572   2.250   1.723
 7784SOL    HW224252   3.419   2.288   1.680
 7785SOL     OW24253   1.871   5.943   4.352
 7785SOL    HW124254   1.868   5.941   4.252
 7785SOL    HW224255   1.916   5.860   4.386
 7786SOL     OW24256   2.758   6.512   0.329
 7786SOL    HW124257   2.682   6.483   0.271
 7786SOL    HW224258   2.842   6.467   0.299
 7787SOL     OW24259   2.017   2.406   5.841
 7787SOL    HW124260   2.110   2.444   5.845
 7787SOL    HW224261   2.012   2.325   5.899
 7788SOL     OW24262   2.377   4.876   1.237
 7788SOL    HW124263   2.318   4.849   1.161
 7788SOL    HW224264   2.333   4.852   1.324
 7789SOL     OW24265   1.807   6.328   6.312
 7789SOL    HW124266   1.733   6.394   6.320
 7789SOL    HW224267   1.771   6.235   6.318
 7790SOL     OW24268   5.396   5.882   3.409
 7790SOL    HW124269   5.442   5.854   3.493
 7790SOL    HW224270   5.465   5.900   3.338
 7791SOL     OW24271   3.000   4.835   2.970
 7791SOL    HW124272   2.954   4.821   3.058
 7791SOL    HW224273   2.942   4.800   2.896
 7792SOL     OW24274   1.881   5.170   4.733
 7792SOL    HW124275   1.930   5.145   4.650
 7792SOL    HW224276   1.861   5.268   4.732
 7793SOL     OW24277   3.574   1.023   1.059
 7793SOL    HW124278   3.567   1.019   1.158
 7793SOL    HW224279   3.582   0.930   1.022
 7794SOL     OW24280   6.336   3.881   2.974
 7794SOL    HW124281   6.266   3.942   3.012
 7794SOL    HW224282   6.347   3.802   3.035
 7795SOL     OW24283   1.790   3.879   5.979
 7795SOL    HW124284   1.812   3.791   6.020
 7795SOL    HW224285   1.872   3.918   5.937
 7796SOL     OW24286   3.981   3.154   3.710
 7796SOL    HW124287   4.001   3.249   3.735
 7796SOL    HW224288   4.008   3.139   3.614
 7797SOL     OW24289   1.694   0.442   1.734
 7797SOL    HW124290   1.735   0.355   1.709
 7797SOL    HW224291   1.608   0.455   1.685
 7798SOL     OW24292   1.965   3.673   4.449
 7798SOL    HW124293   1.912   3.676   4.533
 7798SOL    HW224294   2.046   3.732   4.458
 7799SOL     OW24295   1.960   6.056   2.089
 7799SOL    HW124296   1.988   5.983   2.028
 7799SOL    HW224297   2.041   6.103   2.125
 7800SOL     OW24298   1.072   5.795   1.675
 7800SOL    HW124299   1.015   5.783   1.756
 7800SOL    HW224300   1.139   5.720   1.670
 7801SOL     OW24301   2.412   1.925   2.090
 7801SOL    HW124302   2.512   1.918   2.091
 7801SOL    HW224303   2.383   1.963   2.002
 7802SOL     OW24304   5.642   3.067   0.994
 7802SOL    HW124305   5.675   2.981   1.034
 7802SOL    HW224306   5.719   3.127   0.976
 7803SOL     OW24307   4.407   2.168   5.858
 7803SOL    HW124308   4.373   2.253   5.818
 7803SOL    HW224309   4.359   2.091   5.816
 7804SOL     OW24310   4.439   2.009   4.981
 7804SOL    HW124311   4.444   2.108   4.984
 7804SOL    HW224312   4.343   1.981   4.984
 7805SOL     OW24313   5.618   2.531   1.330
 7805SOL    HW124314   5.570   2.579   1.404
 7805SOL    HW224315   5.568   2.544   1.244
 7806SOL     OW24316   6.274   2.165   6.876
 7806SOL    HW124317   6.234   2.108   6.804
 7806SOL    HW224318   6.221   2.156   6.960
 7807SOL     OW24319   1.060   4.886   5.846
 7807SOL    HW124320   1.031   4.888   5.750
 7807SOL    HW224321   1.059   4.979   5.883
 7808SOL     OW24322   6.314   3.274   4.899
 7808SOL    HW124323   6.288   3.347   4.962
 7808SOL    HW224324   6.232   3.236   4.855
 7809SOL     OW24325   3.472   5.007   4.563
 7809SOL    HW124326   3.537   4.962   4.625
 7809SOL    HW224327   3.387   5.025   4.612
 7810SOL     OW24328   3.200   6.697   4.487
 7810SOL    HW124329   3.222   6.664   4.395
 7810SOL    HW224330   3.118   6.754   4.484
 7811SOL     OW24331   1.427   6.101   2.044
 7811SOL    HW124332   1.510   6.132   1.998
 7811SOL    HW224333   1.347   6.139   1.998
 7812SOL     OW24334   0.270   2.395   4.341
 7812SOL    HW124335   0.291   2.391   4.244
 7812SOL    HW224336   0.171   2.393   4.355
 7813SOL     OW24337   4.048   2.223   0.202
 7813SOL    HW124338   4.003   2.146   0.248
 7813SOL    HW224339   4.092   2.281   0.270
 7814SOL     OW24340   0.239   3.679   3.796
 7814SOL    HW124341   0.278   3.613   3.861
 7814SOL    HW224342   0.262   3.651   3.703
 7815SOL     OW24343   5.984   1.251   4.778
 7815SOL    HW124344   5.911   1.187   4.804
 7815SOL    HW224345   5.949   1.345   4.783
 7816SOL     OW24346   1.630   2.466   6.325
 7816SOL    HW124347   1.622   2.462   6.225
 7816SOL    HW224348   1.726   2.476   6.350
 7817SOL     OW24349   4.657   4.284   4.158
 7817SOL    HW124350   4.566   4.322   4.175
 7817SOL    HW224351   4.723   4.329   4.218
 7818SOL     OW24352   4.510   0.378   2.139
 7818SOL    HW124353   4.508   0.305   2.207
 7818SOL    HW224354   4.429   0.370   2.080
 7819SOL     OW24355   7.000   4.243   2.870
 7819SOL    HW124356   6.910   4.206   2.850
 7819SOL    HW224357   7.000   4.282   2.962
 7820SOL     OW24358   1.600   1.218   5.895
 7820SOL    HW124359   1.643   1.167   5.820
 7820SOL    HW224360   1.510   1.251   5.866
 7821SOL     OW24361   6.258   5.531   6.742
 7821SOL    HW124362   6.200   5.610   6.723
 7821SOL    HW224363   6.205   5.447   6.732
 7822SOL     OW24364   0.978   1.364   6.979
 7822SOL    HW124365   1.070   1.346   7.013
 7822SOL    HW224366   0.960   1.304   6.901
 7823SOL     OW24367   2.959   3.518   5.196
 7823SOL    HW124368   2.890   3.491   5.264
 7823SOL    HW224369   2.970   3.444   5.129
 7824SOL     OW24370   5.852   1.189   3.770
 7824SOL    HW124371   5.882   1.119   3.835
 7824SOL    HW224372   5.851   1.278   3.815
 7825SOL     OW24373   1.298   3.273   0.981
 7825SOL    HW124374   1.366   3.256   0.910
 7825SOL    HW224375   1.266   3.185   1.017
 7826SOL     OW24376   5.896   1.377   0.080
 7826SOL    HW124377   5.963   1.385   0.006
 7826SOL    HW224378   5.804   1.392   0.043
 7827SOL     OW24379   3.292   4.944   1.496
 7827SOL    HW124380   3.343   5.015   1.544
 7827SOL    HW224381   3.301   4.958   1.397
 7828SOL     OW24382   0.775   4.965   0.054
 7828SOL    HW124383   0.717   4.967   0.136
 7828SOL    HW224384   0.738   5.027   7.010
 7829SOL     OW24385   1.591   3.023   0.461
 7829SOL    HW124386   1.634   3.111   0.441
 7829SOL    HW224387   1.649   2.971   0.524
 7830SOL     OW24388   3.001   4.031   5.675
 7830SOL    HW124389   3.023   4.126   5.652
 7830SOL    HW224390   2.984   3.979   5.592
 7831SOL     OW24391   1.638   5.847   0.979
 7831SOL    HW124392   1.709   5.777   0.986
 7831SOL    HW224393   1.655   5.918   1.047
 7832SOL     OW24394   4.721   1.344   3.748
 7832SOL    HW124395   4.674   1.426   3.782
 7832SOL    HW224396   4.794   1.319   3.812
 7833SOL     OW24397   0.569   0.972   6.878
 7833SOL    HW124398   0.644   0.940   6.820
 7833SOL    HW224399   0.537   1.061   6.846
 7834SOL     OW24400   6.336   1.350   3.323
 7834SOL    HW124401   6.352   1.300   3.408
 7834SOL    HW224402   6.386   1.305   3.249
 7835SOL     OW24403   2.750   1.891   5.436
 7835SOL    HW124404   2.737   1.860   5.342
 7835SOL    HW224405   2.661   1.907   5.478
 7836SOL     OW24406   3.254   2.799   5.280
 7836SOL    HW124407   3.205   2.827   5.363
 7836SOL    HW224408   3.240   2.701   5.265
 7837SOL     OW24409   6.201   5.956   0.839
 7837SOL    HW124410   6.259   5.906   0.902
 7837SOL    HW224411   6.120   5.901   0.817
 7838SOL     OW24412   4.527   6.800   6.976
 7838SOL    HW124413   4.465   6.878   6.989
 7838SOL    HW224414   4.482   6.717   7.009
 7839SOL     OW24415   6.367   3.930   5.126
 7839SOL    HW124416   6.440   3.920   5.058
 7839SOL    HW224417   6.312   4.011   5.104
 7840SOL     OW24418   6.075   2.497   3.990
 7840SOL    HW124419   6.064   2.597   3.985
 7840SOL    HW224420   6.038   2.455   3.908
 7841SOL     OW24421   4.038   1.632   6.508
 7841SOL    HW124422   4.122   1.587   6.477
 7841SOL    HW224423   4.009   1.593   6.595
 7842SOL     OW24424   1.700   2.400   2.592
 7842SOL    HW124425   1.742   2.347   2.666
 7842SOL    HW224426   1.646   2.339   2.534
 7843SOL     OW24427   5.337   5.158   2.407
 7843SOL    HW124428   5.303   5.235   2.353
 7843SOL    HW224429   5.315   5.072   2.361
 7844SOL     OW24430   3.943   6.759   2.401
 7844SOL    HW124431   3.976   6.821   2.472
 7844SOL    HW224432   3.849   6.783   2.377
 7845SOL     OW24433   5.371   2.047   4.169
 7845SOL    HW124434   5.424   1.976   4.214
 7845SOL    HW224435   5.431   2.103   4.112
 7846SOL     OW24436   0.807   1.170   3.198
 7846SOL    HW124437   0.824   1.188   3.101
 7846SOL    HW224438   0.821   1.254   3.250
 7847SOL     OW24439   6.807   1.744   3.363
 7847SOL    HW124440   6.744   1.752   3.286
 7847SOL    HW224441   6.861   1.827   3.371
 7848SOL     OW24442   3.348   3.194   0.790
 7848SOL    HW124443   3.414   3.123   0.765
 7848SOL    HW224444   3.264   3.152   0.821
 7849SOL     OW24445   5.424   4.221   3.315
 7849SOL    HW124446   5.507   4.260   3.275
 7849SOL    HW224447   5.420   4.242   3.413
 7850SOL     OW24448   0.616   1.990   5.328
 7850SOL    HW124449   0.534   1.959   5.280
 7850SOL    HW224450   0.654   1.914   5.381
 7851SOL     OW24451   6.476   1.188   1.806
 7851SOL    HW124452   6.394   1.146   1.845
 7851SOL    HW224453   6.556   1.165   1.861
 7852SOL     OW24454   2.555   1.463   6.115
 7852SOL    HW124455   2.611   1.533   6.158
 7852SOL    HW224456   2.614   1.395   6.071
 7853SOL     OW24457   4.525   2.196   1.863
 7853SOL    HW124458   4.536   2.264   1.935
 7853SOL    HW224459   4.613   2.182   1.817
 7854SOL     OW24460   3.549   3.834   0.088
 7854SOL    HW124461   3.598   3.880   0.014
 7854SOL    HW224462   3.533   3.738   0.063
 7855SOL     OW24463   4.151   5.283   5.438
 7855SOL    HW124464   4.123   5.306   5.345
 7855SOL    HW224465   4.098   5.338   5.503
 7856SOL     OW24466   6.403   4.196   5.383
 7856SOL    HW124467   6.433   4.107   5.348
 7856SOL    HW224468   6.345   4.182   5.464
 7857SOL     OW24469   6.141   2.078   5.210
 7857SOL    HW124470   6.047   2.102   5.237
 7857SOL    HW224471   6.204   2.149   5.240
 7858SOL     OW24472   5.226   5.408   3.339
 7858SOL    HW124473   5.323   5.405   3.313
 7858SOL    HW224474   5.217   5.454   3.428
 7859SOL     OW24475   5.526   2.540   6.406
 7859SOL    HW124476   5.588   2.603   6.360
 7859SOL    HW224477   5.560   2.522   6.498
 7860SOL     OW24478   4.530   0.367   2.690
 7860SOL    HW124479   4.458   0.435   2.702
 7860SOL    HW224480   4.527   0.301   2.765
 7861SOL     OW24481   3.816   5.510   1.934
 7861SOL    HW124482   3.881   5.585   1.923
 7861SOL    HW224483   3.821   5.449   1.854
 7862SOL     OW24484   3.229   4.259   1.683
 7862SOL    HW124485   3.148   4.223   1.729
 7862SOL    HW224486   3.280   4.184   1.642
 7863SOL     OW24487   0.613   5.704   4.014
 7863SOL    HW124488   0.656   5.644   3.947
 7863SOL    HW224489   0.513   5.700   4.002
 7864SOL     OW24490   0.641   5.447   5.628
 7864SOL    HW124491   0.639   5.418   5.724
 7864SOL    HW224492   0.548   5.454   5.593
 7865SOL     OW24493   5.482   6.920   4.231
 7865SOL    HW124494   5.509   6.885   4.141
 7865SOL    HW224495   5.444   6.846   4.286
 7866SOL     OW24496   1.270   1.956   6.599
 7866SOL    HW124497   1.216   1.874   6.618
 7866SOL    HW224498   1.304   1.993   6.686
 7867SOL     OW24499   5.194   6.750   3.041
 7867SOL    HW124500   5.190   6.822   3.110
 7867SOL    HW224501   5.189   6.791   2.950
 7868SOL     OW24502   5.347   6.983   1.900
 7868SOL    HW124503   5.416   6.943   1.959
 7868SOL    HW224504   5.256   6.967   1.939
 7869SOL     OW24505   5.860   4.023   0.141
 7869SOL    HW124506   5.881   3.929   0.114
 7869SOL    HW224507   5.902   4.043   0.229
 7870SOL     OW24508   3.839   4.918   4.555
 7870SOL    HW124509   3.805   4.865   4.477
 7870SOL    HW224510   3.776   4.906   4.632
 7871SOL     OW24511   4.944   3.253   2.375
 7871SOL    HW124512   4.897   3.166   2.359
 7871SOL    HW224513   5.023   3.258   2.315
 7872SOL     OW24514   2.298   4.316   3.163
 7872SOL    HW124515   2.244   4.356   3.237
 7872SOL    HW224516   2.340   4.231   3.194
 7873SOL     OW24517   5.825   0.399   6.238
 7873SOL    HW124518   5.848   0.359   6.149
 7873SOL    HW224519   5.858   0.494   6.240
 7874SOL     OW24520   5.701   1.828   0.890
 7874SOL    HW124521   5.674   1.901   0.827
 7874SOL    HW224522   5.682   1.739   0.849
 7875SOL     OW24523   5.531   2.156   6.445
 7875SOL    HW124524   5.442   2.113   6.425
 7875SOL    HW224525   5.604   2.088   6.434
 7876SOL     OW24526   0.036   6.311   4.567
 7876SOL    HW124527   0.129   6.347   4.563
 7876SOL    HW224528   6.995   6.386   4.573
 7877SOL     OW24529   0.872   2.309   2.761
 7877SOL    HW124530   0.877   2.366   2.678
 7877SOL    HW224531   0.888   2.367   2.841
 7878SOL     OW24532   5.935   5.412   3.875
 7878SOL    HW124533   5.859   5.352   3.901
 7878SOL    HW224534   5.964   5.465   3.954
 7879SOL     OW24535   4.437   5.642   3.938
 7879SOL    HW124536   4.344   5.679   3.938
 7879SOL    HW224537   4.441   5.560   3.994
 7880SOL     OW24538   2.202   4.886   1.454
 7880SOL    HW124539   2.136   4.927   1.391
 7880SOL    HW224540   2.201   4.935   1.541
 7881SOL     OW24541   5.575   4.447   5.038
 7881SOL    HW124542   5.578   4.401   5.126
 7881SOL    HW224543   5.490   4.499   5.031
 7882SOL     OW24544   0.753   3.259   3.211
 7882SOL    HW124545   0.740   3.201   3.131
 7882SOL    HW224546   0.817   3.215   3.274
 7883SOL     OW24547   1.203   0.333   0.609
 7883SOL    HW124548   1.297   0.341   0.574
 7883SOL    HW224549   1.141   0.383   0.549
 7884SOL     OW24550   2.268   4.321   3.767
 7884SOL    HW124551   2.308   4.323   3.859
 7884SOL    HW224552   2.264   4.227   3.734
 7885SOL     OW24553   6.239   5.680   1.267
 7885SOL    HW124554   6.247   5.616   1.343
 7885SOL    HW224555   6.313   5.747   1.272
 7886SOL     OW24556   3.101   5.828   0.564
 7886SOL    HW124557   3.184   5.882   0.577
 7886SOL    HW224558   3.099   5.792   0.471
 7887SOL     OW24559   3.214   2.541   5.355
 7887SOL    HW124560   3.195   2.468   5.291
 7887SOL    HW224561   3.129   2.587   5.380
 7888SOL     OW24562   6.573   6.487   5.292
 7888SOL    HW124563   6.506   6.502   5.220
 7888SOL    HW224564   6.542   6.531   5.376
 7889SOL     OW24565   1.014   4.594   0.916
 7889SOL    HW124566   0.957   4.604   0.834
 7889SOL    HW224567   1.062   4.680   0.933
 7890SOL     OW24568   0.301   3.303   3.801
 7890SOL    HW124569   0.269   3.306   3.707
 7890SOL    HW224570   0.320   3.208   3.827
 7891SOL     OW24571   2.272   4.402   4.312
 7891SOL    HW124572   2.292   4.358   4.399
 7891SOL    HW224573   2.292   4.339   4.237
 7892SOL     OW24574   1.876   1.890   3.844
 7892SOL    HW124575   1.844   1.883   3.749
 7892SOL    HW224576   1.832   1.819   3.899
 7893SOL     OW24577   6.713   6.137   2.007
 7893SOL    HW124578   6.622   6.102   2.032
 7893SOL    HW224579   6.751   6.190   2.082
 7894SOL     OW24580   4.078   6.313   0.528
 7894SOL    HW124581   4.174   6.287   0.516
 7894SOL    HW224582   4.045   6.283   0.617
 7895SOL     OW24583   5.571   0.400   4.894
 7895SOL    HW124584   5.652   0.343   4.882
 7895SOL    HW224585   5.490   0.350   4.862
 7896SOL     OW24586   4.019   3.273   1.036
 7896SOL    HW124587   3.920   3.281   1.045
 7896SOL    HW224588   4.041   3.229   0.949
 7897SOL     OW24589   3.440   2.735   0.699
 7897SOL    HW124590   3.368   2.797   0.732
 7897SOL    HW224591   3.428   2.719   0.601
 7898SOL     OW24592   3.841   1.415   3.661
 7898SOL    HW124593   3.760   1.474   3.665
 7898SOL    HW224594   3.865   1.398   3.565
 7899SOL     OW24595   5.822   0.033   0.820
 7899SOL    HW124596   5.903   7.014   0.860
 7899SOL    HW224597   5.765   0.070   0.893
 7900SOL     OW24598   1.338   5.519   1.943
 7900SOL    HW124599   1.419   5.506   1.885
 7900SOL    HW224600   1.286   5.433   1.947
 7901SOL     OW24601   4.470   1.014   6.193
 7901SOL    HW124602   4.526   0.933   6.173
 7901SOL    HW224603   4.376   0.998   6.164
 7902SOL     OW24604   6.200   6.906   1.222
 7902SOL    HW124605   6.266   6.981   1.231
 7902SOL    HW224606   6.165   6.881   1.313
 7903SOL     OW24607   4.840   1.718   2.005
 7903SOL    HW124608   4.756   1.773   2.008
 7903SOL    HW224609   4.888   1.736   1.919
 7904SOL     OW24610   5.796   6.907   2.782
 7904SOL    HW124611   5.768   6.963   2.861
 7904SOL    HW224612   5.854   6.832   2.814
 7905SOL     OW24613   5.583   1.938   0.278
 7905SOL    HW124614   5.618   1.848   0.304
 7905SOL    HW224615   5.648   2.008   0.306
 7906SOL     OW24616   0.319   5.152   1.005
 7906SOL    HW124617   0.416   5.129   0.994
 7906SOL    HW224618   0.290   5.212   0.931
 7907SOL     OW24619   5.275   1.732   2.927
 7907SOL    HW124620   5.334   1.810   2.905
 7907SOL    HW224621   5.185   1.746   2.885
 7908SOL     OW24622   1.621   0.802   5.826
 7908SOL    HW124623   1.681   0.748   5.885
 7908SOL    HW224624   1.585   0.744   5.753
 7909SOL     OW24625   5.052   4.787   4.491
 7909SOL    HW124626   4.972   4.847   4.487
 7909SOL    HW224627   5.132   4.841   4.517
 7910SOL     OW24628   3.219   3.943   5.888
 7910SOL    HW124629   3.285   3.941   5.963
 7910SOL    HW224630   3.127   3.947   5.926
 7911SOL     OW24631   1.365   3.874   0.594
 7911SOL    HW124632   1.341   3.795   0.537
 7911SOL    HW224633   1.378   3.954   0.535
 7912SOL     OW24634   6.316   4.576   0.550
 7912SOL    HW124635   6.314   4.526   0.463
 7912SOL    HW224636   6.339   4.672   0.532
 7913SOL     OW24637   1.199   4.304   1.839
 7913SOL    HW124638   1.139   4.340   1.911
 7913SOL    HW224639   1.280   4.361   1.833
 7914SOL     OW24640   0.609   4.546   0.189
 7914SOL    HW124641   0.566   4.468   0.143
 7914SOL    HW224642   0.648   4.515   0.276
 7915SOL     OW24643   5.163   2.499   2.293
 7915SOL    HW124644   5.159   2.587   2.247
 7915SOL    HW224645   5.105   2.433   2.245
 7916SOL     OW24646   0.388   4.749   5.115
 7916SOL    HW124647   0.376   4.794   5.026
 7916SOL    HW224648   0.481   4.764   5.148
 7917SOL     OW24649   3.335   3.360   4.723
 7917SOL    HW124650   3.426   3.318   4.728
 7917SOL    HW224651   3.277   3.305   4.663
 7918SOL     OW24652   0.569   1.110   4.971
 7918SOL    HW124653   0.667   1.118   4.954
 7918SOL    HW224654   0.550   1.020   5.012
 7919SOL     OW24655   1.890   4.502   2.975
 7919SOL    HW124656   1.989   4.495   2.981
 7919SOL    HW224657   1.850   4.411   2.971
 7920SOL     OW24658   0.412   0.035   0.666
 7920SOL    HW124659   0.372   6.976   0.703
 7920SOL    HW224660   0.351   0.073   0.597
 7921SOL     OW24661   5.341   6.038   1.836
 7921SOL    HW124662   5.326   6.134   1.813
 7921SOL    HW224663   5.437   6.025   1.864
 7922SOL     OW24664   6.983   6.490   0.836
 7922SOL    HW124665   6.950   6.538   0.917
 7922SOL    HW224666   6.928   6.518   0.757
 7923SOL     OW24667   3.619   0.396   0.589
 7923SOL    HW124668   3.610   0.338   0.508
 7923SOL    HW224669   3.561   0.361   0.662
 7924SOL     OW24670   4.810   6.792   1.935
 7924SOL    HW124671   4.757   6.781   2.019
 7924SOL    HW224672   4.818   6.889   1.913
 7925SOL     OW24673   1.161   1.336   6.360
 7925SOL    HW124674   1.242   1.281   6.338
 7925SOL    HW224675   1.146   1.404   6.289
 7926SOL     OW24676   4.523   1.358   5.703
 7926SOL    HW124677   4.466   1.358   5.785
 7926SOL    HW224678   4.600   1.422   5.716
 7927SOL     OW24679   4.321   5.631   2.940
 7927SOL    HW124680   4.296   5.698   3.010
 7927SOL    HW224681   4.339   5.543   2.983
 7928SOL     OW24682   1.354   1.606   5.088
 7928SOL    HW124683   1.439   1.581   5.042
 7928SOL    HW224684   1.307   1.524   5.119
 7929SOL     OW24685   4.887   4.369   5.810
 7929SOL    HW124686   4.797   4.376   5.766
 7929SOL    HW224687   4.935   4.457   5.801
 7930SOL     OW24688   4.004   5.582   4.868
 7930SOL    HW124689   3.930   5.598   4.934
 7930SOL    HW224690   4.092   5.584   4.915
 7931SOL     OW24691   3.181   2.829   0.001
 7931SOL    HW124692   3.221   2.830   0.093
 7931SOL    HW224693   3.125   2.747   7.014
 7932SOL     OW24694   1.217   6.577   6.890
 7932SOL    HW124695   1.123   6.581   6.857
 7932SOL    HW224696   1.279   6.562   6.812
 7933SOL     OW24697   0.486   5.847   6.266
 7933SOL    HW124698   0.563   5.797   6.226
 7933SOL    HW224699   0.408   5.844   6.203
 7934SOL     OW24700   1.801   4.962   6.836
 7934SOL    HW124701   1.841   4.899   6.769
 7934SOL    HW224702   1.706   4.937   6.853
 7935SOL     OW24703   5.622   6.397   1.015
 7935SOL    HW124704   5.571   6.353   1.089
 7935SOL    HW224705   5.559   6.421   0.941
 7936SOL     OW24706   3.697   5.959   2.554
 7936SOL    HW124707   3.698   6.055   2.582
 7936SOL    HW224708   3.789   5.931   2.525
 7937SOL     OW24709   6.472   6.678   3.504
 7937SOL    HW124710   6.383   6.670   3.460
 7937SOL    HW224711   6.515   6.588   3.508
 7938SOL     OW24712   0.009   5.510   3.802
 7938SOL    HW124713   6.981   5.483   3.883
 7938SOL    HW224714   0.077   5.439   3.781
 7939SOL     OW24715   1.201   2.719   4.578
 7939SOL    HW124716   1.244   2.702   4.667
 7939SOL    HW224717   1.176   2.632   4.535
 7940SOL     OW24718   1.867   3.200   1.500
 7940SOL    HW124719   1.808   3.152   1.565
 7940SOL    HW224720   1.907   3.135   1.435
 7941SOL     OW24721   5.787   0.589   1.456
 7941SOL    HW124722   5.757   0.587   1.551
 7941SOL    HW224723   5.832   0.676   1.437
 7942SOL     OW24724   6.754   5.554   2.676
 7942SOL    HW124725   6.832   5.572   2.616
 7942SOL    HW224726   6.713   5.466   2.654
 7943SOL     OW24727   5.824   3.561   6.892
 7943SOL    HW124728   5.813   3.506   6.975
 7943SOL    HW224729   5.740   3.555   6.837
 7944SOL     OW24730   0.779   2.492   1.430
 7944SOL    HW124731   0.863   2.538   1.400
 7944SOL    HW224732   0.762   2.413   1.372
 7945SOL     OW24733   6.172   5.323   1.173
 7945SOL    HW124734   6.095   5.387   1.174
 7945SOL    HW224735   6.200   5.304   1.267
 7946SOL     OW24736   2.945   0.822   5.798
 7946SOL    HW124737   2.960   0.921   5.804
 7946SOL    HW224738   2.977   0.789   5.709
 7947SOL     OW24739   3.772   1.912   6.289
 7947SOL    HW124740   3.683   1.948   6.317
 7947SOL    HW224741   3.795   1.946   6.198
 7948SOL     OW24742   1.336   0.281   1.092
 7948SOL    HW124743   1.323   0.292   0.993
 7948SOL    HW224744   1.252   0.305   1.140
 7949SOL     OW24745   4.387   4.805   5.041
 7949SOL    HW124746   4.394   4.707   5.061
 7949SOL    HW224747   4.462   4.854   5.086
 7950SOL     OW24748   5.100   5.095   4.275
 7950SOL    HW124749   5.089   5.115   4.178
 7950SOL    HW224750   5.063   5.004   4.296
 7951SOL     OW24751   2.294   4.127   2.161
 7951SOL    HW124752   2.307   4.149   2.065
 7951SOL    HW224753   2.198   4.100   2.176
 7952SOL     OW24754   0.149   3.716   0.088
 7952SOL    HW124755   0.055   3.695   0.117
 7952SOL    HW224756   0.214   3.674   0.151
 7953SOL     OW24757   2.942   2.219   3.843
 7953SOL    HW124758   2.904   2.127   3.829
 7953SOL    HW224759   2.869   2.281   3.870
 7954SOL     OW24760   3.506   4.481   6.840
 7954SOL    HW124761   3.535   4.465   6.746
 7954SOL    HW224762   3.436   4.553   6.842
 7955SOL     OW24763   1.690   0.104   6.585
 7955SOL    HW124764   1.652   0.160   6.511
 7955SOL    HW224765   1.617   0.076   6.647
 7956SOL     OW24766   3.627   6.606   2.079
 7956SOL    HW124767   3.583   6.606   2.169
 7956SOL    HW224768   3.724   6.585   2.089
 7957SOL     OW24769   0.778   0.772   1.423
 7957SOL    HW124770   0.877   0.788   1.429
 7957SOL    HW224771   0.734   0.808   1.505
 7958SOL     OW24772   3.847   5.208   5.065
 7958SOL    HW124773   3.811   5.215   4.972
 7958SOL    HW224774   3.936   5.254   5.069
 7959SOL     OW24775   4.716   5.840   0.660
 7959SOL    HW124776   4.648   5.882   0.720
 7959SOL    HW224777   4.789   5.799   0.715
 7960SOL     OW24778   2.753   1.377   6.428
 7960SOL    HW124779   2.730   1.281   6.444
 7960SOL    HW224780   2.850   1.392   6.449
 7961SOL     OW24781   6.594   1.230   0.764
 7961SOL    HW124782   6.600   1.174   0.847
 7961SOL    HW224783   6.683   1.269   0.744
 7962SOL     OW24784   0.982   0.927   6.361
 7962SOL    HW124785   0.998   0.877   6.446
 7962SOL    HW224786   0.907   0.883   6.310
 7963SOL     OW24787   6.451   6.365   4.224
 7963SOL    HW124788   6.460   6.324   4.133
 7963SOL    HW224789   6.527   6.335   4.282
 7964SOL     OW24790   0.204   4.686   2.143
 7964SOL    HW124791   0.139   4.668   2.069
 7964SOL    HW224792   0.157   4.681   2.231
 7965SOL     OW24793   4.129   2.575   5.744
 7965SOL    HW124794   4.098   2.643   5.678
 7965SOL    HW224795   4.067   2.496   5.742
 7966SOL     OW24796   1.593   2.576   6.018
 7966SOL    HW124797   1.511   2.534   5.980
 7966SOL    HW224798   1.639   2.630   5.948
 7967SOL     OW24799   2.907   6.641   3.044
 7967SOL    HW124800   2.860   6.589   2.972
 7967SOL    HW224801   3.002   6.610   3.050
 7968SOL     OW24802   1.624   2.788   3.645
 7968SOL    HW124803   1.723   2.772   3.642
 7968SOL    HW224804   1.599   2.822   3.736
 7969SOL     OW24805   3.926   6.100   6.948
 7969SOL    HW124806   4.016   6.137   6.967
 7969SOL    HW224807   3.870   6.170   6.903
 7970SOL     OW24808   6.127   3.034   2.987
 7970SOL    HW124809   6.176   2.989   2.914
 7970SOL    HW224810   6.079   3.114   2.951
 7971SOL     OW24811   3.532   2.075   0.507
 7971SOL    HW124812   3.629   2.065   0.485
 7971SOL    HW224813   3.513   2.170   0.532
 7972SOL     OW24814   2.298   3.056   0.268
 7972SOL    HW124815   2.249   3.135   0.231
 7972SOL    HW224816   2.270   3.040   0.363
 7973SOL     OW24817   4.330   4.694   4.599
 7973SOL    HW124818   4.244   4.743   4.617
 7973SOL    HW224819   4.406   4.742   4.643
 7974SOL     OW24820   5.898   1.003   5.536
 7974SOL    HW124821   5.828   1.018   5.466
 7974SOL    HW224822   5.857   0.954   5.614
 7975SOL     OW24823   6.456   1.537   2.124
 7975SOL    HW124824   6.465   1.514   2.027
 7975SOL    HW224825   6.384   1.605   2.136
 7976SOL     OW24826   0.339   0.104   6.331
 7976SOL    HW124827   0.353   0.052   6.415
 7976SOL    HW224828   0.365   0.048   6.253
 7977SOL     OW24829   4.559   6.195   2.315
 7977SOL    HW124830   4.479   6.139   2.293
 7977SOL    HW224831   4.578   6.188   2.413
 7978SOL     OW24832   5.526   3.732   6.577
 7978SOL    HW124833   5.547   3.802   6.645
 7978SOL    HW224834   5.469   3.771   6.505
 7979SOL     OW24835   4.286   6.064   5.204
 7979SOL    HW124836   4.213   6.035   5.266
 7979SOL    HW224837   4.259   6.047   5.110
 7980SOL     OW24838   2.831   5.383   6.960
 7980SOL    HW124839   2.731   5.385   6.968
 7980SOL    HW224840   2.872   5.410   0.023
 7981SOL     OW24841   0.338   5.150   1.348
 7981SOL    HW124842   0.271   5.220   1.321
 7981SOL    HW224843   0.425   5.167   1.301
 7982SOL     OW24844   1.205   1.303   0.094
 7982SOL    HW124845   1.198   1.388   0.145
 7982SOL    HW224846   1.288   1.254   0.122
 7983SOL     OW24847   6.003   2.283   1.673
 7983SOL    HW124848   5.970   2.216   1.607
 7983SOL    HW224849   5.939   2.361   1.676
 7984SOL     OW24850   1.601   1.413   0.780
 7984SOL    HW124851   1.657   1.495   0.776
 7984SOL    HW224852   1.536   1.420   0.856
 7985SOL     OW24853   2.773   1.099   4.184
 7985SOL    HW124854   2.870   1.082   4.164
 7985SOL    HW224855   2.765   1.180   4.241
 7986SOL     OW24856   2.844   1.016   6.446
 7986SOL    HW124857   2.844   0.916   6.436
 7986SOL    HW224858   2.817   1.058   6.359
 7987SOL     OW24859   1.554   2.808   6.186
 7987SOL    HW124860   1.567   2.737   6.117
 7987SOL    HW224861   1.496   2.880   6.148
 7988SOL     OW24862   0.827   2.327   4.110
 7988SOL    HW124863   0.902   2.303   4.049
 7988SOL    HW224864   0.854   2.405   4.167
 7989SOL     OW24865   3.807   2.890   5.898
 7989SOL    HW124866   3.806   2.936   5.809
 7989SOL    HW224867   3.897   2.849   5.913
 7990SOL     OW24868   0.308   3.884   4.537
 7990SOL    HW124869   0.377   3.927   4.479
 7990SOL    HW224870   0.270   3.804   4.491
 7991SOL     OW24871   5.899   6.612   3.431
 7991SOL    HW124872   5.816   6.666   3.434
 7991SOL    HW224873   5.944   6.614   3.520
 7992SOL     OW24874   1.539   0.284   1.357
 7992SOL    HW124875   1.543   0.335   1.271
 7992SOL    HW224876   1.508   0.344   1.430
 7993SOL     OW24877   0.757   0.133   0.418
 7993SOL    HW124878   0.845   0.115   0.373
 7993SOL    HW224879   0.712   0.211   0.375
 7994SOL     OW24880   4.354   6.558   3.369
 7994SOL    HW124881   4.376   6.531   3.463
 7994SOL    HW224882   4.382   6.486   3.306
 7995SOL     OW24883   4.698   5.737   4.027
 7995SOL    HW124884   4.736   5.679   4.099
 7995SOL    HW224885   4.608   5.702   4.002
 7996SOL     OW24886   2.884   6.739   4.604
 7996SOL    HW124887   2.846   6.660   4.654
 7996SOL    HW224888   2.940   6.794   4.666
 7997SOL     OW24889   0.320   1.393   1.243
 7997SOL    HW124890   0.408   1.416   1.284
 7997SOL    HW224891   0.326   1.305   1.197
 7998SOL     OW24892   3.183   6.369   1.113
 7998SOL    HW124893   3.204   6.326   1.201
 7998SOL    HW224894   3.206   6.466   1.117
 7999SOL     OW24895   0.421   0.435   6.344
 7999SOL    HW124896   0.368   0.514   6.377
 7999SOL    HW224897   0.462   0.388   6.422
 8000SOL     OW24898   5.004   0.261   6.637
 8000SOL    HW124899   4.911   0.225   6.625
 8000SOL    HW224900   5.048   0.214   6.715
 8001SOL     OW24901   4.231   6.396   1.136
 8001SOL    HW124902   4.269   6.467   1.077
 8001SOL    HW224903   4.145   6.428   1.176
 8002SOL     OW24904   0.748   1.850   6.091
 8002SOL    HW124905   0.772   1.935   6.043
 8002SOL    HW224906   0.693   1.872   6.171
 8003SOL     OW24907   2.825   5.236   2.438
 8003SOL    HW124908   2.791   5.201   2.526
 8003SOL    HW224909   2.777   5.320   2.415
 8004SOL     OW24910   2.109   3.436   2.879
 8004SOL    HW124911   2.018   3.397   2.893
 8004SOL    HW224912   2.115   3.475   2.787
 8005SOL     OW24913   3.067   0.871   1.471
 8005SOL    HW124914   2.991   0.823   1.514
 8005SOL    HW224915   3.153   0.830   1.499
 8006SOL     OW24916   1.761   0.421   6.263
 8006SOL    HW124917   1.684   0.363   6.290
 8006SOL    HW224918   1.797   0.390   6.175
 8007SOL     OW24919   0.077   0.335   4.348
 8007SOL    HW124920   0.066   0.417   4.293
 8007SOL    HW224921   0.076   0.254   4.289
 8008SOL     OW24922   4.208   5.508   6.909
 8008SOL    HW124923   4.136   5.449   6.946
 8008SOL    HW224924   4.226   5.483   6.814
 8009SOL     OW24925   5.580   1.092   2.404
 8009SOL    HW124926   5.525   1.150   2.343
 8009SOL    HW224927   5.644   1.149   2.455
 8010SOL     OW24928   0.975   1.080   6.093
 8010SOL    HW124929   0.983   1.111   6.187
 8010SOL    HW224930   0.937   0.988   6.090
 8011SOL     OW24931   3.463   2.727   1.189
 8011SOL    HW124932   3.375   2.684   1.169
 8011SOL    HW224933   3.527   2.657   1.223
 8012SOL     OW24934   1.651   4.407   1.842
 8012SOL    HW124935   1.578   4.380   1.779
 8012SOL    HW224936   1.663   4.506   1.839
 8013SOL     OW24937   1.047   5.486   3.535
 8013SOL    HW124938   0.992   5.504   3.454
 8013SOL    HW224939   1.143   5.478   3.508
 8014SOL     OW24940   0.833   6.667   5.232
 8014SOL    HW124941   0.829   6.762   5.201
 8014SOL    HW224942   0.799   6.662   5.326
 8015SOL     OW24943   2.529   0.680   6.785
 8015SOL    HW124944   2.488   0.722   6.867
 8015SOL    HW224945   2.461   0.674   6.713
 8016SOL     OW24946   5.330   6.869   5.797
 8016SOL    HW124947   5.403   6.938   5.803
 8016SOL    HW224948   5.249   6.909   5.756
 8017SOL     OW24949   5.520   0.010   0.218
 8017SOL    HW124950   5.549   6.944   0.250
 8017SOL    HW224951   5.441   0.040   0.271
 8018SOL     OW24952   3.268   1.692   5.624
 8018SOL    HW124953   3.326   1.647   5.556
 8018SOL    HW224954   3.255   1.788   5.599
 8019SOL     OW24955   2.204   4.363   6.953
 8019SOL    HW124956   2.285   4.327   7.001
 8019SOL    HW224957   2.154   4.424   7.014
 8020SOL     OW24958   5.394   0.828   0.732
 8020SOL    HW124959   5.440   0.763   0.792
 8020SOL    HW224960   5.343   0.777   0.661
 8021SOL     OW24961   0.989   2.569   1.239
 8021SOL    HW124962   0.984   2.517   1.154
 8021SOL    HW224963   1.039   2.516   1.308
 8022SOL     OW24964   5.516   6.595   2.837
 8022SOL    HW124965   5.583   6.536   2.881
 8022SOL    HW224966   5.428   6.547   2.831
 8023SOL     OW24967   5.871   5.472   2.730
 8023SOL    HW124968   5.813   5.506   2.804
 8023SOL    HW224969   5.922   5.549   2.690
 8024SOL     OW24970   2.044   4.767   0.015
 8024SOL    HW124971   1.993   4.742   0.098
 8024SOL    HW224972   2.041   4.691   6.975
 8025SOL     OW24973   1.840   6.565   6.561
 8025SOL    HW124974   1.763   6.548   6.500
 8025SOL    HW224975   1.835   6.658   6.597
 8026SOL     OW24976   0.819   4.106   7.009
 8026SOL    HW124977   0.913   4.129   0.011
 8026SOL    HW224978   0.818   4.017   6.964
 8027SOL     OW24979   4.589   0.701   5.314
 8027SOL    HW124980   4.503   0.656   5.294
 8027SOL    HW224981   4.573   0.799   5.328
 8028SOL     OW24982   3.388   5.336   4.745
 8028SOL    HW124983   3.297   5.341   4.702
 8028SOL    HW224984   3.446   5.408   4.707
 8029SOL     OW24985   5.063   2.873   1.329
 8029SOL    HW124986   5.116   2.939   1.382
 8029SOL    HW224987   4.969   2.872   1.362
 8030SOL     OW24988   4.229   4.492   0.976
 8030SOL    HW124989   4.299   4.523   1.041
 8030SOL    HW224990   4.143   4.538   0.995
 8031SOL     OW24991   5.969   6.626   1.838
 8031SOL    HW124992   5.904   6.662   1.904
 8031SOL    HW224993   5.965   6.526   1.838
 8032SOL     OW24994   6.735   5.327   1.486
 8032SOL    HW124995   6.792   5.326   1.404
 8032SOL    HW224996   6.785   5.282   1.561
 8033SOL     OW24997   5.341   1.177   5.463
 8033SOL    HW124998   5.247   1.156   5.489
 8033SOL    HW224999   5.399   1.176   5.544
 8034SOL     OW25000   5.329   6.744   4.461
 8034SOL    HW125001   5.237   6.761   4.427
 8034SOL    HW225002   5.336   6.651   4.496
 8035SOL     OW25003   5.036   1.621   4.540
 8035SOL    HW125004   5.112   1.659   4.487
 8035SOL    HW225005   5.066   1.536   4.584
 8036SOL     OW25006   6.695   3.832   3.578
 8036SOL    HW125007   6.736   3.911   3.622
 8036SOL    HW225008   6.696   3.754   3.641
 8037SOL     OW25009   1.827   3.688   0.099
 8037SOL    HW125010   1.832   3.670   0.000
 8037SOL    HW225011   1.866   3.611   0.148
 8038SOL     OW25012   4.184   6.693   2.753
 8038SOL    HW125013   4.157   6.777   2.706
 8038SOL    HW225014   4.103   6.642   2.780
 8039SOL     OW25015   0.631   2.303   4.663
 8039SOL    HW125016   0.642   2.208   4.694
 8039SOL    HW225017   0.645   2.306   4.564
 8040SOL     OW25018   1.605   5.620   7.010
 8040SOL    HW125019   1.617   5.565   6.927
 8040SOL    HW225020   1.665   5.586   0.057
 8041SOL     OW25021   2.330   1.845   2.731
 8041SOL    HW125022   2.379   1.812   2.812
 8041SOL    HW225023   2.387   1.912   2.682
 8042SOL     OW25024   2.972   3.238   3.802
 8042SOL    HW125025   2.926   3.301   3.740
 8042SOL    HW225026   3.045   3.190   3.752
 8043SOL     OW25027   3.462   6.881   1.612
 8043SOL    HW125028   3.378   6.838   1.579
 8043SOL    HW225029   3.526   6.810   1.642
 8044SOL     OW25030   4.143   2.337   1.335
 8044SOL    HW125031   4.209   2.292   1.275
 8044SOL    HW225032   4.189   2.370   1.417
 8045SOL     OW25033   5.407   1.701   2.547
 8045SOL    HW125034   5.454   1.722   2.632
 8045SOL    HW225035   5.325   1.647   2.567
 8046SOL     OW25036   0.209   5.335   1.196
 8046SOL    HW125037   0.219   5.419   1.144
 8046SOL    HW225038   0.257   5.261   1.150
 8047SOL     OW25039   4.190   5.775   4.477
 8047SOL    HW125040   4.230   5.762   4.387
 8047SOL    HW225041   4.181   5.687   4.523
 8048SOL     OW25042   5.161   0.835   5.613
 8048SOL    HW125043   5.087   0.813   5.677
 8048SOL    HW225044   5.187   0.752   5.563
 8049SOL     OW25045   0.809   0.551   0.171
 8049SOL    HW125046   0.821   0.533   0.073
 8049SOL    HW225047   0.736   0.493   0.207
 8050SOL     OW25048   1.594   4.301   3.483
 8050SOL    HW125049   1.624   4.326   3.391
 8050SOL    HW225050   1.496   4.281   3.481
 8051SOL     OW25051   4.525   5.879   3.735
 8051SOL    HW125052   4.462   5.805   3.761
 8051SOL    HW225053   4.615   5.840   3.713
 8052SOL     OW25054   4.623   1.538   1.953
 8052SOL    HW125055   4.556   1.593   1.903
 8052SOL    HW225056   4.698   1.597   1.982
 8053SOL     OW25057   2.910   3.608   3.346
 8053SOL    HW125058   3.008   3.624   3.334
 8053SOL    HW225059   2.859   3.667   3.284
 8054SOL     OW25060   5.565   6.646   4.762
 8054SOL    HW125061   5.513   6.703   4.826
 8054SOL    HW225062   5.530   6.552   4.765
 8055SOL     OW25063   0.600   0.359   5.643
 8055SOL    HW125064   0.545   0.430   5.687
 8055SOL    HW225065   0.590   0.273   5.694
 8056SOL     OW25066   2.745   1.514   4.399
 8056SOL    HW125067   2.812   1.448   4.364
 8056SOL    HW225068   2.777   1.607   4.378
 8057SOL     OW25069   2.937   2.169   3.181
 8057SOL    HW125070   2.845   2.138   3.159
 8057SOL    HW225071   2.993   2.169   3.098
 8058SOL     OW25072   3.840   0.325   2.188
 8058SOL    HW125073   3.838   0.425   2.193
 8058SOL    HW225074   3.778   0.294   2.116
 8059SOL     OW25075   3.256   2.070   4.870
 8059SOL    HW125076   3.190   2.143   4.886
 8059SOL    HW225077   3.316   2.095   4.794
 8060SOL     OW25078   6.346   2.162   4.234
 8060SOL    HW125079   6.443   2.139   4.227
 8060SOL    HW225080   6.337   2.258   4.261
 8061SOL     OW25081   0.240   0.914   3.098
 8061SOL    HW125082   0.195   0.975   3.033
 8061SOL    HW225083   0.337   0.908   3.077
 8062SOL     OW25084   3.966   4.818   3.842
 8062SOL    HW125085   4.046   4.774   3.883
 8062SOL    HW225086   3.900   4.840   3.914
 8063SOL     OW25087   1.088   2.471   1.501
 8063SOL    HW125088   1.020   2.467   1.575
 8063SOL    HW225089   1.151   2.546   1.519
 8064SOL     OW25090   0.255   4.039   1.863
 8064SOL    HW125091   0.168   4.088   1.855
 8064SOL    HW225092   0.277   4.024   1.959
 8065SOL     OW25093   2.304   5.532   3.450
 8065SOL    HW125094   2.382   5.574   3.496
 8065SOL    HW225095   2.312   5.547   3.351
 8066SOL     OW25096   0.344   1.916   5.149
 8066SOL    HW125097   0.291   1.909   5.064
 8066SOL    HW225098   0.283   1.942   5.224
 8067SOL     OW25099   4.659   2.750   1.820
 8067SOL    HW125100   4.637   2.847   1.836
 8067SOL    HW225101   4.741   2.744   1.764
 8068SOL     OW25102   6.973   3.806   1.286
 8068SOL    HW125103   6.897   3.840   1.231
 8068SOL    HW225104   7.022   3.736   1.235
 8069SOL     OW25105   2.487   6.431   1.443
 8069SOL    HW125106   2.542   6.362   1.491
 8069SOL    HW225107   2.543   6.513   1.428
 8070SOL     OW25108   4.070   3.518   0.291
 8070SOL    HW125109   4.013   3.444   0.325
 8070SOL    HW225110   4.013   3.587   0.247
 8071SOL     OW25111   2.894   6.224   4.538
 8071SOL    HW125112   2.900   6.208   4.440
 8071SOL    HW225113   2.947   6.154   4.587
 8072SOL     OW25114   3.754   1.157   0.880
 8072SOL    HW125115   3.685   1.119   0.941
 8072SOL    HW225116   3.717   1.162   0.787
 8073SOL     OW25117   2.999   5.311   4.674
 8073SOL    HW125118   2.906   5.296   4.640
 8073SOL    HW225119   3.012   5.260   4.758
 8074SOL     OW25120   3.825   2.544   0.468
 8074SOL    HW125121   3.768   2.485   0.412
 8074SOL    HW225122   3.767   2.601   0.527
 8075SOL     OW25123   0.021   0.461   0.817
 8075SOL    HW125124   0.072   0.506   0.891
 8075SOL    HW225125   0.040   0.363   0.819
 8076SOL     OW25126   6.776   1.584   5.169
 8076SOL    HW125127   6.855   1.646   5.170
 8076SOL    HW225128   6.807   1.491   5.150
 8077SOL     OW25129   2.478   5.620   2.332
 8077SOL    HW125130   2.453   5.683   2.258
 8077SOL    HW225131   2.427   5.645   2.414
 8078SOL     OW25132   0.224   1.374   0.449
 8078SOL    HW125133   0.299   1.332   0.500
 8078SOL    HW225134   0.175   1.304   0.398
 8079SOL     OW25135   4.872   1.682   3.766
 8079SOL    HW125136   4.785   1.701   3.721
 8079SOL    HW225137   4.861   1.686   3.865
 8080SOL     OW25138   0.485   2.398   0.616
 8080SOL    HW125139   0.427   2.435   0.688
 8080SOL    HW225140   0.572   2.368   0.655
 8081SOL     OW25141   5.938   5.922   5.649
 8081SOL    HW125142   5.921   5.863   5.570
 8081SOL    HW225143   5.976   6.009   5.617
 8082SOL     OW25144   4.673   6.874   2.319
 8082SOL    HW125145   4.587   6.844   2.359
 8082SOL    HW225146   4.655   6.941   2.246
 8083SOL     OW25147   5.048   3.499   2.805
 8083SOL    HW125148   4.999   3.499   2.718
 8083SOL    HW225149   5.096   3.586   2.817
 8084SOL     OW25150   4.872   0.084   0.635
 8084SOL    HW125151   4.826   0.164   0.595
 8084SOL    HW225152   4.828   0.061   0.721
 8085SOL     OW25153   6.519   6.665   1.853
 8085SOL    HW125154   6.587   6.702   1.789
 8085SOL    HW225155   6.427   6.676   1.814
 8086SOL     OW25156   5.599   1.015   2.890
 8086SOL    HW125157   5.553   1.068   2.961
 8086SOL    HW225158   5.542   1.013   2.808
 8087SOL     OW25159   3.126   1.291   0.672
 8087SOL    HW125160   3.097   1.200   0.643
 8087SOL    HW225161   3.163   1.341   0.594
 8088SOL     OW25162   5.233   2.145   1.016
 8088SOL    HW125163   5.162   2.215   1.009
 8088SOL    HW225164   5.208   2.079   1.087
 8089SOL     OW25165   5.609   2.357   0.531
 8089SOL    HW125166   5.615   2.452   0.499
 8089SOL    HW225167   5.516   2.323   0.515
 8090SOL     OW25168   4.719   1.684   0.112
 8090SOL    HW125169   4.721   1.599   0.060
 8090SOL    HW225170   4.626   1.699   0.146
 8091SOL     OW25171   2.595   3.436   5.336
 8091SOL    HW125172   2.614   3.533   5.348
 8091SOL    HW225173   2.678   3.383   5.351
 8092SOL     OW25174   6.296   2.301   5.071
 8092SOL    HW125175   6.322   2.269   5.162
 8092SOL    HW225176   6.349   2.251   5.002
 8093SOL     OW25177   3.691   5.621   2.912
 8093SOL    HW125178   3.641   5.676   2.845
 8093SOL    HW225179   3.758   5.678   2.960
 8094SOL     OW25180   1.661   3.706   4.906
 8094SOL    HW125181   1.587   3.772   4.921
 8094SOL    HW225182   1.711   3.692   4.991
 8095SOL     OW25183   6.918   4.415   4.530
 8095SOL    HW125184   6.938   4.500   4.482
 8095SOL    HW225185   7.000   4.357   4.531
 8096SOL     OW25186   2.458   6.531   3.336
 8096SOL    HW125187   2.439   6.562   3.243
 8096SOL    HW225188   2.547   6.486   3.339
 8097SOL     OW25189   4.621   0.209   3.949
 8097SOL    HW125190   4.538   0.261   3.966
 8097SOL    HW225191   4.617   0.170   3.857
 8098SOL     OW25192   1.614   0.275   3.352
 8098SOL    HW125193   1.635   0.207   3.422
 8098SOL    HW225194   1.649   0.244   3.264
 8099SOL     OW25195   3.613   6.942   4.295
 8099SOL    HW125196   3.597   0.014   4.314
 8099SOL    HW225197   3.700   6.931   4.248
 8100SOL     OW25198   5.823   1.286   0.408
 8100SOL    HW125199   5.887   1.283   0.485
 8100SOL    HW225200   5.874   1.285   0.322
 8101SOL     OW25201   1.749   7.015   2.714
 8101SOL    HW125202   1.662   0.027   2.745
 8101SOL    HW225203   1.809   0.066   2.686
 8102SOL     OW25204   0.478   4.210   3.821
 8102SOL    HW125205   0.409   4.138   3.815
 8102SOL    HW225206   0.433   4.299   3.825
 8103SOL     OW25207   4.122   6.914   0.777
 8103SOL    HW125208   4.157   6.976   0.847
 8103SOL    HW225209   4.125   6.820   0.811
 8104SOL     OW25210   3.523   0.248   6.306
 8104SOL    HW125211   3.523   0.323   6.372
 8104SOL    HW225212   3.617   0.229   6.278
 8105SOL     OW25213   0.514   2.637   3.138
 8105SOL    HW125214   0.540   2.602   3.228
 8105SOL    HW225215   0.512   2.562   3.072
 8106SOL     OW25216   2.058   5.811   2.863
 8106SOL    HW125217   2.073   5.910   2.863
 8106SOL    HW225218   2.003   5.785   2.784
 8107SOL     OW25219   0.881   4.816   4.264
 8107SOL    HW125220   0.939   4.891   4.233
 8107SOL    HW225221   0.920   4.774   4.346
 8108SOL     OW25222   5.988   3.067   5.416
 8108SOL    HW125223   6.060   3.132   5.392
 8108SOL    HW225224   6.010   3.024   5.503
 8109SOL     OW25225   1.208   3.686   4.832
 8109SOL    HW125226   1.195   3.695   4.930
 8109SOL    HW225227   1.247   3.596   4.812
 8110SOL     OW25228   3.465   6.432   0.747
 8110SOL    HW125229   3.392   6.391   0.802
 8110SOL    HW225230   3.431   6.515   0.704
 8111SOL     OW25231   4.654   0.211   5.050
 8111SOL    HW125232   4.675   0.165   5.137
 8111SOL    HW225233   4.714   0.291   5.040
 8112SOL     OW25234   2.320   2.401   4.739
 8112SOL    HW125235   2.232   2.410   4.690
 8112SOL    HW225236   2.364   2.316   4.711
 8113SOL     OW25237   2.972   3.337   0.770
 8113SOL    HW125238   2.997   3.415   0.713
 8113SOL    HW225239   2.976   3.363   0.866
 8114SOL     OW25240   1.531   3.635   1.997
 8114SOL    HW125241   1.601   3.564   2.010
 8114SOL    HW225242   1.572   3.725   2.013
 8115SOL     OW25243   3.510   0.470   0.182
 8115SOL    HW125244   3.470   0.559   0.203
 8115SOL    HW225245   3.609   0.473   0.197
 8116SOL     OW25246   4.684   5.356   5.825
 8116SOL    HW125247   4.593   5.396   5.837
 8116SOL    HW225248   4.729   5.398   5.747
 8117SOL     OW25249   1.491   0.939   3.619
 8117SOL    HW125250   1.563   0.971   3.680
 8117SOL    HW225251   1.444   1.018   3.579
 8118SOL     OW25252   5.656   4.127   5.783
 8118SOL    HW125253   5.680   4.217   5.820
 8118SOL    HW225254   5.738   4.083   5.747
 8119SOL     OW25255   6.001   5.741   5.838
 8119SOL    HW125256   5.987   5.648   5.806
 8119SOL    HW225257   6.007   5.803   5.760
 8120SOL     OW25258   2.118   4.986   0.442
 8120SOL    HW125259   2.071   5.067   0.405
 8120SOL    HW225260   2.213   4.985   0.409
 8121SOL     OW25261   0.853   4.325   1.880
 8121SOL    HW125262   0.761   4.331   1.917
 8121SOL    HW225263   0.920   4.345   1.952
 8122SOL     OW25264   0.810   6.136   2.581
 8122SOL    HW125265   0.778   6.142   2.486
 8122SOL    HW225266   0.766   6.208   2.635
 8123SOL     OW25267   6.734   0.766   6.210
 8123SOL    HW125268   6.824   0.809   6.210
 8123SOL    HW225269   6.744   0.667   6.199
 8124SOL     OW25270   5.986   6.726   0.802
 8124SOL    HW125271   5.918   6.754   0.734
 8124SOL    HW225272   6.050   6.801   0.819
 8125SOL     OW25273   1.330   1.274   3.765
 8125SOL    HW125274   1.308   1.185   3.806
 8125SOL    HW225275   1.429   1.289   3.772
 8126SOL     OW25276   4.912   5.084   2.607
 8126SOL    HW125277   4.834   5.021   2.606
 8126SOL    HW225278   4.996   5.033   2.593
 8127SOL     OW25279   3.124   5.554   6.244
 8127SOL    HW125280   3.204   5.501   6.270
 8127SOL    HW225281   3.112   5.631   6.307
 8128SOL     OW25282   2.728   1.674   1.560
 8128SOL    HW125283   2.767   1.708   1.645
 8128SOL    HW225284   2.693   1.751   1.506
 8129SOL     OW25285   4.567   0.509   5.870
 8129SOL    HW125286   4.604   0.420   5.898
 8129SOL    HW225287   4.642   0.573   5.856
 8130SOL     OW25288   0.440   3.057   5.993
 8130SOL    HW125289   0.398   2.986   5.936
 8130SOL    HW225290   0.537   3.038   6.004
 8131SOL     OW25291   3.616   2.074   0.924
 8131SOL    HW125292   3.570   1.985   0.932
 8131SOL    HW225293   3.700   2.063   0.872
 8132SOL     OW25294   6.268   6.822   5.808
 8132SOL    HW125295   6.238   6.803   5.901
 8132SOL    HW225296   6.201   6.785   5.743
 8133SOL     OW25297   2.897   4.771   1.288
 8133SOL    HW125298   2.947   4.796   1.204
 8133SOL    HW225299   2.882   4.672   1.289
 8134SOL     OW25300   0.349   2.847   5.497
 8134SOL    HW125301   0.441   2.855   5.457
 8134SOL    HW225302   0.337   2.755   5.534
 8135SOL     OW25303   2.285   5.611   1.230
 8135SOL    HW125304   2.234   5.646   1.151
 8135SOL    HW225305   2.271   5.671   1.308
 8136SOL     OW25306   4.255   5.280   3.080
 8136SOL    HW125307   4.346   5.314   3.057
 8136SOL    HW225308   4.263   5.211   3.153
 8137SOL     OW25309   3.482   1.365   5.103
 8137SOL    HW125310   3.460   1.293   5.037
 8137SOL    HW225311   3.573   1.402   5.083
 8138SOL     OW25312   5.574   1.387   0.189
 8138SOL    HW125313   5.616   1.474   0.213
 8138SOL    HW225314   5.573   1.327   0.269
 8139SOL     OW25315   0.722   1.562   3.475
 8139SOL    HW125316   0.755   1.541   3.567
 8139SOL    HW225317   0.739   1.484   3.415
 8140SOL     OW25318   4.902   0.708   0.905
 8140SOL    HW125319   4.921   0.717   1.003
 8140SOL    HW225320   4.950   0.628   0.869
 8141SOL     OW25321   4.431   6.174   5.526
 8141SOL    HW125322   4.444   6.203   5.432
 8141SOL    HW225323   4.515   6.188   5.578
 8142SOL     OW25324   1.258   4.366   0.135
 8142SOL    HW125325   1.202   4.283   0.137
 8142SOL    HW225326   1.276   4.392   0.040
 8143SOL     OW25327   7.016   4.664   0.792
 8143SOL    HW125328   6.924   4.641   0.759
 8143SOL    HW225329   7.023   4.645   0.890
 8144SOL     OW25330   0.082   6.520   6.105
 8144SOL    HW125331   0.146   6.466   6.050
 8144SOL    HW225332   0.131   6.563   6.181
 8145SOL     OW25333   5.707   5.752   1.625
 8145SOL    HW125334   5.754   5.802   1.552
 8145SOL    HW225335   5.655   5.676   1.587
 8146SOL     OW25336   5.038   0.827   5.076
 8146SOL    HW125337   5.007   0.922   5.081
 8146SOL    HW225338   4.966   0.767   5.110
 8147SOL     OW25339   6.890   1.582   2.068
 8147SOL    HW125340   6.950   1.506   2.093
 8147SOL    HW225341   6.851   1.622   2.151
 8148SOL     OW25342   5.166   4.300   0.825
 8148SOL    HW125343   5.183   4.365   0.899
 8148SOL    HW225344   5.122   4.218   0.862
 8149SOL     OW25345   1.831   6.147   2.796
 8149SOL    HW125346   1.832   6.119   2.700
 8149SOL    HW225347   1.738   6.175   2.822
 8150SOL     OW25348   1.832   3.835   1.568
 8150SOL    HW125349   1.788   3.924   1.556
 8150SOL    HW225350   1.788   3.768   1.508
 8151SOL     OW25351   5.340   4.678   2.477
 8151SOL    HW125352   5.265   4.650   2.537
 8151SOL    HW225353   5.392   4.597   2.449
 8152SOL     OW25354   5.970   1.941   2.926
 8152SOL    HW125355   6.024   2.012   2.970
 8152SOL    HW225356   5.961   1.961   2.829
 8153SOL     OW25357   1.409   1.343   4.093
 8153SOL    HW125358   1.487   1.398   4.062
 8153SOL    HW225359   1.346   1.329   4.017
 8154SOL     OW25360   3.764   5.126   2.454
 8154SOL    HW125361   3.746   5.071   2.373
 8154SOL    HW225362   3.817   5.208   2.428
 8155SOL     OW25363   1.764   3.062   1.723
 8155SOL    HW125364   1.733   3.133   1.786
 8155SOL    HW225365   1.708   2.980   1.736
 8156SOL     OW25366   4.972   6.328   0.828
 8156SOL    HW125367   5.026   6.303   0.908
 8156SOL    HW225368   4.908   6.254   0.806
 8157SOL     OW25369   6.207   4.951   6.093
 8157SOL    HW125370   6.202   4.890   6.014
 8157SOL    HW225371   6.247   4.903   6.170
 8158SOL     OW25372   5.075   4.396   6.990
 8158SOL    HW125373   5.038   4.477   0.011
 8158SOL    HW225374   5.135   4.425   6.915
 8159SOL     OW25375   2.362   5.987   2.760
 8159SOL    HW125376   2.268   6.019   2.771
 8159SOL    HW225377   2.389   5.935   2.841
 8160SOL     OW25378   5.600   0.930   3.231
 8160SOL    HW125379   5.679   0.990   3.233
 8160SOL    HW225380   5.601   0.874   3.149
 8161SOL     OW25381   6.218   2.705   6.558
 8161SOL    HW125382   6.146   2.697   6.490
 8161SOL    HW225383   6.189   2.662   6.644
 8162SOL     OW25384   6.145   6.724   6.615
 8162SOL    HW125385   6.110   6.808   6.575
 8162SOL    HW225386   6.078   6.686   6.679
 8163SOL     OW25387   2.918   4.135   5.339
 8163SOL    HW125388   2.935   4.047   5.382
 8163SOL    HW225389   2.904   4.122   5.241
 8164SOL     OW25390   5.185   2.188   0.124
 8164SOL    HW125391   5.192   2.285   0.100
 8164SOL    HW225392   5.276   2.152   0.146
 8165SOL     OW25393   0.962   3.916   5.869
 8165SOL    HW125394   0.928   3.944   5.780
 8165SOL    HW225395   1.007   3.993   5.914
 8166SOL     OW25396   1.432   0.829   3.255
 8166SOL    HW125397   1.390   0.903   3.308
 8166SOL    HW225398   1.399   0.741   3.288
 8167SOL     OW25399   0.142   0.258   3.812
 8167SOL    HW125400   0.164   0.161   3.826
 8167SOL    HW225401   0.153   0.281   3.716
 8168SOL     OW25402   2.214   1.385   2.836
 8168SOL    HW125403   2.197   1.470   2.886
 8168SOL    HW225404   2.174   1.308   2.886
 8169SOL     OW25405   4.813   1.985   0.752
 8169SOL    HW125406   4.759   1.917   0.801
 8169SOL    HW225407   4.831   1.953   0.659
 8170SOL     OW25408   1.286   5.136   2.175
 8170SOL    HW125409   1.249   5.063   2.232
 8170SOL    HW225410   1.386   5.137   2.184
 8171SOL     OW25411   1.682   1.877   6.215
 8171SOL    HW125412   1.769   1.871   6.165
 8171SOL    HW225413   1.688   1.950   6.282
 8172SOL     OW25414   0.530   2.300   2.193
 8172SOL    HW125415   0.477   2.260   2.119
 8172SOL    HW225416   0.511   2.398   2.199
 8173SOL     OW25417   5.431   1.685   2.270
 8173SOL    HW125418   5.416   1.701   2.367
 8173SOL    HW225419   5.515   1.633   2.257
 8174SOL     OW25420   6.372   1.897   1.695
 8174SOL    HW125421   6.306   1.840   1.646
 8174SOL    HW225422   6.335   1.989   1.705
 8175SOL     OW25423   0.743   3.243   5.355
 8175SOL    HW125424   0.814   3.190   5.401
 8175SOL    HW225425   0.680   3.282   5.423
 8176SOL     OW25426   2.203   5.109   1.629
 8176SOL    HW125427   2.224   5.119   1.726
 8176SOL    HW225428   2.126   5.168   1.605
 8177SOL     OW25429   3.657   6.786   3.753
 8177SOL    HW125430   3.587   6.838   3.704
 8177SOL    HW225431   3.623   6.762   3.844
 8178SOL     OW25432   2.641   6.202   0.071
 8178SOL    HW125433   2.701   6.276   0.042
 8178SOL    HW225434   2.679   6.158   0.152
 8179SOL     OW25435   4.773   1.558   5.314
 8179SOL    HW125436   4.711   1.480   5.327
 8179SOL    HW225437   4.753   1.602   5.227
 8180SOL     OW25438   6.454   0.219   5.130
 8180SOL    HW125439   6.548   0.245   5.107
 8180SOL    HW225440   6.455   0.137   5.186
 8181SOL     OW25441   2.120   1.424   0.948
 8181SOL    HW125442   2.033   1.463   0.916
 8181SOL    HW225443   2.135   1.335   0.905
 8182SOL     OW25444   3.144   3.760   5.689
 8182SOL    HW125445   3.174   3.842   5.739
 8182SOL    HW225446   3.220   3.723   5.637
 8183SOL     OW25447   6.760   1.926   5.170
 8183SOL    HW125448   6.701   1.877   5.234
 8183SOL    HW225449   6.786   2.014   5.209
 8184SOL     OW25450   6.290   1.149   0.347
 8184SOL    HW125451   6.343   1.138   0.432
 8184SOL    HW225452   6.233   1.068   0.333
 8185SOL     OW25453   2.696   6.975   0.240
 8185SOL    HW125454   2.605   6.951   0.206
 8185SOL    HW225455   2.757   6.897   0.231
 8186SOL     OW25456   3.681   4.962   5.596
 8186SOL    HW125457   3.715   5.047   5.556
 8186SOL    HW225458   3.661   4.897   5.522
 8187SOL     OW25459   1.560   2.066   4.566
 8187SOL    HW125460   1.571   2.151   4.515
 8187SOL    HW225461   1.473   2.066   4.615
 8188SOL     OW25462   5.850   2.750   2.634
 8188SOL    HW125463   5.935   2.802   2.639
 8188SOL    HW225464   5.781   2.803   2.585
 8189SOL     OW25465   4.750   4.481   3.123
 8189SOL    HW125466   4.812   4.405   3.145
 8189SOL    HW225467   4.802   4.566   3.122
 8190SOL     OW25468   4.619   5.151   4.470
 8190SOL    HW125469   4.555   5.088   4.514
 8190SOL    HW225470   4.641   5.225   4.533
 8191SOL     OW25471   3.487   6.356   1.731
 8191SOL    HW125472   3.453   6.279   1.785
 8191SOL    HW225473   3.586   6.348   1.720
 8192SOL     OW25474   4.003   4.960   0.556
 8192SOL    HW125475   4.072   4.889   0.568
 8192SOL    HW225476   3.944   4.937   0.479
 8193SOL     OW25477   6.729   5.966   4.579
 8193SOL    HW125478   6.703   5.993   4.487
 8193SOL    HW225479   6.822   5.999   4.599
 8194SOL     OW25480   5.595   2.605   0.982
 8194SOL    HW125481   5.514   2.588   1.039
 8194SOL    HW225482   5.611   2.526   0.923
 8195SOL     OW25483   1.255   0.202   1.583
 8195SOL    HW125484   1.251   0.186   1.484
 8195SOL    HW225485   1.167   0.235   1.615
 8196SOL     OW25486   3.876   6.019   5.927
 8196SOL    HW125487   3.890   5.927   5.889
 8196SOL    HW225488   3.943   6.082   5.889
 8197SOL     OW25489   4.909   1.908   0.286
 8197SOL    HW125490   4.935   2.004   0.293
 8197SOL    HW225491   4.860   1.894   0.200
 8198SOL     OW25492   3.547   6.755   2.979
 8198SOL    HW125493   3.542   6.854   2.971
 8198SOL    HW225494   3.568   6.715   2.890
 8199SOL     OW25495   5.921   3.049   6.908
 8199SOL    HW125496   5.846   3.112   6.887
 8199SOL    HW225497   5.990   3.096   6.962
 8200SOL     OW25498   5.281   4.434   1.844
 8200SOL    HW125499   5.251   4.370   1.774
 8200SOL    HW225500   5.208   4.449   1.911
 8201SOL     OW25501   5.646   0.419   3.595
 8201SOL    HW125502   5.605   0.437   3.506
 8201SOL    HW225503   5.581   0.369   3.652
 8202SOL     OW25504   0.576   5.550   4.260
 8202SOL    HW125505   0.524   5.624   4.304
 8202SOL    HW225506   0.609   5.581   4.171
 8203SOL     OW25507   4.584   2.457   0.033
 8203SOL    HW125508   4.495   2.432   0.071
 8203SOL    HW225509   4.644   2.489   0.107
 8204SOL     OW25510   2.548   5.098   6.905
 8204SOL    HW125511   2.540   5.198   6.910
 8204SOL    HW225512   2.590   5.064   6.989
 8205SOL     OW25513   0.241   4.645   0.651
 8205SOL    HW125514   0.308   4.690   0.711
 8205SOL    HW225515   0.150   4.659   0.689
 8206SOL     OW25516   4.830   2.804   6.496
 8206SOL    HW125517   4.736   2.825   6.469
 8206SOL    HW225518   4.893   2.836   6.426
 8207SOL     OW25519   3.002   3.967   4.725
 8207SOL    HW125520   3.058   3.913   4.788
 8207SOL    HW225521   2.947   3.906   4.668
 8208SOL     OW25522   2.058   0.007   1.461
 8208SOL    HW125523   2.028   0.055   1.544
 8208SOL    HW225524   1.988   6.965   1.434
 8209SOL     OW25525   0.652   1.151   5.962
 8209SOL    HW125526   0.702   1.124   5.880
 8209SOL    HW225527   0.655   1.076   6.029
 8210SOL     OW25528   2.375   1.239   1.268
 8210SOL    HW125529   2.387   1.200   1.177
 8210SOL    HW225530   2.334   1.170   1.328
 8211SOL     OW25531   3.374   3.929   2.166
 8211SOL    HW125532   3.366   3.876   2.081
 8211SOL    HW225533   3.426   4.012   2.149
 8212SOL     OW25534   1.716   1.822   1.467
 8212SOL    HW125535   1.766   1.743   1.431
 8212SOL    HW225536   1.706   1.812   1.566
 8213SOL     OW25537   6.397   4.792   2.202
 8213SOL    HW125538   6.396   4.715   2.265
 8213SOL    HW225539   6.429   4.761   2.112
 8214SOL     OW25540   6.659   5.274   4.699
 8214SOL    HW125541   6.574   5.307   4.740
 8214SOL    HW225542   6.646   5.260   4.601
 8215SOL     OW25543   2.736   5.579   6.261
 8215SOL    HW125544   2.685   5.496   6.287
 8215SOL    HW225545   2.807   5.597   6.330
 8216SOL     OW25546   4.723   5.498   3.695
 8216SOL    HW125547   4.623   5.490   3.700
 8216SOL    HW225548   4.761   5.494   3.787
 8217SOL     OW25549   2.150   4.002   1.589
 8217SOL    HW125550   2.228   3.941   1.574
 8217SOL    HW225551   2.089   3.962   1.658
 8218SOL     OW25552   1.070   6.169   4.500
 8218SOL    HW125553   1.070   6.269   4.493
 8218SOL    HW225554   1.110   6.142   4.588
 8219SOL     OW25555   4.268   3.323   0.797
 8219SOL    HW125556   4.174   3.348   0.772
 8219SOL    HW225557   4.303   3.257   0.731
 8220SOL     OW25558   3.014   3.896   4.161
 8220SOL    HW125559   2.982   3.806   4.191
 8220SOL    HW225560   3.045   3.948   4.240
 8221SOL     OW25561   6.111   6.063   3.190
 8221SOL    HW125562   6.060   6.048   3.105
 8221SOL    HW225563   6.179   5.991   3.202
 8222SOL     OW25564   5.165   1.228   1.549
 8222SOL    HW125565   5.115   1.235   1.462
 8222SOL    HW225566   5.263   1.233   1.531
 8223SOL     OW25567   1.344   4.408   5.346
 8223SOL    HW125568   1.406   4.440   5.418
 8223SOL    HW225569   1.282   4.340   5.383
 8224SOL     OW25570   5.656   2.502   2.281
 8224SOL    HW125571   5.584   2.451   2.233
 8224SOL    HW225572   5.745   2.474   2.245
 8225SOL     OW25573   4.100   1.592   1.167
 8225SOL    HW125574   4.079   1.570   1.262
 8225SOL    HW225575   4.190   1.556   1.144
 8226SOL     OW25576   3.569   6.189   0.548
 8226SOL    HW125577   3.635   6.228   0.613
 8226SOL    HW225578   3.615   6.120   0.493
 8227SOL     OW25579   6.648   1.532   2.547
 8227SOL    HW125580   6.555   1.496   2.544
 8227SOL    HW225581   6.659   1.591   2.627
 8228SOL     OW25582   0.188   1.620   6.341
 8228SOL    HW125583   0.201   1.562   6.421
 8228SOL    HW225584   0.278   1.647   6.305
 8229SOL     OW25585   4.009   3.543   1.618
 8229SOL    HW125586   4.019   3.593   1.531
 8229SOL    HW225587   3.913   3.537   1.642
 8230SOL     OW25588   3.493   6.653   5.571
 8230SOL    HW125589   3.428   6.708   5.518
 8230SOL    HW225590   3.578   6.644   5.519
 8231SOL     OW25591   2.954   2.808   1.620
 8231SOL    HW125592   2.870   2.762   1.590
 8231SOL    HW225593   3.022   2.739   1.643
 8232SOL     OW25594   5.946   2.040   2.612
 8232SOL    HW125595   6.010   2.091   2.553
 8232SOL    HW225596   5.852   2.061   2.584
 8233SOL     OW25597   1.470   6.788   6.153
 8233SOL    HW125598   1.474   6.700   6.105
 8233SOL    HW225599   1.446   6.860   6.088
 8234SOL     OW25600   2.570   3.998   0.143
 8234SOL    HW125601   2.573   3.967   0.238
 8234SOL    HW225602   2.663   4.013   0.110
 8235SOL     OW25603   0.175   3.957   6.965
 8235SOL    HW125604   0.197   4.034   7.025
 8235SOL    HW225605   0.147   3.878   7.021
 8236SOL     OW25606   0.230   4.800   0.243
 8236SOL    HW125607   0.154   4.739   0.222
 8236SOL    HW225608   0.306   4.780   0.181
 8237SOL     OW25609   4.643   5.956   6.082
 8237SOL    HW125610   4.694   6.001   6.009
 8237SOL    HW225611   4.654   5.857   6.074
 8238SOL     OW25612   0.439   5.527   0.175
 8238SOL    HW125613   0.490   5.591   0.117
 8238SOL    HW225614   0.380   5.470   0.117
 8239SOL     OW25615   0.395   0.987   5.505
 8239SOL    HW125616   0.327   0.924   5.466
 8239SOL    HW225617   0.379   1.079   5.470
 8240SOL     OW25618   3.458   3.925   2.423
 8240SOL    HW125619   3.397   3.989   2.469
 8240SOL    HW225620   3.428   3.910   2.329
 8241SOL     OW25621   3.031   5.290   6.292
 8241SOL    HW125622   3.099   5.217   6.280
 8241SOL    HW225623   3.066   5.375   6.252
 8242SOL     OW25624   0.799   3.978   6.380
 8242SOL    HW125625   0.740   3.902   6.408
 8242SOL    HW225626   0.749   4.064   6.389
 8243SOL     OW25627   6.391   3.545   0.796
 8243SOL    HW125628   6.465   3.610   0.781
 8243SOL    HW225629   6.428   3.453   0.800
 8244SOL     OW25630   0.030   0.719   3.148
 8244SOL    HW125631   0.119   0.757   3.126
 8244SOL    HW225632   0.036   0.619   3.152
 8245SOL     OW25633   3.705   2.099   2.726
 8245SOL    HW125634   3.665   2.190   2.726
 8245SOL    HW225635   3.784   2.097   2.664
 8246SOL     OW25636   0.815   3.678   6.452
 8246SOL    HW125637   0.844   3.653   6.360
 8246SOL    HW225638   0.721   3.711   6.450
 8247SOL     OW25639   2.211   0.873   3.365
 8247SOL    HW125640   2.224   0.878   3.266
 8247SOL    HW225641   2.134   0.813   3.385
 8248SOL     OW25642   0.248   4.494   4.312
 8248SOL    HW125643   0.229   4.548   4.230
 8248SOL    HW225644   0.337   4.521   4.348
 8249SOL     OW25645   1.866   1.390   5.685
 8249SOL    HW125646   1.840   1.477   5.726
 8249SOL    HW225647   1.870   1.319   5.755
 8250SOL     OW25648   2.328   2.452   1.679
 8250SOL    HW125649   2.399   2.464   1.749
 8250SOL    HW225650   2.326   2.355   1.651
 8251SOL     OW25651   5.055   3.113   4.294
 8251SOL    HW125652   4.957   3.097   4.306
 8251SOL    HW225653   5.077   3.207   4.321
 8252SOL     OW25654   3.661   1.655   6.343
 8252SOL    HW125655   3.712   1.737   6.320
 8252SOL    HW225656   3.691   1.621   6.432
 8253SOL     OW25657   3.801   5.489   5.752
 8253SOL    HW125658   3.756   5.551   5.816
 8253SOL    HW225659   3.761   5.397   5.762
 8254SOL     OW25660   4.722   4.518   5.361
 8254SOL    HW125661   4.749   4.586   5.429
 8254SOL    HW225662   4.726   4.426   5.402
 8255SOL     OW25663   1.802   6.161   5.102
 8255SOL    HW125664   1.810   6.065   5.128
 8255SOL    HW225665   1.820   6.218   5.183
 8256SOL     OW25666   6.507   6.349   2.543
 8256SOL    HW125667   6.553   6.331   2.629
 8256SOL    HW225668   6.497   6.264   2.491
 8257SOL     OW25669   5.061   4.036   2.384
 8257SOL    HW125670   5.119   4.110   2.353
 8257SOL    HW225671   5.074   3.956   2.325
 8258SOL     OW25672   5.232   2.732   2.090
 8258SOL    HW125673   5.199   2.821   2.120
 8258SOL    HW225674   5.332   2.735   2.079
 8259SOL     OW25675   3.836   1.859   4.840
 8259SOL    HW125676   3.829   1.958   4.826
 8259SOL    HW225677   3.910   1.823   4.783
 8260SOL     OW25678   2.794   6.960   1.209
 8260SOL    HW125679   2.836   6.904   1.281
 8260SOL    HW225680   2.727   6.906   1.159
 8261SOL     OW25681   5.415   6.535   3.112
 8261SOL    HW125682   5.370   6.623   3.093
 8261SOL    HW225683   5.512   6.551   3.131
 8262SOL     OW25684   1.053   4.059   0.406
 8262SOL    HW125685   1.018   4.053   0.500
 8262SOL    HW225686   0.996   4.002   0.346
 8263SOL     OW25687   0.142   2.804   6.558
 8263SOL    HW125688   0.105   2.787   6.467
 8263SOL    HW225689   0.086   2.872   6.604
 8264SOL     OW25690   1.966   6.877   0.782
 8264SOL    HW125691   1.968   6.901   0.879
 8264SOL    HW225692   1.962   6.961   0.728
 8265SOL     OW25693   6.071   0.210   1.532
 8265SOL    HW125694   6.061   0.273   1.455
 8265SOL    HW225695   5.982   0.166   1.550
 8266SOL     OW25696   2.335   1.131   4.530
 8266SOL    HW125697   2.363   1.201   4.464
 8266SOL    HW225698   2.378   1.151   4.619
 8267SOL     OW25699   1.606   3.561   1.708
 8267SOL    HW125700   1.700   3.529   1.715
 8267SOL    HW225701   1.564   3.563   1.799
 8268SOL     OW25702   2.818   6.577   6.591
 8268SOL    HW125703   2.807   6.676   6.599
 8268SOL    HW225704   2.786   6.547   6.501
 8269SOL     OW25705   4.563   2.436   2.592
 8269SOL    HW125706   4.503   2.454   2.670
 8269SOL    HW225707   4.642   2.497   2.596
 8270SOL     OW25708   3.007   6.453   4.653
 8270SOL    HW125709   2.946   6.388   4.608
 8270SOL    HW225710   3.030   6.527   4.590
 8271SOL     OW25711   6.961   0.191   2.557
 8271SOL    HW125712   6.866   0.165   2.570
 8271SOL    HW225713   6.992   0.246   2.635
 8272SOL     OW25714   6.418   1.900   2.851
 8272SOL    HW125715   6.380   1.824   2.904
 8272SOL    HW225716   6.435   1.978   2.911
 8273SOL     OW25717   2.716   1.517   0.784
 8273SOL    HW125718   2.755   1.575   0.714
 8273SOL    HW225719   2.714   1.566   0.871
 8274SOL     OW25720   4.350   5.516   4.664
 8274SOL    HW125721   4.318   5.456   4.591
 8274SOL    HW225722   4.398   5.461   4.733
 8275SOL     OW25723   5.253   0.137   4.756
 8275SOL    HW125724   5.159   0.109   4.771
 8275SOL    HW225725   5.306   0.061   4.718
 8276SOL     OW25726   0.683   1.708   5.368
 8276SOL    HW125727   0.667   1.668   5.459
 8276SOL    HW225728   0.693   1.635   5.301
 8277SOL     OW25729   1.356   6.228   5.835
 8277SOL    HW125730   1.429   6.181   5.787
 8277SOL    HW225731   1.292   6.267   5.769
 8278SOL     OW25732   3.316   1.841   6.947
 8278SOL    HW125733   3.325   1.843   6.848
 8278SOL    HW225734   3.220   1.833   6.972
 8279SOL     OW25735   0.707   6.490   4.902
 8279SOL    HW125736   0.684   6.582   4.934
 8279SOL    HW225737   0.659   6.472   4.816
 8280SOL     OW25738   3.268   2.988   0.210
 8280SOL    HW125739   3.273   3.018   0.114
 8280SOL    HW225740   3.233   3.064   0.266
 8281SOL     OW25741   2.590   4.676   1.551
 8281SOL    HW125742   2.565   4.625   1.634
 8281SOL    HW225743   2.635   4.761   1.577
 8282SOL     OW25744   3.988   4.553   6.991
 8282SOL    HW125745   3.998   4.509   6.901
 8282SOL    HW225746   4.072   4.601   7.014
 8283SOL     OW25747   1.631   4.458   4.466
 8283SOL    HW125748   1.605   4.440   4.561
 8283SOL    HW225749   1.730   4.450   4.455
 8284SOL     OW25750   1.355   3.908   1.944
 8284SOL    HW125751   1.423   3.846   1.904
 8284SOL    HW225752   1.278   3.918   1.881
 8285SOL     OW25753   3.227   4.105   4.650
 8285SOL    HW125754   3.160   4.063   4.711
 8285SOL    HW225755   3.257   4.038   4.582
 8286SOL     OW25756   5.532   1.959   4.994
 8286SOL    HW125757   5.452   1.900   4.988
 8286SOL    HW225758   5.507   2.052   4.964
 8287SOL     OW25759   1.038   4.891   3.961
 8287SOL    HW125760   1.119   4.835   3.980
 8287SOL    HW225761   1.024   4.956   4.036
 8288SOL     OW25762   2.630   2.419   2.459
 8288SOL    HW125763   2.648   2.414   2.557
 8288SOL    HW225764   2.709   2.385   2.408
 8289SOL     OW25765   0.055   6.217   6.211
 8289SOL    HW125766   0.033   6.307   6.172
 8289SOL    HW225767   0.024   6.145   6.149
 8290SOL     OW25768   5.602   1.568   0.796
 8290SOL    HW125769   5.552   1.560   0.710
 8290SOL    HW225770   5.539   1.559   0.873
 8291SOL     OW25771   5.407   5.014   5.943
 8291SOL    HW125772   5.375   5.101   5.981
 8291SOL    HW225773   5.504   5.022   5.919
 8292SOL     OW25774   3.434   5.963   6.583
 8292SOL    HW125775   3.503   5.925   6.645
 8292SOL    HW225776   3.455   6.059   6.564
 8293SOL     OW25777   2.057   4.965   0.919
 8293SOL    HW125778   2.123   4.987   0.991
 8293SOL    HW225779   2.055   4.866   0.905
 8294SOL     OW25780   5.935   3.590   4.702
 8294SOL    HW125781   5.975   3.512   4.653
 8294SOL    HW225782   5.835   3.581   4.704
 8295SOL     OW25783   5.185   3.637   2.414
 8295SOL    HW125784   5.121   3.680   2.478
 8295SOL    HW225785   5.259   3.701   2.394
 8296SOL     OW25786   2.611   5.421   0.281
 8296SOL    HW125787   2.520   5.429   0.322
 8296SOL    HW225788   2.655   5.511   0.280
 8297SOL     OW25789   6.918   3.553   2.662
 8297SOL    HW125790   6.837   3.542   2.605
 8297SOL    HW225791   6.939   3.650   2.672
 8298SOL     OW25792   6.843   1.388   0.662
 8298SOL    HW125793   6.899   1.425   0.588
 8298SOL    HW225794   6.787   1.461   0.702
 8299SOL     OW25795   0.581   3.037   2.711
 8299SOL    HW125796   0.523   3.103   2.759
 8299SOL    HW225797   0.664   3.084   2.680
 8300SOL     OW25798   0.238   6.317   3.923
 8300SOL    HW125799   0.323   6.366   3.903
 8300SOL    HW225800   0.173   6.378   3.967
 8301SOL     OW25801   4.331   1.128   0.271
 8301SOL    HW125802   4.343   1.053   0.206
 8301SOL    HW225803   4.251   1.182   0.245
 8302SOL     OW25804   5.383   6.384   6.176
 8302SOL    HW125805   5.461   6.389   6.113
 8302SOL    HW225806   5.307   6.337   6.131
 8303SOL     OW25807   5.829   0.819   3.587
 8303SOL    HW125808   5.890   0.898   3.588
 8303SOL    HW225809   5.869   0.745   3.642
 8304SOL     OW25810   5.552   4.273   1.283
 8304SOL    HW125811   5.503   4.310   1.204
 8304SOL    HW225812   5.547   4.173   1.281
 8305SOL     OW25813   4.732   4.711   4.329
 8305SOL    HW125814   4.754   4.740   4.422
 8305SOL    HW225815   4.634   4.697   4.321
 8306SOL     OW25816   6.116   1.430   3.771
 8306SOL    HW125817   6.126   1.334   3.794
 8306SOL    HW225818   6.086   1.439   3.676
 8307SOL     OW25819   4.062   5.462   1.653
 8307SOL    HW125820   4.080   5.559   1.640
 8307SOL    HW225821   3.975   5.438   1.609
 8308SOL     OW25822   2.225   6.192   0.365
 8308SOL    HW125823   2.192   6.097   0.359
 8308SOL    HW225824   2.264   6.218   0.277
 8309SOL     OW25825   6.589   6.004   2.261
 8309SOL    HW125826   6.562   6.011   2.357
 8309SOL    HW225827   6.655   5.929   2.251
 8310SOL     OW25828   1.210   5.279   1.504
 8310SOL    HW125829   1.161   5.253   1.587
 8310SOL    HW225830   1.280   5.210   1.484
 8311SOL     OW25831   6.274   1.670   5.596
 8311SOL    HW125832   6.256   1.671   5.498
 8311SOL    HW225833   6.326   1.588   5.620
 8312SOL     OW25834   5.185   1.112   6.244
 8312SOL    HW125835   5.175   1.078   6.338
 8312SOL    HW225836   5.121   1.187   6.229
 8313SOL     OW25837   5.655   0.324   5.893
 8313SOL    HW125838   5.663   0.281   5.803
 8313SOL    HW225839   5.738   0.307   5.945
 8314SOL     OW25840   6.293   6.543   6.430
 8314SOL    HW125841   6.241   6.600   6.494
 8314SOL    HW225842   6.230   6.490   6.374
 8315SOL     OW25843   3.976   3.397   2.560
 8315SOL    HW125844   4.023   3.335   2.497
 8315SOL    HW225845   3.975   3.358   2.651
 8316SOL     OW25846   1.161   2.942   1.830
 8316SOL    HW125847   1.094   3.000   1.785
 8316SOL    HW225848   1.161   2.959   1.928
 8317SOL     OW25849   1.310   2.335   2.602
 8317SOL    HW125850   1.250   2.414   2.614
 8317SOL    HW225851   1.388   2.343   2.664
 8318SOL     OW25852   4.333   1.391   5.921
 8318SOL    HW125853   4.419   1.388   5.973
 8318SOL    HW225854   4.302   1.297   5.904
 8319SOL     OW25855   1.398   1.199   1.409
 8319SOL    HW125856   1.346   1.279   1.378
 8319SOL    HW225857   1.495   1.212   1.389
 8320SOL     OW25858   3.054   3.696   2.571
 8320SOL    HW125859   3.118   3.678   2.497
 8320SOL    HW225860   3.040   3.794   2.581
 8321SOL     OW25861   6.483   0.153   0.032
 8321SOL    HW125862   6.396   0.202   0.029
 8321SOL    HW225863   6.470   0.064   0.076
 8322SOL     OW25864   6.156   0.946   0.660
 8322SOL    HW125865   6.120   0.906   0.576
 8322SOL    HW225866   6.236   1.003   0.638
 8323SOL     OW25867   4.352   4.819   1.589
 8323SOL    HW125868   4.380   4.893   1.528
 8323SOL    HW225869   4.421   4.747   1.587
 8324SOL     OW25870   5.697   0.173   1.017
 8324SOL    HW125871   5.598   0.162   1.027
 8324SOL    HW225872   5.718   0.268   0.994
 8325SOL     OW25873   1.742   3.616   5.549
 8325SOL    HW125874   1.817   3.560   5.512
 8325SOL    HW225875   1.655   3.586   5.510
 8326SOL     OW25876   4.640   4.421   5.676
 8326SOL    HW125877   4.661   4.516   5.656
 8326SOL    HW225878   4.612   4.374   5.593
 8327SOL     OW25879   6.824   0.497   6.155
 8327SOL    HW125880   6.912   0.529   6.120
 8327SOL    HW225881   6.799   0.412   6.108
 8328SOL     OW25882   2.483   5.776   6.447
 8328SOL    HW125883   2.518   5.727   6.527
 8328SOL    HW225884   2.426   5.852   6.477
 8329SOL     OW25885   0.760   2.747   5.024
 8329SOL    HW125886   0.701   2.740   4.943
 8329SOL    HW225887   0.853   2.719   5.000
 8330SOL     OW25888   2.950   0.893   6.689
 8330SOL    HW125889   2.891   0.857   6.761
 8330SOL    HW225890   2.895   0.917   6.609
 8331SOL     OW25891   3.541   0.566   0.997
 8331SOL    HW125892   3.540   0.644   0.935
 8331SOL    HW225893   3.558   0.598   1.090
 8332SOL     OW25894   5.918   5.694   2.573
 8332SOL    HW125895   5.965   5.648   2.498
 8332SOL    HW225896   5.903   5.790   2.549
 8333SOL     OW25897   1.027   5.019   6.979
 8333SOL    HW125898   0.937   4.993   7.014
 8333SOL    HW225899   1.027   5.117   6.957
 8334SOL     OW25900   3.297   1.801   4.826
 8334SOL    HW125901   3.389   1.767   4.844
 8334SOL    HW225902   3.293   1.898   4.850
 8335SOL     OW25903   4.636   1.382   0.344
 8335SOL    HW125904   4.639   1.288   0.378
 8335SOL    HW225905   4.574   1.386   0.265
 8336SOL     OW25906   0.628   4.284   2.649
 8336SOL    HW125907   0.713   4.335   2.654
 8336SOL    HW225908   0.633   4.205   2.710
 8337SOL     OW25909   0.611   6.183   4.088
 8337SOL    HW125910   0.588   6.088   4.112
 8337SOL    HW225911   0.701   6.205   4.124
 8338SOL     OW25912   3.669   5.430   1.277
 8338SOL    HW125913   3.651   5.333   1.293
 8338SOL    HW225914   3.625   5.485   1.348
 8339SOL     OW25915   6.533   0.488   2.011
 8339SOL    HW125916   6.480   0.539   2.079
 8339SOL    HW225917   6.475   0.470   1.931
 8340SOL     OW25918   4.749   4.096   1.290
 8340SOL    HW125919   4.779   4.001   1.278
 8340SOL    HW225920   4.770   4.149   1.208
 8341SOL     OW25921   2.046   0.346   6.603
 8341SOL    HW125922   2.115   0.329   6.673
 8341SOL    HW225923   2.056   0.278   6.529
 8342SOL     OW25924   4.854   6.974   0.316
 8342SOL    HW125925   4.837   6.877   0.329
 8342SOL    HW225926   4.916   7.007   0.387
 8343SOL     OW25927   0.385   6.138   3.467
 8343SOL    HW125928   0.407   6.126   3.370
 8343SOL    HW225929   0.461   6.104   3.523
 8344SOL     OW25930   6.395   5.881   4.662
 8344SOL    HW125931   6.440   5.796   4.633
 8344SOL    HW225932   6.319   5.859   4.723
 8345SOL     OW25933   4.253   2.241   2.701
 8345SOL    HW125934   4.270   2.142   2.695
 8345SOL    HW225935   4.308   2.288   2.632
 8346SOL     OW25936   3.784   4.790   0.829
 8346SOL    HW125937   3.805   4.848   0.908
 8346SOL    HW225938   3.863   4.731   0.809
 8347SOL     OW25939   3.166   6.778   4.935
 8347SOL    HW125940   3.090   6.714   4.943
 8347SOL    HW225941   3.146   6.846   4.864
 8348SOL     OW25942   2.056   1.306   1.199
 8348SOL    HW125943   2.086   1.355   1.281
 8348SOL    HW225944   2.085   1.357   1.117
 8349SOL     OW25945   0.819   6.819   2.692
 8349SOL    HW125946   0.756   6.750   2.657
 8349SOL    HW225947   0.772   6.876   2.760
 8350SOL     OW25948   2.732   6.344   6.133
 8350SOL    HW125949   2.756   6.270   6.195
 8350SOL    HW225950   2.694   6.420   6.185
 8351SOL     OW25951   4.967   5.632   4.612
 8351SOL    HW125952   4.887   5.685   4.639
 8351SOL    HW225953   5.010   5.674   4.531
 8352SOL     OW25954   0.475   0.083   3.532
 8352SOL    HW125955   0.499   0.154   3.465
 8352SOL    HW225956   0.402   0.026   3.495
 8353SOL     OW25957   0.342   3.902   1.496
 8353SOL    HW125958   0.298   3.940   1.577
 8353SOL    HW225959   0.427   3.856   1.523
 8354SOL     OW25960   3.381   6.900   4.627
 8354SOL    HW125961   3.408   6.823   4.685
 8354SOL    HW225962   3.326   6.866   4.551
 8355SOL     OW25963   2.517   1.393   5.545
 8355SOL    HW125964   2.547   1.429   5.457
 8355SOL    HW225965   2.571   1.433   5.618
 8356SOL     OW25966   0.806   0.498   1.839
 8356SOL    HW125967   0.878   0.567   1.834
 8356SOL    HW225968   0.773   0.477   1.746
 8357SOL     OW25969   3.356   6.960   5.594
 8357SOL    HW125970   3.352   6.940   5.692
 8357SOL    HW225971   3.314   6.884   5.543
 8358SOL     OW25972   1.901   4.047   5.120
 8358SOL    HW125973   1.969   4.121   5.115
 8358SOL    HW225974   1.820   4.072   5.067
 8359SOL     OW25975   3.523   0.968   5.172
 8359SOL    HW125976   3.474   1.031   5.112
 8359SOL    HW225977   3.584   0.911   5.118
 8360SOL     OW25978   4.129   6.882   0.279
 8360SOL    HW125979   4.075   6.966   0.282
 8360SOL    HW225980   4.114   6.830   0.364
 8361SOL     OW25981   3.210   0.600   1.631
 8361SOL    HW125982   3.282   0.665   1.603
 8361SOL    HW225983   3.248   0.537   1.698
 8362SOL     OW25984   5.014   1.284   0.806
 8362SOL    HW125985   5.104   1.326   0.813
 8362SOL    HW225986   5.015   1.196   0.855
 8363SOL     OW25987   4.576   2.681   6.800
 8363SOL    HW125988   4.558   2.590   6.839
 8363SOL    HW225989   4.570   2.675   6.701
 8364SOL     OW25990   0.384   2.018   4.223
 8364SOL    HW125991   0.434   2.085   4.168
 8364SOL    HW225992   0.304   1.986   4.172
 8365SOL     OW25993   1.761   2.837   2.767
 8365SOL    HW125994   1.727   2.807   2.856
 8365SOL    HW225995   1.713   2.788   2.695
 8366SOL     OW25996   2.456   5.449   0.989
 8366SOL    HW125997   2.417   5.361   0.960
 8366SOL    HW225998   2.391   5.522   0.969
 8367SOL     OW25999   3.464   5.884   4.790
 8367SOL    HW126000   3.433   5.799   4.833
 8367SOL    HW226001   3.456   5.876   4.691
 8368SOL     OW26002   0.644   6.784   6.888
 8368SOL    HW126003   0.621   6.697   6.933
 8368SOL    HW226004   0.712   6.767   6.816
 8369SOL     OW26005   0.434   0.177   5.758
 8369SOL    HW126006   0.376   0.160   5.838
 8369SOL    HW226007   0.391   0.137   5.677
 8370SOL     OW26008   2.905   1.606   5.910
 8370SOL    HW126009   3.002   1.588   5.895
 8370SOL    HW226010   2.888   1.705   5.908
 8371SOL     OW26011   1.853   4.397   0.926
 8371SOL    HW126012   1.784   4.391   0.998
 8371SOL    HW226013   1.828   4.336   0.850
 8372SOL     OW26014   1.587   5.470   1.791
 8372SOL    HW126015   1.664   5.519   1.834
 8372SOL    HW226016   1.587   5.488   1.693
 8373SOL     OW26017   2.046   6.283   3.911
 8373SOL    HW126018   2.132   6.252   3.871
 8373SOL    HW226019   1.970   6.260   3.850
 8374SOL     OW26020   6.916   0.224   4.886
 8374SOL    HW126021   7.003   0.220   4.838
 8374SOL    HW226022   6.882   0.318   4.886
 8375SOL     OW26023   4.120   6.297   5.239
 8375SOL    HW126024   4.076   6.386   5.247
 8375SOL    HW226025   4.214   6.304   5.272
 8376SOL     OW26026   1.005   1.302   4.757
 8376SOL    HW126027   0.992   1.228   4.691
 8376SOL    HW226028   0.916   1.341   4.782
 8377SOL     OW26029   5.399   6.166   0.812
 8377SOL    HW126030   5.318   6.149   0.756
 8377SOL    HW226031   5.477   6.118   0.772
 8378SOL     OW26032   3.556   4.899   2.885
 8378SOL    HW126033   3.581   4.968   2.817
 8378SOL    HW226034   3.459   4.908   2.907
 8379SOL     OW26035   5.393   2.807   1.177
 8379SOL    HW126036   5.368   2.712   1.162
 8379SOL    HW226037   5.355   2.838   1.265
 8380SOL     OW26038   1.044   0.352   1.711
 8380SOL    HW126039   0.953   0.354   1.669
 8380SOL    HW226040   1.035   0.335   1.809
 8381SOL     OW26041   0.552   2.947   4.227
 8381SOL    HW126042   0.485   2.933   4.300
 8381SOL    HW226043   0.584   2.859   4.193
 8382SOL     OW26044   2.121   6.959   2.441
 8382SOL    HW126045   2.071   6.989   2.359
 8382SOL    HW226046   2.057   6.953   2.518
 8383SOL     OW26047   3.029   6.708   6.022
 8383SOL    HW126048   3.059   6.800   5.997
 8383SOL    HW226049   2.991   6.709   6.115
 8384SOL     OW26050   6.585   1.689   1.602
 8384SOL    HW126051   6.528   1.764   1.636
 8384SOL    HW226052   6.536   1.603   1.614
 8385SOL     OW26053   4.927   2.674   6.995
 8385SOL    HW126054   4.953   2.673   6.899
 8385SOL    HW226055   4.959   2.759   0.013
 8386SOL     OW26056   1.763   6.477   1.841
 8386SOL    HW126057   1.700   6.437   1.774
 8386SOL    HW226058   1.716   6.486   1.929
 8387SOL     OW26059   1.399   1.196   1.674
 8387SOL    HW126060   1.382   1.177   1.577
 8387SOL    HW226061   1.379   1.292   1.693
 8388SOL     OW26062   2.398   0.190   0.429
 8388SOL    HW126063   2.493   0.212   0.408
 8388SOL    HW226064   2.394   0.138   0.514
 8389SOL     OW26065   6.678   3.855   4.247
 8389SOL    HW126066   6.681   3.820   4.154
 8389SOL    HW226067   6.761   3.907   4.266
 8390SOL     OW26068   4.599   6.355   0.071
 8390SOL    HW126069   4.695   6.357   0.097
 8390SOL    HW226070   4.543   6.327   0.149
 8391SOL     OW26071   5.719   4.644   0.983
 8391SOL    HW126072   5.744   4.737   1.007
 8391SOL    HW226073   5.802   4.590   0.969
 8392SOL     OW26074   6.991   4.746   5.361
 8392SOL    HW126075   6.998   4.744   5.262
 8392SOL    HW226076   0.044   4.697   5.401
 8393SOL     OW26077   0.252   0.423   2.384
 8393SOL    HW126078   0.285   0.517   2.385
 8393SOL    HW226079   0.155   0.422   2.359
 8394SOL     OW26080   0.162   3.123   1.859
 8394SOL    HW126081   0.130   3.129   1.764
 8394SOL    HW226082   0.165   3.028   1.887
 8395SOL     OW26083   1.890   6.077   4.727
 8395SOL    HW126084   1.946   6.052   4.648
 8395SOL    HW226085   1.796   6.047   4.712
 8396SOL     OW26086   3.976   5.411   3.058
 8396SOL    HW126087   4.063   5.361   3.060
 8396SOL    HW226088   3.939   5.411   2.965
 8397SOL     OW26089   2.308   0.849   2.573
 8397SOL    HW126090   2.295   0.753   2.549
 8397SOL    HW226091   2.250   0.906   2.515
 8398SOL     OW26092   4.274   2.346   6.718
 8398SOL    HW126093   4.283   2.271   6.784
 8398SOL    HW226094   4.221   2.420   6.759
 8399SOL     OW26095   6.104   6.423   0.403
 8399SOL    HW126096   6.085   6.520   0.420
 8399SOL    HW226097   6.019   6.371   0.407
 8400SOL     OW26098   1.639   0.916   4.036
 8400SOL    HW126099   1.601   0.824   4.045
 8400SOL    HW226100   1.703   0.933   4.112
 8401SOL     OW26101   3.301   1.678   6.066
 8401SOL    HW126102   3.248   1.652   6.147
 8401SOL    HW226103   3.260   1.637   5.985
 8402SOL     OW26104   3.739   2.051   5.574
 8402SOL    HW126105   3.832   2.039   5.608
 8402SOL    HW226106   3.679   1.983   5.616
 8403SOL     OW26107   1.142   2.433   4.492
 8403SOL    HW126108   1.046   2.421   4.516
 8403SOL    HW226109   1.151   2.445   4.393
 8404SOL     OW26110   4.165   6.876   5.952
 8404SOL    HW126111   4.087   6.922   5.995
 8404SOL    HW226112   4.185   6.792   6.002
 8405SOL     OW26113   2.683   0.031   5.597
 8405SOL    HW126114   2.778   0.023   5.570
 8405SOL    HW226115   2.633   0.085   5.529
 8406SOL     OW26116   5.611   6.793   0.350
 8406SOL    HW126117   5.545   6.719   0.332
 8406SOL    HW226118   5.591   6.834   0.439
 8407SOL     OW26119   3.765   6.051   3.970
 8407SOL    HW126120   3.676   6.032   3.927
 8407SOL    HW226121   3.752   6.113   4.047
 8408SOL     OW26122   5.386   3.820   2.365
 8408SOL    HW126123   5.451   3.793   2.294
 8408SOL    HW226124   5.426   3.805   2.455
 8409SOL     OW26125   5.622   3.023   4.114
 8409SOL    HW126126   5.613   3.000   4.018
 8409SOL    HW226127   5.651   3.119   4.123
 8410SOL     OW26128   4.919   0.441   1.521
 8410SOL    HW126129   4.864   0.500   1.580
 8410SOL    HW226130   4.870   0.423   1.436
 8411SOL     OW26131   0.593   5.084   6.887
 8411SOL    HW126132   0.560   4.990   6.884
 8411SOL    HW226133   0.626   5.111   6.796
 8412SOL     OW26134   3.281   2.291   1.356
 8412SOL    HW126135   3.353   2.339   1.304
 8412SOL    HW226136   3.304   2.194   1.362
 8413SOL     OW26137   4.194   5.606   0.497
 8413SOL    HW126138   4.250   5.541   0.446
 8413SOL    HW226139   4.249   5.686   0.520
 8414SOL     OW26140   3.469   5.272   3.681
 8414SOL    HW126141   3.510   5.190   3.721
 8414SOL    HW226142   3.514   5.294   3.595
 8415SOL     OW26143   6.690   6.175   3.394
 8415SOL    HW126144   6.674   6.081   3.423
 8415SOL    HW226145   6.788   6.192   3.388
 8416SOL     OW26146   5.393   3.751   2.778
 8416SOL    HW126147   5.451   3.744   2.697
 8416SOL    HW226148   5.439   3.709   2.856
 8417SOL     OW26149   1.548   4.685   5.701
 8417SOL    HW126150   1.616   4.745   5.659
 8417SOL    HW226151   1.464   4.736   5.718
 8418SOL     OW26152   5.812   5.211   1.201
 8418SOL    HW126153   5.825   5.169   1.291
 8418SOL    HW226154   5.885   5.180   1.140
 8419SOL     OW26155   5.474   0.417   2.174
 8419SOL    HW126156   5.395   0.361   2.149
 8419SOL    HW226157   5.446   0.486   2.241
 8420SOL     OW26158   4.499   6.606   0.393
 8420SOL    HW126159   4.534   6.519   0.429
 8420SOL    HW226160   4.401   6.599   0.378
 8421SOL     OW26161   2.065   5.427   6.464
 8421SOL    HW126162   2.161   5.405   6.484
 8421SOL    HW226163   2.038   5.508   6.518
 8422SOL     OW26164   4.038   0.919   1.272
 8422SOL    HW126165   4.019   0.968   1.187
 8422SOL    HW226166   3.990   0.963   1.347
 8423SOL     OW26167   3.485   4.569   5.716
 8423SOL    HW126168   3.571   4.530   5.684
 8423SOL    HW226169   3.431   4.498   5.761
 8424SOL     OW26170   1.893   2.682   3.007
 8424SOL    HW126171   1.820   2.615   2.993
 8424SOL    HW226172   1.967   2.664   2.943
 8425SOL     OW26173   4.938   5.774   0.202
 8425SOL    HW126174   5.008   5.840   0.231
 8425SOL    HW226175   4.854   5.790   0.254
 8426SOL     OW26176   3.227   3.525   3.901
 8426SOL    HW126177   3.198   3.616   3.932
 8426SOL    HW226178   3.322   3.510   3.927
 8427SOL     OW26179   3.942   3.241   4.895
 8427SOL    HW126180   4.015   3.174   4.885
 8427SOL    HW226181   3.965   3.322   4.841
 8428SOL     OW26182   0.570   4.575   1.643
 8428SOL    HW126183   0.554   4.648   1.578
 8428SOL    HW226184   0.501   4.578   1.715
 8429SOL     OW26185   1.603   5.652   3.542
 8429SOL    HW126186   1.678   5.596   3.579
 8429SOL    HW226187   1.608   5.744   3.581
 8430SOL     OW26188   3.324   5.005   3.828
 8430SOL    HW126189   3.301   5.090   3.875
 8430SOL    HW226190   3.239   4.960   3.799
 8431SOL     OW26191   2.990   5.048   0.717
 8431SOL    HW126192   2.921   4.988   0.756
 8431SOL    HW226193   3.073   5.045   0.773
 8432SOL     OW26194   6.094   6.910   6.344
 8432SOL    HW126195   6.193   6.906   6.327
 8432SOL    HW226196   6.076   6.975   6.417
 8433SOL     OW26197   5.376   2.490   0.380
 8433SOL    HW126198   5.317   2.518   0.456
 8433SOL    HW226199   5.464   2.537   0.387
 8434SOL     OW26200   2.710   6.589   4.765
 8434SOL    HW126201   2.652   6.547   4.696
 8434SOL    HW226202   2.654   6.625   4.839
 8435SOL     OW26203   5.928   0.831   1.426
 8435SOL    HW126204   5.903   0.892   1.502
 8435SOL    HW226205   5.920   0.881   1.339
 8436SOL     OW26206   3.869   0.285   3.863
 8436SOL    HW126207   3.806   0.358   3.889
 8436SOL    HW226208   3.821   0.216   3.810
 8437SOL     OW26209   2.270   6.913   3.644
 8437SOL    HW126210   2.291   7.011   3.636
 8437SOL    HW226211   2.353   6.863   3.669
 8438SOL     OW26212   2.628   4.625   2.426
 8438SOL    HW126213   2.708   4.668   2.384
 8438SOL    HW226214   2.657   4.563   2.499
 8439SOL     OW26215   6.168   4.999   2.572
 8439SOL    HW126216   6.163   5.092   2.535
 8439SOL    HW226217   6.102   4.990   2.646
 8440SOL     OW26218   0.884   2.437   3.769
 8440SOL    HW126219   0.945   2.389   3.831
 8440SOL    HW226220   0.914   2.531   3.758
 8441SOL     OW26221   5.930   6.579   6.776
 8441SOL    HW126222   5.851   6.519   6.763
 8441SOL    HW226223   5.908   6.648   6.845
 8442SOL     OW26224   2.951   1.719   5.567
 8442SOL    HW126225   3.011   1.702   5.489
 8442SOL    HW226226   2.884   1.789   5.543
 8443SOL     OW26227   1.945   5.737   3.255
 8443SOL    HW126228   2.035   5.725   3.212
 8443SOL    HW226229   1.885   5.662   3.227
 8444SOL     OW26230   2.570   5.561   3.532
 8444SOL    HW126231   2.597   5.626   3.461
 8444SOL    HW226232   2.614   5.472   3.514
 8445SOL     OW26233   4.218   6.546   0.308
 8445SOL    HW126234   4.120   6.548   0.329
 8445SOL    HW226235   4.249   6.452   0.300
 8446SOL     OW26236   4.382   5.143   6.591
 8446SOL    HW126237   4.455   5.209   6.574
 8446SOL    HW226238   4.415   5.072   6.653
 8447SOL     OW26239   4.911   2.280   2.502
 8447SOL    HW126240   4.871   2.245   2.587
 8447SOL    HW226241   4.958   2.366   2.521
 8448SOL     OW26242   4.487   6.024   4.250
 8448SOL    HW126243   4.461   6.080   4.328
 8448SOL    HW226244   4.500   6.083   4.170
 8449SOL     OW26245   6.877   2.620   4.213
 8449SOL    HW126246   6.911   2.534   4.250
 8449SOL    HW226247   6.914   2.634   4.121
 8450SOL     OW26248   0.703   6.279   1.371
 8450SOL    HW126249   0.765   6.326   1.309
 8450SOL    HW226250   0.619   6.254   1.322
 8451SOL     OW26251   4.164   2.240   6.953
 8451SOL    HW126252   4.081   2.260   6.900
 8451SOL    HW226253   4.139   2.218   0.022
 8452SOL     OW26254   6.320   1.407   2.891
 8452SOL    HW126255   6.418   1.428   2.899
 8452SOL    HW226256   6.272   1.447   2.969
 8453SOL     OW26257   0.239   4.199   6.266
 8453SOL    HW126258   0.302   4.140   6.215
 8453SOL    HW226259   0.260   4.194   6.363
 8454SOL     OW26260   0.141   7.021   1.239
 8454SOL    HW126261   0.048   0.012   1.274
 8454SOL    HW226262   0.144   0.018   1.142
 8455SOL     OW26263   5.819   2.865   1.849
 8455SOL    HW126264   5.767   2.821   1.922
 8455SOL    HW226265   5.917   2.855   1.867
 8456SOL     OW26266   4.581   6.182   2.909
 8456SOL    HW126267   4.615   6.170   3.002
 8456SOL    HW226268   4.658   6.186   2.845
 8457SOL     OW26269   6.421   6.446   5.068
 8457SOL    HW126270   6.348   6.386   5.100
 8457SOL    HW226271   6.494   6.390   5.028
 8458SOL     OW26272   3.278   1.558   6.725
 8458SOL    HW126273   3.238   1.649   6.738
 8458SOL    HW226274   3.339   1.559   6.646
 8459SOL     OW26275   3.203   6.695   2.384
 8459SOL    HW126276   3.109   6.717   2.358
 8459SOL    HW226277   3.266   6.729   2.315
 8460SOL     OW26278   4.367   3.352   5.353
 8460SOL    HW126279   4.379   3.314   5.445
 8460SOL    HW226280   4.456   3.370   5.313
 8461SOL     OW26281   6.915   4.453   3.562
 8461SOL    HW126282   6.953   4.398   3.487
 8461SOL    HW226283   6.936   4.550   3.546
 8462SOL     OW26284   3.544   2.644   6.576
 8462SOL    HW126285   3.454   2.647   6.619
 8462SOL    HW226286   3.542   2.580   6.499
 8463SOL     OW26287   6.834   6.874   0.892
 8463SOL    HW126288   6.930   6.847   0.894
 8463SOL    HW226289   6.814   6.924   0.808
 8464SOL     OW26290   5.321   3.603   5.289
 8464SOL    HW126291   5.405   3.550   5.300
 8464SOL    HW226292   5.329   3.688   5.340
 8465SOL     OW26293   1.159   2.771   1.149
 8465SOL    HW126294   1.234   2.715   1.114
 8465SOL    HW226295   1.089   2.712   1.188
 8466SOL     OW26296   0.614   6.742   5.007
 8466SOL    HW126297   0.535   6.779   5.056
 8466SOL    HW226298   0.695   6.796   5.027
 8467SOL     OW26299   4.510   0.145   0.863
 8467SOL    HW126300   4.499   0.245   0.867
 8467SOL    HW226301   4.454   0.109   0.788
 8468SOL     OW26302   4.001   1.896   6.418
 8468SOL    HW126303   4.017   1.797   6.424
 8468SOL    HW226304   3.907   1.913   6.389
 8469SOL     OW26305   3.444   1.226   6.129
 8469SOL    HW126306   3.462   1.197   6.035
 8469SOL    HW226307   3.398   1.314   6.128
 8470SOL     OW26308   1.825   3.764   0.429
 8470SOL    HW126309   1.828   3.858   0.395
 8470SOL    HW226310   1.730   3.740   0.453
 8471SOL     OW26311   3.777   0.779   3.642
 8471SOL    HW126312   3.795   0.783   3.740
 8471SOL    HW226313   3.778   0.684   3.611
 8472SOL     OW26314   6.669   0.754   4.953
 8472SOL    HW126315   6.595   0.790   5.010
 8472SOL    HW226316   6.634   0.680   4.896
 8473SOL     OW26317   6.563   6.438   0.451
 8473SOL    HW126318   6.609   6.456   0.538
 8473SOL    HW226319   6.465   6.429   0.467
 8474SOL     OW26320   3.547   3.222   1.873
 8474SOL    HW126321   3.573   3.165   1.951
 8474SOL    HW226322   3.602   3.305   1.873
 8475SOL     OW26323   6.557   2.460   4.016
 8475SOL    HW126324   6.492   2.492   3.947
 8475SOL    HW226325   6.516   2.466   4.107
 8476SOL     OW26326   6.723   2.119   0.991
 8476SOL    HW126327   6.655   2.161   1.052
 8476SOL    HW226328   6.785   2.063   1.045
 8477SOL     OW26329   4.924   6.752   1.316
 8477SOL    HW126330   4.960   6.709   1.398
 8477SOL    HW226331   4.827   6.772   1.328
 8478SOL     OW26332   1.692   0.064   6.075
 8478SOL    HW126333   1.599   0.053   6.038
 8478SOL    HW226334   1.694   0.143   6.135
 8479SOL     OW26335   0.773   2.910   0.909
 8479SOL    HW126336   0.713   2.836   0.880
 8479SOL    HW226337   0.745   2.942   1.000
 8480SOL     OW26338   4.361   1.709   6.965
 8480SOL    HW126339   4.314   1.797   6.958
 8480SOL    HW226340   4.398   1.684   6.875
 8481SOL     OW26341   4.578   2.362   4.697
 8481SOL    HW126342   4.650   2.372   4.767
 8481SOL    HW226343   4.607   2.410   4.614
 8482SOL     OW26344   4.165   6.019   1.478
 8482SOL    HW126345   4.185   6.102   1.425
 8482SOL    HW226346   4.088   6.037   1.539
 8483SOL     OW26347   4.609   6.470   2.332
 8483SOL    HW126348   4.580   6.378   2.358
 8483SOL    HW226349   4.531   6.533   2.337
 8484SOL     OW26350   0.174   6.566   3.650
 8484SOL    HW126351   0.159   6.584   3.553
 8484SOL    HW226352   0.256   6.510   3.661
 8485SOL     OW26353   3.920   2.634   0.213
 8485SOL    HW126354   4.019   2.646   0.203
 8485SOL    HW226355   3.897   2.625   0.310
 8486SOL     OW26356   2.854   1.883   3.037
 8486SOL    HW126357   2.868   1.860   2.941
 8486SOL    HW226358   2.943   1.900   3.080
 8487SOL     OW26359   5.874   1.018   5.817
 8487SOL    HW126360   5.788   1.065   5.838
 8487SOL    HW226361   5.936   1.081   5.771
 8488SOL     OW26362   5.180   5.989   0.213
 8488SOL    HW126363   5.238   6.063   0.177
 8488SOL    HW226364   5.189   5.985   0.312
 8489SOL     OW26365   6.339   1.944   0.935
 8489SOL    HW126366   6.268   2.015   0.943
 8489SOL    HW226367   6.344   1.892   1.019
 8490SOL     OW26368   4.738   6.529   3.814
 8490SOL    HW126369   4.736   6.536   3.714
 8490SOL    HW226370   4.782   6.444   3.841
 8491SOL     OW26371   3.020   6.083   1.367
 8491SOL    HW126372   2.988   6.043   1.453
 8491SOL    HW226373   2.962   6.050   1.292
 8492SOL     OW26374   4.610   3.959   5.489
 8492SOL    HW126375   4.622   3.955   5.588
 8492SOL    HW226376   4.625   3.868   5.449
 8493SOL     OW26377   2.087   2.726   6.496
 8493SOL    HW126378   2.036   2.802   6.457
 8493SOL    HW226379   2.177   2.758   6.526
 8494SOL     OW26380   3.452   5.686   1.713
 8494SOL    HW126381   3.441   5.760   1.779
 8494SOL    HW226382   3.486   5.604   1.759
 8495SOL     OW26383   5.740   5.270   2.619
 8495SOL    HW126384   5.799   5.343   2.654
 8495SOL    HW226385   5.667   5.252   2.686
 8496SOL     OW26386   1.167   2.921   1.377
 8496SOL    HW126387   1.186   3.018   1.360
 8496SOL    HW226388   1.179   2.870   1.292
 8497SOL     OW26389   6.576   0.965   3.469
 8497SOL    HW126390   6.651   1.028   3.492
 8497SOL    HW226391   6.569   0.956   3.370
 8498SOL     OW26392   6.620   6.884   2.945
 8498SOL    HW126393   6.589   6.923   3.032
 8498SOL    HW226394   6.636   6.958   2.880
 8499SOL     OW26395   1.908   4.794   6.631
 8499SOL    HW126396   1.871   4.770   6.542
 8499SOL    HW226397   1.988   4.736   6.651
 8500SOL     OW26398   1.856   5.971   5.423
 8500SOL    HW126399   1.814   6.058   5.449
 8500SOL    HW226400   1.913   5.937   5.498
 8501SOL     OW26401   0.609   2.299   6.986
 8501SOL    HW126402   0.574   2.348   6.906
 8501SOL    HW226403   0.535   2.286   0.028
 8502SOL     OW26404   1.173   3.528   1.496
 8502SOL    HW126405   1.179   3.452   1.431
 8502SOL    HW226406   1.143   3.610   1.448
 8503SOL     OW26407   1.353   6.196   3.953
 8503SOL    HW126408   1.276   6.242   3.909
 8503SOL    HW226409   1.374   6.240   4.040
 8504SOL     OW26410   2.460   4.851   2.082
 8504SOL    HW126411   2.477   4.753   2.089
 8504SOL    HW226412   2.480   4.882   1.989
 8505SOL     OW26413   5.276   3.465   3.823
 8505SOL    HW126414   5.287   3.368   3.799
 8505SOL    HW226415   5.364   3.512   3.813
 8506SOL     OW26416   0.029   0.834   6.595
 8506SOL    HW126417   0.014   0.809   6.500
 8506SOL    HW226418   6.967   0.857   6.638
 8507SOL     OW26419   3.746   0.807   5.638
 8507SOL    HW126420   3.783   0.735   5.579
 8507SOL    HW226421   3.796   0.808   5.724
 8508SOL     OW26422   6.077   1.623   5.019
 8508SOL    HW126423   6.050   1.717   5.039
 8508SOL    HW226424   6.171   1.608   5.050
 8509SOL     OW26425   4.702   1.739   4.489
 8509SOL    HW126426   4.789   1.722   4.537
 8509SOL    HW226427   4.703   1.693   4.401
 8510SOL     OW26428   6.181   4.483   2.456
 8510SOL    HW126429   6.091   4.526   2.456
 8510SOL    HW226430   6.174   4.391   2.494
 8511SOL     OW26431   5.847   3.472   2.401
 8511SOL    HW126432   5.941   3.464   2.368
 8511SOL    HW226433   5.793   3.396   2.366
 8512SOL     OW26434   3.238   2.071   1.932
 8512SOL    HW126435   3.172   2.042   2.001
 8512SOL    HW226436   3.330   2.072   1.972
 8513SOL     OW26437   5.900   4.445   0.934
 8513SOL    HW126438   5.944   4.403   0.855
 8513SOL    HW226439   5.884   4.377   1.005
 8514SOL     OW26440   2.698   2.362   3.870
 8514SOL    HW126441   2.672   2.426   3.942
 8514SOL    HW226442   2.680   2.404   3.780
 8515SOL     OW26443   5.404   2.107   0.602
 8515SOL    HW126444   5.360   2.061   0.525
 8515SOL    HW226445   5.376   2.063   0.687
 8516SOL     OW26446   5.802   2.408   1.901
 8516SOL    HW126447   5.889   2.369   1.930
 8516SOL    HW226448   5.815   2.457   1.815
 8517SOL     OW26449   1.351   2.630   6.391
 8517SOL    HW126450   1.443   2.593   6.375
 8517SOL    HW226451   1.286   2.586   6.329
 8518SOL     OW26452   4.272   4.255   0.016
 8518SOL    HW126453   4.278   4.318   6.962
 8518SOL    HW226454   4.177   4.233   0.034
 8519SOL     OW26455   1.376   4.126   2.101
 8519SOL    HW126456   1.390   4.043   2.046
 8519SOL    HW226457   1.335   4.197   2.043
 8520SOL     OW26458   3.247   2.374   0.141
 8520SOL    HW126459   3.332   2.426   0.148
 8520SOL    HW226460   3.231   2.325   0.226
 8521SOL     OW26461   2.449   5.149   6.231
 8521SOL    HW126462   2.485   5.140   6.138
 8521SOL    HW226463   2.515   5.112   6.296
 8522SOL     OW26464   1.444   6.577   1.304
 8522SOL    HW126465   1.356   6.603   1.345
 8522SOL    HW226466   1.513   6.646   1.327
 8523SOL     OW26467   2.225   6.663   6.344
 8523SOL    HW126468   2.300   6.708   6.393
 8523SOL    HW226469   2.168   6.612   6.409
 8524SOL     OW26470   0.398   2.516   4.883
 8524SOL    HW126471   0.372   2.430   4.926
 8524SOL    HW226472   0.364   2.518   4.789
 8525SOL     OW26473   6.211   4.119   3.342
 8525SOL    HW126474   6.264   4.178   3.403
 8525SOL    HW226475   6.165   4.047   3.395
 8526SOL     OW26476   3.809   5.674   0.151
 8526SOL    HW126477   3.869   5.705   0.077
 8526SOL    HW226478   3.851   5.695   0.239
 8527SOL     OW26479   2.898   0.369   6.067
 8527SOL    HW126480   2.933   0.462   6.058
 8527SOL    HW226481   2.974   0.304   6.068
 8528SOL     OW26482   3.947   2.273   6.008
 8528SOL    HW126483   3.991   2.235   6.089
 8528SOL    HW226484   3.857   2.310   6.033
 8529SOL     OW26485   0.174   0.213   1.473
 8529SOL    HW126486   0.256   0.228   1.529
 8529SOL    HW226487   0.174   0.279   1.397
 8530SOL     OW26488   3.290   3.357   5.006
 8530SOL    HW126489   3.365   3.396   5.060
 8530SOL    HW226490   3.311   3.367   4.908
 8531SOL     OW26491   6.497   5.090   2.645
 8531SOL    HW126492   6.516   4.993   2.626
 8531SOL    HW226493   6.435   5.097   2.723
 8532SOL     OW26494   3.984   5.168   4.571
 8532SOL    HW126495   3.929   5.086   4.560
 8532SOL    HW226496   4.037   5.162   4.656
 8533SOL     OW26497   2.023   7.012   5.411
 8533SOL    HW126498   2.035   0.020   5.504
 8533SOL    HW226499   1.948   0.037   5.367
 8534SOL     OW26500   6.374   2.862   3.988
 8534SOL    HW126501   6.316   2.855   4.070
 8534SOL    HW226502   6.466   2.888   4.016
 8535SOL     OW26503   6.845   1.558   4.833
 8535SOL    HW126504   6.801   1.540   4.744
 8535SOL    HW226505   6.935   1.597   4.818
 8536SOL     OW26506   6.071   1.942   4.552
 8536SOL    HW126507   6.044   2.013   4.617
 8536SOL    HW226508   6.170   1.931   4.555
 8537SOL     OW26509   5.522   1.867   1.924
 8537SOL    HW126510   5.594   1.936   1.930
 8537SOL    HW226511   5.435   1.909   1.951
 8538SOL     OW26512   0.651   1.251   6.322
 8538SOL    HW126513   0.616   1.175   6.268
 8538SOL    HW226514   0.748   1.235   6.343
 8539SOL     OW26515   5.828   1.053   2.194
 8539SOL    HW126516   5.908   0.997   2.216
 8539SOL    HW226517   5.745   1.002   2.213
 8540SOL     OW26518   4.907   1.362   6.836
 8540SOL    HW126519   4.826   1.419   6.849
 8540SOL    HW226520   4.969   1.372   6.914
 8541SOL     OW26521   2.624   2.329   4.415
 8541SOL    HW126522   2.531   2.365   4.407
 8541SOL    HW226523   2.647   2.321   4.512
 8542SOL     OW26524   2.854   4.709   6.723
 8542SOL    HW126525   2.759   4.687   6.744
 8542SOL    HW226526   2.883   4.788   6.777
 8543SOL     OW26527   3.431   0.920   0.089
 8543SOL    HW126528   3.379   1.003   0.069
 8543SOL    HW226529   3.510   0.944   0.147
 8544SOL     OW26530   5.371   2.962   4.595
 8544SOL    HW126531   5.433   2.915   4.532
 8544SOL    HW226532   5.416   2.973   4.684
 8545SOL     OW26533   4.713   6.616   4.056
 8545SOL    HW126534   4.618   6.608   4.086
 8545SOL    HW226535   4.723   6.578   3.964
 8546SOL     OW26536   0.355   0.271   3.218
 8546SOL    HW126537   0.433   0.242   3.163
 8546SOL    HW226538   0.350   0.371   3.219
 8547SOL     OW26539   1.401   6.688   6.415
 8547SOL    HW126540   1.447   6.715   6.331
 8547SOL    HW226541   1.315   6.739   6.424
 8548SOL     OW26542   6.608   3.357   5.749
 8548SOL    HW126543   6.566   3.335   5.661
 8548SOL    HW226544   6.676   3.430   5.736
 8549SOL     OW26545   1.537   3.291   4.948
 8549SOL    HW126546   1.508   3.353   4.875
 8549SOL    HW226547   1.614   3.331   4.997
 8550SOL     OW26548   2.051   5.208   6.179
 8550SOL    HW126549   2.093   5.180   6.265
 8550SOL    HW226550   2.058   5.307   6.169
 8551SOL     OW26551   2.221   3.492   6.608
 8551SOL    HW126552   2.190   3.411   6.557
 8551SOL    HW226553   2.281   3.547   6.550
 8552SOL     OW26554   2.159   0.148   2.937
 8552SOL    HW126555   2.238   0.188   2.985
 8552SOL    HW226556   2.075   0.182   2.978
 8553SOL     OW26557   4.491   4.644   6.843
 8553SOL    HW126558   4.553   4.707   6.890
 8553SOL    HW226559   4.543   4.564   6.812
 8554SOL     OW26560   0.630   4.887   1.032
 8554SOL    HW126561   0.725   4.863   1.013
 8554SOL    HW226562   0.614   4.982   1.007
 8555SOL     OW26563   2.387   1.170   3.971
 8555SOL    HW126564   2.465   1.109   3.987
 8555SOL    HW226565   2.357   1.162   3.876
 8556SOL     OW26566   1.395   6.005   5.266
 8556SOL    HW126567   1.483   6.023   5.222
 8556SOL    HW226568   1.324   6.059   5.222
 8557SOL     OW26569   6.849   6.782   2.654
 8557SOL    HW126570   6.897   6.849   2.711
 8557SOL    HW226571   6.797   6.720   2.712
 8558SOL     OW26572   2.171   4.696   3.182
 8558SOL    HW126573   2.191   4.628   3.112
 8558SOL    HW226574   2.208   4.785   3.153
 8559SOL     OW26575   1.680   0.688   2.554
 8559SOL    HW126576   1.638   0.663   2.466
 8559SOL    HW226577   1.669   0.613   2.619
 8560SOL     OW26578   6.985   6.531   1.673
 8560SOL    HW126579   6.989   6.478   1.758
 8560SOL    HW226580   7.009   6.626   1.692
 8561SOL     OW26581   3.383   0.795   2.618
 8561SOL    HW126582   3.353   0.775   2.525
 8561SOL    HW226583   3.472   0.839   2.616
 8562SOL     OW26584   3.988   6.310   6.121
 8562SOL    HW126585   3.955   6.405   6.122
 8562SOL    HW226586   3.982   6.274   6.028
 8563SOL     OW26587   1.370   4.488   1.009
 8563SOL    HW126588   1.340   4.579   0.983
 8563SOL    HW226589   1.364   4.427   0.930
 8564SOL     OW26590   3.183   0.470   5.321
 8564SOL    HW126591   3.110   0.538   5.333
 8564SOL    HW226592   3.144   0.378   5.320
 8565SOL     OW26593   3.485   5.638   1.139
 8565SOL    HW126594   3.511   5.659   1.045
 8565SOL    HW226595   3.567   5.616   1.192
 8566SOL     OW26596   0.964   6.804   1.348
 8566SOL    HW126597   0.979   6.874   1.417
 8566SOL    HW226598   1.050   6.757   1.329
 8567SOL     OW26599   0.709   2.250   3.621
 8567SOL    HW126600   0.781   2.314   3.651
 8567SOL    HW226601   0.635   2.251   3.688
 8568SOL     OW26602   5.789   1.386   6.727
 8568SOL    HW126603   5.744   1.361   6.813
 8568SOL    HW226604   5.856   1.316   6.703
 8569SOL     OW26605   4.576   0.844   5.843
 8569SOL    HW126606   4.580   0.807   5.936
 8569SOL    HW226607   4.482   0.873   5.824
 8570SOL     OW26608   1.585   1.740   4.869
 8570SOL    HW126609   1.548   1.729   4.777
 8570SOL    HW226610   1.685   1.744   4.865
 8571SOL     OW26611   0.656   5.665   4.981
 8571SOL    HW126612   0.685   5.716   4.901
 8571SOL    HW226613   0.557   5.674   4.994
 8572SOL     OW26614   3.240   5.109   6.663
 8572SOL    HW126615   3.285   5.149   6.583
 8572SOL    HW226616   3.302   5.114   6.741
 8573SOL     OW26617   3.640   6.283   6.346
 8573SOL    HW126618   3.643   6.362   6.285
 8573SOL    HW226619   3.682   6.204   6.301
 8574SOL     OW26620   0.215   6.023   6.618
 8574SOL    HW126621   0.281   6.071   6.675
 8574SOL    HW226622   0.152   5.971   6.677
 8575SOL     OW26623   2.178   2.928   4.098
 8575SOL    HW126624   2.191   2.975   4.185
 8575SOL    HW226625   2.265   2.891   4.067
 8576SOL     OW26626   1.297   4.326   5.833
 8576SOL    HW126627   1.394   4.342   5.851
 8576SOL    HW226628   1.242   4.373   5.901
 8577SOL     OW26629   1.076   6.444   4.564
 8577SOL    HW126630   1.029   6.485   4.642
 8577SOL    HW226631   1.175   6.452   4.578
 8578SOL     OW26632   5.888   6.558   4.021
 8578SOL    HW126633   5.954   6.487   3.997
 8578SOL    HW226634   5.937   6.640   4.052
 8579SOL     OW26635   2.172   0.539   1.795
 8579SOL    HW126636   2.190   0.632   1.826
 8579SOL    HW226637   2.119   0.490   1.864
 8580SOL     OW26638   2.384   5.946   1.470
 8580SOL    HW126639   2.372   5.850   1.496
 8580SOL    HW226640   2.464   5.954   1.411
 8581SOL     OW26641   3.431   3.915   1.368
 8581SOL    HW126642   3.397   3.881   1.455
 8581SOL    HW226643   3.513   3.863   1.341
 8582SOL     OW26644   4.624   4.303   4.498
 8582SOL    HW126645   4.584   4.379   4.445
 8582SOL    HW226646   4.577   4.218   4.474
 8583SOL     OW26647   5.072   0.467   4.142
 8583SOL    HW126648   5.167   0.437   4.135
 8583SOL    HW226649   5.012   0.399   4.100
 8584SOL     OW26650   0.569   5.083   6.149
 8584SOL    HW126651   0.582   5.050   6.242
 8584SOL    HW226652   0.472   5.095   6.130
 8585SOL     OW26653   0.386   6.569   6.166
 8585SOL    HW126654   0.368   6.628   6.245
 8585SOL    HW226655   0.386   6.624   6.083
 8586SOL     OW26656   3.019   6.765   2.047
 8586SOL    HW126657   3.092   6.823   2.011
 8586SOL    HW226658   3.024   6.674   2.004
 8587SOL     OW26659   1.282   0.503   4.167
 8587SOL    HW126660   1.206   0.502   4.102
 8587SOL    HW226661   1.315   0.410   4.181
 8588SOL     OW26662   2.848   0.658   0.239
 8588SOL    HW126663   2.810   0.607   0.316
 8588SOL    HW226664   2.795   0.639   0.156
 8589SOL     OW26665   5.177   2.869   5.690
 8589SOL    HW126666   5.199   2.832   5.780
 8589SOL    HW226667   5.080   2.852   5.670
 8590SOL     OW26668   6.829   6.514   3.344
 8590SOL    HW126669   6.759   6.569   3.298
 8590SOL    HW226670   6.850   6.555   3.433
 8591SOL     OW26671   0.162   4.041   0.330
 8591SOL    HW126672   0.258   4.060   0.310
 8591SOL    HW226673   0.148   3.942   0.334
 8592SOL     OW26674   6.704   2.634   6.728
 8592SOL    HW126675   6.621   2.611   6.677
 8592SOL    HW226676   6.765   2.555   6.731
 8593SOL     OW26677   1.876   2.106   0.378
 8593SOL    HW126678   1.892   2.098   0.279
 8593SOL    HW226679   1.962   2.090   0.426
 8594SOL     OW26680   4.463   2.602   5.179
 8594SOL    HW126681   4.504   2.692   5.196
 8594SOL    HW226682   4.386   2.613   5.116
 8595SOL     OW26683   0.504   2.180   3.851
 8595SOL    HW126684   0.540   2.160   3.942
 8595SOL    HW226685   0.424   2.122   3.833
 8596SOL     OW26686   1.181   5.111   2.918
 8596SOL    HW126687   1.085   5.137   2.924
 8596SOL    HW226688   1.201   5.079   2.826
 8597SOL     OW26689   4.641   1.801   0.888
 8597SOL    HW126690   4.661   1.713   0.931
 8597SOL    HW226691   4.573   1.851   0.943
 8598SOL     OW26692   5.855   6.903   0.207
 8598SOL    HW126693   5.781   6.883   0.271
 8598SOL    HW226694   5.942   6.874   0.247
 8599SOL     OW26695   1.686   2.678   4.688
 8599SOL    HW126696   1.594   2.689   4.651
 8599SOL    HW226697   1.736   2.611   4.632
 8600SOL     OW26698   5.318   4.560   5.643
 8600SOL    HW126699   5.293   4.636   5.702
 8600SOL    HW226700   5.394   4.510   5.684
 8601SOL     OW26701   1.444   1.665   4.657
 8601SOL    HW126702   1.362   1.608   4.651
 8601SOL    HW226703   1.450   1.724   4.577
 8602SOL     OW26704   3.152   5.844   2.171
 8602SOL    HW126705   3.173   5.770   2.234
 8602SOL    HW226706   3.101   5.915   2.219
 8603SOL     OW26707   4.464   5.758   1.030
 8603SOL    HW126708   4.483   5.739   1.126
 8603SOL    HW226709   4.469   5.672   0.978
 8604SOL     OW26710   0.285   3.154   5.165
 8604SOL    HW126711   0.380   3.135   5.144
 8604SOL    HW226712   0.279   3.206   5.250
 8605SOL     OW26713   2.258   5.608   4.234
 8605SOL    HW126714   2.161   5.588   4.251
 8605SOL    HW226715   2.279   5.699   4.271
 8606SOL     OW26716   1.919   3.182   6.294
 8606SOL    HW126717   1.945   3.183   6.197
 8606SOL    HW226718   1.840   3.241   6.309
 8607SOL     OW26719   3.451   5.516   0.345
 8607SOL    HW126720   3.356   5.500   0.372
 8607SOL    HW226721   3.507   5.533   0.427
 8608SOL     OW26722   3.073   4.819   2.654
 8608SOL    HW126723   2.992   4.878   2.651
 8608SOL    HW226724   3.075   4.769   2.740
 8609SOL     OW26725   5.355   1.132   2.741
 8609SOL    HW126726   5.262   1.137   2.776
 8609SOL    HW226727   5.378   1.218   2.695
 8610SOL     OW26728   1.345   2.039   2.687
 8610SOL    HW126729   1.305   2.126   2.718
 8610SOL    HW226730   1.445   2.044   2.696
 8611SOL     OW26731   2.904   1.744   4.355
 8611SOL    HW126732   2.912   1.707   4.263
 8611SOL    HW226733   2.905   1.844   4.351
 8612SOL     OW26734   2.626   3.480   0.688
 8612SOL    HW126735   2.577   3.448   0.607
 8612SOL    HW226736   2.563   3.490   0.764
 8613SOL     OW26737   2.877   2.013   1.155
 8613SOL    HW126738   2.926   2.053   1.078
 8613SOL    HW226739   2.867   2.081   1.228
 8614SOL     OW26740   0.935   2.902   3.060
 8614SOL    HW126741   0.949   2.916   3.157
 8614SOL    HW226742   0.986   2.970   3.008
 8615SOL     OW26743   4.179   1.104   4.730
 8615SOL    HW126744   4.271   1.128   4.758
 8615SOL    HW226745   4.180   1.074   4.634
 8616SOL     OW26746   3.113   4.630   1.684
 8616SOL    HW126747   3.066   4.559   1.737
 8616SOL    HW226748   3.168   4.686   1.746
 8617SOL     OW26749   6.557   1.933   6.323
 8617SOL    HW126750   6.566   1.969   6.230
 8617SOL    HW226751   6.579   1.836   6.323
 8618SOL     OW26752   6.212   4.793   0.751
 8618SOL    HW126753   6.263   4.730   0.693
 8618SOL    HW226754   6.190   4.749   0.838
 8619SOL     OW26755   3.674   4.921   2.220
 8619SOL    HW126756   3.663   4.876   2.132
 8619SOL    HW226757   3.596   4.899   2.279
 8620SOL     OW26758   1.421   0.054   3.288
 8620SOL    HW126759   1.466   7.017   3.353
 8620SOL    HW226760   1.433   0.148   3.319
 8621SOL     OW26761   5.295   1.991   3.390
 8621SOL    HW126762   5.394   2.005   3.384
 8621SOL    HW226763   5.268   1.924   3.321
 8622SOL     OW26764   5.808   3.273   0.917
 8622SOL    HW126765   5.832   3.304   0.824
 8622SOL    HW226766   5.865   3.321   0.983
 8623SOL     OW26767   0.557   3.902   4.090
 8623SOL    HW126768   0.493   3.885   4.015
 8623SOL    HW226769   0.598   3.992   4.078
 8624SOL     OW26770   1.684   4.151   4.982
 8624SOL    HW126771   1.608   4.088   4.965
 8624SOL    HW226772   1.653   4.225   5.043
 8625SOL     OW26773   4.563   0.569   6.392
 8625SOL    HW126774   4.483   0.521   6.356
 8625SOL    HW226775   4.537   0.619   6.475
 8626SOL     OW26776   3.415   3.076   6.175
 8626SOL    HW126777   3.469   3.036   6.101
 8626SOL    HW226778   3.322   3.041   6.171
 8627SOL     OW26779   1.067   1.840   3.352
 8627SOL    HW126780   1.061   1.824   3.254
 8627SOL    HW226781   1.126   1.919   3.370
 8628SOL     OW26782   6.314   6.503   1.433
 8628SOL    HW126783   6.218   6.505   1.405
 8628SOL    HW226784   6.354   6.594   1.424
 8629SOL     OW26785   1.622   5.303   4.867
 8629SOL    HW126786   1.529   5.332   4.886
 8629SOL    HW226787   1.684   5.345   4.934
 8630SOL     OW26788   5.415   4.468   4.169
 8630SOL    HW126789   5.411   4.509   4.077
 8630SOL    HW226790   5.412   4.369   4.161
 8631SOL     OW26791   0.501   4.829   6.068
 8631SOL    HW126792   0.533   4.758   6.130
 8631SOL    HW226793   0.551   4.914   6.086
 8632SOL     OW26794   4.119   5.227   4.806
 8632SOL    HW126795   4.098   5.305   4.865
 8632SOL    HW226796   4.190   5.171   4.849
 8633SOL     OW26797   5.671   1.877   5.924
 8633SOL    HW126798   5.626   1.795   5.888
 8633SOL    HW226799   5.637   1.897   6.015
 8634SOL     OW26800   4.541   3.057   0.174
 8634SOL    HW126801   4.572   3.107   0.093
 8634SOL    HW226802   4.620   3.034   0.231
 8635SOL     OW26803   5.246   3.384   6.295
 8635SOL    HW126804   5.309   3.331   6.239
 8635SOL    HW226805   5.155   3.383   6.252
 8636SOL     OW26806   5.889   5.782   0.858
 8636SOL    HW126807   5.824   5.822   0.923
 8636SOL    HW226808   5.872   5.820   0.767
 8637SOL     OW26809   2.350   1.289   6.779
 8637SOL    HW126810   2.362   1.314   6.875
 8637SOL    HW226811   2.439   1.263   6.740
 8638SOL     OW26812   3.418   2.307   5.290
 8638SOL    HW126813   3.433   2.217   5.248
 8638SOL    HW226814   3.327   2.341   5.263
 8639SOL     OW26815   5.285   2.446   0.099
 8639SOL    HW126816   5.323   2.538   0.101
 8639SOL    HW226817   5.276   2.412   0.193
 8640SOL     OW26818   4.121   3.763   6.594
 8640SOL    HW126819   4.133   3.854   6.635
 8640SOL    HW226820   4.045   3.717   6.638
 8641SOL     OW26821   4.719   4.829   3.829
 8641SOL    HW126822   4.626   4.860   3.810
 8641SOL    HW226823   4.766   4.807   3.743
 8642SOL     OW26824   1.460   6.077   3.078
 8642SOL    HW126825   1.463   6.141   3.001
 8642SOL    HW226826   1.549   6.073   3.122
 8643SOL     OW26827   2.430   0.110   6.747
 8643SOL    HW126828   2.422   0.172   6.825
 8643SOL    HW226829   2.480   0.155   6.674
 8644SOL     OW26830   5.235   2.666   5.512
 8644SOL    HW126831   5.240   2.744   5.574
 8644SOL    HW226832   5.269   2.584   5.558
 8645SOL     OW26833   4.344   3.856   1.314
 8645SOL    HW126834   4.430   3.816   1.346
 8645SOL    HW226835   4.284   3.874   1.391
 8646SOL     OW26836   6.859   1.841   1.029
 8646SOL    HW126837   6.900   1.908   0.967
 8646SOL    HW226838   6.922   1.822   1.104
 8647SOL     OW26839   2.834   5.587   6.528
 8647SOL    HW126840   2.860   5.492   6.545
 8647SOL    HW226841   2.754   5.611   6.584
 8648SOL     OW26842   6.609   0.614   2.677
 8648SOL    HW126843   6.623   0.708   2.646
 8648SOL    HW226844   6.584   0.614   2.774
 8649SOL     OW26845   5.389   5.527   6.075
 8649SOL    HW126846   5.348   5.519   6.165
 8649SOL    HW226847   5.472   5.583   6.081
 8650SOL     OW26848   2.264   5.084   4.303
 8650SOL    HW126849   2.303   5.047   4.387
 8650SOL    HW226850   2.255   5.010   4.236
 8651SOL     OW26851   4.594   0.361   6.992
 8651SOL    HW126852   4.644   0.296   6.935
 8651SOL    HW226853   4.496   0.344   6.983
 8652SOL     OW26854   2.034   4.998   3.437
 8652SOL    HW126855   1.988   4.929   3.380
 8652SOL    HW226856   2.133   4.993   3.423
 8653SOL     OW26857   6.116   0.375   6.225
 8653SOL    HW126858   6.146   0.281   6.212
 8653SOL    HW226859   6.016   0.377   6.229
 8654SOL     OW26860   1.397   4.703   2.029
 8654SOL    HW126861   1.324   4.712   1.962
 8654SOL    HW226862   1.485   4.697   1.982
 8655SOL     OW26863   6.778   1.002   4.245
 8655SOL    HW126864   6.864   0.982   4.291
 8655SOL    HW226865   6.710   1.033   4.312
 8656SOL     OW26866   6.878   0.110   1.021
 8656SOL    HW126867   6.842   0.028   0.978
 8656SOL    HW226868   6.883   0.095   1.120
 8657SOL     OW26869   5.024   4.847   6.915
 8657SOL    HW126870   5.122   4.847   6.894
 8657SOL    HW226871   5.008   4.886   7.005
 8658SOL     OW26872   6.066   5.995   0.493
 8658SOL    HW126873   6.055   6.054   0.573
 8658SOL    HW226874   6.154   6.016   0.448
 8659SOL     OW26875   4.482   2.162   2.441
 8659SOL    HW126876   4.533   2.077   2.436
 8659SOL    HW226877   4.524   2.222   2.511
 8660SOL     OW26878   6.664   4.009   1.965
 8660SOL    HW126879   6.569   4.028   1.940
 8660SOL    HW226880   6.691   3.919   1.932
 8661SOL     OW26881   6.242   4.072   1.293
 8661SOL    HW126882   6.181   4.096   1.368
 8661SOL    HW226883   6.187   4.046   1.213
 8662SOL     OW26884   4.461   5.738   1.290
 8662SOL    HW126885   4.503   5.827   1.309
 8662SOL    HW226886   4.362   5.747   1.299
 8663SOL     OW26887   2.749   6.008   1.866
 8663SOL    HW126888   2.706   6.058   1.791
 8663SOL    HW226889   2.687   6.005   1.945
 8664SOL     OW26890   1.656   6.435   1.169
 8664SOL    HW126891   1.652   6.435   1.069
 8664SOL    HW226892   1.570   6.470   1.206
 8665SOL     OW26893   5.532   5.809   5.082
 8665SOL    HW126894   5.609   5.747   5.064
 8665SOL    HW226895   5.493   5.840   4.995
 8666SOL     OW26896   5.775   1.447   3.885
 8666SOL    HW126897   5.706   1.409   3.947
 8666SOL    HW226898   5.746   1.435   3.791
 8667SOL     OW26899   3.953   2.183   3.324
 8667SOL    HW126900   3.879   2.162   3.261
 8667SOL    HW226901   3.925   2.159   3.417
 8668SOL     OW26902   4.904   3.309   3.360
 8668SOL    HW126903   4.980   3.314   3.425
 8668SOL    HW226904   4.936   3.266   3.276
 8669SOL     OW26905   1.436   6.571   5.967
 8669SOL    HW126906   1.481   6.483   5.981
 8669SOL    HW226907   1.457   6.604   5.875
 8670SOL     OW26908   3.681   4.803   5.331
 8670SOL    HW126909   3.674   4.872   5.259
 8670SOL    HW226910   3.590   4.782   5.366
 8671SOL     OW26911   5.585   1.723   2.748
 8671SOL    HW126912   5.587   1.664   2.829
 8671SOL    HW226913   5.650   1.689   2.680
 8672SOL     OW26914   1.032   5.499   3.970
 8672SOL    HW126915   1.054   5.475   3.875
 8672SOL    HW226916   1.003   5.595   3.974
 8673SOL     OW26917   5.406   2.689   0.049
 8673SOL    HW126918   5.487   2.741   0.076
 8673SOL    HW226919   5.352   2.743   7.009
 8674SOL     OW26920   4.921   5.938   2.938
 8674SOL    HW126921   4.918   5.966   3.034
 8674SOL    HW226922   4.839   5.887   2.916
 8675SOL     OW26923   3.820   2.109   4.420
 8675SOL    HW126924   3.909   2.150   4.439
 8675SOL    HW226925   3.764   2.112   4.502
 8676SOL     OW26926   5.278   0.269   2.858
 8676SOL    HW126927   5.289   0.292   2.761
 8676SOL    HW226928   5.242   0.347   2.908
 8677SOL     OW26929   2.130   5.219   5.911
 8677SOL    HW126930   2.220   5.255   5.932
 8677SOL    HW226931   2.092   5.174   5.991
 8678SOL     OW26932   0.288   0.054   2.229
 8678SOL    HW126933   0.333   0.131   2.183
 8678SOL    HW226934   0.290   0.069   2.327
 8679SOL     OW26935   0.298   2.098   3.268
 8679SOL    HW126936   0.308   2.183   3.319
 8679SOL    HW226937   0.225   2.043   3.308
 8680SOL     OW26938   0.467   3.458   6.925
 8680SOL    HW126939   0.518   3.459   6.838
 8680SOL    HW226940   0.507   3.390   6.986
 8681SOL     OW26941   4.689   5.105   1.222
 8681SOL    HW126942   4.631   5.159   1.283
 8681SOL    HW226943   4.638   5.082   1.139
 8682SOL     OW26944   5.455   6.334   2.254
 8682SOL    HW126945   5.389   6.301   2.322
 8682SOL    HW226946   5.545   6.342   2.297
 8683SOL     OW26947   1.768   1.836   4.220
 8683SOL    HW126948   1.692   1.873   4.273
 8683SOL    HW226949   1.742   1.830   4.123
 8684SOL     OW26950   6.109   2.741   5.305
 8684SOL    HW126951   6.062   2.655   5.325
 8684SOL    HW226952   6.190   2.749   5.363
 8685SOL     OW26953   0.247   1.946   6.593
 8685SOL    HW126954   0.316   1.877   6.571
 8685SOL    HW226955   0.220   1.937   6.688
 8686SOL     OW26956   0.422   1.252   3.447
 8686SOL    HW126957   0.326   1.247   3.477
 8686SOL    HW226958   0.425   1.280   3.351
 8687SOL     OW26959   5.073   4.754   1.783
 8687SOL    HW126960   5.135   4.718   1.714
 8687SOL    HW226961   5.121   4.762   1.870
 8688SOL     OW26962   1.083   5.212   6.282
 8688SOL    HW126963   1.128   5.207   6.371
 8688SOL    HW226964   1.098   5.126   6.232
 8689SOL     OW26965   3.695   3.693   0.996
 8689SOL    HW126966   3.764   3.765   0.989
 8689SOL    HW226967   3.645   3.686   0.910
 8690SOL     OW26968   1.427   3.909   4.029
 8690SOL    HW126969   1.449   3.838   3.962
 8690SOL    HW226970   1.335   3.944   4.011
 8691SOL     OW26971   3.910   1.968   5.814
 8691SOL    HW126972   3.955   2.033   5.874
 8691SOL    HW226973   3.856   1.904   5.868
 8692SOL     OW26974   3.070   1.411   4.637
 8692SOL    HW126975   3.108   1.493   4.681
 8692SOL    HW226976   3.143   1.344   4.623
 8693SOL     OW26977   5.443   0.468   0.191
 8693SOL    HW126978   5.444   0.486   0.093
 8693SOL    HW226979   5.507   0.394   0.212
 8694SOL     OW26980   4.762   0.872   5.002
 8694SOL    HW126981   4.824   0.794   5.012
 8694SOL    HW226982   4.674   0.849   5.044
 8695SOL     OW26983   4.161   2.815   6.224
 8695SOL    HW126984   4.257   2.791   6.240
 8695SOL    HW226985   4.120   2.749   6.161
 8696SOL     OW26986   1.958   4.971   5.435
 8696SOL    HW126987   1.970   5.053   5.378
 8696SOL    HW226988   2.036   4.963   5.497
 8697SOL     OW26989   6.976   3.137   6.411
 8697SOL    HW126990   6.995   3.122   6.314
 8697SOL    HW226991   6.880   3.162   6.422
 8698SOL     OW26992   4.674   5.824   5.018
 8698SOL    HW126993   4.623   5.895   4.968
 8698SOL    HW226994   4.612   5.775   5.079
 8699SOL     OW26995   1.427   2.496   5.003
 8699SOL    HW126996   1.330   2.478   4.987
 8699SOL    HW226997   1.449   2.478   5.099
 8700SOL     OW26998   1.246   1.039   4.311
 8700SOL    HW126999   1.196   1.101   4.251
 8700SOL    HW227000   1.342   1.068   4.316
 8701SOL     OW27001   1.451   0.662   6.865
 8701SOL    HW127002   1.383   0.661   6.792
 8701SOL    HW227003   1.478   0.568   6.887
 8702SOL     OW27004   5.378   5.200   1.720
 8702SOL    HW127005   5.402   5.181   1.815
 8702SOL    HW227006   5.460   5.198   1.663
 8703SOL     OW27007   2.317   5.070   0.215
 8703SOL    HW127008   2.387   5.057   0.145
 8703SOL    HW227009   2.227   5.068   0.172
 8704SOL     OW27010   0.194   4.049   3.289
 8704SOL    HW127011   0.236   4.125   3.240
 8704SOL    HW227012   0.107   4.025   3.246
 8705SOL     OW27013   5.513   0.977   6.550
 8705SOL    HW127014   5.481   0.903   6.490
 8705SOL    HW227015   5.446   1.052   6.547
 8706SOL     OW27016   5.399   1.855   6.928
 8706SOL    HW127017   5.424   1.763   6.959
 8706SOL    HW227018   5.325   1.848   6.860
 8707SOL     OW27019   6.802   1.331   6.515
 8707SOL    HW127020   6.717   1.362   6.473
 8707SOL    HW227021   6.863   1.409   6.528
 8708SOL     OW27022   4.420   1.442   2.373
 8708SOL    HW127023   4.345   1.469   2.313
 8708SOL    HW227024   4.501   1.497   2.352
 8709SOL     OW27025   0.123   6.609   0.370
 8709SOL    HW127026   0.199   6.608   0.304
 8709SOL    HW227027   0.053   6.543   0.342
 8710SOL     OW27028   2.168   3.005   3.631
 8710SOL    HW127029   2.200   2.972   3.542
 8710SOL    HW227030   2.070   3.024   3.627
 8711SOL     OW27031   1.782   6.933   3.014
 8711SOL    HW127032   1.809   6.845   3.052
 8711SOL    HW227033   1.753   6.922   2.919
 8712SOL     OW27034   4.086   2.221   4.528
 8712SOL    HW127035   4.186   2.215   4.520
 8712SOL    HW227036   4.059   2.317   4.526
 8713SOL     OW27037   6.093   3.004   3.841
 8713SOL    HW127038   6.141   2.998   3.929
 8713SOL    HW227039   6.147   2.958   3.771
 8714SOL     OW27040   0.866   0.380   5.389
 8714SOL    HW127041   0.848   0.475   5.416
 8714SOL    HW227042   0.914   0.332   5.463
 8715SOL     OW27043   4.240   0.050   0.968
 8715SOL    HW127044   4.197   7.012   1.033
 8715SOL    HW227045   4.339   0.052   0.985
 8716SOL     OW27046   0.050   0.152   0.756
 8716SOL    HW127047   0.095   0.120   0.839
 8716SOL    HW227048   6.992   0.098   0.740
 8717SOL     OW27049   2.889   3.395   4.749
 8717SOL    HW127050   2.956   3.334   4.707
 8717SOL    HW227051   2.815   3.342   4.789
 8718SOL     OW27052   1.863   3.392   5.425
 8718SOL    HW127053   1.944   3.449   5.413
 8718SOL    HW227054   1.862   3.320   5.355
 8719SOL     OW27055   4.412   7.010   6.697
 8719SOL    HW127056   4.325   0.028   6.671
 8719SOL    HW227057   4.474   7.010   6.619
 8720SOL     OW27058   6.901   5.360   5.924
 8720SOL    HW127059   6.901   5.459   5.937
 8720SOL    HW227060   6.913   5.339   5.827
 8721SOL     OW27061   6.850   2.702   1.665
 8721SOL    HW127062   6.890   2.781   1.711
 8721SOL    HW227063   6.780   2.661   1.724
 8722SOL     OW27064   3.623   0.979   0.294
 8722SOL    HW127065   3.719   0.998   0.311
 8722SOL    HW227066   3.593   0.901   0.349
 8723SOL     OW27067   4.628   6.562   2.005
 8723SOL    HW127068   4.656   6.551   2.100
 8723SOL    HW227069   4.707   6.586   1.949
 8724SOL     OW27070   5.175   6.725   4.916
 8724SOL    HW127071   5.164   6.633   4.952
 8724SOL    HW227072   5.145   6.727   4.820
 8725SOL     OW27073   1.292   6.234   5.430
 8725SOL    HW127074   1.220   6.244   5.498
 8725SOL    HW227075   1.337   6.145   5.441
 8726SOL     OW27076   0.082   1.749   3.771
 8726SOL    HW127077   0.086   1.664   3.718
 8726SOL    HW227078   0.112   1.825   3.714
 8727SOL     OW27079   5.432   0.019   2.280
 8727SOL    HW127080   5.345   6.997   2.293
 8727SOL    HW227081   5.473   0.040   2.369
 8728SOL     OW27082   6.459   0.905   2.198
 8728SOL    HW127083   6.381   0.963   2.222
 8728SOL    HW227084   6.449   0.815   2.242
 8729SOL     OW27085   3.762   5.375   5.264
 8729SOL    HW127086   3.667   5.402   5.271
 8729SOL    HW227087   3.775   5.321   5.180
 8730SOL     OW27088   5.684   4.525   2.668
 8730SOL    HW127089   5.694   4.532   2.568
 8730SOL    HW227090   5.747   4.456   2.703
 8731SOL     OW27091   1.610   2.657   3.319
 8731SOL    HW127092   1.517   2.625   3.340
 8731SOL    HW227093   1.617   2.755   3.337
 8732SOL     OW27094   5.767   4.894   1.128
 8732SOL    HW127095   5.788   4.960   1.200
 8732SOL    HW227096   5.724   4.813   1.168
 8733SOL     OW27097   2.258   5.355   1.260
 8733SOL    HW127098   2.294   5.447   1.244
 8733SOL    HW227099   2.325   5.302   1.312
 8734SOL     OW27100   1.163   3.855   2.179
 8734SOL    HW127101   1.246   3.860   2.124
 8734SOL    HW227102   1.166   3.925   2.251
 8735SOL     OW27103   0.817   2.516   0.361
 8735SOL    HW127104   0.844   2.593   0.303
 8735SOL    HW227105   0.873   2.516   0.444
 8736SOL     OW27106   0.300   5.347   0.575
 8736SOL    HW127107   0.400   5.342   0.573
 8736SOL    HW227108   0.269   5.342   0.670
 8737SOL     OW27109   1.737   6.478   0.008
 8737SOL    HW127110   1.709   6.479   0.104
 8737SOL    HW227111   1.828   6.519   7.024
 8738SOL     OW27112   2.849   5.483   4.349
 8738SOL    HW127113   2.808   5.393   4.367
 8738SOL    HW227114   2.802   5.527   4.273
 8739SOL     OW27115   6.373   5.666   6.959
 8739SOL    HW127116   6.348   5.590   6.898
 8739SOL    HW227117   6.312   5.744   6.941
 8740SOL     OW27118   4.487   1.080   4.485
 8740SOL    HW127119   4.531   1.074   4.396
 8740SOL    HW227120   4.388   1.064   4.475
 8741SOL     OW27121   2.348   1.186   2.380
 8741SOL    HW127122   2.289   1.106   2.392
 8741SOL    HW227123   2.361   1.231   2.468
 8742SOL     OW27124   5.069   6.367   1.931
 8742SOL    HW127125   5.020   6.325   1.855
 8742SOL    HW227126   5.089   6.297   2.000
 8743SOL     OW27127   1.778   0.434   1.986
 8743SOL    HW127128   1.704   0.459   2.048
 8743SOL    HW227129   1.751   0.452   1.891
 8744SOL     OW27130   3.964   2.719   6.857
 8744SOL    HW127131   3.965   2.715   6.757
 8744SOL    HW227132   4.022   2.646   6.894
 8745SOL     OW27133   6.597   2.137   6.744
 8745SOL    HW127134   6.659   2.059   6.751
 8745SOL    HW227135   6.505   2.104   6.719
 8746SOL     OW27136   4.601   5.595   4.568
 8746SOL    HW127137   4.578   5.626   4.476
 8746SOL    HW227138   4.522   5.549   4.609
 8747SOL     OW27139   0.366   2.305   3.471
 8747SOL    HW127140   0.460   2.326   3.442
 8747SOL    HW227141   0.346   2.355   3.555
 8748SOL     OW27142   0.132   1.132   4.539
 8748SOL    HW127143   0.229   1.137   4.513
 8748SOL    HW227144   0.089   1.221   4.521
 8749SOL     OW27145   2.264   0.492   4.949
 8749SOL    HW127146   2.358   0.505   4.916
 8749SOL    HW227147   2.228   0.406   4.911
 8750SOL     OW27148   3.172   3.814   4.867
 8750SOL    HW127149   3.243   3.809   4.937
 8750SOL    HW227150   3.161   3.724   4.825
 8751SOL     OW27151   6.283   1.782   2.092
 8751SOL    HW127152   6.277   1.876   2.058
 8751SOL    HW227153   6.294   1.784   2.192
 8752SOL     OW27154   3.298   3.057   6.521
 8752SOL    HW127155   3.378   3.021   6.472
 8752SOL    HW227156   3.271   2.992   6.592
 8753SOL     OW27157   3.101   1.511   6.527
 8753SOL    HW127158   3.160   1.526   6.607
 8753SOL    HW227159   3.087   1.413   6.513
 8754SOL     OW27160   2.009   3.680   5.815
 8754SOL    HW127161   2.027   3.712   5.722
 8754SOL    HW227162   2.084   3.708   5.875
 8755SOL     OW27163   2.451   1.191   1.026
 8755SOL    HW127164   2.383   1.182   0.954
 8755SOL    HW227165   2.543   1.190   0.986
 8756SOL     OW27166   1.228   3.475   4.276
 8756SOL    HW127167   1.261   3.559   4.319
 8756SOL    HW227168   1.141   3.493   4.230
 8757SOL     OW27169   3.863   5.972   6.661
 8757SOL    HW127170   3.778   5.961   6.712
 8757SOL    HW227171   3.843   5.972   6.563
 8758SOL     OW27172   4.728   5.744   2.940
 8758SOL    HW127173   4.762   5.649   2.938
 8758SOL    HW227174   4.653   5.753   2.875
 8759SOL     OW27175   4.507   2.650   6.553
 8759SOL    HW127176   4.409   2.667   6.544
 8759SOL    HW227177   4.531   2.567   6.503
 8760SOL     OW27178   2.403   0.718   5.132
 8760SOL    HW127179   2.420   0.815   5.146
 8760SOL    HW227180   2.485   0.674   5.095
 8761SOL     OW27181   6.246   2.124   1.720
 8761SOL    HW127182   6.310   2.176   1.662
 8761SOL    HW227183   6.157   2.171   1.721
 8762SOL     OW27184   1.291   4.199   3.185
 8762SOL    HW127185   1.239   4.283   3.170
 8762SOL    HW227186   1.230   4.120   3.171
 8763SOL     OW27187   6.818   6.543   6.132
 8763SOL    HW127188   6.911   6.533   6.096
 8763SOL    HW227189   6.819   6.606   6.210
 8764SOL     OW27190   5.448   6.813   4.937
 8764SOL    HW127191   5.480   6.796   5.030
 8764SOL    HW227192   5.348   6.817   4.937
 8765SOL     OW27193   5.536   6.921   3.608
 8765SOL    HW127194   5.500   6.989   3.544
 8765SOL    HW227195   5.467   6.850   3.623
 8766SOL     OW27196   4.515   4.845   4.708
 8766SOL    HW127197   4.571   4.874   4.786
 8766SOL    HW227198   4.457   4.920   4.678
 8767SOL     OW27199   4.979   5.483   3.230
 8767SOL    HW127200   5.071   5.452   3.252
 8767SOL    HW227201   4.927   5.496   3.315
 8768SOL     OW27202   1.098   2.845   0.236
 8768SOL    HW127203   1.110   2.919   0.169
 8768SOL    HW227204   1.139   2.761   0.201
 8769SOL     OW27205   0.310   0.933   3.543
 8769SOL    HW127206   0.398   0.978   3.528
 8769SOL    HW227207   0.296   0.921   3.641
 8770SOL     OW27208   4.412   4.509   2.224
 8770SOL    HW127209   4.431   4.469   2.135
 8770SOL    HW227210   4.320   4.482   2.254
 8771SOL     OW27211   1.043   1.738   6.346
 8771SOL    HW127212   1.076   1.665   6.287
 8771SOL    HW227213   0.969   1.703   6.404
 8772SOL     OW27214   4.847   0.634   6.440
 8772SOL    HW127215   4.913   0.591   6.501
 8772SOL    HW227216   4.760   0.583   6.445
 8773SOL     OW27217   5.199   2.531   3.656
 8773SOL    HW127218   5.250   2.501   3.737
 8773SOL    HW227219   5.201   2.631   3.650
 8774SOL     OW27220   1.483   0.945   6.938
 8774SOL    HW127221   1.485   1.015   6.867
 8774SOL    HW227222   1.478   0.855   6.896
 8775SOL     OW27223   5.602   6.690   5.568
 8775SOL    HW127224   5.633   6.775   5.612
 8775SOL    HW227225   5.669   6.661   5.500
 8776SOL     OW27226   4.319   2.874   0.295
 8776SOL    HW127227   4.416   2.852   0.279
 8776SOL    HW227228   4.306   2.973   0.290
 8777SOL     OW27229   6.659   4.424   3.126
 8777SOL    HW127230   6.696   4.466   3.043
 8777SOL    HW227231   6.598   4.349   3.101
 8778SOL     OW27232   5.775   3.331   5.957
 8778SOL    HW127233   5.730   3.406   5.909
 8778SOL    HW227234   5.874   3.339   5.948
 8779SOL     OW27235   2.900   5.124   2.172
 8779SOL    HW127236   2.911   5.120   2.271
 8779SOL    HW227237   2.850   5.207   2.147
 8780SOL     OW27238   0.317   6.541   2.875
 8780SOL    HW127239   0.402   6.496   2.848
 8780SOL    HW227240   0.285   6.600   2.801
 8781SOL     OW27241   4.987   0.940   3.601
 8781SOL    HW127242   4.930   0.981   3.672
 8781SOL    HW227243   5.012   0.847   3.628
 8782SOL     OW27244   6.694   6.540   1.389
 8782SOL    HW127245   6.698   6.458   1.445
 8782SOL    HW227246   6.684   6.513   1.293
 8783SOL     OW27247   6.521   4.541   3.953
 8783SOL    HW127248   6.488   4.599   4.027
 8783SOL    HW227249   6.620   4.536   3.957
 8784SOL     OW27250   6.212   4.792   5.891
 8784SOL    HW127251   6.219   4.717   5.956
 8784SOL    HW227252   6.270   4.773   5.812
 8785SOL     OW27253   5.443   4.118   0.017
 8785SOL    HW127254   5.346   4.102   0.036
 8785SOL    HW227255   5.495   4.114   0.103
 8786SOL     OW27256   2.810   1.031   0.450
 8786SOL    HW127257   2.807   1.054   0.353
 8786SOL    HW227258   2.723   1.056   0.492
 8787SOL     OW27259   3.239   1.499   1.725
 8787SOL    HW127260   3.221   1.464   1.633
 8787SOL    HW227261   3.337   1.499   1.743
 8788SOL     OW27262   6.248   0.397   5.182
 8788SOL    HW127263   6.316   0.327   5.156
 8788SOL    HW227264   6.291   0.487   5.180
 8789SOL     OW27265   6.117   6.290   4.292
 8789SOL    HW127266   6.177   6.357   4.335
 8789SOL    HW227267   6.167   6.241   4.222
 8790SOL     OW27268   0.168   0.309   6.266
 8790SOL    HW127269   0.236   0.246   6.305
 8790SOL    HW227270   0.209   0.399   6.255
 8791SOL     OW27271   5.082   6.221   5.247
 8791SOL    HW127272   5.148   6.237   5.173
 8791SOL    HW227273   5.063   6.123   5.255
 8792SOL     OW27274   2.498   5.931   2.987
 8792SOL    HW127275   2.529   5.845   3.028
 8792SOL    HW227276   2.419   5.965   3.038
 8793SOL     OW27277   1.328   4.732   2.638
 8793SOL    HW127278   1.261   4.749   2.710
 8793SOL    HW227279   1.298   4.654   2.583
 8794SOL     OW27280   4.678   6.816   2.733
 8794SOL    HW127281   4.739   6.739   2.753
 8794SOL    HW227282   4.731   6.899   2.722
 8795SOL     OW27283   1.554   4.475   5.509
 8795SOL    HW127284   1.532   4.540   5.582
 8795SOL    HW227285   1.628   4.512   5.453
 8796SOL     OW27286   4.388   2.259   4.527
 8796SOL    HW127287   4.433   2.250   4.438
 8796SOL    HW227288   4.456   2.282   4.596
 8797SOL     OW27289   0.160   0.432   6.835
 8797SOL    HW127290   0.136   0.526   6.810
 8797SOL    HW227291   0.104   0.368   6.782
 8798SOL     OW27292   5.411   5.549   6.669
 8798SOL    HW127293   5.337   5.493   6.707
 8798SOL    HW227294   5.497   5.499   6.674
 8799SOL     OW27295   2.657   4.640   3.641
 8799SOL    HW127296   2.709   4.668   3.722
 8799SOL    HW227297   2.579   4.585   3.669
 8800SOL     OW27298   6.606   4.153   5.947
 8800SOL    HW127299   6.684   4.090   5.948
 8800SOL    HW227300   6.633   4.239   5.992
 8801SOL     OW27301   6.844   1.364   5.019
 8801SOL    HW127302   6.934   1.323   5.002
 8801SOL    HW227303   6.838   1.451   4.969
 8802SOL     OW27304   2.253   6.955   6.632
 8802SOL    HW127305   2.314   0.007   6.651
 8802SOL    HW227306   2.158   6.987   6.631
 8803SOL     OW27307   0.301   6.168   6.847
 8803SOL    HW127308   0.381   6.228   6.846
 8803SOL    HW227309   0.223   6.216   6.806
 8804SOL     OW27310   2.624   6.814   2.115
 8804SOL    HW127311   2.652   6.814   2.211
 8804SOL    HW227312   2.571   6.897   2.096
 8805SOL     OW27313   3.087   6.158   3.879
 8805SOL    HW127314   3.062   6.232   3.942
 8805SOL    HW227315   3.062   6.183   3.786
 8806SOL     OW27316   3.282   4.784   1.842
 8806SOL    HW127317   3.261   4.876   1.876
 8806SOL    HW227318   3.376   4.761   1.864
 8807SOL     OW27319   4.923   0.454   6.968
 8807SOL    HW127320   4.924   0.364   7.011
 8807SOL    HW227321   4.850   0.509   7.007
 8808SOL     OW27322   6.141   2.601   6.812
 8808SOL    HW127323   6.195   2.549   6.879
 8808SOL    HW227324   6.054   2.554   6.796
 8809SOL     OW27325   4.233   5.136   3.308
 8809SOL    HW127326   4.163   5.066   3.326
 8809SOL    HW227327   4.250   5.188   3.392
 8810SOL     OW27328   5.950   0.523   4.798
 8810SOL    HW127329   5.937   0.591   4.870
 8810SOL    HW227330   6.018   0.456   4.827
 8811SOL     OW27331   3.667   1.097   2.428
 8811SOL    HW127332   3.646   1.195   2.433
 8811SOL    HW227333   3.583   1.045   2.420
 8812SOL     OW27334   1.732   0.777   0.470
 8812SOL    HW127335   1.787   0.723   0.534
 8812SOL    HW227336   1.788   0.850   0.432
 8813SOL     OW27337   2.105   5.068   2.179
 8813SOL    HW127338   2.141   4.980   2.151
 8813SOL    HW227339   2.178   5.121   2.223
 8814SOL     OW27340   6.226   0.080   0.590
 8814SOL    HW127341   6.247   0.027   0.673
 8814SOL    HW227342   6.129   0.068   0.567
 8815SOL     OW27343   5.489   6.613   0.645
 8815SOL    HW127344   5.474   6.546   0.717
 8815SOL    HW227345   5.463   6.704   0.678
 8816SOL     OW27346   1.522   6.734   0.515
 8816SOL    HW127347   1.485   6.714   0.424
 8816SOL    HW227348   1.617   6.766   0.505
 8817SOL     OW27349   0.289   4.742   3.846
 8817SOL    HW127350   0.352   4.813   3.814
 8817SOL    HW227351   0.338   4.656   3.855
 8818SOL     OW27352   0.730   4.336   4.495
 8818SOL    HW127353   0.735   4.335   4.595
 8818SOL    HW227354   0.820   4.314   4.457
 8819SOL     OW27355   5.644   5.150   5.210
 8819SOL    HW127356   5.714   5.084   5.238
 8819SOL    HW227357   5.580   5.164   5.286
 8820SOL     OW27358   2.765   0.896   5.182
 8820SOL    HW127359   2.680   0.921   5.229
 8820SOL    HW227360   2.743   0.848   5.097
 8821SOL     OW27361   1.738   6.212   0.932
 8821SOL    HW127362   1.649   6.182   0.965
 8821SOL    HW227363   1.726   6.292   0.873
 8822SOL     OW27364   0.468   0.580   3.908
 8822SOL    HW127365   0.436   0.487   3.927
 8822SOL    HW227366   0.414   0.646   3.960
 8823SOL     OW27367   2.029   1.102   2.733
 8823SOL    HW127368   2.034   1.060   2.823
 8823SOL    HW227369   2.102   1.170   2.724
 8824SOL     OW27370   1.394   1.841   0.181
 8824SOL    HW127371   1.373   1.860   0.085
 8824SOL    HW227372   1.487   1.805   0.188
 8825SOL     OW27373   1.862   0.944   2.212
 8825SOL    HW127374   1.821   1.034   2.195
 8825SOL    HW227375   1.895   0.940   2.306
 8826SOL     OW27376   0.501   3.939   0.724
 8826SOL    HW127377   0.486   4.015   0.660
 8826SOL    HW227378   0.512   3.854   0.673
 8827SOL     OW27379   4.316   1.684   2.017
 8827SOL    HW127380   4.280   1.706   2.108
 8827SOL    HW227381   4.365   1.764   1.981
 8828SOL     OW27382   4.286   5.450   6.228
 8828SOL    HW127383   4.207   5.433   6.287
 8828SOL    HW227384   4.308   5.547   6.229
 8829SOL     OW27385   5.309   2.910   0.939
 8829SOL    HW127386   5.210   2.905   0.933
 8829SOL    HW227387   5.338   2.885   1.031
 8830SOL     OW27388   1.230   1.834   2.581
 8830SOL    HW127389   1.312   1.784   2.552
 8830SOL    HW227390   1.257   1.924   2.616
 8831SOL     OW27391   4.605   2.671   4.209
 8831SOL    HW127392   4.520   2.622   4.228
 8831SOL    HW227393   4.612   2.689   4.111
 8832SOL     OW27394   0.012   6.838   2.901
 8832SOL    HW127395   6.983   6.790   2.971
 8832SOL    HW227396   0.109   6.816   2.912
 8833SOL     OW27397   2.651   4.731   5.924
 8833SOL    HW127398   2.742   4.770   5.943
 8833SOL    HW227399   2.660   4.656   5.859
 8834SOL     OW27400   5.897   4.488   4.992
 8834SOL    HW127401   5.921   4.440   5.077
 8834SOL    HW227402   5.826   4.437   4.944
 8835SOL     OW27403   4.916   0.783   5.758
 8835SOL    HW127404   4.885   0.803   5.666
 8835SOL    HW227405   4.862   0.709   5.797
 8836SOL     OW27406   4.969   1.725   0.014
 8836SOL    HW127407   4.881   1.715   0.061
 8836SOL    HW227408   5.025   1.791   0.064
 8837SOL     OW27409   0.355   6.436   2.374
 8837SOL    HW127410   0.331   6.339   2.380
 8837SOL    HW227411   0.331   6.482   2.459
 8838SOL     OW27412   2.020   5.183   3.177
 8838SOL    HW127413   1.964   5.196   3.258
 8838SOL    HW227414   2.009   5.089   3.143
 8839SOL     OW27415   5.164   5.727   1.892
 8839SOL    HW127416   5.238   5.690   1.947
 8839SOL    HW227417   5.140   5.819   1.924
 8840SOL     OW27418   0.274   1.665   3.138
 8840SOL    HW127419   0.205   1.631   3.202
 8840SOL    HW227420   0.307   1.754   3.170
 8841SOL     OW27421   0.758   0.888   4.549
 8841SOL    HW127422   0.707   0.888   4.634
 8841SOL    HW227423   0.833   0.822   4.554
 8842SOL     OW27424   3.432   2.869   2.398
 8842SOL    HW127425   3.485   2.952   2.416
 8842SOL    HW227426   3.344   2.895   2.357
 8843SOL     OW27427   2.281   3.523   5.884
 8843SOL    HW127428   2.311   3.440   5.838
 8843SOL    HW227429   2.314   3.603   5.834
 8844SOL     OW27430   0.487   1.318   5.824
 8844SOL    HW127431   0.537   1.249   5.877
 8844SOL    HW227432   0.515   1.312   5.728
 8845SOL     OW27433   3.387   3.644   0.953
 8845SOL    HW127434   3.395   3.572   1.022
 8845SOL    HW227435   3.312   3.705   0.977
 8846SOL     OW27436   3.459   5.079   4.117
 8846SOL    HW127437   3.378   5.038   4.159
 8846SOL    HW227438   3.470   5.042   4.024
 8847SOL     OW27439   2.433   1.539   3.052
 8847SOL    HW127440   2.334   1.525   3.059
 8847SOL    HW227441   2.475   1.461   3.006
 8848SOL     OW27442   2.596   2.013   2.482
 8848SOL    HW127443   2.521   2.075   2.460
 8848SOL    HW227444   2.606   2.008   2.581
 8849SOL     OW27445   2.924   6.304   3.092
 8849SOL    HW127446   2.941   6.220   3.039
 8849SOL    HW227447   2.900   6.378   3.029
 8850SOL     OW27448   1.480   2.124   6.511
 8850SOL    HW127449   1.385   2.095   6.503
 8850SOL    HW227450   1.502   2.141   6.607
 8851SOL     OW27451   1.363   5.929   2.244
 8851SOL    HW127452   1.414   5.979   2.174
 8851SOL    HW227453   1.381   5.831   2.235
 8852SOL     OW27454   5.019   3.620   5.767
 8852SOL    HW127455   5.016   3.707   5.816
 8852SOL    HW227456   4.944   3.617   5.701
 8853SOL     OW27457   2.979   1.428   0.317
 8853SOL    HW127458   2.987   1.525   0.297
 8853SOL    HW227459   3.059   1.398   0.369
 8854SOL     OW27460   3.253   1.303   5.764
 8854SOL    HW127461   3.197   1.223   5.745
 8854SOL    HW227462   3.334   1.276   5.816
 8855SOL     OW27463   0.464   6.013   1.260
 8855SOL    HW127464   0.556   5.976   1.271
 8855SOL    HW227465   0.426   6.034   1.350
 8856SOL     OW27466   0.299   6.546   6.811
 8856SOL    HW127467   0.372   6.487   6.846
 8856SOL    HW227468   0.278   6.519   6.717
 8857SOL     OW27469   6.983   1.752   4.041
 8857SOL    HW127470   0.023   1.747   3.965
 8857SOL    HW227471   6.952   1.846   4.052
 8858SOL     OW27472   0.780   2.456   5.358
 8858SOL    HW127473   0.703   2.488   5.303
 8858SOL    HW227474   0.782   2.356   5.357
 8859SOL     OW27475   0.211   0.709   3.686
 8859SOL    HW127476   0.153   0.756   3.620
 8859SOL    HW227477   0.240   0.621   3.648
 8860SOL     OW27478   0.029   2.903   2.887
 8860SOL    HW127479   6.982   2.971   2.902
 8860SOL    HW227480   0.040   2.887   2.789
 8861SOL     OW27481   4.296   1.616   5.766
 8861SOL    HW127482   4.273   1.529   5.809
 8861SOL    HW227483   4.359   1.666   5.825
 8862SOL     OW27484   5.421   1.018   4.051
 8862SOL    HW127485   5.494   1.013   4.118
 8862SOL    HW227486   5.335   0.991   4.093
 8863SOL     OW27487   1.495   4.894   3.946
 8863SOL    HW127488   1.549   4.890   4.030
 8863SOL    HW227489   1.516   4.815   3.889
 8864SOL     OW27490   3.507   4.882   6.524
 8864SOL    HW127491   3.407   4.871   6.522
 8864SOL    HW227492   3.550   4.801   6.484
 8865SOL     OW27493   3.129   0.917   6.095
 8865SOL    HW127494   3.221   0.881   6.109
 8865SOL    HW227495   3.063   0.842   6.099
 8866SOL     OW27496   5.517   6.839   2.987
 8866SOL    HW127497   5.550   6.764   2.930
 8866SOL    HW227498   5.440   6.883   2.942
 8867SOL     OW27499   5.867   3.520   2.702
 8867SOL    HW127500   5.858   3.474   2.614
 8867SOL    HW227501   5.957   3.561   2.710
 8868SOL     OW27502   6.550   2.591   1.036
 8868SOL    HW127503   6.567   2.687   1.015
 8868SOL    HW227504   6.540   2.580   1.135
 8869SOL     OW27505   3.983   6.048   4.328
 8869SOL    HW127506   3.961   6.001   4.414
 8869SOL    HW227507   3.993   5.980   4.256
 8870SOL     OW27508   3.425   0.186   0.366
 8870SOL    HW127509   3.513   0.233   0.373
 8870SOL    HW227510   3.416   0.146   0.275
 8871SOL     OW27511   2.078   1.168   3.988
 8871SOL    HW127512   2.176   1.166   3.968
 8871SOL    HW227513   2.046   1.074   4.001
 8872SOL     OW27514   1.605   4.236   5.244
 8872SOL    HW127515   1.574   4.256   5.337
 8872SOL    HW227516   1.526   4.232   5.182
 8873SOL     OW27517   0.825   6.585   1.410
 8873SOL    HW127518   0.868   6.675   1.405
 8873SOL    HW227519   0.852   6.531   1.331
 8874SOL     OW27520   1.803   6.162   2.526
 8874SOL    HW127521   1.743   6.233   2.563
 8874SOL    HW227522   1.779   6.144   2.431
 8875SOL     OW27523   7.014   3.715   5.213
 8875SOL    HW127524   7.019   3.814   5.227
 8875SOL    HW227525   6.957   3.674   5.284
 8876SOL     OW27526   2.136   6.761   4.634
 8876SOL    HW127527   2.079   6.825   4.686
 8876SOL    HW227528   2.102   6.668   4.647
 8877SOL     OW27529   3.312   1.428   3.956
 8877SOL    HW127530   3.228   1.455   4.004
 8877SOL    HW227531   3.390   1.476   3.996
 8878SOL     OW27532   6.911   4.658   0.135
 8878SOL    HW127533   6.855   4.714   0.196
 8878SOL    HW227534   6.914   4.700   0.044
 8879SOL     OW27535   4.730   4.547   2.730
 8879SOL    HW127536   4.823   4.510   2.732
 8879SOL    HW227537   4.668   4.485   2.779
 8880SOL     OW27538   5.318   6.161   5.087
 8880SOL    HW127539   5.299   6.099   5.011
 8880SOL    HW227540   5.412   6.146   5.119
 8881SOL     OW27541   6.010   6.716   3.678
 8881SOL    HW127542   6.077   6.754   3.615
 8881SOL    HW227543   6.021   6.759   3.768
 8882SOL     OW27544   5.592   0.865   1.165
 8882SOL    HW127545   5.689   0.871   1.189
 8882SOL    HW227546   5.580   0.806   1.085
 8883SOL     OW27547   1.350   6.294   6.322
 8883SOL    HW127548   1.266   6.347   6.311
 8883SOL    HW227549   1.352   6.220   6.255
 8884SOL     OW27550   6.698   3.981   6.201
 8884SOL    HW127551   6.652   3.912   6.145
 8884SOL    HW227552   6.658   3.981   6.293
 8885SOL     OW27553   6.571   3.657   1.246
 8885SOL    HW127554   6.607   3.705   1.166
 8885SOL    HW227555   6.539   3.724   1.313
 8886SOL     OW27556   3.285   0.133   4.622
 8886SOL    HW127557   3.347   0.187   4.564
 8886SOL    HW227558   3.312   0.037   4.619
 8887SOL     OW27559   3.558   1.201   0.676
 8887SOL    HW127560   3.545   1.202   0.576
 8887SOL    HW227561   3.479   1.242   0.720
 8888SOL     OW27562   1.885   1.768   6.045
 8888SOL    HW127563   1.958   1.709   6.081
 8888SOL    HW227564   1.825   1.716   5.985
 8889SOL     OW27565   6.391   0.357   6.011
 8889SOL    HW127566   6.475   0.368   5.957
 8889SOL    HW227567   6.353   0.447   6.033
 8890SOL     OW27568   6.344   5.621   3.597
 8890SOL    HW127569   6.386   5.634   3.687
 8890SOL    HW227570   6.368   5.530   3.562
 8891SOL     OW27571   4.737   3.403   6.829
 8891SOL    HW127572   4.785   3.362   6.752
 8891SOL    HW227573   4.640   3.412   6.807
 8892SOL     OW27574   3.238   5.791   3.144
 8892SOL    HW127575   3.325   5.763   3.103
 8892SOL    HW227576   3.163   5.739   3.102
 8893SOL     OW27577   0.715   6.164   3.263
 8893SOL    HW127578   0.730   6.192   3.169
 8893SOL    HW227579   0.753   6.072   3.277
 8894SOL     OW27580   3.945   2.493   6.433
 8894SOL    HW127581   3.906   2.418   6.380
 8894SOL    HW227582   4.032   2.520   6.394
 8895SOL     OW27583   6.386   2.439   2.405
 8895SOL    HW127584   6.358   2.534   2.418
 8895SOL    HW227585   6.341   2.402   2.323
 8896SOL     OW27586   2.717   3.059   5.353
 8896SOL    HW127587   2.639   3.046   5.292
 8896SOL    HW227588   2.701   3.012   5.440
 8897SOL     OW27589   2.012   2.571   3.523
 8897SOL    HW127590   2.060   2.504   3.467
 8897SOL    HW227591   1.920   2.536   3.544
 8898SOL     OW27592   5.374   2.715   2.422
 8898SOL    HW127593   5.348   2.619   2.432
 8898SOL    HW227594   5.391   2.755   2.513
 8899SOL     OW27595   1.609   5.641   1.321
 8899SOL    HW127596   1.630   5.546   1.302
 8899SOL    HW227597   1.693   5.693   1.334
 8900SOL     OW27598   5.754   2.986   2.804
 8900SOL    HW127599   5.741   2.987   2.705
 8900SOL    HW227600   5.779   3.077   2.835
 8901SOL     OW27601   2.096   0.844   4.968
 8901SOL    HW127602   2.179   0.874   4.920
 8901SOL    HW227603   2.031   0.806   4.903
 8902SOL     OW27604   1.913   0.359   0.786
 8902SOL    HW127605   1.876   0.428   0.724
 8902SOL    HW227606   1.919   0.397   0.879
 8903SOL     OW27607   0.725   1.598   5.020
 8903SOL    HW127608   0.795   1.664   5.044
 8903SOL    HW227609   0.713   1.533   5.095
 8904SOL     OW27610   5.883   6.896   3.930
 8904SOL    HW127611   5.829   6.932   4.005
 8904SOL    HW227612   5.839   6.917   3.843
 8905SOL     OW27613   1.230   4.107   4.002
 8905SOL    HW127614   1.256   4.132   4.096
 8905SOL    HW227615   1.186   4.185   3.958
 8906SOL     OW27616   0.689   6.172   6.739
 8906SOL    HW127617   0.641   6.085   6.732
 8906SOL    HW227618   0.784   6.160   6.708
 8907SOL     OW27619   2.444   2.181   4.892
 8907SOL    HW127620   2.346   2.198   4.905
 8907SOL    HW227621   2.486   2.158   4.980
 8908SOL     OW27622   1.295   4.965   6.672
 8908SOL    HW127623   1.236   5.043   6.648
 8908SOL    HW227624   1.315   4.911   6.590
 8909SOL     OW27625   2.681   0.766   6.112
 8909SOL    HW127626   2.663   0.782   6.015
 8909SOL    HW227627   2.595   0.765   6.163
 8910SOL     OW27628   0.032   2.695   6.027
 8910SOL    HW127629   6.973   2.674   6.077
 8910SOL    HW227630   0.012   2.760   5.953
 8911SOL     OW27631   4.412   2.282   4.932
 8911SOL    HW127632   4.453   2.299   4.843
 8911SOL    HW227633   4.364   2.364   4.963
 8912SOL     OW27634   3.414   3.552   6.754
 8912SOL    HW127635   3.380   3.641   6.784
 8912SOL    HW227636   3.361   3.479   6.798
 8913SOL     OW27637   5.025   4.963   5.948
 8913SOL    HW127638   5.080   4.925   5.873
 8913SOL    HW227639   4.928   4.964   5.921
 8914SOL     OW27640   4.564   0.131   4.824
 8914SOL    HW127641   4.616   0.049   4.800
 8914SOL    HW227642   4.602   0.172   4.906
 8915SOL     OW27643   0.678   3.278   3.931
 8915SOL    HW127644   0.618   3.235   3.997
 8915SOL    HW227645   0.647   3.372   3.914
 8916SOL     OW27646   6.723   3.530   0.654
 8916SOL    HW127647   6.804   3.484   0.690
 8916SOL    HW227648   6.643   3.470   0.663
 8917SOL     OW27649   6.592   3.476   0.274
 8917SOL    HW127650   6.518   3.419   0.307
 8917SOL    HW227651   6.617   3.543   0.344
 8918SOL     OW27652   6.429   4.083   0.943
 8918SOL    HW127653   6.346   4.138   0.949
 8918SOL    HW227654   6.411   3.999   0.893
 8919SOL     OW27655   3.654   4.070   0.987
 8919SOL    HW127656   3.580   4.084   1.053
 8919SOL    HW227657   3.627   3.998   0.922
 8920SOL     OW27658   0.473   0.544   6.861
 8920SOL    HW127659   0.420   0.612   6.912
 8920SOL    HW227660   0.433   0.531   6.771
 8921SOL     OW27661   2.264   2.359   2.296
 8921SOL    HW127662   2.350   2.401   2.267
 8921SOL    HW227663   2.189   2.425   2.281
 8922SOL     OW27664   4.180   4.651   1.403
 8922SOL    HW127665   4.093   4.609   1.429
 8922SOL    HW227666   4.219   4.698   1.482
 8923SOL     OW27667   1.697   2.832   6.422
 8923SOL    HW127668   1.635   2.821   6.344
 8923SOL    HW227669   1.783   2.873   6.390
 8924SOL     OW27670   3.429   5.361   5.288
 8924SOL    HW127671   3.424   5.402   5.197
 8924SOL    HW227672   3.347   5.306   5.304
 8925SOL     OW27673   0.789   1.604   2.705
 8925SOL    HW127674   0.862   1.537   2.692
 8925SOL    HW227675   0.727   1.602   2.627
 8926SOL     OW27676   6.638   2.912   5.987
 8926SOL    HW127677   6.646   2.925   5.888
 8926SOL    HW227678   6.668   2.995   6.034
 8927SOL     OW27679   0.087   1.056   4.849
 8927SOL    HW127680   0.090   1.049   4.749
 8927SOL    HW227681   7.023   1.023   4.883
 8928SOL     OW27682   0.385   6.994   6.556
 8928SOL    HW127683   0.427   6.914   6.598
 8928SOL    HW227684   0.285   6.985   6.559
 8929SOL     OW27685   6.003   2.283   4.365
 8929SOL    HW127686   6.053   2.366   4.341
 8929SOL    HW227687   6.033   2.208   4.306
 8930SOL     OW27688   1.599   3.644   4.061
 8930SOL    HW127689   1.650   3.696   3.994
 8930SOL    HW227690   1.571   3.556   4.021
 8931SOL     OW27691   2.259   2.986   0.542
 8931SOL    HW127692   2.339   2.964   0.598
 8931SOL    HW227693   2.198   3.047   0.593
 8932SOL     OW27694   6.467   1.246   1.073
 8932SOL    HW127695   6.518   1.329   1.048
 8932SOL    HW227696   6.523   1.165   1.051
 8933SOL     OW27697   2.170   3.235   5.957
 8933SOL    HW127698   2.203   3.175   6.030
 8933SOL    HW227699   2.193   3.330   5.979
 8934SOL     OW27700   3.671   4.920   4.757
 8934SOL    HW127701   3.607   4.973   4.813
 8934SOL    HW227702   3.702   4.840   4.808
 8935SOL     OW27703   6.583   4.308   0.469
 8935SOL    HW127704   6.559   4.263   0.555
 8935SOL    HW227705   6.581   4.408   0.482
 8936SOL     OW27706   1.525   3.031   2.912
 8936SOL    HW127707   1.482   3.078   2.989
 8936SOL    HW227708   1.615   2.998   2.940
 8937SOL     OW27709   6.768   6.858   4.188
 8937SOL    HW127710   6.726   6.787   4.246
 8937SOL    HW227711   6.840   6.817   4.133
 8938SOL     OW27712   0.319   0.519   0.671
 8938SOL    HW127713   0.367   0.432   0.685
 8938SOL    HW227714   0.231   0.501   0.627
 8939SOL     OW27715   6.053   4.666   4.268
 8939SOL    HW127716   6.099   4.584   4.303
 8939SOL    HW227717   5.992   4.702   4.339
 8940SOL     OW27718   6.016   1.414   2.100
 8940SOL    HW127719   5.967   1.371   2.176
 8940SOL    HW227720   6.107   1.442   2.129
 8941SOL     OW27721   5.856   2.494   4.790
 8941SOL    HW127722   5.856   2.569   4.725
 8941SOL    HW227723   5.950   2.468   4.812
 8942SOL     OW27724   6.572   5.257   5.976
 8942SOL    HW127725   6.617   5.275   6.064
 8942SOL    HW227726   6.475   5.280   5.983
 8943SOL     OW27727   4.125   5.401   0.672
 8943SOL    HW127728   4.118   5.478   0.608
 8943SOL    HW227729   4.215   5.404   0.717
 8944SOL     OW27730   5.460   5.525   4.894
 8944SOL    HW127731   5.368   5.541   4.929
 8944SOL    HW227732   5.456   5.503   4.797
 8945SOL     OW27733   1.078   1.072   3.843
 8945SOL    HW127734   1.106   0.976   3.841
 8945SOL    HW227735   1.137   1.122   3.907
 8946SOL     OW27736   2.594   1.536   4.022
 8946SOL    HW127737   2.684   1.508   4.056
 8946SOL    HW227738   2.556   1.607   4.081
 8947SOL     OW27739   2.462   3.782   5.876
 8947SOL    HW127740   2.482   3.740   5.787
 8947SOL    HW227741   2.498   3.723   5.949
 8948SOL     OW27742   6.402   6.209   3.992
 8948SOL    HW127743   6.419   6.133   3.929
 8948SOL    HW227744   6.304   6.220   4.006
 8949SOL     OW27745   3.838   5.993   0.660
 8949SOL    HW127746   3.781   5.984   0.578
 8949SOL    HW227747   3.846   6.090   0.685
 8950SOL     OW27748   4.528   4.966   6.725
 8950SOL    HW127749   4.546   5.026   6.803
 8950SOL    HW227750   4.610   4.914   6.702
 8951SOL     OW27751   2.381   0.859   4.462
 8951SOL    HW127752   2.442   0.864   4.384
 8951SOL    HW227753   2.350   0.950   4.487
 8952SOL     OW27754   0.465   5.665   2.845
 8952SOL    HW127755   0.409   5.635   2.767
 8952SOL    HW227756   0.553   5.699   2.813
 8953SOL     OW27757   0.939   4.091   0.698
 8953SOL    HW127758   0.855   4.139   0.675
 8953SOL    HW227759   1.018   4.148   0.673
 8954SOL     OW27760   6.642   6.655   4.328
 8954SOL    HW127761   6.621   6.611   4.241
 8954SOL    HW227762   6.569   6.637   4.393
 8955SOL     OW27763   6.696   5.670   2.926
 8955SOL    HW127764   6.774   5.728   2.949
 8955SOL    HW227765   6.716   5.619   2.842
 8956SOL     OW27766   1.717   1.604   6.644
 8956SOL    HW127767   1.700   1.653   6.558
 8956SOL    HW227768   1.636   1.553   6.671
 8957SOL     OW27769   1.900   4.793   1.638
 8957SOL    HW127770   1.815   4.845   1.626
 8957SOL    HW227771   1.910   4.727   1.563
 8958SOL     OW27772   0.216   2.165   4.673
 8958SOL    HW127773   0.260   2.208   4.751
 8958SOL    HW227774   0.286   2.125   4.613
 8959SOL     OW27775   1.633   4.401   2.123
 8959SOL    HW127776   1.629   4.397   2.023
 8959SOL    HW227777   1.638   4.308   2.160
 8960SOL     OW27778   4.057   5.489   3.474
 8960SOL    HW127779   4.022   5.437   3.396
 8960SOL    HW227780   3.988   5.489   3.546
 8961SOL     OW27781   3.060   1.069   3.368
 8961SOL    HW127782   3.155   1.073   3.339
 8961SOL    HW227783   3.044   1.137   3.439
 8962SOL     OW27784   6.350   5.706   2.519
 8962SOL    HW127785   6.324   5.644   2.445
 8962SOL    HW227786   6.383   5.653   2.597
 8963SOL     OW27787   3.876   0.119   5.030
 8963SOL    HW127788   3.904   0.030   4.996
 8963SOL    HW227789   3.939   0.148   5.103
 8964SOL     OW27790   5.232   3.132   2.833
 8964SOL    HW127791   5.280   3.062   2.886
 8964SOL    HW227792   5.271   3.221   2.853
 8965SOL     OW27793   2.364   5.408   0.558
 8965SOL    HW127794   2.400   5.492   0.599
 8965SOL    HW227795   2.264   5.413   0.554
 8966SOL     OW27796   6.372   4.412   0.318
 8966SOL    HW127797   6.335   4.355   0.244
 8966SOL    HW227798   6.449   4.365   0.360
 8967SOL     OW27799   4.042   0.576   1.575
 8967SOL    HW127800   4.029   0.503   1.507
 8967SOL    HW227801   4.088   0.654   1.532
 8968SOL     OW27802   4.305   5.382   3.454
 8968SOL    HW127803   4.219   5.425   3.480
 8968SOL    HW227804   4.321   5.395   3.356
 8969SOL     OW27805   6.383   0.363   3.835
 8969SOL    HW127806   6.364   0.390   3.930
 8969SOL    HW227807   6.375   0.263   3.828
 8970SOL     OW27808   2.426   3.385   6.805
 8970SOL    HW127809   2.404   3.384   6.903
 8970SOL    HW227810   2.370   3.455   6.759
 8971SOL     OW27811   5.863   4.960   1.399
 8971SOL    HW127812   5.923   4.976   1.477
 8971SOL    HW227813   5.785   4.905   1.427
 8972SOL     OW27814   4.626   3.190   6.986
 8972SOL    HW127815   4.667   3.268   6.940
 8972SOL    HW227816   4.616   3.114   6.921
 8973SOL     OW27817   0.305   3.604   3.520
 8973SOL    HW127818   0.308   3.647   3.430
 8973SOL    HW227819   0.280   3.508   3.511
 8974SOL     OW27820   1.249   4.061   4.352
 8974SOL    HW127821   1.274   3.986   4.413
 8974SOL    HW227822   1.330   4.116   4.332
 8975SOL     OW27823   1.466   6.084   6.863
 8975SOL    HW127824   1.445   6.082   6.961
 8975SOL    HW227825   1.492   6.177   6.836
 8976SOL     OW27826   0.755   5.470   0.140
 8976SOL    HW127827   0.704   5.524   0.073
 8976SOL    HW227828   0.695   5.446   0.216
 8977SOL     OW27829   6.846   3.000   7.003
 8977SOL    HW127830   6.930   2.988   6.950
 8977SOL    HW227831   6.844   3.093   0.016
 8978SOL     OW27832   5.281   6.369   4.342
 8978SOL    HW127833   5.266   6.418   4.428
 8978SOL    HW227834   5.364   6.313   4.349
 8979SOL     OW27835   1.294   3.990   5.118
 8979SOL    HW127836   1.361   3.925   5.153
 8979SOL    HW227837   1.223   4.004   5.187
 8980SOL     OW27838   4.327   3.002   5.395
 8980SOL    HW127839   4.271   2.923   5.417
 8980SOL    HW227840   4.270   3.084   5.389
 8981SOL     OW27841   4.418   1.264   5.448
 8981SOL    HW127842   4.448   1.266   5.543
 8981SOL    HW227843   4.483   1.314   5.391
 8982SOL     OW27844   1.684   1.832   1.743
 8982SOL    HW127845   1.680   1.925   1.779
 8982SOL    HW227846   1.740   1.775   1.802
 8983SOL     OW27847   1.133   5.880   0.028
 8983SOL    HW127848   1.080   5.797   0.047
 8983SOL    HW227849   1.229   5.856   0.016
 8984SOL     OW27850   6.440   0.275   3.467
 8984SOL    HW127851   6.502   0.204   3.433
 8984SOL    HW227852   6.392   0.242   3.548
 8985SOL     OW27853   2.226   1.494   0.643
 8985SOL    HW127854   2.191   1.558   0.712
 8985SOL    HW227855   2.311   1.529   0.604
 8986SOL     OW27856   3.919   5.161   1.889
 8986SOL    HW127857   3.978   5.127   1.817
 8986SOL    HW227858   3.848   5.219   1.849
 8987SOL     OW27859   4.799   6.616   0.565
 8987SOL    HW127860   4.727   6.546   0.558
 8987SOL    HW227861   4.790   6.680   0.488
 8988SOL     OW27862   1.288   3.718   0.324
 8988SOL    HW127863   1.300   3.684   0.230
 8988SOL    HW227864   1.324   3.811   0.330
 8989SOL     OW27865   4.998   4.259   2.161
 8989SOL    HW127866   4.930   4.214   2.103
 8989SOL    HW227867   4.955   4.288   2.247
 8990SOL     OW27868   2.136   5.831   2.043
 8990SOL    HW127869   2.218   5.848   2.098
 8990SOL    HW227870   2.158   5.840   1.946
 8991SOL     OW27871   1.567   2.231   6.801
 8991SOL    HW127872   1.572   2.132   6.815
 8991SOL    HW227873   1.494   2.269   6.857
 8992SOL     OW27874   6.473   2.338   6.990
 8992SOL    HW127875   6.568   2.306   6.995
 8992SOL    HW227876   6.416   2.268   6.947
 8993SOL     OW27877   4.716   2.655   2.625
 8993SOL    HW127878   4.737   2.744   2.585
 8993SOL    HW227879   4.773   2.641   2.706
 8994SOL     OW27880   0.325   4.842   4.841
 8994SOL    HW127881   0.254   4.806   4.781
 8994SOL    HW227882   0.374   4.917   4.794
 8995SOL     OW27883   1.125   2.521   6.969
 8995SOL    HW127884   1.159   2.435   6.931
 8995SOL    HW227885   1.193   2.559   0.007
 8996SOL     OW27886   6.590   5.145   1.710
 8996SOL    HW127887   6.674   5.192   1.683
 8996SOL    HW227888   6.605   5.046   1.709
 8997SOL     OW27889   4.249   1.434   6.472
 8997SOL    HW127890   4.308   1.359   6.444
 8997SOL    HW227891   4.162   1.428   6.422
 8998SOL     OW27892   6.829   3.502   5.037
 8998SOL    HW127893   6.841   3.404   5.017
 8998SOL    HW227894   6.914   3.538   5.076
 8999SOL     OW27895   5.241   6.992   0.075
 8999SOL    HW127896   5.211   0.055   0.111
 8999SOL    HW227897   5.164   6.947   0.030
 9000SOL     OW27898   2.665   4.631   0.313
 9000SOL    HW127899   2.628   4.639   0.405
 9000SOL    HW227900   2.606   4.680   0.249
 9001SOL     OW27901   0.985   5.944   2.618
 9001SOL    HW127902   1.065   5.972   2.671
 9001SOL    HW227903   0.925   6.023   2.604
 9002SOL     OW27904   6.539   5.093   5.006
 9002SOL    HW127905   6.611   5.023   5.010
 9002SOL    HW227906   6.484   5.079   4.924
 9003SOL     OW27907   5.866   2.444   1.126
 9003SOL    HW127908   5.804   2.523   1.119
 9003SOL    HW227909   5.812   2.360   1.124
 9004SOL     OW27910   4.984   6.589   1.520
 9004SOL    HW127911   5.006   6.545   1.607
 9004SOL    HW227912   5.014   6.530   1.445
 9005SOL     OW27913   5.072   2.558   4.923
 9005SOL    HW127914   5.073   2.573   4.824
 9005SOL    HW227915   5.157   2.514   4.951
 9006SOL     OW27916   2.718   6.291   0.892
 9006SOL    HW127917   2.800   6.248   0.930
 9006SOL    HW227918   2.637   6.248   0.931
 9007SOL     OW27919   4.263   0.011   4.206
 9007SOL    HW127920   4.311   0.064   4.136
 9007SOL    HW227921   4.296   6.941   4.206
 9008SOL     OW27922   0.173   5.750   3.445
 9008SOL    HW127923   0.137   5.842   3.454
 9008SOL    HW227924   0.230   5.745   3.362
 9009SOL     OW27925   2.566   1.120   0.544
 9009SOL    HW127926   2.597   1.196   0.601
 9009SOL    HW227927   2.476   1.090   0.575
 9010SOL     OW27928   0.879   0.257   4.255
 9010SOL    HW127929   0.972   0.262   4.219
 9010SOL    HW227930   0.874   0.187   4.325
 9011SOL     OW27931   4.710   2.599   1.435
 9011SOL    HW127932   4.660   2.555   1.509
 9011SOL    HW227933   4.800   2.556   1.425
 9012SOL     OW27934   3.449   4.616   1.168
 9012SOL    HW127935   3.356   4.581   1.173
 9012SOL    HW227936   3.498   4.570   1.093
 9013SOL     OW27937   0.554   6.136   4.453
 9013SOL    HW127938   0.633   6.074   4.451
 9013SOL    HW227939   0.470   6.083   4.443
 9014SOL     OW27940   0.895   1.168   0.138
 9014SOL    HW127941   0.905   1.174   0.237
 9014SOL    HW227942   0.952   1.238   0.094
 9015SOL     OW27943   6.147   1.876   1.184
 9015SOL    HW127944   6.226   1.838   1.233
 9015SOL    HW227945   6.099   1.803   1.136
 9016SOL     OW27946   0.858   6.142   6.338
 9016SOL    HW127947   0.887   6.184   6.424
 9016SOL    HW227948   0.777   6.189   6.303
 9017SOL     OW27949   4.371   2.506   1.887
 9017SOL    HW127950   4.296   2.456   1.843
 9017SOL    HW227951   4.389   2.590   1.836
 9018SOL     OW27952   4.557   1.283   6.034
 9018SOL    HW127953   4.642   1.258   5.988
 9018SOL    HW227954   4.527   1.207   6.092
 9019SOL     OW27955   0.632   0.840   1.677
 9019SOL    HW127956   0.536   0.844   1.706
 9019SOL    HW227957   0.691   0.865   1.754
 9020SOL     OW27958   1.503   3.319   1.565
 9020SOL    HW127959   1.502   3.315   1.465
 9020SOL    HW227960   1.530   3.411   1.594
 9021SOL     OW27961   6.892   0.193   3.915
 9021SOL    HW127962   6.836   0.273   3.896
 9021SOL    HW227963   6.963   0.184   3.845
 9022SOL     OW27964   2.573   1.807   0.429
 9022SOL    HW127965   2.487   1.825   0.476
 9022SOL    HW227966   2.649   1.827   0.490
 9023SOL     OW27967   3.217   3.623   2.323
 9023SOL    HW127968   3.251   3.557   2.390
 9023SOL    HW227969   3.237   3.590   2.230
 9024SOL     OW27970   0.376   5.033   4.494
 9024SOL    HW127971   0.410   5.027   4.588
 9024SOL    HW227972   0.453   5.028   4.430
 9025SOL     OW27973   0.648   5.468   0.389
 9025SOL    HW127974   0.552   5.495   0.385
 9025SOL    HW227975   0.703   5.549   0.413
 9026SOL     OW27976   4.222   3.228   1.972
 9026SOL    HW127977   4.301   3.212   2.031
 9026SOL    HW227978   4.239   3.307   1.914
 9027SOL     OW27979   1.062   1.728   4.453
 9027SOL    HW127980   1.063   1.709   4.354
 9027SOL    HW227981   1.134   1.795   4.474
 9028SOL     OW27982   2.698   3.969   5.819
 9028SOL    HW127983   2.642   3.889   5.841
 9028SOL    HW227984   2.654   4.021   5.745
 9029SOL     OW27985   2.997   5.592   4.563
 9029SOL    HW127986   2.992   5.498   4.596
 9029SOL    HW227987   2.965   5.597   4.469
 9030SOL     OW27988   2.094   1.982   3.702
 9030SOL    HW127989   2.027   1.953   3.771
 9030SOL    HW227990   2.185   1.953   3.729
 9031SOL     OW27991   4.248   5.990   4.643
 9031SOL    HW127992   4.315   6.060   4.618
 9031SOL    HW227993   4.226   5.935   4.563
 9032SOL     OW27994   3.462   3.428   1.091
 9032SOL    HW127995   3.439   3.331   1.094
 9032SOL    HW227996   3.395   3.480   1.145
 9033SOL     OW27997   1.744   5.239   3.797
 9033SOL    HW127998   1.748   5.149   3.755
 9033SOL    HW227999   1.777   5.308   3.732
 9034SOL     OW28000   2.866   0.371   5.212
 9034SOL    HW128001   2.766   0.367   5.214
 9034SOL    HW228002   2.900   0.397   5.302
 9035SOL     OW28003   1.666   4.550   5.912
 9035SOL    HW128004   1.632   4.607   5.837
 9035SOL    HW228005   1.613   4.465   5.915
 9036SOL     OW28006   2.204   0.598   5.643
 9036SOL    HW128007   2.287   0.653   5.637
 9036SOL    HW228008   2.145   0.634   5.715
 9037SOL     OW28009   1.411   3.846   5.628
 9037SOL    HW128010   1.352   3.898   5.689
 9037SOL    HW228011   1.484   3.803   5.680
 9038SOL     OW28012   4.889   6.304   6.093
 9038SOL    HW128013   4.961   6.359   6.134
 9038SOL    HW228014   4.841   6.254   6.165
 9039SOL     OW28015   2.793   4.785   4.631
 9039SOL    HW128016   2.769   4.819   4.540
 9039SOL    HW228017   2.737   4.705   4.653
 9040SOL     OW28018   2.845   2.249   2.810
 9040SOL    HW128019   2.831   2.348   2.809
 9040SOL    HW228020   2.758   2.203   2.831
 9041SOL     OW28021   1.687   2.102   1.847
 9041SOL    HW128022   1.751   2.169   1.811
 9041SOL    HW228023   1.602   2.148   1.873
 9042SOL     OW28024   2.798   6.992   3.719
 9042SOL    HW128025   2.835   0.002   3.632
 9042SOL    HW228026   2.715   0.019   3.742
 9043SOL     OW28027   2.554   1.862   6.834
 9043SOL    HW128028   2.556   1.962   6.834
 9043SOL    HW228029   2.520   1.830   6.746
 9044SOL     OW28030   5.663   1.496   2.212
 9044SOL    HW128031   5.736   1.429   2.232
 9044SOL    HW228032   5.698   1.563   2.147
 9045SOL     OW28033   2.866   1.223   2.358
 9045SOL    HW128034   2.932   1.148   2.363
 9045SOL    HW228035   2.799   1.213   2.432
 9046SOL     OW28036   3.466   4.191   4.427
 9046SOL    HW128037   3.453   4.115   4.362
 9046SOL    HW228038   3.402   4.264   4.405
 9047SOL     OW28039   1.320   3.084   5.898
 9047SOL    HW128040   1.281   3.171   5.928
 9047SOL    HW228041   1.326   3.083   5.799
 9048SOL     OW28042   6.457   1.843   5.861
 9048SOL    HW128043   6.368   1.864   5.822
 9048SOL    HW228044   6.461   1.747   5.888
 9049SOL     OW28045   3.731   7.020   6.601
 9049SOL    HW128046   3.762   6.928   6.625
 9049SOL    HW228047   3.803   0.042   6.550
 9050SOL     OW28048   7.002   3.561   6.792
 9050SOL    HW128049   6.980   3.651   6.830
 9050SOL    HW228050   6.934   3.494   6.823
 9051SOL     OW28051   4.810   6.546   0.947
 9051SOL    HW128052   4.747   6.546   0.869
 9051SOL    HW228053   4.880   6.477   0.934
 9052SOL     OW28054   1.718   2.542   3.825
 9052SOL    HW128055   1.717   2.618   3.890
 9052SOL    HW228056   1.783   2.473   3.856
 9053SOL     OW28057   1.615   1.822   2.957
 9053SOL    HW128058   1.645   1.734   2.994
 9053SOL    HW228059   1.529   1.849   3.000
 9054SOL     OW28060   1.790   0.153   2.050
 9054SOL    HW128061   1.731   0.113   1.979
 9054SOL    HW228062   1.775   0.252   2.053
 9055SOL     OW28063   5.811   3.236   3.871
 9055SOL    HW128064   5.895   3.272   3.833
 9055SOL    HW228065   5.832   3.167   3.940
 9056SOL     OW28066   0.105   1.202   1.540
 9056SOL    HW128067   0.156   1.167   1.619
 9056SOL    HW228068   0.017   1.239   1.571
 9057SOL     OW28069   5.683   4.713   5.907
 9057SOL    HW128070   5.782   4.714   5.893
 9057SOL    HW228071   5.638   4.700   5.819
 9058SOL     OW28072   2.059   1.813   3.110
 9058SOL    HW128073   2.155   1.839   3.102
 9058SOL    HW228074   2.002   1.880   3.063
 9059SOL     OW28075   1.092   1.360   5.324
 9059SOL    HW128076   1.187   1.370   5.296
 9059SOL    HW228077   1.087   1.363   5.424
 9060SOL     OW28078   6.265   2.965   2.398
 9060SOL    HW128079   6.222   2.879   2.422
 9060SOL    HW228080   6.198   3.039   2.403
 9061SOL     OW28081   2.783   5.355   2.075
 9061SOL    HW128082   2.845   5.412   2.022
 9061SOL    HW228083   2.757   5.402   2.158
 9062SOL     OW28084   1.917   6.060   1.770
 9062SOL    HW128085   2.003   6.009   1.769
 9062SOL    HW228086   1.933   6.155   1.746
 9063SOL     OW28087   2.383   0.040   2.706
 9063SOL    HW128088   2.324   0.071   2.780
 9063SOL    HW228089   2.352   0.082   2.620
 9064SOL     OW28090   6.256   2.359   5.764
 9064SOL    HW128091   6.321   2.434   5.777
 9064SOL    HW228092   6.306   2.275   5.742
 9065SOL     OW28093   3.192   6.382   6.263
 9065SOL    HW128094   3.265   6.433   6.218
 9065SOL    HW228095   3.192   6.402   6.361
 9066SOL     OW28096   5.927   6.384   0.161
 9066SOL    HW128097   5.884   6.309   0.212
 9066SOL    HW228098   5.986   6.346   0.089
 9067SOL     OW28099   6.121   0.714   4.635
 9067SOL    HW128100   6.131   0.673   4.545
 9067SOL    HW228101   6.061   0.657   4.691
 9068SOL     OW28102   2.820   6.688   5.443
 9068SOL    HW128103   2.811   6.783   5.413
 9068SOL    HW228104   2.762   6.673   5.523
 9069SOL     OW28105   2.548   2.442   2.202
 9069SOL    HW128106   2.506   2.525   2.167
 9069SOL    HW228107   2.575   2.456   2.297
 9070SOL     OW28108   1.411   3.583   5.868
 9070SOL    HW128109   1.336   3.648   5.879
 9070SOL    HW228110   1.497   3.633   5.864
 9071SOL     OW28111   5.542   0.386   0.767
 9071SOL    HW128112   5.583   0.440   0.694
 9071SOL    HW228113   5.573   0.421   0.856
 9072SOL     OW28114   6.819   1.115   1.893
 9072SOL    HW128115   6.892   1.142   1.955
 9072SOL    HW228116   6.788   1.195   1.840
 9073SOL     OW28117   3.142   6.735   0.599
 9073SOL    HW128118   3.234   6.767   0.623
 9073SOL    HW228119   3.125   6.646   0.642
 9074SOL     OW28120   1.992   1.923   1.537
 9074SOL    HW128121   2.007   2.002   1.597
 9074SOL    HW228122   1.895   1.913   1.519
 9075SOL     OW28123   0.845   1.333   2.921
 9075SOL    HW128124   0.928   1.279   2.905
 9075SOL    HW228125   0.778   1.313   2.849
 9076SOL     OW28126   5.824   1.967   4.943
 9076SOL    HW128127   5.879   2.049   4.925
 9076SOL    HW228128   5.728   1.994   4.955
 9077SOL     OW28129   5.825   6.826   6.600
 9077SOL    HW128130   5.732   6.854   6.576
 9077SOL    HW228131   5.886   6.905   6.600
 9078SOL     OW28132   4.372   3.683   6.504
 9078SOL    HW128133   4.292   3.713   6.556
 9078SOL    HW228134   4.355   3.592   6.466
 9079SOL     OW28135   2.788   6.627   3.885
 9079SOL    HW128136   2.692   6.654   3.893
 9079SOL    HW228137   2.796   6.528   3.899
 9080SOL     OW28138   5.164   2.377   6.885
 9080SOL    HW128139   5.067   2.385   6.863
 9080SOL    HW228140   5.179   2.403   6.981
 9081SOL     OW28141   3.857   5.828   3.001
 9081SOL    HW128142   3.900   5.918   2.996
 9081SOL    HW228143   3.902   5.773   3.071
 9082SOL     OW28144   2.536   6.736   5.228
 9082SOL    HW128145   2.575   6.681   5.153
 9082SOL    HW228146   2.570   6.830   5.221
 9083SOL     OW28147   2.896   5.355   5.812
 9083SOL    HW128148   2.800   5.363   5.837
 9083SOL    HW228149   2.950   5.422   5.864
 9084SOL     OW28150   3.122   3.473   5.434
 9084SOL    HW128151   3.214   3.498   5.464
 9084SOL    HW228152   3.111   3.496   5.337
 9085SOL     OW28153   2.098   4.606   1.388
 9085SOL    HW128154   2.167   4.548   1.344
 9085SOL    HW228155   2.137   4.696   1.406
 9086SOL     OW28156   0.833   4.579   0.685
 9086SOL    HW128157   0.894   4.548   0.613
 9086SOL    HW228158   0.824   4.678   0.682
 9087SOL     OW28159   4.746   2.780   2.103
 9087SOL    HW128160   4.755   2.686   2.134
 9087SOL    HW228161   4.715   2.780   2.007
 9088SOL     OW28162   5.454   6.096   0.402
 9088SOL    HW128163   5.444   6.196   0.406
 9088SOL    HW228164   5.372   6.053   0.439
 9089SOL     OW28165   5.092   5.960   5.944
 9089SOL    HW128166   5.018   5.962   5.876
 9089SOL    HW228167   5.109   5.866   5.973
 9090SOL     OW28168   0.325   0.520   3.144
 9090SOL    HW128169   0.398   0.509   3.076
 9090SOL    HW228170   0.338   0.605   3.194
 9091SOL     OW28171   3.308   4.630   0.829
 9091SOL    HW128172   3.243   4.632   0.753
 9091SOL    HW228173   3.316   4.537   0.864
 9092SOL     OW28174   0.952   1.151   0.747
 9092SOL    HW128175   0.947   1.205   0.831
 9092SOL    HW228176   0.970   1.212   0.669
 9093SOL     OW28177   1.183   6.602   6.089
 9093SOL    HW128178   1.167   6.699   6.070
 9093SOL    HW228179   1.268   6.573   6.044
 9094SOL     OW28180   6.312   5.120   2.839
 9094SOL    HW128181   6.274   5.031   2.860
 9094SOL    HW228182   6.241   5.190   2.847
 9095SOL     OW28183   5.114   4.216   5.732
 9095SOL    HW128184   5.042   4.286   5.735
 9095SOL    HW228185   5.072   4.126   5.717
 9096SOL     OW28186   5.701   3.997   2.021
 9096SOL    HW128187   5.744   3.925   1.966
 9096SOL    HW228188   5.740   4.085   1.997
 9097SOL     OW28189   1.240   1.916   0.650
 9097SOL    HW128190   1.326   1.956   0.683
 9097SOL    HW228191   1.260   1.847   0.581
 9098SOL     OW28192   4.111   1.401   5.518
 9098SOL    HW128193   4.129   1.331   5.587
 9098SOL    HW228194   4.075   1.483   5.562
 9099SOL     OW28195   3.207   2.437   5.702
 9099SOL    HW128196   3.109   2.455   5.690
 9099SOL    HW228197   3.256   2.523   5.713
 9100SOL     OW28198   6.929   3.999   4.187
 9100SOL    HW128199   6.917   4.098   4.181
 9100SOL    HW228200   6.953   3.963   4.097
 9101SOL     OW28201   2.131   2.422   3.020
 9101SOL    HW128202   2.137   2.497   2.953
 9101SOL    HW228203   2.037   2.390   3.026
 9102SOL     OW28204   2.612   0.223   1.933
 9102SOL    HW128205   2.698   0.254   1.893
 9102SOL    HW228206   2.536   0.273   1.892
 9103SOL     OW28207   6.156   3.073   6.769
 9103SOL    HW128208   6.149   3.107   6.675
 9103SOL    HW228209   6.066   3.074   6.812
 9104SOL     OW28210   0.530   6.732   2.368
 9104SOL    HW128211   0.610   6.707   2.314
 9104SOL    HW228212   0.459   6.661   2.357
 9105SOL     OW28213   1.051   1.453   6.645
 9105SOL    HW128214   1.072   1.410   6.557
 9105SOL    HW228215   0.968   1.508   6.637
 9106SOL     OW28216   0.078   2.830   1.091
 9106SOL    HW128217   0.159   2.777   1.117
 9106SOL    HW228218   0.008   2.768   1.056
 9107SOL     OW28219   3.684   0.640   6.211
 9107SOL    HW128220   3.711   0.695   6.290
 9107SOL    HW228221   3.655   0.701   6.137
 9108SOL     OW28222   5.313   4.285   5.921
 9108SOL    HW128223   5.351   4.200   5.956
 9108SOL    HW228224   5.234   4.264   5.862
 9109SOL     OW28225   6.381   2.797   3.744
 9109SOL    HW128226   6.299   2.832   3.698
 9109SOL    HW228227   6.377   2.822   3.841
 9110SOL     OW28228   1.613   4.901   4.227
 9110SOL    HW128229   1.584   4.849   4.307
 9110SOL    HW228230   1.706   4.875   4.201
 9111SOL     OW28231   5.300   1.743   0.652
 9111SOL    HW128232   5.261   1.807   0.586
 9111SOL    HW228233   5.350   1.671   0.604
 9112SOL     OW28234   1.039   5.709   2.430
 9112SOL    HW128235   1.025   5.808   2.429
 9112SOL    HW228236   1.095   5.684   2.510
 9113SOL     OW28237   4.618   2.240   3.270
 9113SOL    HW128238   4.684   2.252   3.345
 9113SOL    HW228239   4.666   2.208   3.189
 9114SOL     OW28240   0.874   4.809   2.571
 9114SOL    HW128241   0.836   4.898   2.599
 9114SOL    HW228242   0.866   4.744   2.646
 9115SOL     OW28243   6.842   5.689   4.331
 9115SOL    HW128244   6.781   5.631   4.276
 9115SOL    HW228245   6.852   5.778   4.286
 9116SOL     OW28246   6.864   0.783   2.317
 9116SOL    HW128247   6.807   0.774   2.236
 9116SOL    HW228248   6.873   0.694   2.362
 9117SOL     OW28249   4.791   2.465   0.316
 9117SOL    HW128250   4.879   2.446   0.358
 9117SOL    HW228251   4.722   2.401   0.352
 9118SOL     OW28252   0.013   3.180   0.770
 9118SOL    HW128253   0.105   3.143   0.759
 9118SOL    HW228254   0.016   3.264   0.824
 9119SOL     OW28255   3.849   0.753   2.465
 9119SOL    HW128256   3.889   0.723   2.552
 9119SOL    HW228257   3.911   0.730   2.390
 9120SOL     OW28258   6.447   1.466   5.918
 9120SOL    HW128259   6.404   1.434   6.002
 9120SOL    HW228260   6.536   1.421   5.907
 9121SOL     OW28261   4.086   0.324   5.581
 9121SOL    HW128262   4.173   0.359   5.615
 9121SOL    HW228263   4.099   0.232   5.543
 9122SOL     OW28264   2.576   4.591   2.094
 9122SOL    HW128265   2.654   4.594   2.033
 9122SOL    HW228266   2.608   4.593   2.189
 9123SOL     OW28267   2.526   0.878   4.239
 9123SOL    HW128268   2.467   0.831   4.173
 9123SOL    HW228269   2.557   0.965   4.200
 9124SOL     OW28270   4.931   5.372   0.620
 9124SOL    HW128271   4.971   5.282   0.602
 9124SOL    HW228272   5.004   5.439   0.630
 9125SOL     OW28273   4.227   4.191   0.720
 9125SOL    HW128274   4.296   4.153   0.659
 9125SOL    HW228275   4.238   4.290   0.726
 9126SOL     OW28276   5.975   3.153   1.254
 9126SOL    HW128277   5.876   3.166   1.248
 9126SOL    HW228278   6.010   3.202   1.334
 9127SOL     OW28279   6.314   1.422   6.517
 9127SOL    HW128280   6.413   1.428   6.502
 9127SOL    HW228281   6.272   1.370   6.442
 9128SOL     OW28282   5.888   2.254   5.355
 9128SOL    HW128283   5.798   2.213   5.373
 9128SOL    HW228284   5.886   2.350   5.382
 9129SOL     OW28285   0.375   3.058   6.976
 9129SOL    HW128286   0.428   2.974   6.986
 9129SOL    HW228287   0.384   3.114   0.035
 9130SOL     OW28288   1.062   3.332   6.193
 9130SOL    HW128289   1.046   3.429   6.182
 9130SOL    HW228290   1.139   3.304   6.135
 9131SOL     OW28291   5.081   2.190   5.990
 9131SOL    HW128292   5.132   2.263   6.036
 9131SOL    HW228293   5.142   2.140   5.929
 9132SOL     OW28294   0.420   5.698   4.414
 9132SOL    HW128295   0.331   5.702   4.369
 9132SOL    HW228296   0.407   5.688   4.513
 9133SOL     OW28297   3.990   6.540   1.453
 9133SOL    HW128298   4.007   6.457   1.505
 9133SOL    HW228299   3.915   6.591   1.496
 9134SOL     OW28300   3.610   5.633   2.072
 9134SOL    HW128301   3.649   5.726   2.072
 9134SOL    HW228302   3.682   5.567   2.052
 9135SOL     OW28303   0.165   0.771   1.626
 9135SOL    HW128304   0.166   0.673   1.646
 9135SOL    HW228305   0.071   0.805   1.632
 9136SOL     OW28306   5.024   5.945   6.985
 9136SOL    HW128307   5.083   5.918   6.909
 9136SOL    HW228308   5.073   5.931   0.047
 9137SOL     OW28309   4.882   1.227   0.080
 9137SOL    HW128310   4.908   1.323   0.072
 9137SOL    HW228311   4.909   1.192   0.170
 9138SOL     OW28312   0.381   5.248   6.645
 9138SOL    HW128313   0.286   5.279   6.655
 9138SOL    HW228314   0.411   5.263   6.551
 9139SOL     OW28315   1.803   2.202   2.739
 9139SOL    HW128316   1.895   2.162   2.729
 9139SOL    HW228317   1.736   2.141   2.698
 9140SOL     OW28318   6.796   3.839   2.482
 9140SOL    HW128319   6.839   3.855   2.393
 9140SOL    HW228320   6.699   3.817   2.470
 9141SOL     OW28321   5.906   6.777   1.621
 9141SOL    HW128322   5.953   6.763   1.708
 9141SOL    HW228323   5.838   6.706   1.608
 9142SOL     OW28324   0.808   3.363   1.758
 9142SOL    HW128325   0.854   3.451   1.769
 9142SOL    HW228326   0.766   3.358   1.668
 9143SOL     OW28327   6.255   2.489   0.020
 9143SOL    HW128328   6.285   2.546   0.096
 9143SOL    HW228329   6.330   2.430   7.015
 9144SOL     OW28330   2.412   5.230   4.728
 9144SOL    HW128331   2.318   5.262   4.719
 9144SOL    HW228332   2.475   5.297   4.687
 9145SOL     OW28333   0.218   5.701   6.912
 9145SOL    HW128334   0.279   5.773   6.946
 9145SOL    HW228335   0.259   5.660   6.830
 9146SOL     OW28336   5.314   3.197   3.758
 9146SOL    HW128337   5.360   3.197   3.669
 9146SOL    HW228338   5.297   3.103   3.786
 9147SOL     OW28339   6.130   6.747   4.930
 9147SOL    HW128340   6.076   6.729   4.847
 9147SOL    HW228341   6.137   6.662   4.983
 9148SOL     OW28342   5.154   5.920   2.539
 9148SOL    HW128343   5.136   5.872   2.625
 9148SOL    HW228344   5.223   5.871   2.487
 9149SOL     OW28345   5.144   3.405   2.224
 9149SOL    HW128346   5.123   3.480   2.286
 9149SOL    HW228347   5.097   3.420   2.137
 9150SOL     OW28348   2.992   5.145   1.033
 9150SOL    HW128349   3.050   5.177   0.958
 9150SOL    HW228350   2.917   5.209   1.046
 9151SOL     OW28351   1.845   4.427   3.811
 9151SOL    HW128352   1.877   4.420   3.906
 9151SOL    HW228353   1.761   4.374   3.800
 9152SOL     OW28354   2.187   4.120   4.408
 9152SOL    HW128355   2.090   4.106   4.426
 9152SOL    HW228356   2.200   4.142   4.311
 9153SOL     OW28357   0.540   2.614   0.366
 9153SOL    HW128358   0.523   2.522   0.402
 9153SOL    HW228359   0.635   2.621   0.336
 9154SOL     OW28360   5.997   4.354   5.218
 9154SOL    HW128361   5.952   4.336   5.305
 9154SOL    HW228362   6.052   4.438   5.226
 9155SOL     OW28363   1.790   4.243   2.959
 9155SOL    HW128364   1.806   4.153   2.998
 9155SOL    HW228365   1.706   4.241   2.904
 9156SOL     OW28366   6.948   1.863   0.622
 9156SOL    HW128367   0.002   1.806   0.648
 9156SOL    HW228368   6.932   1.932   0.693
 9157SOL     OW28369   2.596   4.402   0.132
 9157SOL    HW128370   2.693   4.382   0.118
 9157SOL    HW228371   2.587   4.483   0.190
 9158SOL     OW28372   6.750   4.166   4.895
 9158SOL    HW128373   6.814   4.243   4.891
 9158SOL    HW228374   6.662   4.194   4.858
 9159SOL     OW28375   1.660   0.551   3.361
 9159SOL    HW128376   1.650   0.602   3.276
 9159SOL    HW228377   1.643   0.454   3.344
 9160SOL     OW28378   0.450   6.218   5.977
 9160SOL    HW128379   0.448   6.172   6.066
 9160SOL    HW228380   0.380   6.290   5.975
 9161SOL     OW28381   5.614   5.168   3.537
 9161SOL    HW128382   5.669   5.246   3.566
 9161SOL    HW228383   5.671   5.102   3.489
 9162SOL     OW28384   4.023   0.503   3.087
 9162SOL    HW128385   3.932   0.499   3.046
 9162SOL    HW228386   4.089   0.532   3.019
 9163SOL     OW28387   0.014   3.198   3.954
 9163SOL    HW128388   0.069   3.205   4.037
 9163SOL    HW228389   7.011   3.290   3.925
 9164SOL     OW28390   2.033   0.820   6.576
 9164SOL    HW128391   1.979   0.755   6.629
 9164SOL    HW228392   2.051   0.902   6.631
 9165SOL     OW28393   5.508   1.643   5.872
 9165SOL    HW128394   5.419   1.677   5.904
 9165SOL    HW228395   5.500   1.546   5.850
 9166SOL     OW28396   4.540   5.224   0.569
 9166SOL    HW128397   4.511   5.235   0.474
 9166SOL    HW228398   4.566   5.313   0.607
 9167SOL     OW28399   2.118   2.060   5.679
 9167SOL    HW128400   2.113   2.146   5.628
 9167SOL    HW228401   2.045   2.057   5.747
 9168SOL     OW28402   0.036   6.225   6.766
 9168SOL    HW128403   6.992   6.243   6.837
 9168SOL    HW228404   0.024   6.132   6.730
 9169SOL     OW28405   6.992   6.613   6.559
 9169SOL    HW128406   6.963   6.639   6.467
 9169SOL    HW228407   6.981   6.514   6.571
 9170SOL     OW28408   1.784   7.012   6.357
 9170SOL    HW128409   1.753   7.015   6.452
 9170SOL    HW228410   1.714   0.025   6.297
 9171SOL     OW28411   3.702   5.897   0.885
 9171SOL    HW128412   3.668   5.985   0.917
 9171SOL    HW228413   3.762   5.910   0.805
 9172SOL     OW28414   4.681   1.003   3.957
 9172SOL    HW128415   4.760   1.029   3.902
 9172SOL    HW228416   4.631   1.085   3.986
 9173SOL     OW28417   6.429   3.897   5.398
 9173SOL    HW128418   6.399   3.878   5.304
 9173SOL    HW228419   6.356   3.872   5.461
 9174SOL     OW28420   0.633   5.402   1.022
 9174SOL    HW128421   0.665   5.448   0.939
 9174SOL    HW228422   0.694   5.424   1.098
 9175SOL     OW28423   1.164   6.807   6.467
 9175SOL    HW128424   1.109   6.870   6.413
 9175SOL    HW228425   1.122   6.793   6.556
 9176SOL     OW28426   3.121   0.530   2.244
 9176SOL    HW128427   3.112   0.466   2.320
 9176SOL    HW228428   3.043   0.592   2.243
 9177SOL     OW28429   1.034   3.094   4.220
 9177SOL    HW128430   0.993   3.159   4.284
 9177SOL    HW228431   1.124   3.067   4.254
 9178SOL     OW28432   2.057   5.101   6.556
 9178SOL    HW128433   2.010   5.015   6.572
 9178SOL    HW228434   2.028   5.169   6.624
 9179SOL     OW28435   1.616   5.201   4.625
 9179SOL    HW128436   1.649   5.203   4.719
 9179SOL    HW228437   1.684   5.242   4.564
 9180SOL     OW28438   5.822   2.451   3.353
 9180SOL    HW128439   5.774   2.405   3.279
 9180SOL    HW228440   5.816   2.396   3.436
 9181SOL     OW28441   5.250   2.288   3.799
 9181SOL    HW128442   5.325   2.242   3.752
 9181SOL    HW228443   5.287   2.355   3.864
 9182SOL     OW28444   3.068   0.018   3.129
 9182SOL    HW128445   3.151   7.002   3.169
 9182SOL    HW228446   3.063   0.115   3.154
 9183SOL     OW28447   4.711   4.803   6.982
 9183SOL    HW128448   4.787   4.827   0.018
 9183SOL    HW228449   4.642   4.875   6.985
 9184SOL     OW28450   4.342   2.310   1.113
 9184SOL    HW128451   4.285   2.253   1.055
 9184SOL    HW228452   4.425   2.336   1.064
 9185SOL     OW28453   6.983   6.651   4.770
 9185SOL    HW128454   6.909   6.718   4.762
 9185SOL    HW228455   0.022   6.662   4.694
 9186SOL     OW28456   5.172   0.575   4.963
 9186SOL    HW128457   5.219   0.659   4.936
 9186SOL    HW228458   5.077   0.595   4.984
 9187SOL     OW28459   3.952   1.916   0.012
 9187SOL    HW128460   3.939   1.933   6.939
 9187SOL    HW228461   3.999   1.828   0.023
 9188SOL     OW28462   1.918   0.922   1.299
 9188SOL    HW128463   1.879   0.856   1.363
 9188SOL    HW228464   1.941   1.006   1.348
 9189SOL     OW28465   3.652   6.229   2.567
 9189SOL    HW128466   3.621   6.215   2.473
 9189SOL    HW228467   3.707   6.312   2.572
 9190SOL     OW28468   0.608   3.718   5.399
 9190SOL    HW128469   0.529   3.769   5.363
 9190SOL    HW228470   0.582   3.667   5.480
 9191SOL     OW28471   5.785   1.069   6.468
 9191SOL    HW128472   5.687   1.063   6.487
 9191SOL    HW228473   5.822   0.977   6.457
 9192SOL     OW28474   6.562   2.314   6.500
 9192SOL    HW128475   6.495   2.378   6.537
 9192SOL    HW228476   6.590   2.250   6.571
 9193SOL     OW28477   4.014   3.689   4.503
 9193SOL    HW128478   4.005   3.756   4.430
 9193SOL    HW228479   4.064   3.609   4.470
 9194SOL     OW28480   2.936   6.725   2.313
 9194SOL    HW128481   2.963   6.727   2.216
 9194SOL    HW228482   2.893   6.812   2.336
 9195SOL     OW28483   1.854   3.369   2.914
 9195SOL    HW128484   1.819   3.430   2.843
 9195SOL    HW228485   1.779   3.341   2.974
 9196SOL     OW28486   5.266   6.589   3.436
 9196SOL    HW128487   5.237   6.533   3.358
 9196SOL    HW228488   5.188   6.645   3.467
 9197SOL     OW28489   2.897   5.422   0.971
 9197SOL    HW128490   2.808   5.424   0.927
 9197SOL    HW228491   2.960   5.482   0.921
 9198SOL     OW28492   6.421   4.246   6.898
 9198SOL    HW128493   6.349   4.224   6.832
 9198SOL    HW228494   6.476   4.321   6.864
 9199SOL     OW28495   0.722   2.988   6.046
 9199SOL    HW128496   0.714   2.905   6.101
 9199SOL    HW228497   0.765   3.061   6.100
 9200SOL     OW28498   2.259   5.929   5.486
 9200SOL    HW128499   2.202   5.975   5.554
 9200SOL    HW228500   2.353   5.961   5.494
 9201SOL     OW28501   0.630   2.683   0.819
 9201SOL    HW128502   0.566   2.686   0.743
 9201SOL    HW228503   0.688   2.602   0.811
 9202SOL     OW28504   0.615   5.967   3.526
 9202SOL    HW128505   0.581   5.924   3.610
 9202SOL    HW228506   0.714   5.970   3.528
 9203SOL     OW28507   5.748   3.064   6.024
 9203SOL    HW128508   5.759   3.163   6.039
 9203SOL    HW228509   5.651   3.043   6.015
 9204SOL     OW28510   5.012   3.482   3.969
 9204SOL    HW128511   5.057   3.403   3.927
 9204SOL    HW228512   4.956   3.451   4.046
 9205SOL     OW28513   4.590   5.851   3.190
 9205SOL    HW128514   4.631   5.784   3.251
 9205SOL    HW228515   4.588   5.814   3.097
 9206SOL     OW28516   3.313   6.522   3.653
 9206SOL    HW128517   3.364   6.511   3.738
 9206SOL    HW228518   3.352   6.463   3.582
 9207SOL     OW28519   3.660   5.055   0.308
 9207SOL    HW128520   3.712   4.975   0.338
 9207SOL    HW228521   3.682   5.076   0.213
 9208SOL     OW28522   5.451   4.169   2.017
 9208SOL    HW128523   5.523   4.113   1.974
 9208SOL    HW228524   5.492   4.230   2.085
 9209SOL     OW28525   4.411   0.308   1.307
 9209SOL    HW128526   4.503   0.286   1.338
 9209SOL    HW228527   4.415   0.371   1.229
 9210SOL     OW28528   0.566   0.562   1.636
 9210SOL    HW128529   0.597   0.568   1.541
 9210SOL    HW228530   0.607   0.637   1.689
 9211SOL     OW28531   5.673   3.207   6.858
 9211SOL    HW128532   5.692   3.289   6.803
 9211SOL    HW228533   5.594   3.225   6.917
 9212SOL     OW28534   4.887   4.420   4.592
 9212SOL    HW128535   4.793   4.404   4.562
 9212SOL    HW228536   4.920   4.507   4.555
 9213SOL     OW28537   4.777   6.093   4.623
 9213SOL    HW128538   4.838   6.025   4.583
 9213SOL    HW228539   4.827   6.148   4.690
 9214SOL     OW28540   6.977   2.674   5.314
 9214SOL    HW128541   7.018   2.765   5.318
 9214SOL    HW228542   6.978   2.641   5.220
 9215SOL     OW28543   1.406   5.053   2.475
 9215SOL    HW128544   1.436   4.973   2.424
 9215SOL    HW228545   1.467   5.130   2.455
 9216SOL     OW28546   2.538   6.471   3.814
 9216SOL    HW128547   2.618   6.445   3.761
 9216SOL    HW228548   2.456   6.465   3.757
 9217SOL     OW28549   6.018   2.543   0.407
 9217SOL    HW128550   6.012   2.470   0.339
 9217SOL    HW228551   5.963   2.519   0.487
 9218SOL     OW28552   4.332   0.319   6.985
 9218SOL    HW128553   4.301   0.356   0.048
 9218SOL    HW228554   4.253   0.296   6.929
 9219SOL     OW28555   4.206   3.723   5.987
 9219SOL    HW128556   4.264   3.732   6.068
 9219SOL    HW228557   4.213   3.805   5.931
 9220SOL     OW28558   1.690   6.558   2.088
 9220SOL    HW128559   1.697   6.525   2.182
 9220SOL    HW228560   1.748   6.638   2.075
 9221SOL     OW28561   2.828   0.118   4.241
 9221SOL    HW128562   2.867   0.078   4.158
 9221SOL    HW228563   2.750   0.176   4.216
 9222SOL     OW28564   2.522   5.650   4.737
 9222SOL    HW128565   2.534   5.584   4.812
 9222SOL    HW228566   2.447   5.713   4.759
 9223SOL     OW28567   0.981   2.856   4.067
 9223SOL    HW128568   0.935   2.863   3.978
 9223SOL    HW228569   0.962   2.939   4.120
 9224SOL     OW28570   1.321   4.730   3.363
 9224SOL    HW128571   1.415   4.724   3.329
 9224SOL    HW228572   1.261   4.761   3.289
 9225SOL     OW28573   3.516   5.868   5.844
 9225SOL    HW128574   3.606   5.827   5.859
 9225SOL    HW228575   3.483   5.909   5.930
 9226SOL     OW28576   0.501   6.545   1.258
 9226SOL    HW128577   0.482   6.490   1.340
 9226SOL    HW228578   0.543   6.631   1.285
 9227SOL     OW28579   1.682   6.253   1.438
 9227SOL    HW128580   1.751   6.182   1.424
 9227SOL    HW228581   1.670   6.306   1.354
 9228SOL     OW28582   2.181   2.414   0.432
 9228SOL    HW128583   2.134   2.343   0.483
 9228SOL    HW228584   2.278   2.390   0.423
 9229SOL     OW28585   1.329   4.844   5.787
 9229SOL    HW128586   1.323   4.933   5.743
 9229SOL    HW228587   1.244   4.825   5.836
 9230SOL     OW28588   5.033   3.314   3.074
 9230SOL    HW128589   5.080   3.369   3.006
 9230SOL    HW228590   4.980   3.242   3.029
 9231SOL     OW28591   1.319   3.056   5.371
 9231SOL    HW128592   1.249   3.038   5.302
 9231SOL    HW228593   1.399   3.097   5.327
 9232SOL     OW28594   2.672   5.186   0.389
 9232SOL    HW128595   2.645   5.274   0.349
 9232SOL    HW228596   2.753   5.199   0.446
 9233SOL     OW28597   0.116   6.710   0.643
 9233SOL    HW128598   0.177   6.633   0.660
 9233SOL    HW228599   0.097   6.717   0.545
 9234SOL     OW28600   2.644   5.825   0.812
 9234SOL    HW128601   2.707   5.847   0.887
 9234SOL    HW228602   2.693   5.835   0.725
 9235SOL     OW28603   1.909   3.121   3.114
 9235SOL    HW128604   1.889   3.035   3.161
 9235SOL    HW228605   1.826   3.175   3.107
 9236SOL     OW28606   1.694   3.919   0.113
 9236SOL    HW128607   1.750   3.837   0.118
 9236SOL    HW228608   1.709   3.964   0.025
 9237SOL     OW28609   0.322   5.521   3.532
 9237SOL    HW128610   0.240   5.465   3.542
 9237SOL    HW228611   0.297   5.611   3.497
 9238SOL     OW28612   2.779   2.697   5.984
 9238SOL    HW128613   2.824   2.610   5.965
 9238SOL    HW228614   2.683   2.682   6.006
 9239SOL     OW28615   0.047   4.223   6.759
 9239SOL    HW128616   7.005   4.169   6.809
 9239SOL    HW228617   0.127   4.167   6.737
 9240SOL     OW28618   5.005   3.036   1.898
 9240SOL    HW128619   4.926   3.061   1.954
 9240SOL    HW228620   4.982   3.048   1.801
 9241SOL     OW28621   0.219   5.337   0.835
 9241SOL    HW128622   0.251   5.417   0.885
 9241SOL    HW228623   0.121   5.346   0.815
 9242SOL     OW28624   1.433   3.713   1.490
 9242SOL    HW128625   1.339   3.679   1.486
 9242SOL    HW228626   1.474   3.689   1.578
 9243SOL     OW28627   6.618   0.650   1.533
 9243SOL    HW128628   6.686   0.723   1.544
 9243SOL    HW228629   6.662   0.561   1.547
 9244SOL     OW28630   2.722   5.672   6.000
 9244SOL    HW128631   2.745   5.655   6.096
 9244SOL    HW228632   2.678   5.591   5.962
 9245SOL     OW28633   0.974   4.738   3.412
 9245SOL    HW128634   0.990   4.799   3.490
 9245SOL    HW228635   0.962   4.792   3.329
 9246SOL     OW28636   5.923   0.165   2.733
 9246SOL    HW128637   5.973   0.175   2.646
 9246SOL    HW228638   5.883   0.074   2.738
 9247SOL     OW28639   2.480   6.226   2.815
 9247SOL    HW128640   2.430   6.142   2.795
 9247SOL    HW228641   2.541   6.248   2.739
 9248SOL     OW28642   2.910   2.010   4.359
 9248SOL    HW128643   2.935   2.029   4.264
 9248SOL    HW228644   2.938   2.086   4.417
 9249SOL     OW28645   4.368   4.902   1.203
 9249SOL    HW128646   4.430   4.942   1.270
 9249SOL    HW228647   4.309   4.973   1.165
 9250SOL     OW28648   6.153   2.937   4.612
 9250SOL    HW128649   6.244   2.896   4.606
 9250SOL    HW228650   6.109   2.906   4.696
 9251SOL     OW28651   3.922   1.672   2.522
 9251SOL    HW128652   3.971   1.688   2.436
 9251SOL    HW228653   3.947   1.742   2.588
 9252SOL     OW28654   4.905   0.535   4.679
 9252SOL    HW128655   4.846   0.486   4.744
 9252SOL    HW228656   4.853   0.609   4.636
 9253SOL     OW28657   5.377   4.840   5.742
 9253SOL    HW128658   5.358   4.905   5.815
 9253SOL    HW228659   5.347   4.879   5.655
 9254SOL     OW28660   4.409   4.536   3.336
 9254SOL    HW128661   4.315   4.566   3.353
 9254SOL    HW228662   4.436   4.564   3.244
 9255SOL     OW28663   4.863   3.928   0.280
 9255SOL    HW128664   4.915   3.924   0.366
 9255SOL    HW228665   4.877   4.017   0.236
 9256SOL     OW28666   2.658   0.741   2.379
 9256SOL    HW128667   2.560   0.739   2.396
 9256SOL    HW228668   2.696   0.649   2.395
 9257SOL     OW28669   6.083   5.163   3.441
 9257SOL    HW128670   6.164   5.185   3.387
 9257SOL    HW228671   6.102   5.181   3.537
 9258SOL     OW28672   4.184   3.091   1.723
 9258SOL    HW128673   4.134   3.005   1.714
 9258SOL    HW228674   4.171   3.128   1.815
 9259SOL     OW28675   1.240   1.665   0.887
 9259SOL    HW128676   1.150   1.702   0.908
 9259SOL    HW228677   1.237   1.565   0.895
 9260SOL     OW28678   6.228   1.914   5.705
 9260SOL    HW128679   6.252   1.824   5.670
 9260SOL    HW228680   6.138   1.941   5.669
 9261SOL     OW28681   3.953   1.555   0.306
 9261SOL    HW128682   3.901   1.626   0.354
 9261SOL    HW228683   3.890   1.491   0.264
 9262SOL     OW28684   0.360   5.630   5.152
 9262SOL    HW128685   0.429   5.666   5.215
 9262SOL    HW228686   0.294   5.574   5.203
 9263SOL     OW28687   3.126   6.482   2.698
 9263SOL    HW128688   3.052   6.454   2.636
 9263SOL    HW228689   3.136   6.413   2.770
 9264SOL     OW28690   4.741   4.562   0.401
 9264SOL    HW128691   4.668   4.508   0.442
 9264SOL    HW228692   4.719   4.582   0.306
 9265SOL     OW28693   3.082   2.568   6.973
 9265SOL    HW128694   3.169   2.530   7.003
 9265SOL    HW228695   3.016   2.565   0.024
 9266SOL     OW28696   1.488   5.993   0.805
 9266SOL    HW128697   1.544   5.912   0.822
 9266SOL    HW228698   1.397   5.965   0.775
 9267SOL     OW28699   6.999   2.051   4.729
 9267SOL    HW128700   6.982   1.987   4.654
 9267SOL    HW228701   0.062   2.097   4.715
 9268SOL     OW28702   1.817   0.139   2.380
 9268SOL    HW128703   1.754   0.062   2.373
 9268SOL    HW228704   1.885   0.133   2.307
 9269SOL     OW28705   4.215   1.076   6.124
 9269SOL    HW128706   4.148   1.097   6.195
 9269SOL    HW228707   4.192   1.125   6.040
 9270SOL     OW28708   4.369   6.817   5.776
 9270SOL    HW128709   4.276   6.838   5.807
 9270SOL    HW228710   4.431   6.889   5.804
 9271SOL     OW28711   6.100   6.825   0.276
 9271SOL    HW128712   6.148   6.753   0.226
 9271SOL    HW228713   6.097   6.802   0.373
 9272SOL     OW28714   1.264   5.322   5.736
 9272SOL    HW128715   1.233   5.413   5.708
 9272SOL    HW228716   1.363   5.322   5.744
 9273SOL     OW28717   6.072   6.419   3.149
 9273SOL    HW128718   6.035   6.362   3.222
 9273SOL    HW228719   6.042   6.383   3.061
 9274SOL     OW28720   0.340   1.571   0.243
 9274SOL    HW128721   0.297   1.486   0.273
 9274SOL    HW228722   0.279   1.648   0.261
 9275SOL     OW28723   6.463   0.849   6.962
 9275SOL    HW128724   6.537   0.912   6.987
 9275SOL    HW228725   6.499   0.756   6.960
 9276SOL     OW28726   1.627   4.362   1.080
 9276SOL    HW128727   1.549   4.402   1.032
 9276SOL    HW228728   1.620   4.381   1.178
 9277SOL     OW28729   4.592   4.566   1.907
 9277SOL    HW128730   4.540   4.634   1.957
 9277SOL    HW228731   4.568   4.474   1.940
 9278SOL     OW28732   1.781   0.134   5.380
 9278SOL    HW128733   1.748   0.083   5.459
 9278SOL    HW228734   1.710   0.136   5.309
 9279SOL     OW28735   2.563   0.225   1.633
 9279SOL    HW128736   2.597   0.311   1.594
 9279SOL    HW228737   2.472   0.205   1.596
 9280SOL     OW28738   2.681   1.582   2.673
 9280SOL    HW128739   2.596   1.593   2.620
 9280SOL    HW228740   2.709   1.486   2.671
 9281SOL     OW28741   3.389   4.046   6.896
 9281SOL    HW128742   3.374   4.092   6.809
 9281SOL    HW228743   3.485   4.020   6.904
 9282SOL     OW28744   5.321   1.521   3.898
 9282SOL    HW128745   5.377   1.591   3.855
 9282SOL    HW228746   5.328   1.436   3.846
 9283SOL     OW28747   4.482   0.557   4.319
 9283SOL    HW128748   4.549   0.525   4.252
 9283SOL    HW228749   4.402   0.593   4.272
 9284SOL     OW28750   2.950   2.656   5.370
 9284SOL    HW128751   2.896   2.727   5.324
 9284SOL    HW228752   2.924   2.566   5.335
 9285SOL     OW28753   5.109   3.509   1.529
 9285SOL    HW128754   5.188   3.513   1.590
 9285SOL    HW228755   5.025   3.508   1.584
 9286SOL     OW28756   5.723   5.886   1.045
 9286SOL    HW128757   5.788   5.925   1.110
 9286SOL    HW228758   5.664   5.821   1.092
 9287SOL     OW28759   3.856   4.784   6.609
 9287SOL    HW128760   3.877   4.881   6.599
 9287SOL    HW228761   3.778   4.772   6.670
 9288SOL     OW28762   4.687   1.637   2.718
 9288SOL    HW128763   4.673   1.539   2.700
 9288SOL    HW228764   4.745   1.648   2.798
 9289SOL     OW28765   4.818   0.012   1.401
 9289SOL    HW128766   4.864   0.009   1.312
 9289SOL    HW228767   4.865   6.976   1.465
 9290SOL     OW28768   5.169   0.726   3.648
 9290SOL    HW128769   5.225   0.654   3.607
 9290SOL    HW228770   5.228   0.802   3.675
 9291SOL     OW28771   1.265   5.088   5.601
 9291SOL    HW128772   1.332   5.101   5.528
 9291SOL    HW228773   1.248   5.175   5.648
 9292SOL     OW28774   2.299   2.506   6.413
 9292SOL    HW128775   2.313   2.605   6.414
 9292SOL    HW228776   2.298   2.474   6.318
 9293SOL     OW28777   6.222   3.833   6.591
 9293SOL    HW128778   6.192   3.885   6.511
 9293SOL    HW228779   6.213   3.890   6.673
 9294SOL     OW28780   5.480   0.974   6.047
 9294SOL    HW128781   5.407   0.985   5.979
 9294SOL    HW228782   5.500   1.062   6.088
 9295SOL     OW28783   5.162   0.206   5.601
 9295SOL    HW128784   5.204   0.167   5.684
 9295SOL    HW228785   5.225   0.198   5.524
 9296SOL     OW28786   2.115   5.451   0.264
 9296SOL    HW128787   2.148   5.506   0.187
 9296SOL    HW228788   2.102   5.511   0.343
 9297SOL     OW28789   0.812   7.004   2.911
 9297SOL    HW128790   0.742   0.050   2.899
 9297SOL    HW228791   0.800   6.960   3.000
 9298SOL     OW28792   0.816   6.585   6.443
 9298SOL    HW128793   0.823   6.596   6.344
 9298SOL    HW228794   0.860   6.499   6.470
 9299SOL     OW28795   0.766   2.096   4.373
 9299SOL    HW128796   0.756   2.035   4.295
 9299SOL    HW228797   0.812   2.047   4.448
 9300SOL     OW28798   0.687   4.627   5.963
 9300SOL    HW128799   0.632   4.611   5.881
 9300SOL    HW228800   0.702   4.725   5.975
 9301SOL     OW28801   5.493   5.517   4.591
 9301SOL    HW128802   5.478   5.419   4.605
 9301SOL    HW228803   5.584   5.531   4.550
 9302SOL     OW28804   2.089   3.503   4.099
 9302SOL    HW128805   2.001   3.458   4.111
 9302SOL    HW228806   2.162   3.446   4.138
 9303SOL     OW28807   3.112   3.682   0.711
 9303SOL    HW128808   3.208   3.663   0.689
 9303SOL    HW228809   3.055   3.659   0.633
 9304SOL     OW28810   4.407   4.419   0.767
 9304SOL    HW128811   4.380   4.421   0.863
 9304SOL    HW228812   4.337   4.465   0.712
 9305SOL     OW28813   3.817   0.792   0.722
 9305SOL    HW128814   3.892   0.746   0.769
 9305SOL    HW228815   3.768   0.727   0.665
 9306SOL     OW28816   1.148   3.380   5.641
 9306SOL    HW128817   1.183   3.461   5.594
 9306SOL    HW228818   1.222   3.337   5.693
 9307SOL     OW28819   1.296   3.709   1.054
 9307SOL    HW128820   1.276   3.760   0.970
 9307SOL    HW228821   1.379   3.746   1.096
 9308SOL     OW28822   1.582   3.262   1.827
 9308SOL    HW128823   1.559   3.268   1.730
 9308SOL    HW228824   1.499   3.275   1.881
 9309SOL     OW28825   2.623   5.578   5.641
 9309SOL    HW128826   2.606   5.481   5.662
 9309SOL    HW228827   2.720   5.598   5.652
 9310SOL     OW28828   5.706   5.733   5.792
 9310SOL    HW128829   5.646   5.794   5.844
 9310SOL    HW228830   5.799   5.770   5.791
 9311SOL     OW28831   5.020   4.719   1.233
 9311SOL    HW128832   5.116   4.703   1.211
 9311SOL    HW228833   4.971   4.632   1.230
 9312SOL     OW28834   1.867   2.537   1.210
 9312SOL    HW128835   1.812   2.574   1.284
 9312SOL    HW228836   1.810   2.523   1.129
 9313SOL     OW28837   0.157   0.485   1.614
 9313SOL    HW128838   0.247   0.445   1.601
 9313SOL    HW228839   0.090   0.436   1.558
 9314SOL     OW28840   6.769   3.419   6.892
 9314SOL    HW128841   6.803   3.362   6.967
 9314SOL    HW228842   6.675   3.393   6.869
 9315SOL     OW28843   0.027   6.731   5.618
 9315SOL    HW128844   7.012   6.787   5.690
 9315SOL    HW228845   0.045   6.787   5.538
 9316SOL     OW28846   6.310   6.109   5.466
 9316SOL    HW128847   6.406   6.138   5.464
 9316SOL    HW228848   6.283   6.077   5.376
 9317SOL     OW28849   4.533   5.647   4.315
 9317SOL    HW128850   4.453   5.698   4.283
 9317SOL    HW228851   4.533   5.556   4.273
 9318SOL     OW28852   6.316   0.301   6.623
 9318SOL    HW128853   6.301   0.399   6.638
 9318SOL    HW228854   6.392   0.269   6.680
 9319SOL     OW28855   2.721   3.029   1.421
 9319SOL    HW128856   2.648   3.095   1.437
 9319SOL    HW228857   2.694   2.939   1.456
 9320SOL     OW28858   3.968   0.468   5.278
 9320SOL    HW128859   3.953   0.504   5.187
 9320SOL    HW228860   4.003   0.374   5.272
 9321SOL     OW28861   1.069   0.704   5.008
 9321SOL    HW128862   0.974   0.726   5.031
 9321SOL    HW228863   1.131   0.752   5.070
 9322SOL     OW28864   0.214   4.373   6.943
 9322SOL    HW128865   0.137   4.334   6.893
 9322SOL    HW228866   0.198   4.470   6.960
 9323SOL     OW28867   0.964   1.105   4.521
 9323SOL    HW128868   0.877   1.054   4.522
 9323SOL    HW228869   1.040   1.040   4.522
 9324SOL     OW28870   1.950   4.135   2.432
 9324SOL    HW128871   1.853   4.126   2.411
 9324SOL    HW228872   1.987   4.046   2.457
 9325SOL     OW28873   6.888   0.317   0.058
 9325SOL    HW128874   6.872   0.219   0.055
 9325SOL    HW228875   6.953   0.339   0.130
 9326SOL     OW28876   2.486   5.005   0.411
 9326SOL    HW128877   2.576   5.047   0.399
 9326SOL    HW228878   2.428   5.028   0.333
 9327SOL     OW28879   4.300   0.047   2.691
 9327SOL    HW128880   4.290   0.146   2.686
 9327SOL    HW228881   4.303   0.019   2.787
 9328SOL     OW28882   2.349   0.845   4.826
 9328SOL    HW128883   2.401   0.767   4.792
 9328SOL    HW228884   2.377   0.928   4.778
 9329SOL     OW28885   5.968   4.128   0.922
 9329SOL    HW128886   5.987   4.050   0.863
 9329SOL    HW228887   6.045   4.191   0.921
 9330SOL     OW28888   6.635   0.351   5.829
 9330SOL    HW128889   6.616   0.271   5.771
 9330SOL    HW228890   6.734   0.363   5.837
 9331SOL     OW28891   2.303   1.161   6.120
 9331SOL    HW128892   2.269   1.248   6.087
 9331SOL    HW228893   2.392   1.142   6.080
 9332SOL     OW28894   3.350   5.267   0.600
 9332SOL    HW128895   3.291   5.338   0.562
 9332SOL    HW228896   3.355   5.279   0.699
 9333SOL     OW28897   3.775   5.716   6.596
 9333SOL    HW128898   3.733   5.792   6.646
 9333SOL    HW228899   3.875   5.724   6.600
 9334SOL     OW28900   4.500   6.190   4.880
 9334SOL    HW128901   4.494   6.247   4.798
 9334SOL    HW228902   4.536   6.100   4.856
 9335SOL     OW28903   1.904   1.347   6.987
 9335SOL    HW128904   1.996   1.308   6.991
 9335SOL    HW228905   1.892   1.413   0.037
 9336SOL     OW28906   4.396   6.892   4.569
 9336SOL    HW128907   4.451   6.820   4.611
 9336SOL    HW228908   4.456   6.953   4.517
 9337SOL     OW28909   5.117   1.091   5.572
 9337SOL    HW128910   5.136   0.995   5.595
 9337SOL    HW228911   5.067   1.134   5.647
 9338SOL     OW28912   6.070   6.979   0.999
 9338SOL    HW128913   6.111   6.936   1.080
 9338SOL    HW228914   6.043   0.048   1.022
 9339SOL     OW28915   6.246   5.970   0.110
 9339SOL    HW128916   6.318   5.980   0.042
 9339SOL    HW228917   6.244   6.050   0.170
 9340SOL     OW28918   3.674   4.877   3.181
 9340SOL    HW128919   3.763   4.886   3.136
 9340SOL    HW228920   3.617   4.813   3.130
 9341SOL     OW28921   5.538   4.539   0.757
 9341SOL    HW128922   5.616   4.574   0.808
 9341SOL    HW228923   5.558   4.446   0.724
 9342SOL     OW28924   2.406   0.110   4.656
 9342SOL    HW128925   2.473   0.128   4.729
 9342SOL    HW228926   2.400   0.012   4.640
 9343SOL     OW28927   4.790   4.133   2.024
 9343SOL    HW128928   4.767   4.044   2.064
 9343SOL    HW228929   4.756   4.206   2.083
 9344SOL     OW28930   5.201   6.102   1.203
 9344SOL    HW128931   5.262   6.082   1.279
 9344SOL    HW228932   5.190   6.201   1.195
 9345SOL     OW28933   6.541   4.958   1.340
 9345SOL    HW128934   6.455   4.907   1.346
 9345SOL    HW228935   6.522   5.049   1.302
 9346SOL     OW28936   4.335   0.713   1.722
 9346SOL    HW128937   4.325   0.715   1.622
 9346SOL    HW228938   4.364   0.622   1.750
 9347SOL     OW28939   3.108   5.779   0.296
 9347SOL    HW128940   3.166   5.732   0.230
 9347SOL    HW228941   3.075   5.864   0.256
 9348SOL     OW28942   2.734   5.481   2.327
 9348SOL    HW128943   2.636   5.499   2.333
 9348SOL    HW228944   2.783   5.543   2.388
 9349SOL     OW28945   6.786   5.354   2.159
 9349SOL    HW128946   6.762   5.261   2.184
 9349SOL    HW228947   6.819   5.357   2.065
 9350SOL     OW28948   6.498   1.556   4.545
 9350SOL    HW128949   6.456   1.620   4.609
 9350SOL    HW228950   6.453   1.467   4.553
 9351SOL     OW28951   3.465   0.017   6.463
 9351SOL    HW128952   3.544   7.016   6.519
 9351SOL    HW228953   3.488   0.097   6.408
 9352SOL     OW28954   3.551   2.038   6.380
 9352SOL    HW128955   3.494   2.120   6.371
 9352SOL    HW228956   3.498   1.958   6.350
 9353SOL     OW28957   1.134   4.647   1.387
 9353SOL    HW128958   1.182   4.724   1.346
 9353SOL    HW228959   1.053   4.680   1.436
 9354SOL     OW28960   0.100   1.876   6.179
 9354SOL    HW128961   0.140   1.903   6.092
 9354SOL    HW228962   0.147   1.795   6.214
 9355SOL     OW28963   0.164   1.574   4.554
 9355SOL    HW128964   0.212   1.507   4.610
 9355SOL    HW228965   0.222   1.654   4.539
 9356SOL     OW28966   4.959   5.906   2.293
 9356SOL    HW128967   5.039   5.845   2.291
 9356SOL    HW228968   4.894   5.878   2.222
 9357SOL     OW28969   2.956   3.236   6.291
 9357SOL    HW128970   2.887   3.220   6.362
 9357SOL    HW228971   3.038   3.275   6.332
 9358SOL     OW28972   5.957   3.044   2.399
 9358SOL    HW128973   5.870   3.011   2.435
 9358SOL    HW228974   6.007   3.091   2.472
 9359SOL     OW28975   0.972   3.576   5.730
 9359SOL    HW128976   0.996   3.657   5.676
 9359SOL    HW228977   1.054   3.521   5.745
 9360SOL     OW28978   1.742   5.969   6.473
 9360SOL    HW128979   1.663   6.029   6.457
 9360SOL    HW228980   1.812   5.989   6.405
 9361SOL     OW28981   1.312   6.445   3.021
 9361SOL    HW128982   1.282   6.521   2.962
 9361SOL    HW228983   1.294   6.469   3.116
 9362SOL     OW28984   2.215   2.927   2.824
 9362SOL    HW128985   2.130   2.964   2.863
 9362SOL    HW228986   2.206   2.920   2.724
 9363SOL     OW28987   3.840   6.635   1.828
 9363SOL    HW128988   3.935   6.640   1.797
 9363SOL    HW228989   3.835   6.577   1.909
 9364SOL     OW28990   3.686   2.682   6.287
 9364SOL    HW128991   3.700   2.596   6.335
 9364SOL    HW228992   3.759   2.746   6.310
 9365SOL     OW28993   2.209   1.992   4.994
 9365SOL    HW128994   2.175   2.085   4.982
 9365SOL    HW228995   2.221   1.949   4.904
 9366SOL     OW28996   3.226   6.480   6.979
 9366SOL    HW128997   3.264   6.426   0.029
 9366SOL    HW228998   3.277   6.567   6.972
 9367SOL     OW28999   6.636   6.255   2.767
 9367SOL    HW129000   6.675   6.163   2.771
 9367SOL    HW229001   6.642   6.298   2.858
 9368SOL     OW29002   2.738   1.258   3.674
 9368SOL    HW129003   2.674   1.289   3.745
 9368SOL    HW229004   2.819   1.220   3.717
 9369SOL     OW29005   6.819   6.446   4.581
 9369SOL    HW129006   6.872   6.519   4.625
 9369SOL    HW229007   6.740   6.423   4.637
 9370SOL     OW29008   4.923   0.612   2.312
 9370SOL    HW129009   4.886   0.520   2.310
 9370SOL    HW229010   5.022   0.609   2.296
 9371SOL     OW29011   1.710   4.840   0.830
 9371SOL    HW129012   1.798   4.796   0.845
 9371SOL    HW229013   1.710   4.929   0.876
 9372SOL     OW29014   5.534   5.945   2.555
 9372SOL    HW129015   5.565   6.034   2.587
 9372SOL    HW229016   5.438   5.951   2.526
 9373SOL     OW29017   4.588   1.918   2.360
 9373SOL    HW129018   4.603   1.878   2.270
 9373SOL    HW229019   4.559   1.847   2.424
 9374SOL     OW29020   0.717   3.426   0.611
 9374SOL    HW129021   0.715   3.470   0.701
 9374SOL    HW229022   0.794   3.362   0.607
 9375SOL     OW29023   6.919   1.392   2.771
 9375SOL    HW129024   6.991   1.414   2.705
 9375SOL    HW229025   6.870   1.476   2.796
 9376SOL     OW29026   3.102   4.897   1.126
 9376SOL    HW129027   3.063   4.974   1.076
 9376SOL    HW229028   3.185   4.865   1.079
 9377SOL     OW29029   2.018   5.232   4.186
 9377SOL    HW129030   1.955   5.192   4.119
 9377SOL    HW229031   2.063   5.159   4.237
 9378SOL     OW29032   1.751   1.087   5.266
 9378SOL    HW129033   1.733   1.155   5.337
 9378SOL    HW229034   1.733   1.127   5.176
 9379SOL     OW29035   3.761   5.660   5.501
 9379SOL    HW129036   3.696   5.630   5.430
 9379SOL    HW229037   3.729   5.627   5.590
 9380SOL     OW29038   5.490   5.000   4.717
 9380SOL    HW129039   5.538   5.070   4.664
 9380SOL    HW229040   5.536   4.988   4.805
 9381SOL     OW29041   3.700   2.392   6.069
 9381SOL    HW129042   3.695   2.491   6.054
 9381SOL    HW229043   3.622   2.348   6.025
 9382SOL     OW29044   3.500   0.676   3.475
 9382SOL    HW129045   3.523   0.580   3.459
 9382SOL    HW229046   3.502   0.725   3.387
 9383SOL     OW29047   1.335   5.995   4.669
 9383SOL    HW129048   1.267   6.021   4.738
 9383SOL    HW229049   1.303   5.913   4.622
 9384SOL     OW29050   4.026   0.196   2.390
 9384SOL    HW129051   3.952   0.185   2.323
 9384SOL    HW229052   3.997   0.260   2.462
 9385SOL     OW29053   4.325   0.774   3.528
 9385SOL    HW129054   4.419   0.803   3.545
 9385SOL    HW229055   4.306   0.690   3.579
 9386SOL     OW29056   1.980   5.888   4.926
 9386SOL    HW129057   1.976   5.977   4.880
 9386SOL    HW229058   1.933   5.895   5.014
 9387SOL     OW29059   2.771   1.669   6.786
 9387SOL    HW129060   2.761   1.646   6.689
 9387SOL    HW229061   2.699   1.732   6.814
 9388SOL     OW29062   2.380   5.748   2.558
 9388SOL    HW129063   2.407   5.781   2.649
 9388SOL    HW229064   2.282   5.762   2.546
 9389SOL     OW29065   2.016   6.978   3.792
 9389SOL    HW129066   2.094   6.915   3.783
 9389SOL    HW229067   2.043   0.031   3.848
 9390SOL     OW29068   4.689   4.683   5.164
 9390SOL    HW129069   4.674   4.779   5.189
 9390SOL    HW229070   4.744   4.639   5.235
 9391SOL     OW29071   2.736   1.610   4.899
 9391SOL    HW129072   2.804   1.585   4.968
 9391SOL    HW229073   2.759   1.566   4.812
 9392SOL     OW29074   6.436   0.028   5.315
 9392SOL    HW129075   6.410   0.011   5.410
 9392SOL    HW229076   6.392   6.985   5.256
 9393SOL     OW29077   3.583   6.553   6.476
 9393SOL    HW129078   3.599   6.479   6.541
 9393SOL    HW229079   3.626   6.531   6.389
 9394SOL     OW29080   0.132   1.429   2.063
 9394SOL    HW129081   0.153   1.472   1.975
 9394SOL    HW229082   0.154   1.493   2.137
 9395SOL     OW29083   2.936   1.737   1.144
 9395SOL    HW129084   2.947   1.696   1.235
 9395SOL    HW229085   2.924   1.836   1.153
 9396SOL     OW29086   2.052   5.061   3.699
 9396SOL    HW129087   2.068   5.156   3.725
 9396SOL    HW229088   2.037   5.054   3.600
 9397SOL     OW29089   4.692   0.208   6.258
 9397SOL    HW129090   4.775   0.262   6.249
 9397SOL    HW229091   4.712   0.112   6.241
 9398SOL     OW29092   6.563   0.540   4.820
 9398SOL    HW129093   6.604   0.521   4.731
 9398SOL    HW229094   6.480   0.594   4.808
 9399SOL     OW29095   0.382   1.900   5.677
 9399SOL    HW129096   0.337   1.875   5.591
 9399SOL    HW229097   0.378   1.824   5.741
 9400SOL     OW29098   4.102   0.873   1.762
 9400SOL    HW129099   4.184   0.816   1.773
 9400SOL    HW229100   4.121   0.945   1.695
 9401SOL     OW29101   6.029   0.594   3.464
 9401SOL    HW129102   5.981   0.507   3.467
 9401SOL    HW229103   6.001   0.646   3.383
 9402SOL     OW29104   1.369   5.501   3.223
 9402SOL    HW129105   1.307   5.430   3.257
 9402SOL    HW229106   1.431   5.461   3.155
 9403SOL     OW29107   6.218   1.524   3.151
 9403SOL    HW129108   6.123   1.512   3.125
 9403SOL    HW229109   6.247   1.449   3.210
 9404SOL     OW29110   1.545   3.596   0.190
 9404SOL    HW129111   1.624   3.593   0.128
 9404SOL    HW229112   1.532   3.505   0.230
 9405SOL     OW29113   1.809   4.928   3.054
 9405SOL    HW129114   1.773   5.020   3.036
 9405SOL    HW229115   1.755   4.861   3.002
 9406SOL     OW29116   6.806   3.214   5.891
 9406SOL    HW129117   6.877   3.272   5.852
 9406SOL    HW229118   6.717   3.240   5.854
 9407SOL     OW29119   2.774   5.121   2.897
 9407SOL    HW129120   2.679   5.153   2.897
 9407SOL    HW229121   2.792   5.071   2.982
 9408SOL     OW29122   5.887   2.554   6.115
 9408SOL    HW129123   5.825   2.565   6.037
 9408SOL    HW229124   5.861   2.617   6.188
 9409SOL     OW29125   5.887   6.060   0.026
 9409SOL    HW129126   5.918   5.965   0.034
 9409SOL    HW229127   5.960   6.116   7.013
 9410SOL     OW29128   2.835   0.333   1.418
 9410SOL    HW129129   2.918   0.378   1.385
 9410SOL    HW229130   2.787   0.395   1.481
 9411SOL     OW29131   3.156   2.947   2.314
 9411SOL    HW129132   3.145   2.999   2.229
 9411SOL    HW229133   3.111   2.858   2.305
 9412SOL     OW29134   6.952   2.164   2.705
 9412SOL    HW129135   7.004   2.249   2.697
 9412SOL    HW229136   7.014   2.087   2.716
 9413SOL     OW29137   3.194   5.983   3.332
 9413SOL    HW129138   3.201   5.909   3.265
 9413SOL    HW229139   3.257   5.966   3.408
 9414SOL     OW29140   2.830   0.853   3.232
 9414SOL    HW129141   2.753   0.900   3.276
 9414SOL    HW229142   2.899   0.831   3.301
 9415SOL     OW29143   2.862   6.835   1.485
 9415SOL    HW129144   2.822   6.911   1.535
 9415SOL    HW229145   2.833   6.749   1.525
 9416SOL     OW29146   0.279   2.406   0.440
 9416SOL    HW129147   0.347   2.388   0.511
 9416SOL    HW229148   0.272   2.505   0.426
 9417SOL     OW29149   4.859   0.661   0.230
 9417SOL    HW129150   4.803   0.641   0.150
 9417SOL    HW229151   4.923   0.735   0.208
 9418SOL     OW29152   4.330   6.587   0.983
 9418SOL    HW129153   4.415   6.638   0.995
 9418SOL    HW229154   4.306   6.583   0.886
 9419SOL     OW29155   3.235   5.207   5.971
 9419SOL    HW129156   3.304   5.233   5.902
 9419SOL    HW229157   3.158   5.163   5.925
 9420SOL     OW29158   0.048   3.731   6.055
 9420SOL    HW129159   6.988   3.677   6.057
 9420SOL    HW229160   0.047   3.797   6.131
 9421SOL     OW29161   2.167   6.471   4.080
 9421SOL    HW129162   2.220   6.424   4.150
 9421SOL    HW229163   2.134   6.406   4.012
 9422SOL     OW29164   3.303   5.187   3.277
 9422SOL    HW129165   3.395   5.201   3.239
 9422SOL    HW229166   3.276   5.268   3.329
 9423SOL     OW29167   3.039   0.135   3.635
 9423SOL    HW129168   3.120   0.185   3.604
 9423SOL    HW229169   3.001   0.083   3.559
 9424SOL     OW29170   4.928   1.073   4.254
 9424SOL    HW129171   4.945   1.164   4.293
 9424SOL    HW229172   5.005   1.013   4.274
 9425SOL     OW29173   6.347   2.990   0.421
 9425SOL    HW129174   6.348   2.901   0.376
 9425SOL    HW229175   6.320   2.979   0.517
 9426SOL     OW29176   3.767   1.381   6.206
 9426SOL    HW129177   3.726   1.471   6.190
 9426SOL    HW229178   3.787   1.337   6.118
 9427SOL     OW29179   2.592   4.558   3.395
 9427SOL    HW129180   2.501   4.599   3.405
 9427SOL    HW229181   2.644   4.574   3.479
 9428SOL     OW29182   6.517   0.852   1.090
 9428SOL    HW129183   6.484   0.920   1.155
 9428SOL    HW229184   6.551   0.772   1.141
 9429SOL     OW29185   2.047   3.723   2.798
 9429SOL    HW129186   2.112   3.684   2.864
 9429SOL    HW229187   2.055   3.674   2.711
 9430SOL     OW29188   0.575   3.921   3.395
 9430SOL    HW129189   0.658   3.876   3.428
 9430SOL    HW229190   0.595   3.973   3.313
 9431SOL     OW29191   6.246   3.692   1.077
 9431SOL    HW129192   6.310   3.621   1.046
 9431SOL    HW229193   6.245   3.767   1.011
 9432SOL     OW29194   5.319   0.346   3.407
 9432SOL    HW129195   5.321   0.246   3.414
 9432SOL    HW229196   5.226   0.376   3.383
 9433SOL     OW29197   2.609   5.936   2.467
 9433SOL    HW129198   2.686   5.894   2.419
 9433SOL    HW229199   2.555   5.865   2.512
 9434SOL     OW29200   4.930   5.258   2.806
 9434SOL    HW129201   4.990   5.331   2.772
 9434SOL    HW229202   4.945   5.175   2.752
 9435SOL     OW29203   0.257   2.376   5.246
 9435SOL    HW129204   0.198   2.306   5.207
 9435SOL    HW229205   0.290   2.346   5.336
 9436SOL     OW29206   1.506   2.815   1.127
 9436SOL    HW129207   1.475   2.726   1.093
 9436SOL    HW229208   1.503   2.881   1.053
 9437SOL     OW29209   0.846   5.855   2.864
 9437SOL    HW129210   0.877   5.886   2.954
 9437SOL    HW229211   0.912   5.882   2.794
 9438SOL     OW29212   6.991   0.105   1.594
 9438SOL    HW129213   6.957   0.020   1.553
 9438SOL    HW229214   0.050   0.133   1.546
 9439SOL     OW29215   0.851   3.527   1.335
 9439SOL    HW129216   0.940   3.573   1.339
 9439SOL    HW229217   0.848   3.455   1.405
 9440SOL     OW29218   4.167   4.696   3.423
 9440SOL    HW129219   4.154   4.702   3.324
 9440SOL    HW229220   4.097   4.752   3.469
 9441SOL     OW29221   0.176   3.465   5.647
 9441SOL    HW129222   0.257   3.431   5.694
 9441SOL    HW229223   0.191   3.559   5.617
 9442SOL     OW29224   4.924   3.160   0.988
 9442SOL    HW129225   4.967   3.238   1.033
 9442SOL    HW229226   4.946   3.161   0.891
 9443SOL     OW29227   2.061   5.096   0.674
 9443SOL    HW129228   2.102   5.034   0.607
 9443SOL    HW229229   2.052   5.049   0.762
 9444SOL     OW29230   1.394   3.354   0.336
 9444SOL    HW129231   1.347   3.357   0.425
 9444SOL    HW229232   1.349   3.287   0.277
 9445SOL     OW29233   5.941   3.386   3.458
 9445SOL    HW129234   5.859   3.413   3.408
 9445SOL    HW229235   6.020   3.436   3.422
 9446SOL     OW29236   6.264   5.836   3.496
 9446SOL    HW129237   6.298   5.750   3.533
 9446SOL    HW229238   6.288   5.842   3.399
 9447SOL     OW29239   5.776   4.013   3.568
 9447SOL    HW129240   5.680   4.023   3.541
 9447SOL    HW229241   5.827   4.094   3.541
 9448SOL     OW29242   0.648   0.190   6.848
 9448SOL    HW129243   0.645   0.120   6.919
 9448SOL    HW229244   0.704   0.267   6.880
 9449SOL     OW29245   6.299   6.459   0.608
 9449SOL    HW129246   6.330   6.553   0.603
 9449SOL    HW229247   6.230   6.442   0.537
 9450SOL     OW29248   1.765   5.718   4.860
 9450SOL    HW129249   1.710   5.725   4.943
 9450SOL    HW229250   1.857   5.751   4.878
 9451SOL     OW29251   4.077   0.142   6.059
 9451SOL    HW129252   4.002   0.096   6.011
 9451SOL    HW229253   4.097   0.229   6.014
 9452SOL     OW29254   1.633   3.873   0.674
 9452SOL    HW129255   1.594   3.857   0.765
 9452SOL    HW229256   1.588   3.813   0.608
 9453SOL     OW29257   2.263   4.939   3.154
 9453SOL    HW129258   2.286   4.949   3.251
 9453SOL    HW229259   2.347   4.936   3.100
 9454SOL     OW29260   3.649   3.143   6.361
 9454SOL    HW129261   3.560   3.158   6.404
 9454SOL    HW229262   3.644   3.171   6.265
 9455SOL     OW29263   2.918   1.961   3.553
 9455SOL    HW129264   2.990   2.029   3.547
 9455SOL    HW229265   2.941   1.882   3.496
 9456SOL     OW29266   0.266   3.342   0.941
 9456SOL    HW129267   0.258   3.320   1.038
 9456SOL    HW229268   0.304   3.434   0.931
 9457SOL     OW29269   2.123   3.492   5.424
 9457SOL    HW129270   2.175   3.554   5.483
 9457SOL    HW229271   2.166   3.488   5.334
 9458SOL     OW29272   1.327   3.124   0.227
 9458SOL    HW129273   1.283   3.074   0.153
 9458SOL    HW229274   1.424   3.102   0.229
 9459SOL     OW29275   5.112   4.358   3.819
 9459SOL    HW129276   5.096   4.410   3.735
 9459SOL    HW229277   5.091   4.261   3.803
 9460SOL     OW29278   1.353   3.321   4.088
 9460SOL    HW129279   1.446   3.351   4.069
 9460SOL    HW229280   1.316   3.372   4.166
 9461SOL     OW29281   0.264   1.797   1.491
 9461SOL    HW129282   0.357   1.835   1.487
 9461SOL    HW229283   0.198   1.872   1.500
 9462SOL     OW29284   2.163   3.936   3.118
 9462SOL    HW129285   2.122   3.978   3.037
 9462SOL    HW229286   2.169   3.837   3.105
 9463SOL     OW29287   6.052   0.684   1.984
 9463SOL    HW129288   5.985   0.712   1.915
 9463SOL    HW229289   6.140   0.727   1.964
 9464SOL     OW29290   5.938   0.389   0.359
 9464SOL    HW129291   6.023   0.386   0.411
 9464SOL    HW229292   5.920   0.299   0.319
 9465SOL     OW29293   1.554   4.526   2.687
 9465SOL    HW129294   1.489   4.577   2.630
 9465SOL    HW229295   1.590   4.449   2.635
 9466SOL     OW29296   3.876   4.407   5.902
 9466SOL    HW129297   3.925   4.332   5.856
 9466SOL    HW229298   3.942   4.465   5.950
 9467SOL     OW29299   1.406   2.312   2.181
 9467SOL    HW129300   1.385   2.402   2.220
 9467SOL    HW229301   1.325   2.254   2.189
 9468SOL     OW29302   5.465   3.412   6.105
 9468SOL    HW129303   5.454   3.422   6.006
 9468SOL    HW229304   5.492   3.318   6.126
 9469SOL     OW29305   6.455   5.715   1.647
 9469SOL    HW129306   6.389   5.644   1.624
 9469SOL    HW229307   6.453   5.730   1.746
 9470SOL     OW29308   4.869   3.034   5.796
 9470SOL    HW129309   4.861   2.987   5.884
 9470SOL    HW229310   4.852   3.131   5.807
 9471SOL     OW29311   6.664   1.744   4.381
 9471SOL    HW129312   6.579   1.693   4.397
 9471SOL    HW229313   6.731   1.684   4.338
 9472SOL     OW29314   6.813   3.284   5.497
 9472SOL    HW129315   6.734   3.313   5.442
 9472SOL    HW229316   6.878   3.235   5.439
 9473SOL     OW29317   2.356   5.175   6.560
 9473SOL    HW129318   2.414   5.104   6.601
 9473SOL    HW229319   2.261   5.142   6.557
 9474SOL     OW29320   0.490   2.785   6.783
 9474SOL    HW129321   0.549   2.744   6.853
 9474SOL    HW229322   0.528   2.765   6.693
 9475SOL     OW29323   3.312   3.310   6.869
 9475SOL    HW129324   3.399   3.306   6.919
 9475SOL    HW229325   3.285   3.218   6.842
 9476SOL     OW29326   3.621   4.130   4.679
 9476SOL    HW129327   3.573   4.188   4.613
 9476SOL    HW229328   3.562   4.054   4.705
 9477SOL     OW29329   0.391   3.392   1.862
 9477SOL    HW129330   0.419   3.296   1.850
 9477SOL    HW229331   0.335   3.420   1.784
 9478SOL     OW29332   4.773   3.005   0.286
 9478SOL    HW129333   4.810   3.096   0.306
 9478SOL    HW229334   4.814   2.938   0.349
 9479SOL     OW29335   4.068   6.245   6.570
 9479SOL    HW129336   4.086   6.198   6.484
 9479SOL    HW229337   3.970   6.249   6.587
 9480SOL     OW29338   5.299   3.889   0.630
 9480SOL    HW129339   5.205   3.862   0.648
 9480SOL    HW229340   5.305   3.989   0.627
 9481SOL     OW29341   4.850   3.001   2.264
 9481SOL    HW129342   4.810   2.909   2.269
 9481SOL    HW229343   4.829   3.041   2.174
 9482SOL     OW29344   0.507   1.728   3.458
 9482SOL    HW129345   0.439   1.668   3.499
 9482SOL    HW229346   0.595   1.681   3.454
 9483SOL     OW29347   1.951   1.801   1.259
 9483SOL    HW129348   1.958   1.783   1.160
 9483SOL    HW229349   2.038   1.777   1.303
 9484SOL     OW29350   4.388   0.571   3.948
 9484SOL    HW129351   4.487   0.575   3.964
 9484SOL    HW229352   4.343   0.528   4.026
 9485SOL     OW29353   0.055   0.822   0.462
 9485SOL    HW129354   0.131   0.885   0.474
 9485SOL    HW229355   6.993   0.870   0.476
 9486SOL     OW29356   3.880   6.697   1.019
 9486SOL    HW129357   3.810   6.727   1.084
 9486SOL    HW229358   3.836   6.667   0.934
 9487SOL     OW29359   3.528   3.742   3.688
 9487SOL    HW129360   3.554   3.784   3.774
 9487SOL    HW229361   3.607   3.693   3.650
 9488SOL     OW29362   2.264   6.612   1.094
 9488SOL    HW129363   2.286   6.657   1.180
 9488SOL    HW229364   2.171   6.635   1.066
 9489SOL     OW29365   4.585   4.644   1.629
 9489SOL    HW129366   4.586   4.600   1.719
 9489SOL    HW229367   4.600   4.576   1.558
 9490SOL     OW29368   6.496   4.766   1.895
 9490SOL    HW129369   6.591   4.777   1.924
 9490SOL    HW229370   6.458   4.854   1.869
 9491SOL     OW29371   5.928   4.907   4.154
 9491SOL    HW129372   5.918   4.817   4.196
 9491SOL    HW229373   5.945   4.976   4.224
 9492SOL     OW29374   3.501   2.854   3.587
 9492SOL    HW129375   3.404   2.866   3.565
 9492SOL    HW229376   3.527   2.759   3.570
 9493SOL     OW29377   3.337   5.661   3.958
 9493SOL    HW129378   3.371   5.648   4.052
 9493SOL    HW229379   3.303   5.574   3.922
 9494SOL     OW29380   4.882   3.609   2.117
 9494SOL    HW129381   4.826   3.561   2.050
 9494SOL    HW229382   4.949   3.666   2.070
 9495SOL     OW29383   6.540   2.136   3.648
 9495SOL    HW129384   6.474   2.096   3.712
 9495SOL    HW229385   6.631   2.135   3.689
 9496SOL     OW29386   6.472   4.079   1.454
 9496SOL    HW129387   6.521   4.085   1.367
 9496SOL    HW229388   6.376   4.102   1.439
 9497SOL     OW29389   5.942   6.171   6.360
 9497SOL    HW129390   5.999   6.155   6.441
 9497SOL    HW229391   5.866   6.107   6.360
 9498SOL     OW29392   4.384   6.792   3.994
 9498SOL    HW129393   4.352   6.738   4.071
 9498SOL    HW229394   4.428   6.875   4.028
 9499SOL     OW29395   2.314   5.392   6.219
 9499SOL    HW129396   2.359   5.303   6.210
 9499SOL    HW229397   2.325   5.426   6.312
 9500SOL     OW29398   5.265   0.136   0.781
 9500SOL    HW129399   5.199   0.166   0.712
 9500SOL    HW229400   5.215   0.099   0.860
 9501SOL     OW29401   3.351   1.169   4.585
 9501SOL    HW129402   3.360   1.256   4.535
 9501SOL    HW229403   3.441   1.143   4.621
 9502SOL     OW29404   5.341   2.739   5.040
 9502SOL    HW129405   5.409   2.680   4.996
 9502SOL    HW229406   5.281   2.778   4.971
 9503SOL     OW29407   0.491   1.539   1.418
 9503SOL    HW129408   0.512   1.635   1.402
 9503SOL    HW229409   0.501   1.518   1.516
 9504SOL     OW29410   0.329   2.696   0.640
 9504SOL    HW129411   0.321   2.617   0.701
 9504SOL    HW229412   0.260   2.690   0.568
 9505SOL     OW29413   4.813   4.642   3.598
 9505SOL    HW129414   4.890   4.596   3.642
 9505SOL    HW229415   4.747   4.574   3.565
 9506SOL     OW29416   0.994   2.206   6.569
 9506SOL    HW129417   0.956   2.299   6.572
 9506SOL    HW229418   1.039   2.191   6.481
 9507SOL     OW29419   1.146   2.143   3.196
 9507SOL    HW129420   1.051   2.113   3.183
 9507SOL    HW229421   1.183   2.173   3.108
 9508SOL     OW29422   6.272   2.533   0.924
 9508SOL    HW129423   6.308   2.504   0.835
 9508SOL    HW229424   6.348   2.554   0.986
 9509SOL     OW29425   0.652   1.223   4.065
 9509SOL    HW129426   0.725   1.257   4.005
 9509SOL    HW229427   0.649   1.123   4.061
 9510SOL     OW29428   1.457   3.481   3.205
 9510SOL    HW129429   1.423   3.400   3.253
 9510SOL    HW229430   1.408   3.492   3.119
 9511SOL     OW29431   0.986   0.395   0.458
 9511SOL    HW129432   0.983   0.480   0.406
 9511SOL    HW229433   0.917   0.399   0.531
 9512SOL     OW29434   5.940   1.727   1.765
 9512SOL    HW129435   5.932   1.630   1.791
 9512SOL    HW229436   5.976   1.779   1.842
 9513SOL     OW29437   2.344   3.924   6.607
 9513SOL    HW129438   2.377   3.940   6.700
 9513SOL    HW229439   2.422   3.920   6.544
 9514SOL     OW29440   2.567   5.137   5.978
 9514SOL    HW129441   2.659   5.132   6.018
 9514SOL    HW229442   2.544   5.049   5.937
 9515SOL     OW29443   2.226   5.633   0.845
 9515SOL    HW129444   2.181   5.723   0.844
 9515SOL    HW229445   2.158   5.563   0.868
 9516SOL     OW29446   5.375   4.358   5.414
 9516SOL    HW129447   5.344   4.437   5.467
 9516SOL    HW229448   5.388   4.280   5.476
 9517SOL     OW29449   1.547   5.020   1.063
 9517SOL    HW129450   1.554   5.056   1.156
 9517SOL    HW229451   1.622   5.055   1.007
 9518SOL     OW29452   2.613   2.606   6.942
 9518SOL    HW129453   2.548   2.682   6.939
 9518SOL    HW229454   2.696   2.631   6.892
 9519SOL     OW29455   4.050   3.506   4.851
 9519SOL    HW129456   3.969   3.565   4.851
 9519SOL    HW229457   4.117   3.541   4.916
 9520SOL     OW29458   1.423   1.534   3.401
 9520SOL    HW129459   1.444   1.509   3.306
 9520SOL    HW229460   1.501   1.511   3.459
 9521SOL     OW29461   4.879   5.340   1.494
 9521SOL    HW129462   4.949   5.359   1.562
 9521SOL    HW229463   4.789   5.366   1.530
 9522SOL     OW29464   3.261   5.400   1.372
 9522SOL    HW129465   3.177   5.410   1.426
 9522SOL    HW229466   3.333   5.457   1.411
 9523SOL     OW29467   2.721   4.759   5.233
 9523SOL    HW129468   2.799   4.710   5.192
 9523SOL    HW229469   2.636   4.717   5.201
 9524SOL     OW29470   3.638   3.035   0.750
 9524SOL    HW129471   3.697   3.114   0.764
 9524SOL    HW229472   3.610   2.999   0.839
 9525SOL     OW29473   2.390   2.427   5.548
 9525SOL    HW129474   2.318   2.366   5.515
 9525SOL    HW229475   2.479   2.393   5.519
 9526SOL     OW29476   6.360   5.010   1.799
 9526SOL    HW129477   6.431   5.075   1.773
 9526SOL    HW229478   6.293   5.001   1.725
 9527SOL     OW29479   0.328   0.592   4.255
 9527SOL    HW129480   0.306   0.590   4.353
 9527SOL    HW229481   0.347   0.499   4.224
 9528SOL     OW29482   0.000   1.524   0.515
 9528SOL    HW129483   7.010   1.604   0.457
 9528SOL    HW229484   0.098   1.501   0.516
 9529SOL     OW29485   6.278   3.593   6.718
 9529SOL    HW129486   6.278   3.681   6.670
 9529SOL    HW229487   6.256   3.520   6.653
 9530SOL     OW29488   1.590   4.286   2.499
 9530SOL    HW129489   1.618   4.239   2.416
 9530SOL    HW229490   1.491   4.280   2.509
 9531SOL     OW29491   4.192   5.084   2.848
 9531SOL    HW129492   4.238   5.127   2.926
 9531SOL    HW229493   4.260   5.057   2.780
 9532SOL     OW29494   6.443   6.980   1.347
 9532SOL    HW129495   6.461   0.039   1.399
 9532SOL    HW229496   6.465   6.900   1.403
 9533SOL     OW29497   7.021   5.821   5.644
 9533SOL    HW129498   6.923   5.839   5.648
 9533SOL    HW229499   0.021   5.756   5.717
 9534SOL     OW29500   0.531   4.211   4.953
 9534SOL    HW129501   0.490   4.296   4.918
 9534SOL    HW229502   0.571   4.229   5.043
 9535SOL     OW29503   1.976   1.297   6.541
 9535SOL    HW129504   2.041   1.260   6.475
 9535SOL    HW229505   2.010   1.383   6.578
 9536SOL     OW29506   2.718   4.134   5.589
 9536SOL    HW129507   2.645   4.192   5.554
 9536SOL    HW229508   2.780   4.108   5.514
 9537SOL     OW29509   2.895   6.621   3.381
 9537SOL    HW129510   2.945   6.669   3.453
 9537SOL    HW229511   2.879   6.684   3.304
 9538SOL     OW29512   5.831   2.291   3.592
 9538SOL    HW129513   5.930   2.277   3.589
 9538SOL    HW229514   5.805   2.324   3.682
 9539SOL     OW29515   2.898   3.764   5.163
 9539SOL    HW129516   2.930   3.669   5.165
 9539SOL    HW229517   2.818   3.774   5.221
 9540SOL     OW29518   5.711   4.114   4.252
 9540SOL    HW129519   5.671   4.028   4.281
 9540SOL    HW229520   5.746   4.105   4.158
 9541SOL     OW29521   4.175   0.624   5.650
 9541SOL    HW129522   4.101   0.597   5.711
 9541SOL    HW229523   4.248   0.555   5.654
 9542SOL     OW29524   5.280   4.609   4.579
 9542SOL    HW129525   5.320   4.666   4.508
 9542SOL    HW229526   5.327   4.521   4.582
 9543SOL     OW29527   3.811   0.677   5.032
 9543SOL    HW129528   3.870   0.597   5.040
 9543SOL    HW229529   3.852   0.754   5.082
 9544SOL     OW29530   6.879   1.890   3.756
 9544SOL    HW129531   6.959   1.831   3.743
 9544SOL    HW229532   6.796   1.840   3.733
 9545SOL     OW29533   5.969   5.578   4.086
 9545SOL    HW129534   5.899   5.639   4.124
 9545SOL    HW229535   5.996   5.512   4.157
 9546SOL     OW29536   3.820   2.119   5.330
 9546SOL    HW129537   3.866   2.204   5.305
 9546SOL    HW229538   3.796   2.121   5.427
 9547SOL     OW29539   2.112   6.197   4.379
 9547SOL    HW129540   2.111   6.119   4.442
 9547SOL    HW229541   2.025   6.246   4.385
 9548SOL     OW29542   6.382   5.367   6.276
 9548SOL    HW129543   6.350   5.299   6.210
 9548SOL    HW229544   6.426   5.442   6.226
 9549SOL     OW29545   2.688   2.747   1.310
 9549SOL    HW129546   2.680   2.665   1.254
 9549SOL    HW229547   2.771   2.742   1.365
 9550SOL     OW29548   0.981   1.789   0.380
 9550SOL    HW129549   0.960   1.691   0.380
 9550SOL    HW229550   0.971   1.825   0.473
 9551SOL     OW29551   5.693   1.181   4.897
 9551SOL    HW129552   5.613   1.207   4.951
 9551SOL    HW229553   5.679   1.089   4.859
 9552SOL     OW29554   1.506   6.703   3.372
 9552SOL    HW129555   1.514   6.739   3.465
 9552SOL    HW229556   1.586   6.646   3.352
 9553SOL     OW29557   6.434   4.050   6.554
 9553SOL    HW129558   6.389   4.102   6.481
 9553SOL    HW229559   6.468   3.964   6.517
 9554SOL     OW29560   1.711   0.091   1.314
 9554SOL    HW129561   1.779   0.125   1.249
 9554SOL    HW229562   1.638   0.159   1.325
 9555SOL     OW29563   1.093   1.158   2.961
 9555SOL    HW129564   1.131   1.111   3.040
 9555SOL    HW229565   1.165   1.178   2.895
 9556SOL     OW29566   1.572   2.815   2.102
 9556SOL    HW129567   1.627   2.765   2.169
 9556SOL    HW229568   1.514   2.881   2.149
 9557SOL     OW29569   0.464   0.339   2.674
 9557SOL    HW129570   0.471   0.379   2.583
 9557SOL    HW229571   0.375   0.294   2.685
 9558SOL     OW29572   6.165   6.637   4.497
 9558SOL    HW129573   6.203   6.545   4.508
 9558SOL    HW229574   6.238   6.705   4.506
 9559SOL     OW29575   0.387   4.262   0.977
 9559SOL    HW129576   0.479   4.223   0.968
 9559SOL    HW229577   0.390   4.335   1.045
 9560SOL     OW29578   1.582   2.046   3.612
 9560SOL    HW129579   1.592   2.096   3.698
 9560SOL    HW229580   1.672   2.022   3.576
 9561SOL     OW29581   1.637   6.444   0.260
 9561SOL    HW129582   1.566   6.403   0.316
 9561SOL    HW229583   1.705   6.375   0.234
 9562SOL     OW29584   3.606   0.181   5.823
 9562SOL    HW129585   3.601   0.275   5.859
 9562SOL    HW229586   3.602   0.116   5.899
 9563SOL     OW29587   6.246   0.289   0.773
 9563SOL    HW129588   6.199   0.212   0.729
 9563SOL    HW229589   6.340   0.262   0.794
 9564SOL     OW29590   2.749   0.098   0.005
 9564SOL    HW129591   2.708   0.045   0.079
 9564SOL    HW229592   2.731   0.052   6.942
 9565SOL     OW29593   4.009   6.432   4.497
 9565SOL    HW129594   3.937   6.495   4.468
 9565SOL    HW229595   3.977   6.376   4.573
 9566SOL     OW29596   1.758   5.101   0.355
 9566SOL    HW129597   1.724   5.034   0.289
 9566SOL    HW229598   1.845   5.139   0.323
 9567SOL     OW29599   5.611   4.452   6.751
 9567SOL    HW129600   5.645   4.503   6.672
 9567SOL    HW229601   5.512   4.441   6.744
 9568SOL     OW29602   4.775   2.370   6.344
 9568SOL    HW129603   4.712   2.358   6.267
 9568SOL    HW229604   4.744   2.315   6.421
 9569SOL     OW29605   0.191   1.321   2.990
 9569SOL    HW129606   0.106   1.300   3.038
 9569SOL    HW229607   0.180   1.406   2.939
 9570SOL     OW29608   1.139   3.217   2.361
 9570SOL    HW129609   1.222   3.236   2.308
 9570SOL    HW229610   1.113   3.121   2.350
 9571SOL     OW29611   2.810   3.692   6.712
 9571SOL    HW129612   2.724   3.661   6.752
 9571SOL    HW229613   2.846   3.769   6.765
 9572SOL     OW29614   1.752   5.766   1.975
 9572SOL    HW129615   1.758   5.673   2.009
 9572SOL    HW229616   1.656   5.794   1.969
 9573SOL     OW29617   1.221   0.790   6.733
 9573SOL    HW129618   1.256   0.820   6.645
 9573SOL    HW229619   1.122   0.804   6.737
 9574SOL     OW29620   4.102   3.626   4.215
 9574SOL    HW129621   4.026   3.566   4.239
 9574SOL    HW229622   4.080   3.720   4.241
 9575SOL     OW29623   6.494   1.314   1.552
 9575SOL    HW129624   6.500   1.262   1.637
 9575SOL    HW229625   6.432   1.268   1.488
 9576SOL     OW29626   2.142   0.299   2.187
 9576SOL    HW129627   2.069   0.356   2.227
 9576SOL    HW229628   2.204   0.270   2.259
 9577SOL     OW29629   1.113   0.601   4.764
 9577SOL    HW129630   1.100   0.632   4.858
 9577SOL    HW229631   1.205   0.565   4.753
 9578SOL     OW29632   0.776   3.741   3.174
 9578SOL    HW129633   0.681   3.732   3.146
 9578SOL    HW229634   0.782   3.734   3.274
 9579SOL     OW29635   1.889   5.249   2.708
 9579SOL    HW129636   1.887   5.336   2.757
 9579SOL    HW229637   1.959   5.189   2.747
 9580SOL     OW29638   4.066   3.070   0.840
 9580SOL    HW129639   4.156   3.096   0.802
 9580SOL    HW229640   4.018   3.013   0.774
 9581SOL     OW29641   0.836   5.395   6.542
 9581SOL    HW129642   0.788   5.399   6.454
 9581SOL    HW229643   0.813   5.476   6.596
 9582SOL     OW29644   4.876   4.897   4.977
 9582SOL    HW129645   4.923   4.881   5.064
 9582SOL    HW229646   4.838   4.811   4.944
 9583SOL     OW29647   3.775   4.777   1.251
 9583SOL    HW129648   3.756   4.836   1.172
 9583SOL    HW229649   3.858   4.810   1.297
 9584SOL     OW29650   6.669   6.473   6.885
 9584SOL    HW129651   6.615   6.394   6.858
 9584SOL    HW229652   6.608   6.548   6.911
 9585SOL     OW29653   6.081   0.133   4.131
 9585SOL    HW129654   6.160   0.100   4.183
 9585SOL    HW229655   6.014   0.171   4.194
 9586SOL     OW29656   5.672   4.052   2.572
 9586SOL    HW129657   5.585   4.022   2.610
 9586SOL    HW229658   5.673   4.038   2.473
 9587SOL     OW29659   6.797   1.301   2.153
 9587SOL    HW129660   6.732   1.242   2.200
 9587SOL    HW229661   6.769   1.396   2.161
 9588SOL     OW29662   0.455   1.828   2.457
 9588SOL    HW129663   0.406   1.790   2.535
 9588SOL    HW229664   0.552   1.803   2.463
 9589SOL     OW29665   2.357   5.301   5.475
 9589SOL    HW129666   2.271   5.351   5.464
 9589SOL    HW229667   2.337   5.206   5.500
 9590SOL     OW29668   0.397   4.020   2.129
 9590SOL    HW129669   0.369   3.956   2.200
 9590SOL    HW229670   0.494   4.006   2.108
 9591SOL     OW29671   3.182   6.111   6.731
 9591SOL    HW129672   3.144   6.115   6.823
 9591SOL    HW229673   3.213   6.018   6.712
 9592SOL     OW29674   3.642   4.261   1.292
 9592SOL    HW129675   3.701   4.246   1.372
 9592SOL    HW229676   3.607   4.173   1.260
 9593SOL     OW29677   6.645   6.856   4.536
 9593SOL    HW129678   6.704   6.850   4.617
 9593SOL    HW229679   6.678   6.793   4.466
 9594SOL     OW29680   1.532   6.303   2.926
 9594SOL    HW129681   1.614   6.360   2.923
 9594SOL    HW229682   1.455   6.357   2.961
 9595SOL     OW29683   2.085   4.408   5.122
 9595SOL    HW129684   2.030   4.480   5.080
 9595SOL    HW229685   2.146   4.448   5.191
 9596SOL     OW29686   6.945   6.315   0.459
 9596SOL    HW129687   7.000   6.263   0.524
 9596SOL    HW229688   6.869   6.258   0.427
 9597SOL     OW29689   0.410   4.792   0.819
 9597SOL    HW129690   0.416   4.882   0.776
 9597SOL    HW229691   0.493   4.776   0.873
 9598SOL     OW29692   0.972   3.698   5.158
 9598SOL    HW129693   0.941   3.657   5.072
 9598SOL    HW229694   1.072   3.696   5.163
 9599SOL     OW29695   3.524   0.494   5.298
 9599SOL    HW129696   3.479   0.424   5.243
 9599SOL    HW229697   3.622   0.494   5.279
 9600SOL     OW29698   2.520   6.955   0.499
 9600SOL    HW129699   2.585   6.914   0.563
 9600SOL    HW229700   2.569   6.985   0.417
 9601SOL     OW29701   6.425   3.783   0.347
 9601SOL    HW129702   6.509   3.770   0.294
 9601SOL    HW229703   6.384   3.693   0.366
 9602SOL     OW29704   6.785   4.788   6.593
 9602SOL    HW129705   6.777   4.693   6.562
 9602SOL    HW229706   6.881   4.814   6.596
 9603SOL     OW29707   3.413   1.116   4.947
 9603SOL    HW129708   3.330   1.099   4.894
 9603SOL    HW229709   3.490   1.129   4.885
 9604SOL     OW29710   4.960   0.779   0.647
 9604SOL    HW129711   4.932   0.768   0.743
 9604SOL    HW229712   4.900   0.724   0.588
 9605SOL     OW29713   1.106   4.963   4.704
 9605SOL    HW129714   1.016   4.919   4.714
 9605SOL    HW229715   1.176   4.906   4.746
 9606SOL     OW29716   1.391   6.024   5.586
 9606SOL    HW129717   1.423   5.992   5.497
 9606SOL    HW229718   1.468   6.033   5.649
 9607SOL     OW29719   1.455   2.265   1.900
 9607SOL    HW129720   1.422   2.304   1.986
 9607SOL    HW229721   1.390   2.284   1.827
 9608SOL     OW29722   6.777   6.485   1.912
 9608SOL    HW129723   6.731   6.413   1.964
 9608SOL    HW229724   6.711   6.559   1.893
 9609SOL     OW29725   2.339   3.967   6.143
 9609SOL    HW129726   2.260   3.913   6.171
 9609SOL    HW229727   2.313   4.028   6.068
 9610SOL     OW29728   2.118   4.663   3.668
 9610SOL    HW129729   2.024   4.686   3.694
 9610SOL    HW229730   2.121   4.569   3.635
 9611SOL     OW29731   0.354   0.067   0.178
 9611SOL    HW129732   0.384   6.997   0.186
 9611SOL    HW229733   0.375   0.101   0.086
 9612SOL     OW29734   6.568   3.278   1.634
 9612SOL    HW129735   6.623   3.252   1.554
 9612SOL    HW229736   6.476   3.241   1.625
 9613SOL     OW29737   3.975   6.865   3.420
 9613SOL    HW129738   3.980   6.869   3.520
 9613SOL    HW229739   3.884   6.894   3.390
 9614SOL     OW29740   4.124   2.680   0.869
 9614SOL    HW129741   4.052   2.728   0.818
 9614SOL    HW229742   4.179   2.626   0.805
 9615SOL     OW29743   0.953   6.873   2.066
 9615SOL    HW129744   0.942   6.793   2.007
 9615SOL    HW229745   0.865   6.896   2.108
 9616SOL     OW29746   4.539   3.417   0.611
 9616SOL    HW129747   4.458   3.392   0.558
 9616SOL    HW229748   4.529   3.512   0.644
 9617SOL     OW29749   0.829   3.887   4.470
 9617SOL    HW129750   0.895   3.823   4.432
 9617SOL    HW229751   0.807   3.958   4.403
 9618SOL     OW29752   4.437   0.213   6.328
 9618SOL    HW129753   4.530   0.246   6.313
 9618SOL    HW229754   4.390   0.276   6.390
 9619SOL     OW29755   1.190   0.372   0.242
 9619SOL    HW129756   1.160   0.294   0.188
 9619SOL    HW229757   1.126   0.389   0.316
 9620SOL     OW29758   5.677   1.811   6.779
 9620SOL    HW129759   5.734   1.750   6.834
 9620SOL    HW229760   5.641   1.884   6.837
 9621SOL     OW29761   1.503   1.400   3.100
 9621SOL    HW129762   1.421   1.450   3.127
 9621SOL    HW229763   1.527   1.334   3.171
 9622SOL     OW29764   5.931   1.174   6.666
 9622SOL    HW129765   5.908   1.113   6.742
 9622SOL    HW229766   5.883   1.143   6.584
 9623SOL     OW29767   3.806   5.203   5.520
 9623SOL    HW129768   3.798   5.255   5.435
 9623SOL    HW229769   3.800   5.266   5.597
 9624SOL     OW29770   5.756   4.421   3.737
 9624SOL    HW129771   5.710   4.414   3.825
 9624SOL    HW229772   5.817   4.500   3.737
 9625SOL     OW29773   5.266   5.427   0.065
 9625SOL    HW129774   5.256   5.510   0.121
 9625SOL    HW229775   5.298   5.352   0.122
 9626SOL     OW29776   2.582   6.149   5.904
 9626SOL    HW129777   2.644   6.077   5.934
 9626SOL    HW229778   2.625   6.238   5.919
 9627SOL     OW29779   6.685   4.296   4.403
 9627SOL    HW129780   6.699   4.350   4.320
 9627SOL    HW229781   6.759   4.314   4.467
 9628SOL     OW29782   5.927   4.312   0.386
 9628SOL    HW129783   5.986   4.385   0.351
 9628SOL    HW229784   5.832   4.341   0.381
 9629SOL     OW29785   6.448   6.044   2.487
 9629SOL    HW129786   6.417   6.039   2.582
 9629SOL    HW229787   6.381   5.999   2.428
 9630SOL     OW29788   6.778   5.943   5.279
 9630SOL    HW129789   6.706   5.984   5.223
 9630SOL    HW229790   6.852   6.009   5.291
 9631SOL     OW29791   5.458   1.547   0.511
 9631SOL    HW129792   5.523   1.620   0.492
 9631SOL    HW229793   5.395   1.537   0.434
 9632SOL     OW29794   2.288   5.679   1.532
 9632SOL    HW129795   2.250   5.742   1.601
 9632SOL    HW229796   2.290   5.587   1.569
 9633SOL     OW29797   3.820   4.244   0.471
 9633SOL    HW129798   3.767   4.173   0.517
 9633SOL    HW229799   3.761   4.293   0.406
 9634SOL     OW29800   6.796   6.344   3.707
 9634SOL    HW129801   6.735   6.350   3.786
 9634SOL    HW229802   6.839   6.253   3.705
 9635SOL     OW29803   2.269   4.465   5.327
 9635SOL    HW129804   2.315   4.508   5.404
 9635SOL    HW229805   2.331   4.401   5.282
 9636SOL     OW29806   4.494   1.573   6.259
 9636SOL    HW129807   4.412   1.552   6.312
 9636SOL    HW229808   4.539   1.653   6.298
 9637SOL     OW29809   3.662   2.387   0.281
 9637SOL    HW129810   3.707   2.359   0.196
 9637SOL    HW229811   3.655   2.308   0.342
 9638SOL     OW29812   0.212   3.044   5.591
 9638SOL    HW129813   0.255   3.117   5.643
 9638SOL    HW229814   0.282   2.992   5.542
 9639SOL     OW29815   4.264   2.292   2.335
 9639SOL    HW129816   4.345   2.247   2.372
 9639SOL    HW229817   4.287   2.386   2.309
 9640SOL     OW29818   3.203   0.780   2.861
 9640SOL    HW129819   3.196   0.683   2.840
 9640SOL    HW229820   3.286   0.817   2.819
 9641SOL     OW29821   5.592   5.507   1.442
 9641SOL    HW129822   5.544   5.438   1.496
 9641SOL    HW229823   5.587   5.483   1.345
 9642SOL     OW29824   1.300   5.551   4.273
 9642SOL    HW129825   1.286   5.466   4.324
 9642SOL    HW229826   1.304   5.531   4.175
 9643SOL     OW29827   5.068   4.427   3.549
 9643SOL    HW129828   5.122   4.486   3.488
 9643SOL    HW229829   5.082   4.332   3.524
 9644SOL     OW29830   0.838   5.262   5.566
 9644SOL    HW129831   0.772   5.336   5.583
 9644SOL    HW229832   0.893   5.286   5.485
 9645SOL     OW29833   3.026   4.900   4.537
 9645SOL    HW129834   2.953   4.837   4.565
 9645SOL    HW229835   2.988   4.970   4.476
 9646SOL     OW29836   2.425   4.937   1.821
 9646SOL    HW129837   2.381   4.850   1.803
 9646SOL    HW229838   2.516   4.938   1.780
 9647SOL     OW29839   6.962   6.137   2.566
 9647SOL    HW129840   6.937   6.119   2.471
 9647SOL    HW229841   6.962   6.236   2.581
 9648SOL     OW29842   3.887   2.284   6.831
 9648SOL    HW129843   3.845   2.342   6.761
 9648SOL    HW229844   3.862   2.189   6.814
 9649SOL     OW29845   1.857   4.256   6.896
 9649SOL    HW129846   1.821   4.346   6.871
 9649SOL    HW229847   1.912   4.220   6.821
 9650SOL     OW29848   4.455   4.834   3.405
 9650SOL    HW129849   4.471   4.749   3.354
 9650SOL    HW229850   4.360   4.836   3.437
 9651SOL     OW29851   5.100   1.413   1.235
 9651SOL    HW129852   5.089   1.317   1.260
 9651SOL    HW229853   5.106   1.421   1.135
 9652SOL     OW29854   1.322   4.609   1.604
 9652SOL    HW129855   1.376   4.691   1.584
 9652SOL    HW229856   1.260   4.591   1.527
 9653SOL     OW29857   5.196   5.582   4.927
 9653SOL    HW129858   5.174   5.493   4.888
 9653SOL    HW229859   5.116   5.617   4.976
 9654SOL     OW29860   3.424   3.213   2.671
 9654SOL    HW129861   3.339   3.263   2.655
 9654SOL    HW229862   3.500   3.277   2.679
 9655SOL     OW29863   0.368   1.654   0.541
 9655SOL    HW129864   0.357   1.573   0.483
 9655SOL    HW229865   0.435   1.716   0.499
 9656SOL     OW29866   4.396   2.230   0.668
 9656SOL    HW129867   4.460   2.224   0.745
 9656SOL    HW229868   4.384   2.140   0.628
 9657SOL     OW29869   5.675   3.341   2.770
 9657SOL    HW129870   5.674   3.302   2.678
 9657SOL    HW229871   5.727   3.427   2.770
 9658SOL     OW29872   5.568   1.937   2.468
 9658SOL    HW129873   5.639   1.909   2.403
 9658SOL    HW229874   5.510   1.859   2.491
 9659SOL     OW29875   0.353   3.608   0.216
 9659SOL    HW129876   0.402   3.561   0.289
 9659SOL    HW229877   0.361   3.556   0.131
 9660SOL     OW29878   0.449   6.965   2.889
 9660SOL    HW129879   0.455   6.975   2.790
 9660SOL    HW229880   0.473   6.871   2.916
 9661SOL     OW29881   3.644   5.999   1.323
 9661SOL    HW129882   3.733   6.021   1.363
 9661SOL    HW229883   3.603   5.922   1.371
 9662SOL     OW29884   3.879   3.257   5.625
 9662SOL    HW129885   3.873   3.289   5.720
 9662SOL    HW229886   3.969   3.281   5.588
 9663SOL     OW29887   6.251   6.286   2.368
 9663SOL    HW129888   6.334   6.313   2.418
 9663SOL    HW229889   6.272   6.278   2.271
 9664SOL     OW29890   5.875   5.633   4.754
 9664SOL    HW129891   5.814   5.694   4.704
 9664SOL    HW229892   5.966   5.634   4.711
 9665SOL     OW29893   6.141   5.684   6.490
 9665SOL    HW129894   6.235   5.703   6.518
 9665SOL    HW229895   6.127   5.585   6.484
 9666SOL     OW29896   6.336   3.883   2.212
 9666SOL    HW129897   6.421   3.851   2.169
 9666SOL    HW229898   6.281   3.933   2.145
 9667SOL     OW29899   4.085   3.022   6.615
 9667SOL    HW129900   4.174   3.004   6.657
 9667SOL    HW229901   4.095   3.028   6.516
 9668SOL     OW29902   0.011   0.809   6.313
 9668SOL    HW129903   0.051   0.896   6.285
 9668SOL    HW229904   0.029   0.740   6.243
 9669SOL     OW29905   1.941   6.685   2.164
 9669SOL    HW129906   1.944   6.603   2.221
 9669SOL    HW229907   2.028   6.695   2.116
 9670SOL     OW29908   6.784   4.808   5.772
 9670SOL    HW129909   6.712   4.877   5.782
 9670SOL    HW229910   6.832   4.822   5.686
 9671SOL     OW29911   6.839   4.198   0.094
 9671SOL    HW129912   6.807   4.290   0.071
 9671SOL    HW229913   6.924   4.205   0.146
 9672SOL     OW29914   1.775   5.541   3.182
 9672SOL    HW129915   1.713   5.618   3.197
 9672SOL    HW229916   1.746   5.464   3.240
 9673SOL     OW29917   4.658   3.581   1.349
 9673SOL    HW129918   4.649   3.641   1.429
 9673SOL    HW229919   4.618   3.625   1.269
 9674SOL     OW29920   3.289   6.871   3.167
 9674SOL    HW129921   3.357   6.801   3.187
 9674SOL    HW229922   3.239   6.847   3.084
 9675SOL     OW29923   5.336   2.575   6.788
 9675SOL    HW129924   5.269   2.513   6.830
 9675SOL    HW229925   5.424   2.566   6.835
 9676SOL     OW29926   1.887   3.443   5.835
 9676SOL    HW129927   1.943   3.395   5.902
 9676SOL    HW229928   1.918   3.538   5.827
 9677SOL     OW29929   6.859   5.559   4.735
 9677SOL    HW129930   6.829   5.471   4.698
 9677SOL    HW229931   6.791   5.629   4.715
 9678SOL     OW29932   2.867   3.628   3.780
 9678SOL    HW129933   2.832   3.571   3.854
 9678SOL    HW229934   2.896   3.570   3.704
 9679SOL     OW29935   3.435   1.006   3.020
 9679SOL    HW129936   3.494   1.038   2.946
 9679SOL    HW229937   3.351   1.060   3.021
 9680SOL     OW29938   4.395   1.003   3.186
 9680SOL    HW129939   4.356   1.054   3.110
 9680SOL    HW229940   4.324   0.985   3.254
 9681SOL     OW29941   2.927   1.855   0.842
 9681SOL    HW129942   2.998   1.801   0.886
 9681SOL    HW229943   2.940   1.952   0.863
 9682SOL     OW29944   4.830   4.051   4.105
 9682SOL    HW129945   4.749   4.106   4.125
 9682SOL    HW229946   4.888   4.046   4.187
 9683SOL     OW29947   3.218   5.921   1.729
 9683SOL    HW129948   3.173   5.839   1.693
 9683SOL    HW229949   3.276   5.896   1.806
 9684SOL     OW29950   0.655   3.269   6.623
 9684SOL    HW129951   0.639   3.352   6.677
 9684SOL    HW229952   0.584   3.202   6.644
 9685SOL     OW29953   3.781   4.420   1.092
 9685SOL    HW129954   3.744   4.363   1.165
 9685SOL    HW229955   3.706   4.467   1.046
 9686SOL     OW29956   0.551   2.617   0.002
 9686SOL    HW129957   0.504   2.529   7.020
 9686SOL    HW229958   0.519   2.666   0.084
 9687SOL     OW29959   1.534   0.672   4.097
 9687SOL    HW129960   1.593   0.643   4.173
 9687SOL    HW229961   1.438   0.662   4.123
 9688SOL     OW29962   1.015   3.063   1.613
 9688SOL    HW129963   1.103   3.111   1.611
 9688SOL    HW229964   1.028   2.968   1.585
 9689SOL     OW29965   0.995   4.674   6.004
 9689SOL    HW129966   1.009   4.755   5.948
 9689SOL    HW229967   0.897   4.653   6.009
 9690SOL     OW29968   5.905   5.309   6.823
 9690SOL    HW129969   5.903   5.340   6.918
 9690SOL    HW229970   5.818   5.267   6.800
 9691SOL     OW29971   3.571   5.155   1.377
 9691SOL    HW129972   3.507   5.102   1.321
 9691SOL    HW229973   3.542   5.152   1.472
 9692SOL     OW29974   3.904   6.000   2.318
 9692SOL    HW129975   3.823   6.051   2.288
 9692SOL    HW229976   3.882   5.903   2.325
 9693SOL     OW29977   5.356   4.127   2.349
 9693SOL    HW129978   5.363   4.027   2.346
 9693SOL    HW229979   5.422   4.167   2.285
 9694SOL     OW29980   2.998   0.855   0.855
 9694SOL    HW129981   2.970   0.761   0.874
 9694SOL    HW229982   3.092   0.869   0.886
 9695SOL     OW29983   6.587   3.140   3.198
 9695SOL    HW129984   6.610   3.062   3.256
 9695SOL    HW229985   6.643   3.219   3.223
 9696SOL     OW29986   5.488   3.158   1.213
 9696SOL    HW129987   5.392   3.140   1.189
 9696SOL    HW229988   5.547   3.111   1.147
 9697SOL     OW29989   0.500   4.830   6.837
 9697SOL    HW129990   0.439   4.879   6.775
 9697SOL    HW229991   0.457   4.824   6.928
 9698SOL     OW29992   5.008   1.901   5.952
 9698SOL    HW129993   5.013   1.971   5.881
 9698SOL    HW229994   5.007   1.945   6.042
 9699SOL     OW29995   6.494   5.441   6.645
 9699SOL    HW129996   6.410   5.474   6.688
 9699SOL    HW229997   6.474   5.359   6.591
 9700SOL     OW29998   4.947   5.640   5.039
 9700SOL    HW129999   4.979   5.663   5.131
 9700SOL    HW230000   4.856   5.680   5.025
 9701SOL     OW30001   4.446   4.582   5.923
 9701SOL    HW130002   4.541   4.613   5.925
 9701SOL    HW230003   4.435   4.505   5.985
 9702SOL     OW30004   4.598   0.674   6.636
 9702SOL    HW130005   4.670   0.615   6.674
 9702SOL    HW230006   4.597   0.761   6.687
 9703SOL     OW30007   4.835   3.603   3.789
 9703SOL    HW130008   4.780   3.529   3.751
 9703SOL    HW230009   4.888   3.568   3.866
 9704SOL     OW30010   3.390   0.090   1.755
 9704SOL    HW130011   3.469   0.138   1.791
 9704SOL    HW230012   3.420   0.014   1.697
 9705SOL     OW30013   5.507   4.427   5.795
 9705SOL    HW130014   5.602   4.424   5.825
 9705SOL    HW230015   5.457   4.350   5.835
 9706SOL     OW30016   2.104   3.147   0.946
 9706SOL    HW130017   2.115   3.048   0.947
 9706SOL    HW230018   2.194   3.190   0.934
 9707SOL     OW30019   6.150   4.837   2.336
 9707SOL    HW130020   6.153   4.888   2.422
 9707SOL    HW230021   6.243   4.828   2.299
 9708SOL     OW30022   1.522   1.919   4.320
 9708SOL    HW130023   1.510   1.964   4.409
 9708SOL    HW230024   1.497   1.823   4.328
 9709SOL     OW30025   5.180   6.052   2.853
 9709SOL    HW130026   5.090   6.015   2.876
 9709SOL    HW230027   5.250   5.983   2.868
 9710SOL     OW30028   0.247   1.670   1.227
 9710SOL    HW130029   0.263   1.702   1.320
 9710SOL    HW230030   0.286   1.579   1.216
 9711SOL     OW30031   3.346   5.464   6.356
 9711SOL    HW130032   3.389   5.536   6.411
 9711SOL    HW230033   3.410   5.388   6.346
 9712SOL     OW30034   5.421   3.815   6.341
 9712SOL    HW130035   5.364   3.884   6.386
 9712SOL    HW230036   5.363   3.748   6.295
 9713SOL     OW30037   1.473   5.038   2.863
 9713SOL    HW130038   1.516   4.984   2.791
 9713SOL    HW230039   1.385   5.073   2.831
 9714SOL     OW30040   4.580   6.485   6.457
 9714SOL    HW130041   4.620   6.424   6.525
 9714SOL    HW230042   4.644   6.498   6.381
 9715SOL     OW30043   5.830   4.060   6.826
 9715SOL    HW130044   5.813   3.975   6.877
 9715SOL    HW230045   5.777   4.134   6.867
 9716SOL     OW30046   3.978   4.553   6.679
 9716SOL    HW130047   3.915   4.480   6.655
 9716SOL    HW230048   3.950   4.638   6.633
 9717SOL     OW30049   5.878   5.859   6.192
 9717SOL    HW130050   5.887   5.763   6.168
 9717SOL    HW230051   5.969   5.900   6.200
 9718SOL     OW30052   4.603   3.342   0.215
 9718SOL    HW130053   4.559   3.333   0.126
 9718SOL    HW230054   4.609   3.252   0.258
 9719SOL     OW30055   6.550   1.145   5.549
 9719SOL    HW130056   6.641   1.185   5.553
 9719SOL    HW230057   6.542   1.075   5.621
 9720SOL     OW30058   0.236   5.340   1.916
 9720SOL    HW130059   0.307   5.397   1.874
 9720SOL    HW230060   0.224   5.367   2.011
 9721SOL     OW30061   0.157   1.766   0.307
 9721SOL    HW130062   0.097   1.824   0.252
 9721SOL    HW230063   0.176   1.811   0.395
 9722SOL     OW30064   4.677   0.607   4.515
 9722SOL    HW130065   4.608   0.582   4.447
 9722SOL    HW230066   4.703   0.703   4.503
 9723SOL     OW30067   2.883   6.909   2.974
 9723SOL    HW130068   2.874   6.810   2.991
 9723SOL    HW230069   2.940   6.950   3.045
 9724SOL     OW30070   1.337   4.101   0.410
 9724SOL    HW130071   1.381   4.046   0.340
 9724SOL    HW230072   1.237   4.090   0.404
 9725SOL     OW30073   4.881   4.954   6.406
 9725SOL    HW130074   4.861   5.052   6.409
 9725SOL    HW230075   4.943   4.935   6.330
 9726SOL     OW30076   5.240   1.582   4.159
 9726SOL    HW130077   5.318   1.542   4.208
 9726SOL    HW230078   5.251   1.566   4.061
 9727SOL     OW30079   1.238   2.947   7.014
 9727SOL    HW130080   1.247   2.848   7.020
 9727SOL    HW230081   1.273   2.979   6.925
 9728SOL     OW30082   1.075   0.385   5.727
 9728SOL    HW130083   0.996   0.341   5.683
 9728SOL    HW230084   1.152   0.321   5.730
 9729SOL     OW30085   1.014   4.460   3.192
 9729SOL    HW130086   0.994   4.469   3.290
 9729SOL    HW230087   1.112   4.475   3.177
 9730SOL     OW30088   1.229   4.015   3.608
 9730SOL    HW130089   1.200   3.977   3.696
 9730SOL    HW230090   1.308   3.965   3.574
 9731SOL     OW30091   4.917   4.433   1.237
 9731SOL    HW130092   4.843   4.448   1.171
 9731SOL    HW230093   4.974   4.357   1.206
 9732SOL     OW30094   6.888   5.206   2.434
 9732SOL    HW130095   6.906   5.292   2.386
 9732SOL    HW230096   6.801   5.212   2.482
 9733SOL     OW30097   5.847   5.471   0.333
 9733SOL    HW130098   5.761   5.449   0.287
 9733SOL    HW230099   5.915   5.402   0.310
 9734SOL     OW30100   6.770   1.747   1.353
 9734SOL    HW130101   6.779   1.687   1.273
 9734SOL    HW230102   6.681   1.730   1.397
 9735SOL     OW30103   2.004   3.644   3.831
 9735SOL    HW130104   2.030   3.588   3.910
 9735SOL    HW230105   1.906   3.663   3.833
 9736SOL     OW30106   6.194   2.050   6.617
 9736SOL    HW130107   6.137   2.089   6.544
 9736SOL    HW230108   6.262   1.989   6.576
 9737SOL     OW30109   5.469   3.194   3.518
 9737SOL    HW130110   5.566   3.208   3.538
 9737SOL    HW230111   5.427   3.282   3.497
 9738SOL     OW30112   1.936   0.646   0.625
 9738SOL    HW130113   1.981   0.688   0.703
 9738SOL    HW230114   2.005   0.608   0.564
 9739SOL     OW30115   5.901   5.509   1.489
 9739SOL    HW130116   5.924   5.595   1.444
 9739SOL    HW230117   5.814   5.475   1.453
 9740SOL     OW30118   6.931   1.551   3.541
 9740SOL    HW130119   6.891   1.628   3.492
 9740SOL    HW230120   6.906   1.556   3.638
 9741SOL     OW30121   3.809   1.408   2.532
 9741SOL    HW130122   3.808   1.508   2.532
 9741SOL    HW230123   3.717   1.374   2.549
 9742SOL     OW30124   4.280   1.122   0.561
 9742SOL    HW130125   4.330   1.042   0.595
 9742SOL    HW230126   4.295   1.131   0.463
 9743SOL     OW30127   6.944   2.973   4.804
 9743SOL    HW130128   7.021   2.916   4.831
 9743SOL    HW230129   6.969   3.069   4.815
 9744SOL     OW30130   1.710   6.854   2.173
 9744SOL    HW130131   1.797   6.813   2.144
 9744SOL    HW230132   1.712   6.870   2.272
 9745SOL     OW30133   5.347   2.701   6.545
 9745SOL    HW130134   5.422   2.658   6.493
 9745SOL    HW230135   5.332   2.649   6.629
 9746SOL     OW30136   6.765   0.275   5.433
 9746SOL    HW130137   6.675   0.318   5.443
 9746SOL    HW230138   6.776   0.240   5.340
 9747SOL     OW30139   2.553   1.007   1.630
 9747SOL    HW130140   2.471   1.063   1.619
 9747SOL    HW230141   2.601   1.002   1.542
 9748SOL     OW30142   0.124   0.930   3.361
 9748SOL    HW130143   0.190   0.929   3.436
 9748SOL    HW230144   0.171   0.954   3.276
 9749SOL     OW30145   2.535   0.079   4.408
 9749SOL    HW130146   2.614   0.123   4.365
 9749SOL    HW230147   2.538   0.093   4.507
 9750SOL     OW30148   5.939   4.157   2.640
 9750SOL    HW130149   5.843   4.132   2.624
 9750SOL    HW230150   5.944   4.224   2.714
 9751SOL     OW30151   1.934   1.242   0.217
 9751SOL    HW130152   2.015   1.271   0.167
 9751SOL    HW230153   1.918   1.304   0.294
 9752SOL     OW30154   4.572   2.018   5.237
 9752SOL    HW130155   4.665   1.998   5.208
 9752SOL    HW230156   4.507   1.993   5.165
 9753SOL     OW30157   6.559   5.680   6.314
 9753SOL    HW130158   6.615   5.738   6.255
 9753SOL    HW230159   6.495   5.627   6.259
 9754SOL     OW30160   1.908   0.626   0.054
 9754SOL    HW130161   1.981   0.611   7.012
 9754SOL    HW230162   1.835   0.680   0.011
 9755SOL     OW30163   3.237   3.620   4.203
 9755SOL    HW130164   3.227   3.520   4.210
 9755SOL    HW230165   3.147   3.662   4.196
 9756SOL     OW30166   6.084   3.465   0.112
 9756SOL    HW130167   6.065   3.496   0.205
 9756SOL    HW230168   6.080   3.544   0.050
 9757SOL     OW30169   5.553   4.036   3.881
 9757SOL    HW130170   5.648   4.049   3.908
 9757SOL    HW230171   5.547   3.966   3.809
 9758SOL     OW30172   2.480   6.793   6.661
 9758SOL    HW130173   2.477   6.723   6.733
 9758SOL    HW230174   2.418   6.867   6.684
 9759SOL     OW30175   1.423   0.297   0.376
 9759SOL    HW130176   1.333   0.321   0.342
 9759SOL    HW230177   1.447   0.204   0.346
 9760SOL     OW30178   4.951   2.963   5.368
 9760SOL    HW130179   5.036   2.951   5.318
 9760SOL    HW230180   4.941   2.890   5.435
 9761SOL     OW30181   6.675   1.512   2.267
 9761SOL    HW130182   6.654   1.529   2.364
 9761SOL    HW230183   6.593   1.532   2.212
 9762SOL     OW30184   3.450   1.164   4.178
 9762SOL    HW130185   3.441   1.237   4.246
 9762SOL    HW230186   3.545   1.158   4.146
 9763SOL     OW30187   5.026   1.579   2.116
 9763SOL    HW130188   4.956   1.626   2.063
 9763SOL    HW230189   4.984   1.507   2.170
 9764SOL     OW30190   0.152   2.732   3.042
 9764SOL    HW130191   0.116   2.804   2.982
 9764SOL    HW230192   0.205   2.773   3.116
 9765SOL     OW30193   6.931   0.045   3.287
 9765SOL    HW130194   6.924   0.073   3.191
 9765SOL    HW230195   6.914   0.124   3.346
 9766SOL     OW30196   3.291   0.104   2.324
 9766SOL    HW130197   3.216   0.149   2.373
 9766SOL    HW230198   3.290   0.133   2.229
 9767SOL     OW30199   4.371   0.575   4.984
 9767SOL    HW130200   4.409   0.662   4.951
 9767SOL    HW230201   4.338   0.522   4.905
 9768SOL     OW30202   6.324   1.368   2.267
 9768SOL    HW130203   6.380   1.434   2.217
 9768SOL    HW230204   6.384   1.309   2.322
 9769SOL     OW30205   4.198   1.251   3.350
 9769SOL    HW130206   4.209   1.152   3.363
 9769SOL    HW230207   4.213   1.274   3.254
 9770SOL     OW30208   4.931   0.869   6.585
 9770SOL    HW130209   4.913   0.798   6.517
 9770SOL    HW230210   4.861   0.864   6.657
 9771SOL     OW30211   2.377   6.225   0.147
 9771SOL    HW130212   2.315   6.170   0.090
 9771SOL    HW230213   2.471   6.212   0.116
 9772SOL     OW30214   1.937   6.366   1.676
 9772SOL    HW130215   1.957   6.415   1.591
 9772SOL    HW230216   1.887   6.427   1.737
 9773SOL     OW30217   5.072   5.600   3.923
 9773SOL    HW130218   5.123   5.572   3.841
 9773SOL    HW230219   5.020   5.683   3.902
 9774SOL     OW30220   0.332   4.892   1.843
 9774SOL    HW130221   0.423   4.918   1.814
 9774SOL    HW230222   0.321   4.910   1.940
 9775SOL     OW30223   2.608   0.632   3.425
 9775SOL    HW130224   2.551   0.569   3.371
 9775SOL    HW230225   2.589   0.619   3.522
 9776SOL     OW30226   1.478   4.050   4.635
 9776SOL    HW130227   1.558   4.014   4.585
 9776SOL    HW230228   1.464   4.145   4.609
 9777SOL     OW30229   6.707   6.193   0.368
 9777SOL    HW130230   6.694   6.175   0.271
 9777SOL    HW230231   6.655   6.274   0.395
 9778SOL     OW30232   0.169   1.081   4.151
 9778SOL    HW130233   0.114   1.164   4.161
 9778SOL    HW230234   0.113   1.002   4.175
 9779SOL     OW30235   1.250   1.476   4.293
 9779SOL    HW130236   1.188   1.420   4.347
 9779SOL    HW230237   1.302   1.419   4.230
 9780SOL     OW30238   2.509   2.197   1.314
 9780SOL    HW130239   2.608   2.188   1.314
 9780SOL    HW230240   2.467   2.107   1.302
 9781SOL     OW30241   2.145   3.762   4.150
 9781SOL    HW130242   2.234   3.773   4.193
 9781SOL    HW230243   2.121   3.665   4.148
 9782SOL     OW30244   0.106   1.488   0.921
 9782SOL    HW130245   0.045   1.557   0.959
 9782SOL    HW230246   0.073   1.397   0.945
 9783SOL     OW30247   4.143   2.282   2.963
 9783SOL    HW130248   4.088   2.199   2.962
 9783SOL    HW230249   4.173   2.303   2.870
 9784SOL     OW30250   3.670   1.565   4.522
 9784SOL    HW130251   3.637   1.632   4.455
 9784SOL    HW230252   3.770   1.567   4.524
 9785SOL     OW30253   0.588   2.771   6.188
 9785SOL    HW130254   0.574   2.756   6.285
 9785SOL    HW230255   0.500   2.778   6.142
 9786SOL     OW30256   2.244   4.415   0.547
 9786SOL    HW130257   2.254   4.320   0.519
 9786SOL    HW230258   2.147   4.438   0.551
 9787SOL     OW30259   4.221   4.096   1.719
 9787SOL    HW130260   4.149   4.055   1.774
 9787SOL    HW230261   4.275   4.159   1.776
 9788SOL     OW30262   0.626   0.947   4.001
 9788SOL    HW130263   0.573   0.862   4.000
 9788SOL    HW230264   0.678   0.955   3.916
 9789SOL     OW30265   1.166   5.467   0.715
 9789SOL    HW130266   1.096   5.491   0.782
 9789SOL    HW230267   1.151   5.520   0.631
 9790SOL     OW30268   6.521   4.628   6.844
 9790SOL    HW130269   6.534   4.708   6.785
 9790SOL    HW230270   6.444   4.574   6.810
 9791SOL     OW30271   0.798   1.556   2.268
 9791SOL    HW130272   0.887   1.550   2.313
 9791SOL    HW230273   0.803   1.622   2.193
 9792SOL     OW30274   4.578   4.703   0.853
 9792SOL    HW130275   4.599   4.615   0.811
 9792SOL    HW230276   4.512   4.753   0.797
 9793SOL     OW30277   4.526   6.542   2.865
 9793SOL    HW130278   4.478   6.472   2.917
 9793SOL    HW230279   4.466   6.621   2.852
 9794SOL     OW30280   0.137   4.533   0.204
 9794SOL    HW130281   0.058   4.581   0.166
 9794SOL    HW230282   0.121   4.515   0.301
 9795SOL     OW30283   2.091   1.623   4.591
 9795SOL    HW130284   2.118   1.687   4.520
 9795SOL    HW230285   2.105   1.529   4.558
 9796SOL     OW30286   3.857   2.478   1.413
 9796SOL    HW130287   3.881   2.441   1.503
 9796SOL    HW230288   3.931   2.458   1.348
 9797SOL     OW30289   2.328   5.512   6.482
 9797SOL    HW130290   2.322   5.611   6.492
 9797SOL    HW230291   2.386   5.475   6.554
 9798SOL     OW30292   2.868   0.984   2.054
 9798SOL    HW130293   2.774   1.013   2.038
 9798SOL    HW230294   2.928   1.021   1.984
 9799SOL     OW30295   3.555   2.879   4.548
 9799SOL    HW130296   3.539   2.856   4.644
 9799SOL    HW230297   3.651   2.905   4.535
 9800SOL     OW30298   3.838   6.018   4.809
 9800SOL    HW130299   3.906   5.977   4.870
 9800SOL    HW230300   3.754   6.035   4.860
 9801SOL     OW30301   4.627   4.137   6.715
 9801SOL    HW130302   4.586   4.226   6.732
 9801SOL    HW230303   4.683   4.110   6.794
 9802SOL     OW30304   0.063   3.624   1.146
 9802SOL    HW130305   0.038   3.528   1.161
 9802SOL    HW230306   0.149   3.628   1.096
 9803SOL     OW30307   0.949   2.063   6.785
 9803SOL    HW130308   0.931   2.130   6.857
 9803SOL    HW230309   0.974   2.111   6.701
 9804SOL     OW30310   1.640   6.916   2.473
 9804SOL    HW130311   1.653   6.945   2.568
 9804SOL    HW230312   1.544   6.929   2.448
 9805SOL     OW30313   1.623   6.966   4.228
 9805SOL    HW130314   1.679   7.003   4.154
 9805SOL    HW230315   1.551   0.007   4.251
 9806SOL     OW30316   1.445   1.136   0.145
 9806SOL    HW130317   1.482   1.117   0.054
 9806SOL    HW230318   1.406   1.053   0.183
 9807SOL     OW30319   2.460   4.401   0.718
 9807SOL    HW130320   2.529   4.354   0.664
 9807SOL    HW230321   2.378   4.418   0.663
 9808SOL     OW30322   4.070   0.197   5.221
 9808SOL    HW130323   4.147   0.195   5.157
 9808SOL    HW230324   4.091   0.140   5.300
 9809SOL     OW30325   0.941   2.705   6.552
 9809SOL    HW130326   0.960   2.747   6.640
 9809SOL    HW230327   0.893   2.770   6.493
 9810SOL     OW30328   1.886   3.040   3.712
 9810SOL    HW130329   1.844   3.070   3.798
 9810SOL    HW230330   1.886   2.940   3.707
 9811SOL     OW30331   5.226   4.762   3.420
 9811SOL    HW130332   5.220   4.673   3.374
 9811SOL    HW230333   5.315   4.802   3.403
 9812SOL     OW30334   3.602   2.243   5.703
 9812SOL    HW130335   3.528   2.222   5.640
 9812SOL    HW230336   3.686   2.198   5.671
 9813SOL     OW30337   5.703   1.343   0.660
 9813SOL    HW130338   5.753   1.369   0.578
 9813SOL    HW230339   5.674   1.425   0.709
 9814SOL     OW30340   6.816   0.494   6.867
 9814SOL    HW130341   6.878   0.572   6.853
 9814SOL    HW230342   6.847   0.442   6.947
 9815SOL     OW30343   5.476   4.433   3.594
 9815SOL    HW130344   5.444   4.524   3.567
 9815SOL    HW230345   5.566   4.441   3.636
 9816SOL     OW30346   0.066   1.140   6.047
 9816SOL    HW130347   0.126   1.205   6.002
 9816SOL    HW230348   0.096   1.126   6.141
 9817SOL     OW30349   3.188   6.769   2.649
 9817SOL    HW130350   3.190   6.764   2.549
 9817SOL    HW230351   3.177   6.677   2.686
 9818SOL     OW30352   1.701   1.167   5.017
 9818SOL    HW130353   1.760   1.180   4.937
 9818SOL    HW230354   1.608   1.195   4.995
 9819SOL     OW30355   4.777   2.959   3.743
 9819SOL    HW130356   4.711   2.895   3.705
 9819SOL    HW230357   4.778   2.951   3.842
 9820SOL     OW30358   4.285   3.454   6.390
 9820SOL    HW130359   4.348   3.384   6.358
 9820SOL    HW230360   4.191   3.421   6.383
 9821SOL     OW30361   5.362   0.748   6.970
 9821SOL    HW130362   5.277   0.699   6.951
 9821SOL    HW230363   5.361   0.836   6.922
 9822SOL     OW30364   2.798   6.085   3.769
 9822SOL    HW130365   2.783   6.061   3.865
 9822SOL    HW230366   2.829   6.004   3.719
 9823SOL     OW30367   2.338   0.793   6.970
 9823SOL    HW130368   2.358   0.811   0.042
 9823SOL    HW230369   2.315   0.879   6.924
 9824SOL     OW30370   2.090   4.892   3.999
 9824SOL    HW130371   2.159   4.821   4.008
 9824SOL    HW230372   2.133   4.982   4.002
 9825SOL     OW30373   5.402   5.906   4.517
 9825SOL    HW130374   5.357   5.837   4.574
 9825SOL    HW230375   5.408   5.873   4.423
 9826SOL     OW30376   4.072   5.435   5.633
 9826SOL    HW130377   4.113   5.362   5.687
 9826SOL    HW230378   3.984   5.461   5.674
 9827SOL     OW30379   1.627   4.285   3.772
 9827SOL    HW130380   1.588   4.254   3.685
 9827SOL    HW230381   1.576   4.244   3.848
 9828SOL     OW30382   2.800   2.153   5.440
 9828SOL    HW130383   2.890   2.186   5.469
 9828SOL    HW230384   2.796   2.054   5.449
 9829SOL     OW30385   4.454   4.872   6.368
 9829SOL    HW130386   4.469   4.905   6.274
 9829SOL    HW230387   4.495   4.936   6.432
 9830SOL     OW30388   5.241   1.463   1.924
 9830SOL    HW130389   5.265   1.375   1.964
 9830SOL    HW230390   5.176   1.510   1.985
 9831SOL     OW30391   1.209   4.867   2.229
 9831SOL    HW130392   1.266   4.851   2.149
 9831SOL    HW230393   1.182   4.779   2.268
 9832SOL     OW30394   4.813   5.295   2.454
 9832SOL    HW130395   4.878   5.235   2.500
 9832SOL    HW230396   4.787   5.256   2.366
 9833SOL     OW30397   3.370   3.193   4.481
 9833SOL    HW130398   3.455   3.177   4.432
 9833SOL    HW230399   3.338   3.107   4.521
 9834SOL     OW30400   2.454   4.282   5.232
 9834SOL    HW130401   2.503   4.298   5.318
 9834SOL    HW230402   2.412   4.192   5.234
 9835SOL     OW30403   4.047   3.850   4.883
 9835SOL    HW130404   3.979   3.838   4.811
 9835SOL    HW230405   4.114   3.919   4.854
 9836SOL     OW30406   6.752   4.093   3.626
 9836SOL    HW130407   6.702   4.144   3.696
 9836SOL    HW230408   6.850   4.107   3.639
 9837SOL     OW30409   3.813   0.591   2.143
 9837SOL    HW130410   3.794   0.686   2.167
 9837SOL    HW230411   3.732   0.551   2.099
 9838SOL     OW30412   1.676   6.451   0.825
 9838SOL    HW130413   1.713   6.459   0.732
 9838SOL    HW230414   1.611   6.525   0.841
 9839SOL     OW30415   5.605   6.491   3.652
 9839SOL    HW130416   5.634   6.560   3.718
 9839SOL    HW230417   5.597   6.403   3.697
 9840SOL     OW30418   5.682   1.443   1.247
 9840SOL    HW130419   5.647   1.532   1.218
 9840SOL    HW230420   5.742   1.455   1.326
 9841SOL     OW30421   1.643   4.084   5.628
 9841SOL    HW130422   1.690   4.006   5.587
 9841SOL    HW230423   1.563   4.052   5.678
 9842SOL     OW30424   3.977   2.759   1.461
 9842SOL    HW130425   3.992   2.839   1.404
 9842SOL    HW230426   3.882   2.729   1.454
 9843SOL     OW30427   7.017   0.509   2.252
 9843SOL    HW130428   6.994   0.412   2.239
 9843SOL    HW230429   7.004   0.557   2.165
 9844SOL     OW30430   6.572   1.379   3.005
 9844SOL    HW130431   6.634   1.452   3.033
 9844SOL    HW230432   6.546   1.325   3.085
 9845SOL     OW30433   1.926   2.770   3.664
 9845SOL    HW130434   1.949   2.757   3.760
 9845SOL    HW230435   1.961   2.693   3.611
 9846SOL     OW30436   3.683   2.223   1.224
 9846SOL    HW130437   3.730   2.178   1.148
 9846SOL    HW230438   3.617   2.289   1.187
 9847SOL     OW30439   3.761   2.995   3.229
 9847SOL    HW130440   3.671   3.004   3.186
 9847SOL    HW230441   3.756   3.029   3.323
 9848SOL     OW30442   3.730   3.716   4.896
 9848SOL    HW130443   3.631   3.729   4.891
 9848SOL    HW230444   3.770   3.723   4.805
 9849SOL     OW30445   0.508   0.004   6.141
 9849SOL    HW130446   0.565   0.021   6.060
 9849SOL    HW230447   0.549   6.956   6.196
 9850SOL     OW30448   6.052   0.277   3.872
 9850SOL    HW130449   6.109   0.298   3.793
 9850SOL    HW230450   6.094   0.202   3.924
 9851SOL     OW30451   0.348   6.856   4.226
 9851SOL    HW130452   0.436   6.902   4.236
 9851SOL    HW230453   0.362   6.757   4.229
 9852SOL     OW30454   3.201   1.822   4.289
 9852SOL    HW130455   3.234   1.900   4.234
 9852SOL    HW230456   3.276   1.787   4.345
 9853SOL     OW30457   5.332   3.428   5.052
 9853SOL    HW130458   5.334   3.509   5.111
 9853SOL    HW230459   5.400   3.362   5.084
 9854SOL     OW30460   6.695   6.040   4.303
 9854SOL    HW130461   6.616   6.004   4.254
 9854SOL    HW230462   6.675   6.130   4.340
 9855SOL     OW30463   1.871   3.470   1.689
 9855SOL    HW130464   1.909   3.537   1.625
 9855SOL    HW230465   1.915   3.381   1.674
 9856SOL     OW30466   4.787   4.339   4.853
 9856SOL    HW130467   4.856   4.387   4.799
 9856SOL    HW230468   4.696   4.360   4.816
 9857SOL     OW30469   4.875   3.182   2.735
 9857SOL    HW130470   4.867   3.148   2.829
 9857SOL    HW230471   4.887   3.281   2.736
 9858SOL     OW30472   6.312   6.640   1.171
 9858SOL    HW130473   6.266   6.725   1.198
 9858SOL    HW230474   6.249   6.563   1.182
 9859SOL     OW30475   5.935   5.971   2.635
 9859SOL    HW130476   5.875   6.006   2.707
 9859SOL    HW230477   5.967   6.047   2.578
 9860SOL     OW30478   1.955   2.357   3.912
 9860SOL    HW130479   1.889   2.282   3.912
 9860SOL    HW230480   2.036   2.331   3.859
 9861SOL     OW30481   2.849   0.479   2.843
 9861SOL    HW130482   2.769   0.429   2.809
 9861SOL    HW230483   2.820   0.549   2.908
 9862SOL     OW30484   2.832   3.265   0.162
 9862SOL    HW130485   2.864   3.183   0.114
 9862SOL    HW230486   2.909   3.326   0.179
 9863SOL     OW30487   3.312   6.599   1.934
 9863SOL    HW130488   3.390   6.538   1.953
 9863SOL    HW230489   3.340   6.694   1.947
 9864SOL     OW30490   2.966   0.193   3.888
 9864SOL    HW130491   3.008   0.172   3.800
 9864SOL    HW230492   3.027   0.251   3.941
 9865SOL     OW30493   1.093   6.925   4.671
 9865SOL    HW130494   1.165   6.950   4.735
 9865SOL    HW230495   1.114   6.837   4.629
 9866SOL     OW30496   5.496   4.416   6.261
 9866SOL    HW130497   5.563   4.457   6.199
 9866SOL    HW230498   5.410   4.401   6.212
 9867SOL     OW30499   0.086   1.900   1.171
 9867SOL    HW130500   0.150   1.975   1.158
 9867SOL    HW230501   0.136   1.817   1.198
 9868SOL     OW30502   0.426   3.349   4.289
 9868SOL    HW130503   0.506   3.404   4.313
 9868SOL    HW230504   0.386   3.311   4.373
 9869SOL     OW30505   0.400   2.418   1.490
 9869SOL    HW130506   0.440   2.509   1.483
 9869SOL    HW230507   0.385   2.395   1.586
 9870SOL     OW30508   4.511   5.355   3.013
 9870SOL    HW130509   4.575   5.291   2.970
 9870SOL    HW230510   4.516   5.346   3.113
 9871SOL     OW30511   6.275   4.483   5.838
 9871SOL    HW130512   6.338   4.482   5.916
 9871SOL    HW230513   6.313   4.539   5.765
 9872SOL     OW30514   3.404   5.681   4.985
 9872SOL    HW130515   3.463   5.725   5.053
 9872SOL    HW230516   3.422   5.582   4.986
 9873SOL     OW30517   2.529   2.058   0.683
 9873SOL    HW130518   2.530   1.985   0.751
 9873SOL    HW230519   2.619   2.064   0.639
 9874SOL     OW30520   6.260   3.104   5.615
 9874SOL    HW130521   6.233   3.193   5.652
 9874SOL    HW230522   6.180   3.043   5.615
 9875SOL     OW30523   6.248   5.816   1.873
 9875SOL    HW130524   6.197   5.733   1.850
 9875SOL    HW230525   6.306   5.798   1.953
 9876SOL     OW30526   5.286   0.076   4.227
 9876SOL    HW130527   5.370   0.025   4.208
 9876SOL    HW230528   5.273   0.146   4.157
 9877SOL     OW30529   6.409   4.707   4.136
 9877SOL    HW130530   6.483   4.750   4.188
 9877SOL    HW230531   6.363   4.638   4.192
 9878SOL     OW30532   3.091   3.266   5.807
 9878SOL    HW130533   3.097   3.366   5.809
 9878SOL    HW230534   3.105   3.230   5.900
 9879SOL     OW30535   5.337   5.454   5.650
 9879SOL    HW130536   5.432   5.481   5.637
 9879SOL    HW230537   5.318   5.447   5.748
 9880SOL     OW30538   3.237   1.031   0.417
 9880SOL    HW130539   3.170   1.023   0.491
 9880SOL    HW230540   3.221   0.959   0.350
 9881SOL     OW30541   0.218   1.555   4.978
 9881SOL    HW130542   0.307   1.596   4.999
 9881SOL    HW230543   0.174   1.525   5.063
 9882SOL     OW30544   2.156   3.729   5.559
 9882SOL    HW130545   2.256   3.737   5.558
 9882SOL    HW230546   2.116   3.821   5.559
 9883SOL     OW30547   1.083   6.406   1.014
 9883SOL    HW130548   1.101   6.473   0.943
 9883SOL    HW230549   1.062   6.318   0.972
 9884SOL     OW30550   4.757   1.391   0.817
 9884SOL    HW130551   4.855   1.370   0.815
 9884SOL    HW230552   4.709   1.333   0.752
 9885SOL     OW30553   0.109   3.229   4.935
 9885SOL    HW130554   0.157   3.299   4.882
 9885SOL    HW230555   0.172   3.189   5.001
 9886SOL     OW30556   1.253   5.562   1.116
 9886SOL    HW130557   1.295   5.651   1.105
 9886SOL    HW230558   1.299   5.495   1.058
 9887SOL     OW30559   4.294   6.755   0.124
 9887SOL    HW130560   4.315   6.673   0.178
 9887SOL    HW230561   4.217   6.803   0.165
 9888SOL     OW30562   5.124   5.186   3.242
 9888SOL    HW130563   5.165   5.261   3.295
 9888SOL    HW230564   5.148   5.196   3.146
 9889SOL     OW30565   6.410   4.340   1.267
 9889SOL    HW130566   6.498   4.358   1.222
 9889SOL    HW230567   6.377   4.250   1.241
 9890SOL     OW30568   0.742   2.238   1.342
 9890SOL    HW130569   0.766   2.157   1.395
 9890SOL    HW230570   0.646   2.233   1.314
 9891SOL     OW30571   6.118   3.542   1.287
 9891SOL    HW130572   6.168   3.594   1.218
 9891SOL    HW230573   6.042   3.493   1.244
 9892SOL     OW30574   1.281   5.590   2.926
 9892SOL    HW130575   1.202   5.557   2.978
 9892SOL    HW230576   1.324   5.513   2.879
 9893SOL     OW30577   6.290   0.534   1.843
 9893SOL    HW130578   6.200   0.572   1.864
 9893SOL    HW230579   6.280   0.458   1.779
 9894SOL     OW30580   2.572   2.451   6.189
 9894SOL    HW130581   2.619   2.499   6.263
 9894SOL    HW230582   2.489   2.408   6.225
 9895SOL     OW30583   5.244   3.158   5.893
 9895SOL    HW130584   5.221   3.119   5.804
 9895SOL    HW230585   5.211   3.252   5.898
 9896SOL     OW30586   5.017   1.462   0.064
 9896SOL    HW130587   5.022   1.559   0.040
 9896SOL    HW230588   5.025   1.453   0.164
 9897SOL     OW30589   5.170   6.836   2.781
 9897SOL    HW130590   5.128   6.891   2.709
 9897SOL    HW230591   5.210   6.754   2.740
 9898SOL     OW30592   0.798   4.622   5.450
 9898SOL    HW130593   0.833   4.538   5.490
 9898SOL    HW230594   0.704   4.608   5.420
 9899SOL     OW30595   0.049   5.495   2.777
 9899SOL    HW130596   7.019   5.533   2.703
 9899SOL    HW230597   0.146   5.513   2.760
 9900SOL     OW30598   2.073   3.533   2.620
 9900SOL    HW130599   2.125   3.467   2.565
 9900SOL    HW230600   1.978   3.502   2.627
 9901SOL     OW30601   2.500   0.703   0.210
 9901SOL    HW130602   2.552   0.788   0.201
 9901SOL    HW230603   2.471   0.691   0.305
 9902SOL     OW30604   4.083   3.633   1.360
 9902SOL    HW130605   4.113   3.727   1.347
 9902SOL    HW230606   4.038   3.601   1.277
 9903SOL     OW30607   5.494   0.826   1.652
 9903SOL    HW130608   5.580   0.776   1.640
 9903SOL    HW230609   5.428   0.795   1.583
 9904SOL     OW30610   0.275   3.338   6.680
 9904SOL    HW130611   0.345   3.276   6.714
 9904SOL    HW230612   0.230   3.297   6.600
 9905SOL     OW30613   1.448   0.592   6.475
 9905SOL    HW130614   1.547   0.582   6.477
 9905SOL    HW230615   1.422   0.656   6.403
 9906SOL     OW30616   1.837   4.029   0.335
 9906SOL    HW130617   1.760   3.983   0.290
 9906SOL    HW230618   1.857   4.115   0.287
 9907SOL     OW30619   1.389   0.997   2.566
 9907SOL    HW130620   1.470   1.022   2.619
 9907SOL    HW230621   1.416   0.975   2.472
 9908SOL     OW30622   0.955   2.808   5.875
 9908SOL    HW130623   1.054   2.819   5.891
 9908SOL    HW230624   0.911   2.898   5.880
 9909SOL     OW30625   3.852   0.812   2.798
 9909SOL    HW130626   3.944   0.779   2.780
 9909SOL    HW230627   3.839   0.823   2.897
 9910SOL     OW30628   1.421   5.117   1.463
 9910SOL    HW130629   1.430   5.097   1.560
 9910SOL    HW230630   1.512   5.116   1.420
 9911SOL     OW30631   3.715   5.629   2.499
 9911SOL    HW130632   3.738   5.674   2.413
 9911SOL    HW230633   3.647   5.683   2.548
 9912SOL     OW30634   4.716   1.290   2.088
 9912SOL    HW130635   4.656   1.361   2.050
 9912SOL    HW230636   4.774   1.254   2.015
 9913SOL     OW30637   6.056   2.793   1.653
 9913SOL    HW130638   6.136   2.760   1.602
 9913SOL    HW230639   6.058   2.893   1.657
 9914SOL     OW30640   0.397   6.891   5.116
 9914SOL    HW130641   0.335   6.887   5.195
 9914SOL    HW230642   0.345   6.884   5.032
 9915SOL     OW30643   5.378   2.828   3.940
 9915SOL    HW130644   5.443   2.847   3.866
 9915SOL    HW230645   5.395   2.891   4.016
 9916SOL     OW30646   1.738   2.237   3.395
 9916SOL    HW130647   1.658   2.244   3.455
 9916SOL    HW230648   1.791   2.322   3.401
 9917SOL     OW30649   3.196   3.637   4.511
 9917SOL    HW130650   3.190   3.565   4.443
 9917SOL    HW230651   3.185   3.598   4.603
 9918SOL     OW30652   0.952   2.659   1.825
 9918SOL    HW130653   0.926   2.747   1.865
 9918SOL    HW230654   0.870   2.615   1.788
 9919SOL     OW30655   2.319   5.864   2.258
 9919SOL    HW130656   2.267   5.949   2.260
 9919SOL    HW230657   2.276   5.796   2.318
 9920SOL     OW30658   4.104   0.673   2.778
 9920SOL    HW130659   4.123   0.577   2.758
 9920SOL    HW230660   4.165   0.731   2.723
 9921SOL     OW30661   4.312   0.193   4.782
 9921SOL    HW130662   4.308   0.180   4.683
 9921SOL    HW230663   4.404   0.172   4.815
 9922SOL     OW30664   4.800   4.555   1.455
 9922SOL    HW130665   4.858   4.509   1.388
 9922SOL    HW230666   4.829   4.530   1.548
 9923SOL     OW30667   6.479   3.219   0.365
 9923SOL    HW130668   6.449   3.235   0.271
 9923SOL    HW230669   6.436   3.136   0.400
 9924SOL     OW30670   4.624   1.517   2.975
 9924SOL    HW130671   4.531   1.478   2.980
 9924SOL    HW230672   4.628   1.599   3.031
 9925SOL     OW30673   1.292   4.850   3.588
 9925SOL    HW130674   1.372   4.910   3.593
 9925SOL    HW230675   1.297   4.794   3.505
 9926SOL     OW30676   3.722   2.689   0.681
 9926SOL    HW130677   3.742   2.655   0.773
 9926SOL    HW230678   3.629   2.725   0.679
 9927SOL     OW30679   1.058   1.454   1.189
 9927SOL    HW130680   1.028   1.361   1.212
 9927SOL    HW230681   1.129   1.483   1.253
 9928SOL     OW30682   5.467   3.861   3.215
 9928SOL    HW130683   5.418   3.940   3.176
 9928SOL    HW230684   5.484   3.794   3.143
 9929SOL     OW30685   2.963   3.789   4.483
 9929SOL    HW130686   2.884   3.779   4.423
 9929SOL    HW230687   3.028   3.714   4.465
 9930SOL     OW30688   0.537   0.304   6.115
 9930SOL    HW130689   0.509   0.343   6.202
 9930SOL    HW230690   0.528   0.205   6.118
 9931SOL     OW30691   6.762   5.774   4.002
 9931SOL    HW130692   6.834   5.815   4.059
 9931SOL    HW230693   6.794   5.770   3.907
 9932SOL     OW30694   2.665   1.802   6.077
 9932SOL    HW130695   2.711   1.726   6.122
 9932SOL    HW230696   2.704   1.816   5.986
 9933SOL     OW30697   1.704   0.567   3.883
 9933SOL    HW130698   1.667   0.640   3.940
 9933SOL    HW230699   1.665   0.572   3.791
 9934SOL     OW30700   6.082   1.875   7.023
 9934SOL    HW130701   6.144   1.817   6.970
 9934SOL    HW230702   6.021   1.924   6.961
 9935SOL     OW30703   3.577   0.807   0.875
 9935SOL    HW130704   3.511   0.817   0.800
 9935SOL    HW230705   3.669   0.822   0.840
 9936SOL     OW30706   6.542   4.972   0.624
 9936SOL    HW130707   6.469   5.011   0.680
 9936SOL    HW230708   6.506   4.895   0.571
 9937SOL     OW30709   0.987   1.146   2.105
 9937SOL    HW130710   0.974   1.162   2.007
 9937SOL    HW230711   1.044   1.065   2.118
 9938SOL     OW30712   5.756   6.588   4.286
 9938SOL    HW130713   5.809   6.639   4.218
 9938SOL    HW230714   5.775   6.491   4.277
 9939SOL     OW30715   3.110   2.790   0.504
 9939SOL    HW130716   3.027   2.839   0.475
 9939SOL    HW230717   3.169   2.775   0.426
 9940SOL     OW30718   1.247   0.534   2.662
 9940SOL    HW130719   1.209   0.442   2.663
 9940SOL    HW230720   1.193   0.594   2.721
 9941SOL     OW30721   2.704   5.702   5.402
 9941SOL    HW130722   2.657   5.655   5.327
 9941SOL    HW230723   2.659   5.680   5.489
 9942SOL     OW30724   4.312   5.844   2.500
 9942SOL    HW130725   4.249   5.792   2.442
 9942SOL    HW230726   4.259   5.913   2.551
 9943SOL     OW30727   1.195   4.627   6.659
 9943SOL    HW130728   1.284   4.661   6.687
 9943SOL    HW230729   1.124   4.692   6.686
 9944SOL     OW30730   0.895   4.912   6.301
 9944SOL    HW130731   0.829   4.910   6.226
 9944SOL    HW230732   0.987   4.917   6.264
 9945SOL     OW30733   5.210   4.632   6.601
 9945SOL    HW130734   5.172   4.716   6.561
 9945SOL    HW230735   5.284   4.599   6.543
 9946SOL     OW30736   6.810   0.130   3.059
 9946SOL    HW130737   6.807   0.229   3.068
 9946SOL    HW230738   6.818   0.104   2.963
 9947SOL     OW30739   3.120   1.968   4.544
 9947SOL    HW130740   3.127   1.895   4.476
 9947SOL    HW230741   3.045   1.948   4.607
 9948SOL     OW30742   6.813   5.217   5.224
 9948SOL    HW130743   6.796   5.161   5.143
 9948SOL    HW230744   6.781   5.168   5.305
 9949SOL     OW30745   0.454   4.982   3.831
 9949SOL    HW130746   0.550   4.977   3.858
 9949SOL    HW230747   0.447   5.028   3.742
 9950SOL     OW30748   6.655   5.660   7.006
 9950SOL    HW130749   6.555   5.660   7.014
 9950SOL    HW230750   6.690   5.568   7.024
 9951SOL     OW30751   1.427   2.272   3.312
 9951SOL    HW130752   1.333   2.248   3.287
 9951SOL    HW230753   1.441   2.253   3.409
 9952SOL     OW30754   1.880   3.476   0.830
 9952SOL    HW130755   1.891   3.574   0.842
 9952SOL    HW230756   1.826   3.438   0.905
 9953SOL     OW30757   5.713   2.629   4.014
 9953SOL    HW130758   5.806   2.648   3.983
 9953SOL    HW230759   5.675   2.710   4.060
 9954SOL     OW30760   1.222   0.147   4.519
 9954SOL    HW130761   1.188   0.096   4.597
 9954SOL    HW230762   1.167   0.229   4.506
 9955SOL     OW30763   3.480   3.275   6.561
 9955SOL    HW130764   3.403   3.212   6.554
 9955SOL    HW230765   3.445   3.368   6.576
 9956SOL     OW30766   0.553   4.035   3.095
 9956SOL    HW130767   0.585   4.058   3.003
 9956SOL    HW230768   0.551   3.936   3.107
 9957SOL     OW30769   6.274   0.747   2.657
 9957SOL    HW130770   6.230   0.658   2.649
 9957SOL    HW230771   6.319   0.754   2.747
 9958SOL     OW30772   2.609   6.323   6.594
 9958SOL    HW130773   2.599   6.250   6.527
 9958SOL    HW230774   2.562   6.405   6.562
 9959SOL     OW30775   4.096   3.699   3.293
 9959SOL    HW130776   4.048   3.717   3.208
 9959SOL    HW230777   4.191   3.676   3.273
 9960SOL     OW30778   1.075   6.784   2.287
 9960SOL    HW130779   1.030   6.823   2.207
 9960SOL    HW230780   1.098   6.688   2.269
 9961SOL     OW30781   1.446   5.261   3.527
 9961SOL    HW130782   1.399   5.226   3.446
 9961SOL    HW230783   1.449   5.190   3.597
 9962SOL     OW30784   3.957   0.386   2.584
 9962SOL    HW130785   3.881   0.446   2.562
 9962SOL    HW230786   3.936   0.334   2.667
 9963SOL     OW30787   2.625   2.649   5.678
 9963SOL    HW130788   2.571   2.658   5.762
 9963SOL    HW230789   2.692   2.576   5.690
 9964SOL     OW30790   4.443   5.137   6.076
 9964SOL    HW130791   4.390   5.062   6.035
 9964SOL    HW230792   4.381   5.209   6.108
 9965SOL     OW30793   3.420   5.018   5.426
 9965SOL    HW130794   3.383   5.085   5.490
 9965SOL    HW230795   3.422   4.928   5.470
 9966SOL     OW30796   2.022   5.385   2.116
 9966SOL    HW130797   2.092   5.457   2.116
 9966SOL    HW230798   2.013   5.348   2.024
 9967SOL     OW30799   4.800   5.829   2.078
 9967SOL    HW130800   4.704   5.800   2.073
 9967SOL    HW230801   4.835   5.843   1.985
 9968SOL     OW30802   3.442   5.591   6.609
 9968SOL    HW130803   3.374   5.664   6.597
 9968SOL    HW230804   3.486   5.602   6.698
 9969SOL     OW30805   0.910   2.912   3.797
 9969SOL    HW130806   0.818   2.932   3.761
 9969SOL    HW230807   0.977   2.969   3.749
 9970SOL     OW30808   6.534   4.251   2.381
 9970SOL    HW130809   6.576   4.298   2.303
 9970SOL    HW230810   6.537   4.310   2.461
 9971SOL     OW30811   2.602   4.281   0.428
 9971SOL    HW130812   2.548   4.274   0.344
 9971SOL    HW230813   2.687   4.330   0.408
 9972SOL     OW30814   3.553   4.458   0.662
 9972SOL    HW130815   3.616   4.384   0.689
 9972SOL    HW230816   3.459   4.428   0.676
 9973SOL     OW30817   4.095   1.793   4.750
 9973SOL    HW130818   4.099   1.844   4.664
 9973SOL    HW230819   4.188   1.767   4.777
 9974SOL     OW30820   6.435   3.721   3.404
 9974SOL    HW130821   6.357   3.704   3.465
 9974SOL    HW230822   6.458   3.818   3.406
 9975SOL     OW30823   0.141   4.643   6.975
 9975SOL    HW130824   0.176   4.627   0.042
 9975SOL    HW230825   0.061   4.703   6.980
 9976SOL     OW30826   6.170   5.002   5.529
 9976SOL    HW130827   6.081   5.036   5.498
 9976SOL    HW230828   6.232   4.994   5.451
 9977SOL     OW30829   6.470   4.809   5.444
 9977SOL    HW130830   6.423   4.868   5.378
 9977SOL    HW230831   6.569   4.816   5.430
 9978SOL     OW30832   6.391   1.246   4.368
 9978SOL    HW130833   6.392   1.280   4.275
 9978SOL    HW230834   6.331   1.304   4.424
 9979SOL     OW30835   6.884   4.689   6.235
 9979SOL    HW130836   6.936   4.675   6.151
 9979SOL    HW230837   6.887   4.606   6.291
 9980SOL     OW30838   1.654   0.444   6.811
 9980SOL    HW130839   1.739   0.498   6.814
 9980SOL    HW230840   1.635   0.416   6.717
 9981SOL     OW30841   2.185   2.050   1.064
 9981SOL    HW130842   2.173   2.138   1.109
 9981SOL    HW230843   2.249   2.060   0.988
 9982SOL     OW30844   1.078   1.743   3.086
 9982SOL    HW130845   1.113   1.774   2.998
 9982SOL    HW230846   1.004   1.677   3.071
 9983SOL     OW30847   1.124   1.325   1.585
 9983SOL    HW130848   1.078   1.368   1.507
 9983SOL    HW230849   1.202   1.382   1.613
 9984SOL     OW30850   0.638   0.379   0.906
 9984SOL    HW130851   0.597   0.322   0.977
 9984SOL    HW230852   0.572   0.449   0.877
 9985SOL     OW30853   3.299   0.312   1.179
 9985SOL    HW130854   3.204   0.280   1.179
 9985SOL    HW230855   3.340   0.297   1.090
 9986SOL     OW30856   4.703   4.269   6.306
 9986SOL    HW130857   4.665   4.303   6.392
 9986SOL    HW230858   4.664   4.179   6.287
 9987SOL     OW30859   5.500   2.035   2.201
 9987SOL    HW130860   5.546   1.972   2.263
 9987SOL    HW230861   5.410   1.999   2.176
 9988SOL     OW30862   0.051   5.286   4.554
 9988SOL    HW130863   0.147   5.296   4.529
 9988SOL    HW230864   0.042   5.279   4.653
 9989SOL     OW30865   5.270   3.534   3.013
 9989SOL    HW130866   5.246   3.616   2.962
 9989SOL    HW230867   5.311   3.467   2.952
 9990SOL     OW30868   2.350   6.868   3.098
 9990SOL    HW130869   2.437   6.905   3.065
 9990SOL    HW230870   2.356   6.768   3.101
 9991SOL     OW30871   1.300   3.193   4.967
 9991SOL    HW130872   1.400   3.198   4.965
 9991SOL    HW230873   1.270   3.102   4.938
 9992SOL     OW30874   4.457   3.567   0.286
 9992SOL    HW130875   4.518   3.489   0.273
 9992SOL    HW230876   4.419   3.595   0.198
 9993SOL     OW30877   4.308   6.235   2.532
 9993SOL    HW130878   4.237   6.216   2.464
 9993SOL    HW230879   4.317   6.334   2.543
 9994SOL     OW30880   6.343   4.254   3.855
 9994SOL    HW130881   6.311   4.193   3.928
 9994SOL    HW230882   6.443   4.249   3.850
 9995SOL     OW30883   3.478   0.006   2.964
 9995SOL    HW130884   3.388   6.987   2.959
 9995SOL    HW230885   3.478   0.089   2.909
 9996SOL     OW30886   3.210   2.661   1.223
 9996SOL    HW130887   3.149   2.593   1.266
 9996SOL    HW230888   3.188   2.668   1.126
 9997SOL     OW30889   4.667   1.554   1.037
 9997SOL    HW130890   4.692   1.488   0.966
 9997SOL    HW230891   4.720   1.537   1.120
 9998SOL     OW30892   5.752   3.719   2.396
 9998SOL    HW130893   5.790   3.629   2.418
 9998SOL    HW230894   5.804   3.760   2.321
 9999SOL     OW30895   6.359   5.106   4.793
 9999SOL    HW130896   6.332   5.166   4.717
 9999SOL    HW230897   6.294   5.030   4.800
10000SOL     OW30898   6.254   1.683   6.562
10000SOL    HW130899   6.214   1.728   6.482
10000SOL    HW230900   6.274   1.587   6.540
10001SOL     OW30901   5.214   0.551   1.711
10001SOL    HW130902   5.146   0.478   1.702
10001SOL    HW230903   5.198   0.602   1.795
10002SOL     OW30904   1.335   0.918   1.392
10002SOL    HW130905   1.352   1.015   1.381
10002SOL    HW230906   1.408   0.876   1.445
10003SOL     OW30907   3.735   2.029   3.233
10003SOL    HW130908   3.720   2.018   3.331
10003SOL    HW230909   3.650   2.009   3.184
10004SOL     OW30910   5.571   3.273   4.863
10004SOL    HW130911   5.504   3.259   4.790
10004SOL    HW230912   5.633   3.194   4.867
10005SOL     OW30913   4.668   5.569   3.247
10005SOL    HW130914   4.726   5.567   3.166
10005SOL    HW230915   4.643   5.475   3.273
10006SOL     OW30916   5.158   0.944   4.353
10006SOL    HW130917   5.140   0.861   4.301
10006SOL    HW230918   5.255   0.967   4.347
10007SOL     OW30919   1.021   4.540   4.901
10007SOL    HW130920   1.006   4.452   4.856
10007SOL    HW230921   0.979   4.537   4.992
10008SOL     OW30922   4.254   1.320   3.630
10008SOL    HW130923   4.344   1.277   3.634
10008SOL    HW230924   4.213   1.303   3.541
10009SOL     OW30925   1.601   3.281   2.339
10009SOL    HW130926   1.616   3.185   2.317
10009SOL    HW230927   1.689   3.327   2.350
10010SOL     OW30928   2.088   6.462   0.251
10010SOL    HW130929   2.187   6.455   0.242
10010SOL    HW230930   2.060   6.429   0.341
10011SOL     OW30931   0.903   2.553   5.714
10011SOL    HW130932   0.907   2.645   5.753
10011SOL    HW230933   0.901   2.559   5.614
10012SOL     OW30934   4.827   0.026   2.737
10012SOL    HW130935   4.876   0.113   2.743
10012SOL    HW230936   4.800   7.021   2.829
10013SOL     OW30937   2.117   1.541   5.259
10013SOL    HW130938   2.124   1.478   5.336
10013SOL    HW230939   2.148   1.632   5.288
10014SOL     OW30940   6.986   2.051   0.851
10014SOL    HW130941   6.906   2.110   0.862
10014SOL    HW230942   0.040   2.105   0.821
10015SOL     OW30943   3.155   4.564   0.624
10015SOL    HW130944   3.181   4.591   0.531
10015SOL    HW230945   3.055   4.558   0.629
10016SOL     OW30946   1.927   6.919   4.725
10016SOL    HW130947   1.875   6.866   4.658
10016SOL    HW230948   1.914   6.879   4.816
10017SOL     OW30949   1.888   1.859   2.412
10017SOL    HW130950   1.964   1.801   2.384
10017SOL    HW230951   1.922   1.931   2.473
10018SOL     OW30952   5.988   5.351   5.995
10018SOL    HW130953   6.083   5.319   5.998
10018SOL    HW230954   5.982   5.441   6.039
10019SOL     OW30955   0.953   2.373   3.374
10019SOL    HW130956   0.896   2.296   3.400
10019SOL    HW230957   1.033   2.378   3.434
10020SOL     OW30958   0.388   1.479   0.913
10020SOL    HW130959   0.392   1.578   0.927
10020SOL    HW230960   0.294   1.452   0.895
10021SOL     OW30961   0.813   2.919   1.896
10021SOL    HW130962   0.772   2.900   1.806
10021SOL    HW230963   0.811   3.017   1.914
10022SOL     OW30964   3.460   0.036   0.919
10022SOL    HW130965   3.418   0.075   0.837
10022SOL    HW230966   3.545   0.084   0.939
10023SOL     OW30967   1.946   5.561   5.671
10023SOL    HW130968   2.014   5.557   5.745
10023SOL    HW230969   1.854   5.551   5.710
10024SOL     OW30970   1.932   6.771   1.644
10024SOL    HW130971   1.839   6.775   1.681
10024SOL    HW230972   1.981   6.854   1.669
10025SOL     OW30973   1.579   1.487   1.192
10025SOL    HW130974   1.660   1.474   1.248
10025SOL    HW230975   1.579   1.579   1.152
10026SOL     OW30976   4.422   6.212   3.516
10026SOL    HW130977   4.398   6.303   3.548
10026SOL    HW230978   4.377   6.194   3.428
10027SOL     OW30979   0.736   4.900   4.899
10027SOL    HW130980   0.677   4.858   4.968
10027SOL    HW230981   0.823   4.926   4.941
10028SOL     OW30982   1.383   1.877   1.693
10028SOL    HW130983   1.361   1.935   1.615
10028SOL    HW230984   1.481   1.880   1.709
10029SOL     OW30985   3.214   1.765   3.943
10029SOL    HW130986   3.206   1.739   3.846
10029SOL    HW230987   3.310   1.780   3.965
10030SOL     OW30988   2.593   6.702   4.377
10030SOL    HW130989   2.681   6.750   4.381
10030SOL    HW230990   2.601   6.623   4.317
10031SOL     OW30991   5.703   4.614   3.516
10031SOL    HW130992   5.798   4.611   3.546
10031SOL    HW230993   5.647   4.657   3.587
10032SOL     OW30994   3.301   0.663   5.099
10032SOL    HW130995   3.330   0.704   5.185
10032SOL    HW230996   3.295   0.564   5.109
10033SOL     OW30997   5.105   2.295   4.114
10033SOL    HW130998   5.093   2.270   4.018
10033SOL    HW230999   5.094   2.214   4.171
10034SOL     OW31000   3.368   0.017   3.766
10034SOL    HW131001   3.436   0.027   3.839
10034SOL    HW231002   3.302   0.093   3.772
10035SOL     OW31003   0.212   4.520   1.753
10035SOL    HW131004   0.266   4.594   1.794
10035SOL    HW231005   0.272   4.459   1.702
10036SOL     OW31006   5.824   1.132   0.969
10036SOL    HW131007   5.853   1.228   0.975
10036SOL    HW231008   5.768   1.120   0.887
10037SOL     OW31009   6.210   1.292   0.857
10037SOL    HW131010   6.154   1.341   0.924
10037SOL    HW231011   6.287   1.247   0.903
10038SOL     OW31012   4.025   1.527   6.756
10038SOL    HW131013   3.953   1.514   6.824
10038SOL    HW231014   4.112   1.492   6.791
10039SOL     OW31015   3.131   0.255   4.248
10039SOL    HW131016   3.134   0.276   4.345
10039SOL    HW231017   3.105   0.160   4.234
10040SOL     OW31018   4.353   5.733   6.205
10040SOL    HW131019   4.436   5.752   6.256
10040SOL    HW231020   4.334   5.809   6.143
10041SOL     OW31021   4.528   5.802   6.392
10041SOL    HW131022   4.567   5.769   6.478
10041SOL    HW231023   4.502   5.898   6.402
10042SOL     OW31024   1.177   1.520   4.620
10042SOL    HW131025   1.128   1.443   4.662
10042SOL    HW231026   1.119   1.562   4.551
10043SOL     OW31027   6.340   1.756   4.690
10043SOL    HW131028   6.355   1.807   4.606
10043SOL    HW231029   6.350   1.817   4.769
10044SOL     OW31030   3.190   1.422   5.133
10044SOL    HW131031   3.184   1.344   5.194
10044SOL    HW231032   3.280   1.426   5.091
10045SOL     OW31033   4.458   7.022   3.784
10045SOL    HW131034   4.503   6.936   3.809
10045SOL    HW231035   4.507   0.039   3.707
10046SOL     OW31036   2.493   3.779   1.018
10046SOL    HW131037   2.394   3.789   1.027
10046SOL    HW231038   2.537   3.866   1.037
10047SOL     OW31039   6.848   3.734   5.694
10047SOL    HW131040   6.922   3.753   5.629
10047SOL    HW231041   6.772   3.796   5.678
10048SOL     OW31042   6.304   1.005   2.584
10048SOL    HW131043   6.267   1.071   2.649
10048SOL    HW231044   6.262   0.916   2.599
10049SOL     OW31045   0.367   1.140   6.754
10049SOL    HW131046   0.405   1.178   6.669
10049SOL    HW231047   0.286   1.191   6.780
10050SOL     OW31048   5.722   3.691   5.568
10050SOL    HW131049   5.736   3.732   5.478
10050SOL    HW231050   5.756   3.597   5.568
10051SOL     OW31051   5.640   3.635   6.020
10051SOL    HW131052   5.592   3.690   5.951
10051SOL    HW231053   5.573   3.594   6.082
10052SOL     OW31054   1.589   2.100   2.926
10052SOL    HW131055   1.610   2.107   3.023
10052SOL    HW231056   1.634   2.019   2.887
10053SOL     OW31057   3.981   5.677   3.177
10053SOL    HW131058   3.988   5.590   3.129
10053SOL    HW231059   4.062   5.691   3.234
10054SOL     OW31060   5.914   6.101   6.728
10054SOL    HW131061   5.847   6.100   6.802
10054SOL    HW231062   5.874   6.057   6.647
10055SOL     OW31063   5.735   1.681   4.940
10055SOL    HW131064   5.652   1.676   4.996
10055SOL    HW231065   5.788   1.761   4.966
10056SOL     OW31066   5.339   4.344   3.037
10056SOL    HW131067   5.357   4.295   2.952
10056SOL    HW231068   5.329   4.442   3.018
10057SOL     OW31069   4.399   2.527   5.462
10057SOL    HW131070   4.491   2.551   5.430
10057SOL    HW231071   4.361   2.603   5.514
10058SOL     OW31072   0.126   3.551   4.994
10058SOL    HW131073   0.107   3.636   5.043
10058SOL    HW231074   0.092   3.474   5.048
10059SOL     OW31075   6.501   0.709   0.845
10059SOL    HW131076   6.483   0.783   0.910
10059SOL    HW231077   6.595   0.715   0.812
10060SOL     OW31078   2.121   2.717   1.836
10060SOL    HW131079   2.103   2.754   1.745
10060SOL    HW231080   2.038   2.675   1.872
10061SOL     OW31081   4.413   0.993   3.782
10061SOL    HW131082   4.451   1.043   3.704
10061SOL    HW231083   4.486   0.969   3.845
10062SOL     OW31084   6.193   0.499   4.025
10062SOL    HW131085   6.211   0.467   4.118
10062SOL    HW231086   6.107   0.460   3.992
10063SOL     OW31087   2.609   1.021   3.991
10063SOL    HW131088   2.675   1.051   4.060
10063SOL    HW231089   2.658   0.986   3.911
10064SOL     OW31090   4.985   6.857   0.053
10064SOL    HW131091   4.910   6.897   0.106
10064SOL    HW231092   4.959   6.765   0.023
10065SOL     OW31093   3.470   0.246   2.847
10065SOL    HW131094   3.470   0.322   2.911
10065SOL    HW231095   3.387   0.249   2.792
10066SOL     OW31096   0.385   2.893   4.449
10066SOL    HW131097   0.400   2.859   4.542
10066SOL    HW231098   0.300   2.856   4.413
10067SOL     OW31099   0.537   4.123   5.418
10067SOL    HW131100   0.607   4.168   5.473
10067SOL    HW231101   0.549   4.147   5.322
10068SOL     OW31102   0.256   3.337   3.531
10068SOL    HW131103   0.324   3.295   3.470
10068SOL    HW231104   0.166   3.301   3.510
10069SOL     OW31105   3.492   5.300   2.299
10069SOL    HW131106   3.454   5.243   2.372
10069SOL    HW231107   3.492   5.248   2.214
10070SOL     OW31108   0.251   6.063   5.244
10070SOL    HW131109   0.335   6.014   5.222
10070SOL    HW231110   0.244   6.145   5.187
10071SOL     OW31111   6.356   6.114   4.939
10071SOL    HW131112   6.331   6.192   4.882
10071SOL    HW231113   6.343   6.029   4.888
10072SOL     OW31114   6.307   6.613   4.249
10072SOL    HW131115   6.355   6.526   4.261
10072SOL    HW231116   6.332   6.675   4.323
10073SOL     OW31117   6.261   5.092   4.257
10073SOL    HW131118   6.253   5.057   4.350
10073SOL    HW231119   6.201   5.039   4.196
10074SOL     OW31120   2.128   0.174   5.187
10074SOL    HW131121   2.112   0.108   5.114
10074SOL    HW231122   2.131   0.127   5.275
10075SOL     OW31123   1.675   2.691   2.565
10075SOL    HW131124   1.682   2.714   2.469
10075SOL    HW231125   1.690   2.593   2.577
10076SOL     OW31126   6.112   6.403   3.490
10076SOL    HW131127   6.107   6.392   3.590
10076SOL    HW231128   6.035   6.357   3.447
10077SOL     OW31129   4.312   3.242   6.668
10077SOL    HW131130   4.379   3.195   6.611
10077SOL    HW231131   4.276   3.178   6.736
10078SOL     OW31132   0.002   5.746   3.681
10078SOL    HW131133   0.059   5.750   3.599
10078SOL    HW231134   0.004   5.654   3.719
10079SOL     OW31135   5.682   3.008   3.258
10079SOL    HW131136   5.777   2.998   3.228
10079SOL    HW231137   5.653   3.103   3.248
10080SOL     OW31138   4.422   0.073   5.348
10080SOL    HW131139   4.397   0.127   5.267
10080SOL    HW231140   4.474   0.130   5.411
10081SOL     OW31141   6.964   0.923   0.062
10081SOL    HW131142   0.032   0.957   0.051
10081SOL    HW231143   6.965   0.823   0.072
10082SOL     OW31144   0.285   5.502   1.607
10082SOL    HW131145   0.367   5.488   1.663
10082SOL    HW231146   0.240   5.414   1.591
10083SOL     OW31147   4.124   0.514   3.508
10083SOL    HW131148   4.205   0.520   3.565
10083SOL    HW231149   4.045   0.491   3.565
10084SOL     OW31150   2.169   0.703   6.197
10084SOL    HW131151   2.175   0.604   6.209
10084SOL    HW231152   2.148   0.725   6.102
10085SOL     OW31153   3.023   6.033   0.842
10085SOL    HW131154   3.116   5.996   0.839
10085SOL    HW231155   3.004   6.082   0.757
10086SOL     OW31156   5.346   6.435   2.001
10086SOL    HW131157   5.278   6.485   2.054
10086SOL    HW231158   5.396   6.372   2.061
10087SOL     OW31159   6.485   5.970   4.140
10087SOL    HW131160   6.451   5.876   4.130
10087SOL    HW231161   6.458   6.024   4.060
10088SOL     OW31162   6.720   6.918   2.073
10088SOL    HW131163   6.795   6.912   2.139
10088SOL    HW231164   6.681   6.827   2.059
10089SOL     OW31165   2.395   1.996   3.298
10089SOL    HW131166   2.324   1.934   3.330
10089SOL    HW231167   2.460   2.013   3.373
10090SOL     OW31168   0.643   4.940   1.772
10090SOL    HW131169   0.692   5.011   1.723
10090SOL    HW231170   0.701   4.904   1.845
10091SOL     OW31171   6.968   5.170   6.175
10091SOL    HW131172   6.946   5.158   6.079
10091SOL    HW231173   0.026   5.225   6.185
10092SOL     OW31174   2.604   2.847   5.521
10092SOL    HW131175   2.618   2.766   5.578
10092SOL    HW231176   2.574   2.819   5.430
10093SOL     OW31177   4.540   3.212   5.842
10093SOL    HW131178   4.548   3.116   5.866
10093SOL    HW231179   4.611   3.237   5.776
10094SOL     OW31180   3.456   5.632   1.451
10094SOL    HW131181   3.374   5.679   1.418
10094SOL    HW231182   3.460   5.639   1.551
10095SOL     OW31183   5.768   1.731   4.236
10095SOL    HW131184   5.755   1.722   4.335
10095SOL    HW231185   5.679   1.724   4.190
10096SOL     OW31186   3.686   5.517   3.316
10096SOL    HW131187   3.707   5.614   3.303
10096SOL    HW231188   3.638   5.482   3.236
10097SOL     OW31189   1.524   1.966   6.846
10097SOL    HW131190   1.582   1.885   6.854
10097SOL    HW231191   1.432   1.945   6.882
10098SOL     OW31192   3.240   0.169   5.476
10098SOL    HW131193   3.287   0.086   5.506
10098SOL    HW231194   3.186   0.148   5.395
10099SOL     OW31195   1.019   4.942   1.503
10099SOL    HW131196   1.109   4.934   1.459
10099SOL    HW231197   0.971   4.854   1.496
10100SOL     OW31198   5.094   5.676   6.037
10100SOL    HW131199   5.110   5.594   5.982
10100SOL    HW231200   5.045   5.651   6.121
10101SOL     OW31201   6.092   2.844   1.972
10101SOL    HW131202   6.125   2.931   1.935
10101SOL    HW231203   6.150   2.770   1.938
10102SOL     OW31204   0.039   1.201   2.159
10102SOL    HW131205   6.970   1.223   2.187
10102SOL    HW231206   0.077   1.277   2.107
10103SOL     OW31207   2.926   0.388   5.478
10103SOL    HW131208   2.840   0.414   5.523
10103SOL    HW231209   2.974   0.322   5.535
10104SOL     OW31210   1.305   2.142   5.106
10104SOL    HW131211   1.309   2.215   5.174
10104SOL    HW231212   1.271   2.058   5.148
10105SOL     OW31213   1.918   0.814   6.337
10105SOL    HW131214   1.951   0.822   6.431
10105SOL    HW231215   1.987   0.769   6.280
10106SOL     OW31216   4.174   6.621   0.756
10106SOL    HW131217   4.093   6.595   0.703
10106SOL    HW231218   4.244   6.658   0.694
10107SOL     OW31219   5.325   1.595   5.365
10107SOL    HW131220   5.246   1.544   5.399
10107SOL    HW231221   5.297   1.688   5.341
10108SOL     OW31222   6.506   0.858   0.521
10108SOL    HW131223   6.514   0.856   0.421
10108SOL    HW231224   6.469   0.771   0.554
10109SOL     OW31225   6.858   1.087   0.256
10109SOL    HW131226   6.837   1.033   0.337
10109SOL    HW231227   6.853   1.029   0.174
10110SOL     OW31228   5.356   4.952   4.191
10110SOL    HW131229   5.277   5.014   4.197
10110SOL    HW231230   5.351   4.900   4.105
10111SOL     OW31231   6.038   3.422   4.023
10111SOL    HW131232   6.099   3.466   4.089
10111SOL    HW231233   6.090   3.389   3.945
10112SOL     OW31234   5.938   3.758   3.598
10112SOL    HW131235   5.872   3.683   3.601
10112SOL    HW231236   5.889   3.845   3.603
10113SOL     OW31237   4.124   0.181   6.884
10113SOL    HW131238   4.110   0.104   6.947
10113SOL    HW231239   4.115   0.148   6.790
10114SOL     OW31240   4.062   2.135   2.357
10114SOL    HW131241   3.995   2.132   2.282
10114SOL    HW231242   4.123   2.213   2.344
10115SOL     OW31243   4.290   1.488   5.234
10115SOL    HW131244   4.261   1.567   5.288
10115SOL    HW231245   4.250   1.405   5.272
10116SOL     OW31246   1.288   0.603   0.142
10116SOL    HW131247   1.387   0.601   0.153
10116SOL    HW231248   1.247   0.526   0.192
10117SOL     OW31249   6.706   6.291   6.072
10117SOL    HW131250   6.730   6.388   6.085
10117SOL    HW231251   6.686   6.250   6.161
10118SOL     OW31252   2.398   4.543   3.704
10118SOL    HW131253   2.347   4.461   3.728
10118SOL    HW231254   2.354   4.588   3.627
10119SOL     OW31255   6.595   5.197   4.403
10119SOL    HW131256   6.641   5.183   4.315
10119SOL    HW231257   6.539   5.280   4.398
10120SOL     OW31258   1.977   3.424   4.346
10120SOL    HW131259   1.953   3.506   4.397
10120SOL    HW231260   1.916   3.414   4.267
10121SOL     OW31261   5.575   4.001   6.675
10121SOL    HW131262   5.659   4.022   6.724
10121SOL    HW231263   5.563   4.067   6.601
10122SOL     OW31264   5.609   2.785   3.128
10122SOL    HW131265   5.627   2.878   3.161
10122SOL    HW231266   5.512   2.763   3.143
10123SOL     OW31267   5.585   6.014   0.695
10123SOL    HW131268   5.576   5.915   0.681
10123SOL    HW231269   5.567   6.061   0.609
10124SOL     OW31270   1.622   4.715   0.310
10124SOL    HW131271   1.610   4.778   0.387
10124SOL    HW231272   1.588   4.757   0.226
10125SOL     OW31273   2.043   1.869   0.884
10125SOL    HW131274   1.985   1.901   0.810
10125SOL    HW231275   2.062   1.944   0.947
10126SOL     OW31276   0.178   0.209   0.519
10126SOL    HW131277   0.128   0.202   0.605
10126SOL    HW231278   0.130   0.156   0.448
10127SOL     OW31279   2.138   3.921   0.308
10127SOL    HW131280   2.123   3.825   0.285
10127SOL    HW231281   2.051   3.968   0.319
10128SOL     OW31282   3.490   0.937   6.581
10128SOL    HW131283   3.581   0.895   6.580
10128SOL    HW231284   3.475   0.986   6.495
10129SOL     OW31285   6.680   1.605   3.121
10129SOL    HW131286   6.682   1.590   3.220
10129SOL    HW231287   6.596   1.651   3.095
10130SOL     OW31288   1.222   3.345   1.275
10130SOL    HW131289   1.157   3.269   1.275
10130SOL    HW231290   1.219   3.392   1.187
10131SOL     OW31291   2.118   6.882   4.369
10131SOL    HW131292   2.102   6.827   4.450
10131SOL    HW231293   2.216   6.886   4.349
10132SOL     OW31294   2.433   0.448   3.296
10132SOL    HW131295   2.340   0.486   3.302
10132SOL    HW231296   2.439   0.366   3.352
10133SOL     OW31297   4.864   6.306   1.227
10133SOL    HW131298   4.916   6.391   1.229
10133SOL    HW231299   4.772   6.324   1.191
10134SOL     OW31300   6.465   1.209   2.454
10134SOL    HW131301   6.404   1.138   2.490
10134SOL    HW231302   6.478   1.280   2.523
10135SOL     OW31303   5.027   3.073   3.778
10135SOL    HW131304   5.051   3.007   3.849
10135SOL    HW231305   4.931   3.061   3.753
10136SOL     OW31306   4.997   1.825   2.244
10136SOL    HW131307   4.999   1.743   2.187
10136SOL    HW231308   4.916   1.824   2.302
10137SOL     OW31309   0.708   4.233   4.748
10137SOL    HW131310   0.628   4.258   4.803
10137SOL    HW231311   0.685   4.154   4.691
10138SOL     OW31312   4.985   3.830   0.644
10138SOL    HW131313   4.977   3.789   0.735
10138SOL    HW231314   4.947   3.768   0.576
10139SOL     OW31315   3.117   3.037   3.995
10139SOL    HW131316   3.114   2.952   3.943
10139SOL    HW231317   3.068   3.109   3.946
10140SOL     OW31318   0.256   6.209   0.102
10140SOL    HW131319   0.230   6.210   0.005
10140SOL    HW231320   0.351   6.239   0.111
10141SOL     OW31321   4.436   0.980   5.386
10141SOL    HW131322   4.444   1.070   5.429
10141SOL    HW231323   4.343   0.946   5.398
10142SOL     OW31324   6.026   6.657   5.696
10142SOL    HW131325   5.953   6.589   5.695
10142SOL    HW231326   5.988   6.748   5.688
10143SOL     OW31327   5.522   2.195   0.949
10143SOL    HW131328   5.583   2.144   1.009
10143SOL    HW231329   5.429   2.163   0.960
10144SOL     OW31330   4.206   0.038   6.290
10144SOL    HW131331   4.171   0.058   6.199
10144SOL    HW231332   4.262   0.114   6.323
10145SOL     OW31333   3.039   5.852   2.824
10145SOL    HW131334   3.116   5.883   2.880
10145SOL    HW231335   2.956   5.852   2.880
10146SOL     OW31336   5.406   4.366   4.627
10146SOL    HW131337   5.311   4.339   4.640
10146SOL    HW231338   5.450   4.304   4.562
10147SOL     OW31339   4.625   4.010   6.295
10147SOL    HW131340   4.601   3.994   6.390
10147SOL    HW231341   4.666   3.927   6.256
10148SOL     OW31342   5.576   5.050   6.953
10148SOL    HW131343   5.481   5.031   6.928
10148SOL    HW231344   5.614   4.972   7.002
10149SOL     OW31345   5.629   3.572   1.440
10149SOL    HW131346   5.565   3.497   1.459
10149SOL    HW231347   5.722   3.540   1.454
10150SOL     OW31348   4.352   2.756   1.630
10150SOL    HW131349   4.257   2.775   1.655
10150SOL    HW231350   4.409   2.835   1.654
10151SOL     OW31351   0.985   6.826   0.068
10151SOL    HW131352   0.938   6.902   0.021
10151SOL    HW231353   0.917   6.760   0.100
10152SOL     OW31354   0.162   6.341   3.428
10152SOL    HW131355   0.140   6.313   3.521
10152SOL    HW231356   0.248   6.300   3.400
10153SOL     OW31357   4.889   6.195   3.606
10153SOL    HW131358   4.836   6.121   3.648
10153SOL    HW231359   4.914   6.262   3.676
10154SOL     OW31360   3.745   6.548   5.027
10154SOL    HW131361   3.719   6.642   5.008
10154SOL    HW231362   3.685   6.486   4.977
10155SOL     OW31363   5.011   2.027   6.346
10155SOL    HW131364   4.945   2.050   6.274
10155SOL    HW231365   5.005   2.094   6.419
10156SOL     OW31366   5.695   0.425   1.980
10156SOL    HW131367   5.617   0.426   2.043
10156SOL    HW231368   5.769   0.481   2.018
10157SOL     OW31369   0.054   2.219   0.467
10157SOL    HW131370   0.129   2.282   0.448
10157SOL    HW231371   0.065   2.180   0.559
10158SOL     OW31372   6.111   6.442   1.144
10158SOL    HW131373   6.177   6.366   1.145
10158SOL    HW231374   6.122   6.494   1.059
10159SOL     OW31375   3.655   2.601   1.732
10159SOL    HW131376   3.661   2.515   1.781
10159SOL    HW231377   3.737   2.612   1.675
10160SOL     OW31378   1.393   3.248   3.375
10160SOL    HW131379   1.359   3.234   3.468
10160SOL    HW231380   1.463   3.179   3.355
10161SOL     OW31381   3.497   4.345   0.069
10161SOL    HW131382   3.514   4.383   7.003
10161SOL    HW231383   3.401   4.358   0.094
10162SOL     OW31384   2.852   5.259   0.586
10162SOL    HW131385   2.936   5.207   0.602
10162SOL    HW231386   2.830   5.312   0.668
10163SOL     OW31387   0.484   3.918   6.931
10163SOL    HW131388   0.397   3.966   6.944
10163SOL    HW231389   0.512   3.877   7.018
10164SOL     OW31390   6.243   3.523   5.005
10164SOL    HW131391   6.263   3.509   5.102
10164SOL    HW231392   6.159   3.576   4.996
10165SOL     OW31393   6.877   2.047   3.429
10165SOL    HW131394   6.788   2.079   3.399
10165SOL    HW231395   6.908   2.101   3.508
10166SOL     OW31396   2.446   1.863   1.624
10166SOL    HW131397   2.503   1.908   1.555
10166SOL    HW231398   2.354   1.848   1.587
10167SOL     OW31399   0.601   5.335   0.626
10167SOL    HW131400   0.606   5.363   0.530
10167SOL    HW231401   0.656   5.253   0.640
10168SOL     OW31402   6.987   2.353   5.841
10168SOL    HW131403   0.026   2.336   5.766
10168SOL    HW231404   6.894   2.361   5.805
10169SOL     OW31405   0.360   3.890   3.887
10169SOL    HW131406   0.294   3.816   3.876
10169SOL    HW231407   0.413   3.901   3.803
10170SOL     OW31408   6.601   4.961   6.476
10170SOL    HW131409   6.635   4.973   6.383
10170SOL    HW231410   6.660   4.897   6.525
10171SOL     OW31411   0.854   3.041   5.129
10171SOL    HW131412   0.806   2.954   5.121
10171SOL    HW231413   0.791   3.112   5.162
10172SOL     OW31414   1.124   6.055   4.264
10172SOL    HW131415   1.112   5.956   4.265
10172SOL    HW231416   1.100   6.092   4.354
10173SOL     OW31417   1.636   2.906   0.699
10173SOL    HW131418   1.581   2.975   0.746
10173SOL    HW231419   1.580   2.827   0.677
10174SOL     OW31420   5.174   4.835   3.686
10174SOL    HW131421   5.212   4.815   3.596
10174SOL    HW231422   5.099   4.900   3.677
10175SOL     OW31423   4.903   2.546   3.736
10175SOL    HW131424   4.985   2.588   3.697
10175SOL    HW231425   4.879   2.464   3.685
10176SOL     OW31426   6.971   3.148   5.342
10176SOL    HW131427   0.010   3.118   5.413
10176SOL    HW231428   6.917   3.070   5.311
10177SOL     OW31429   1.877   0.952   0.308
10177SOL    HW131430   1.923   1.033   0.344
10177SOL    HW231431   1.833   0.975   0.221
10178SOL     OW31432   0.609   0.717   0.252
10178SOL    HW131433   0.686   0.658   0.226
10178SOL    HW231434   0.540   0.663   0.299
10179SOL     OW31435   0.453   3.131   6.734
10179SOL    HW131436   0.427   3.063   6.666
10179SOL    HW231437   0.403   3.114   6.819
10180SOL     OW31438   4.826   0.615   0.510
10180SOL    HW131439   4.841   0.620   0.412
10180SOL    HW231440   4.806   0.520   0.536
10181SOL     OW31441   0.210   2.452   1.305
10181SOL    HW131442   0.227   2.550   1.291
10181SOL    HW231443   0.287   2.412   1.355
10182SOL     OW31444   5.076   0.830   0.132
10182SOL    HW131445   5.083   0.762   0.058
10182SOL    HW231446   5.155   0.821   0.192
10183SOL     OW31447   5.845   2.499   5.449
10183SOL    HW131448   5.805   2.570   5.391
10183SOL    HW231449   5.801   2.501   5.539
10184SOL     OW31450   4.403   2.375   6.484
10184SOL    HW131451   4.345   2.390   6.564
10184SOL    HW231452   4.451   2.287   6.493
10185SOL     OW31453   6.282   6.180   2.112
10185SOL    HW131454   6.264   6.167   2.014
10185SOL    HW231455   6.216   6.126   2.165
10186SOL     OW31456   5.249   4.049   4.415
10186SOL    HW131457   5.223   4.038   4.511
10186SOL    HW231458   5.330   4.107   4.408
10187SOL     OW31459   1.115   4.071   6.800
10187SOL    HW131460   1.044   4.048   6.734
10187SOL    HW231461   1.204   4.066   6.756
10188SOL     OW31462   3.432   5.159   6.856
10188SOL    HW131463   3.513   5.203   6.818
10188SOL    HW231464   3.424   5.182   6.953
10189SOL     OW31465   0.514   1.011   6.205
10189SOL    HW131466   0.426   1.058   6.205
10189SOL    HW231467   0.500   0.916   6.176
10190SOL     OW31468   4.181   2.635   1.325
10190SOL    HW131469   4.112   2.660   1.392
10190SOL    HW231470   4.250   2.577   1.368
10191SOL     OW31471   4.878   5.389   6.814
10191SOL    HW131472   4.877   5.353   6.907
10191SOL    HW231473   4.946   5.462   6.807
10192SOL     OW31474   3.810   1.104   4.982
10192SOL    HW131475   3.867   1.085   4.901
10192SOL    HW231476   3.846   1.184   5.029
10193SOL     OW31477   3.132   3.506   2.763
10193SOL    HW131478   3.096   3.503   2.856
10193SOL    HW231479   3.101   3.590   2.718
10194SOL     OW31480   4.751   0.438   4.923
10194SOL    HW131481   4.796   0.363   4.875
10194SOL    HW231482   4.664   0.458   4.880
10195SOL     OW31483   6.482   6.647   0.873
10195SOL    HW131484   6.425   6.577   0.916
10195SOL    HW231485   6.505   6.717   0.941
10196SOL     OW31486   4.545   2.205   3.916
10196SOL    HW131487   4.471   2.271   3.907
10196SOL    HW231488   4.628   2.252   3.948
10197SOL     OW31489   5.357   2.193   4.545
10197SOL    HW131490   5.341   2.241   4.458
10197SOL    HW231491   5.441   2.139   4.538
10198SOL     OW31492   3.825   6.993   1.489
10198SOL    HW131493   3.767   0.046   1.466
10198SOL    HW231494   3.859   7.003   1.583
10199SOL     OW31495   1.093   2.132   0.080
10199SOL    HW131496   1.040   2.052   0.109
10199SOL    HW231497   1.038   2.215   0.091
10200SOL     OW31498   4.807   3.304   5.705
10200SOL    HW131499   4.859   3.270   5.628
10200SOL    HW231500   4.826   3.402   5.718
10201SOL     OW31501   0.735   6.230   0.702
10201SOL    HW131502   0.775   6.317   0.728
10201SOL    HW231503   0.646   6.245   0.659
10202SOL     OW31504   2.104   4.461   0.178
10202SOL    HW131505   2.027   4.524   0.189
10202SOL    HW231506   2.133   4.428   0.268
10203SOL     OW31507   6.947   2.926   1.769
10203SOL    HW131508   6.973   2.988   1.694
10203SOL    HW231509   0.004   2.899   1.820
10204SOL     OW31510   3.891   5.821   6.942
10204SOL    HW131511   3.901   5.916   6.913
10204SOL    HW231512   3.797   5.790   6.926
10205SOL     OW31513   3.143   1.223   2.126
10205SOL    HW131514   3.195   1.266   2.200
10205SOL    HW231515   3.059   1.275   2.108
10206SOL     OW31516   6.385   6.778   6.742
10206SOL    HW131517   6.335   6.860   6.768
10206SOL    HW231518   6.343   6.737   6.662
10207SOL     OW31519   2.126   1.896   6.842
10207SOL    HW131520   2.181   1.887   6.759
10207SOL    HW231521   2.183   1.881   6.922
10208SOL     OW31522   6.533   4.807   3.490
10208SOL    HW131523   6.562   4.726   3.542
10208SOL    HW231524   6.454   4.783   3.433
10209SOL     OW31525   0.084   6.970   6.253
10209SOL    HW131526   7.024   7.020   6.237
10209SOL    HW231527   0.108   6.973   6.350
10210SOL     OW31528   5.316   6.499   1.101
10210SOL    HW131529   5.375   6.539   1.171
10210SOL    HW231530   5.285   6.571   1.039
10211SOL     OW31531   4.012   5.914   5.012
10211SOL    HW131532   3.982   5.989   5.070
10211SOL    HW231533   4.085   5.947   4.951
10212SOL     OW31534   6.909   6.737   5.128
10212SOL    HW131535   6.926   6.801   5.053
10212SOL    HW231536   6.833   6.770   5.184
10213SOL     OW31537   5.365   3.147   2.478
10213SOL    HW131538   5.364   3.079   2.405
10213SOL    HW231539   5.273   3.155   2.518
10214SOL     OW31540   1.090   1.793   2.064
10214SOL    HW131541   1.075   1.694   2.064
10214SOL    HW231542   1.115   1.822   2.157
10215SOL     OW31543   3.145   3.191   3.576
10215SOL    HW131544   3.167   3.284   3.604
10215SOL    HW231545   3.110   3.191   3.483
10216SOL     OW31546   0.558   0.048   0.991
10216SOL    HW131547   0.648   0.065   1.031
10216SOL    HW231548   0.559   0.074   0.894
10217SOL     OW31549   2.040   2.240   3.535
10217SOL    HW131550   2.047   2.185   3.618
10217SOL    HW231551   1.968   2.204   3.477
10218SOL     OW31552   1.559   0.775   1.888
10218SOL    HW131553   1.504   0.746   1.810
10218SOL    HW231554   1.622   0.702   1.914
10219SOL     OW31555   6.994   3.321   2.465
10219SOL    HW131556   6.972   3.395   2.529
10219SOL    HW231557   0.053   3.275   2.495
10220SOL     OW31558   4.115   1.629   0.837
10220SOL    HW131559   4.076   1.637   0.928
10220SOL    HW231560   4.209   1.595   0.844
10221SOL     OW31561   1.818   3.655   4.675
10221SOL    HW131562   1.829   3.558   4.697
10221SOL    HW231563   1.758   3.699   4.742
10222SOL     OW31564   2.533   3.604   5.698
10222SOL    HW131565   2.520   3.608   5.599
10222SOL    HW231566   2.590   3.524   5.721
10223SOL     OW31567   2.131   5.825   6.376
10223SOL    HW131568   2.105   5.779   6.461
10223SOL    HW231569   2.156   5.757   6.307
10224SOL     OW31570   6.989   1.798   5.155
10224SOL    HW131571   0.033   1.845   5.098
10224SOL    HW231572   6.905   1.852   5.157
10225SOL     OW31573   2.042   6.251   5.917
10225SOL    HW131574   2.012   6.346   5.922
10225SOL    HW231575   2.142   6.248   5.912
10226SOL     OW31576   2.272   0.746   6.505
10226SOL    HW131577   2.172   0.755   6.508
10226SOL    HW231578   2.296   0.649   6.509
10227SOL     OW31579   5.131   4.453   0.582
10227SOL    HW131580   5.130   4.430   0.679
10227SOL    HW231581   5.076   4.386   0.531
10228SOL     OW31582   0.840   6.486   1.662
10228SOL    HW131583   0.851   6.526   1.571
10228SOL    HW231584   0.764   6.422   1.662
10229SOL     OW31585   1.446   1.657   4.327
10229SOL    HW131586   1.366   1.597   4.334
10229SOL    HW231587   1.528   1.602   4.314
10230SOL     OW31588   6.367   6.935   2.718
10230SOL    HW131589   6.314   6.924   2.633
10230SOL    HW231590   6.421   6.852   2.734
10231SOL     OW31591   6.452   5.261   5.210
10231SOL    HW131592   6.517   5.336   5.202
10231SOL    HW231593   6.472   5.190   5.143
10232SOL     OW31594   2.757   1.127   4.558
10232SOL    HW131595   2.769   1.040   4.509
10232SOL    HW231596   2.664   1.133   4.594
10233SOL     OW31597   4.665   3.335   5.312
10233SOL    HW131598   4.747   3.360   5.364
10233SOL    HW231599   4.639   3.410   5.252
10234SOL     OW31600   5.679   0.093   6.917
10234SOL    HW131601   5.612   0.165   6.898
10234SOL    HW231602   5.764   0.134   6.950
10235SOL     OW31603   3.727   3.160   0.504
10235SOL    HW131604   3.692   3.118   0.588
10235SOL    HW231605   3.678   3.125   0.425
10236SOL     OW31606   2.134   0.905   1.517
10236SOL    HW131607   2.165   0.845   1.444
10236SOL    HW231608   2.088   0.984   1.477
10237SOL     OW31609   6.903   4.472   0.363
10237SOL    HW131610   6.890   4.492   0.265
10237SOL    HW231611   6.922   4.374   0.374
10238SOL     OW31612   3.361   4.155   2.821
10238SOL    HW131613   3.396   4.093   2.892
10238SOL    HW231614   3.336   4.242   2.862
10239SOL     OW31615   2.239   4.584   5.579
10239SOL    HW131616   2.168   4.519   5.607
10239SOL    HW231617   2.237   4.663   5.640
10240SOL     OW31618   1.608   4.872   2.628
10240SOL    HW131619   1.623   4.883   2.530
10240SOL    HW231620   1.523   4.821   2.644
10241SOL     OW31621   6.656   0.471   2.434
10241SOL    HW131622   6.750   0.479   2.402
10241SOL    HW231623   6.642   0.533   2.511
10242SOL     OW31624   6.735   1.609   0.801
10242SOL    HW131625   6.690   1.697   0.808
10242SOL    HW231626   6.821   1.611   0.852
10243SOL     OW31627   1.663   5.121   1.870
10243SOL    HW131628   1.619   5.104   1.958
10243SOL    HW231629   1.758   5.092   1.874
10244SOL     OW31630   1.556   4.119   0.918
10244SOL    HW131631   1.627   4.086   0.855
10244SOL    HW231632   1.591   4.197   0.970
10245SOL     OW31633   2.632   4.788   0.539
10245SOL    HW131634   2.570   4.852   0.494
10245SOL    HW231635   2.614   4.788   0.637
10246SOL     OW31636   3.401   3.990   3.036
10246SOL    HW131637   3.314   3.965   3.079
10246SOL    HW231638   3.469   4.011   3.106
10247SOL     OW31639   6.724   4.406   6.019
10247SOL    HW131640   6.778   4.398   5.935
10247SOL    HW231641   6.690   4.499   6.028
10248SOL     OW31642   2.290   0.156   2.483
10248SOL    HW131643   2.242   0.216   2.547
10248SOL    HW231644   2.232   0.077   2.462
10249SOL     OW31645   3.094   0.087   6.575
10249SOL    HW131646   3.038   0.163   6.540
10249SOL    HW231647   3.177   0.124   6.616
10250SOL     OW31648   6.546   2.916   1.627
10250SOL    HW131649   6.448   2.938   1.633
10250SOL    HW231650   6.596   2.967   1.696
10251SOL     OW31651   2.961   1.507   5.039
10251SOL    HW131652   2.990   1.566   4.964
10251SOL    HW231653   3.042   1.472   5.087
10252SOL     OW31654   4.254   4.664   0.018
10252SOL    HW131655   4.333   4.630   6.992
10252SOL    HW231656   4.206   4.733   6.987
10253SOL     OW31657   2.796   5.815   0.585
10253SOL    HW131658   2.892   5.827   0.561
10253SOL    HW231659   2.776   5.717   0.596
10254SOL     OW31660   4.569   0.505   4.738
10254SOL    HW131661   4.614   0.539   4.655
10254SOL    HW231662   4.501   0.572   4.768
10255SOL     OW31663   2.343   6.853   1.233
10255SOL    HW131664   2.271   6.918   1.211
10255SOL    HW231665   2.340   6.830   1.330
10256SOL     OW31666   6.247   1.120   1.954
10256SOL    HW131667   6.267   1.025   1.928
10256SOL    HW231668   6.261   1.131   2.052
10257SOL     OW31669   2.029   5.008   4.516
10257SOL    HW131670   2.025   4.924   4.462
10257SOL    HW231671   2.113   5.009   4.570
10258SOL     OW31672   3.170   1.188   3.612
10258SOL    HW131673   3.190   1.097   3.649
10258SOL    HW231674   3.241   1.252   3.641
10259SOL     OW31675   0.391   4.459   2.749
10259SOL    HW131676   0.469   4.398   2.757
10259SOL    HW231677   0.306   4.405   2.747
10260SOL     OW31678   0.504   1.307   4.274
10260SOL    HW131679   0.488   1.247   4.352
10260SOL    HW231680   0.564   1.261   4.208
10261SOL     OW31681   6.865   6.110   3.102
10261SOL    HW131682   6.769   6.087   3.087
10261SOL    HW231683   6.874   6.164   3.185
10262SOL     OW31684   1.732   6.935   4.484
10262SOL    HW131685   1.672   6.890   4.550
10262SOL    HW231686   1.691   6.929   4.393
10263SOL     OW31687   5.424   0.751   6.392
10263SOL    HW131688   5.358   0.737   6.319
10263SOL    HW231689   5.383   0.722   6.479
10264SOL     OW31690   5.968   1.822   5.917
10264SOL    HW131691   5.872   1.847   5.930
10264SOL    HW231692   5.976   1.764   5.835
10265SOL     OW31693   2.273   2.222   3.156
10265SOL    HW131694   2.212   2.300   3.142
10265SOL    HW231695   2.294   2.213   3.253
10266SOL     OW31696   3.515   2.908   4.272
10266SOL    HW131697   3.541   2.890   4.367
10266SOL    HW231698   3.575   2.856   4.211
10267SOL     OW31699   0.306   1.795   0.018
10267SOL    HW131700   0.334   1.882   0.059
10267SOL    HW231701   0.338   1.720   0.076
10268SOL     OW31702   5.756   5.178   2.329
10268SOL    HW131703   5.723   5.197   2.421
10268SOL    HW231704   5.843   5.227   2.314
10269SOL     OW31705   0.426   3.266   0.142
10269SOL    HW131706   0.464   3.212   0.217
10269SOL    HW231707   0.337   3.303   0.169
10270SOL     OW31708   2.797   4.846   3.471
10270SOL    HW131709   2.723   4.908   3.498
10270SOL    HW231710   2.764   4.752   3.476
10271SOL     OW31711   3.823   2.375   0.069
10271SOL    HW131712   3.857   2.345   7.004
10271SOL    HW231713   3.877   2.453   0.100
10272SOL     OW31714   0.643   0.861   4.780
10272SOL    HW131715   0.654   0.780   4.837
10272SOL    HW231716   0.552   0.860   4.738
10273SOL     OW31717   3.431   5.865   2.403
10273SOL    HW131718   3.518   5.899   2.437
10273SOL    HW231719   3.429   5.766   2.410
10274SOL     OW31720   6.915   5.313   3.968
10274SOL    HW131721   6.878   5.260   4.044
10274SOL    HW231722   6.994   5.266   3.930
10275SOL     OW31723   0.977   0.018   1.848
10275SOL    HW131724   1.033   0.097   1.873
10275SOL    HW231725   0.964   6.985   1.929
10276SOL     OW31726   5.951   5.172   5.428
10276SOL    HW131727   5.923   5.127   5.344
10276SOL    HW231728   6.021   5.240   5.407
10277SOL     OW31729   2.161   5.375   4.008
10277SOL    HW131730   2.121   5.310   4.071
10277SOL    HW231731   2.132   5.468   4.032
10278SOL     OW31732   0.120   0.684   4.604
10278SOL    HW131733   0.045   0.636   4.651
10278SOL    HW231734   0.160   0.624   4.535
10279SOL     OW31735   2.990   5.082   4.186
10279SOL    HW131736   2.941   5.080   4.273
10279SOL    HW231737   2.940   5.141   4.122
10280SOL     OW31738   0.678   4.216   1.011
10280SOL    HW131739   0.762   4.161   1.010
10280SOL    HW231740   0.698   4.307   1.046
10281SOL     OW31741   5.961   1.189   2.549
10281SOL    HW131742   6.047   1.193   2.599
10281SOL    HW231743   5.896   1.254   2.590
10282SOL     OW31744   5.688   4.606   4.242
10282SOL    HW131745   5.601   4.641   4.279
10282SOL    HW231746   5.756   4.603   4.315
10283SOL     OW31747   1.083   3.761   1.330
10283SOL    HW131748   1.147   3.788   1.259
10283SOL    HW231749   0.991   3.792   1.306
10284SOL     OW31750   5.486   3.166   5.709
10284SOL    HW131751   5.443   3.172   5.799
10284SOL    HW231752   5.419   3.133   5.643
10285SOL     OW31753   5.410   0.784   1.947
10285SOL    HW131754   5.454   0.792   1.858
10285SOL    HW231755   5.327   0.729   1.939
10286SOL     OW31756   2.832   1.951   3.840
10286SOL    HW131757   2.860   1.972   3.747
10286SOL    HW231758   2.912   1.927   3.895
10287SOL     OW31759   2.487   6.293   1.190
10287SOL    HW131760   2.468   6.362   1.260
10287SOL    HW231761   2.447   6.206   1.217
10288SOL     OW31762   4.192   5.702   3.389
10288SOL    HW131763   4.182   5.619   3.444
10288SOL    HW231764   4.275   5.751   3.416
10289SOL     OW31765   2.351   6.865   1.823
10289SOL    HW131766   2.413   6.889   1.747
10289SOL    HW231767   2.401   6.869   1.909
10290SOL     OW31768   3.031   3.419   2.149
10290SOL    HW131769   3.026   3.365   2.233
10290SOL    HW231770   2.995   3.511   2.166
10291SOL     OW31771   3.371   1.856   3.531
10291SOL    HW131772   3.287   1.900   3.499
10291SOL    HW231773   3.351   1.800   3.611
10292SOL     OW31774   1.344   7.015   4.811
10292SOL    HW131775   1.352   7.003   4.910
10292SOL    HW231776   1.311   0.083   4.791
10293SOL     OW31777   1.935   4.808   3.260
10293SOL    HW131778   2.024   4.766   3.242
10293SOL    HW231779   1.901   4.850   3.176
10294SOL     OW31780   5.436   3.472   2.168
10294SOL    HW131781   5.388   3.511   2.090
10294SOL    HW231782   5.371   3.455   2.242
10295SOL     OW31783   5.482   4.098   6.151
10295SOL    HW131784   5.551   4.157   6.193
10295SOL    HW231785   5.486   4.007   6.193
10296SOL     OW31786   4.658   2.744   0.044
10296SOL    HW131787   4.757   2.739   0.027
10296SOL    HW231788   4.610   2.742   6.981
10297SOL     OW31789   2.086   6.858   6.814
10297SOL    HW131790   1.999   6.855   6.764
10297SOL    HW231791   2.161   6.866   6.749
10298SOL     OW31792   3.593   4.996   1.824
10298SOL    HW131793   3.617   4.940   1.903
10298SOL    HW231794   3.624   4.951   1.741
10299SOL     OW31795   4.728   5.181   2.970
10299SOL    HW131796   4.770   5.182   3.061
10299SOL    HW231797   4.795   5.208   2.902
10300SOL     OW31798   1.013   3.952   3.423
10300SOL    HW131799   1.073   3.964   3.502
10300SOL    HW231800   1.068   3.936   3.342
10301SOL     OW31801   5.660   2.197   4.680
10301SOL    HW131802   5.587   2.224   4.743
10301SOL    HW231803   5.633   2.114   4.630
10302SOL     OW31804   1.344   6.367   3.742
10302SOL    HW131805   1.427   6.337   3.789
10302SOL    HW231806   1.370   6.406   3.653
10303SOL     OW31807   1.669   5.841   2.814
10303SOL    HW131808   1.651   5.931   2.773
10303SOL    HW231809   1.583   5.803   2.848
10304SOL     OW31810   5.034   0.299   1.967
10304SOL    HW131811   5.109   0.273   2.028
10304SOL    HW231812   5.068   0.304   1.873
10305SOL     OW31813   0.700   4.342   6.948
10305SOL    HW131814   0.727   4.248   6.971
10305SOL    HW231815   0.711   4.356   6.850
10306SOL     OW31816   4.728   6.225   6.886
10306SOL    HW131817   4.645   6.264   6.926
10306SOL    HW231818   4.772   6.164   6.952
10307SOL     OW31819   2.424   1.935   5.167
10307SOL    HW131820   2.356   1.966   5.101
10307SOL    HW231821   2.399   1.966   5.258
10308SOL     OW31822   2.321   4.672   4.315
10308SOL    HW131823   2.315   4.573   4.300
10308SOL    HW231824   2.392   4.691   4.383
10309SOL     OW31825   5.757   1.460   4.783
10309SOL    HW131826   5.759   1.533   4.852
10309SOL    HW231827   5.739   1.372   4.828
10310SOL     OW31828   3.825   3.047   1.707
10310SOL    HW131829   3.836   2.965   1.763
10310SOL    HW231830   3.747   3.037   1.647
10311SOL     OW31831   1.146   6.629   0.517
10311SOL    HW131832   1.096   6.579   0.587
10311SOL    HW231833   1.214   6.569   0.475
10312SOL     OW31834   2.727   6.284   1.568
10312SOL    HW131835   2.814   6.237   1.580
10312SOL    HW231836   2.739   6.382   1.583
10313SOL     OW31837   4.718   0.246   1.103
10313SOL    HW131838   4.733   0.228   1.200
10313SOL    HW231839   4.729   0.161   1.052
10314SOL     OW31840   6.646   0.108   2.273
10314SOL    HW131841   6.566   0.048   2.277
10314SOL    HW231842   6.670   0.124   2.177
10315SOL     OW31843   6.275   6.086   4.547
10315SOL    HW131844   6.315   6.001   4.581
10315SOL    HW231845   6.200   6.066   4.484
10316SOL     OW31846   6.562   2.889   4.962
10316SOL    HW131847   6.482   2.940   4.992
10316SOL    HW231848   6.573   2.898   4.863
10317SOL     OW31849   3.226   5.594   5.798
10317SOL    HW131850   3.158   5.600   5.870
10317SOL    HW231851   3.229   5.681   5.748
10318SOL     OW31852   5.686   5.496   6.676
10318SOL    HW131853   5.697   5.548   6.760
10318SOL    HW231854   5.753   5.527   6.608
10319SOL     OW31855   1.493   2.486   5.543
10319SOL    HW131856   1.448   2.402   5.574
10319SOL    HW231857   1.495   2.488   5.443
10320SOL     OW31858   1.028   0.618   2.804
10320SOL    HW131859   0.992   0.704   2.769
10320SOL    HW231860   0.956   0.569   2.852
10321SOL     OW31861   4.436   1.015   2.609
10321SOL    HW131862   4.403   1.092   2.556
10321SOL    HW231863   4.520   1.042   2.657
10322SOL     OW31864   6.898   5.646   6.561
10322SOL    HW131865   6.888   5.573   6.493
10322SOL    HW231866   6.942   5.609   6.643
10323SOL     OW31867   6.502   3.530   6.283
10323SOL    HW131868   6.591   3.486   6.294
10323SOL    HW231869   6.436   3.464   6.249
10324SOL     OW31870   3.285   2.904   3.145
10324SOL    HW131871   3.282   2.913   3.046
10324SOL    HW231872   3.196   2.927   3.184
10325SOL     OW31873   0.114   3.663   3.165
10325SOL    HW131874   0.048   3.661   3.089
10325SOL    HW231875   0.112   3.753   3.208
10326SOL     OW31876   3.821   3.969   0.214
10326SOL    HW131877   3.788   4.052   0.169
10326SOL    HW231878   3.906   3.989   0.262
10327SOL     OW31879   2.635   2.257   1.976
10327SOL    HW131880   2.735   2.267   1.972
10327SOL    HW231881   2.603   2.289   2.065
10328SOL     OW31882   6.261   2.658   1.504
10328SOL    HW131883   6.256   2.559   1.485
10328SOL    HW231884   6.238   2.709   1.421
10329SOL     OW31885   3.857   0.289   3.512
10329SOL    HW131886   3.824   0.206   3.557
10329SOL    HW231887   3.926   0.265   3.444
10330SOL     OW31888   3.726   5.963   1.980
10330SOL    HW131889   3.698   6.008   2.065
10330SOL    HW231890   3.802   6.013   1.939
10331SOL     OW31891   6.805   0.549   4.295
10331SOL    HW131892   6.820   0.642   4.329
10331SOL    HW231893   6.804   0.549   4.195
10332SOL     OW31894   5.915   1.663   0.840
10332SOL    HW131895   5.874   1.748   0.872
10332SOL    HW231896   6.007   1.653   0.878
10333SOL     OW31897   6.507   4.687   4.435
10333SOL    HW131898   6.527   4.761   4.500
10333SOL    HW231899   6.561   4.700   4.352
10334SOL     OW31900   2.442   6.071   4.302
10334SOL    HW131901   2.510   6.110   4.240
10334SOL    HW231902   2.476   6.076   4.396
10335SOL     OW31903   2.584   4.996   6.664
10335SOL    HW131904   2.551   4.902   6.666
10335SOL    HW231905   2.567   5.039   6.752
10336SOL     OW31906   5.864   0.383   2.872
10336SOL    HW131907   5.948   0.409   2.920
10336SOL    HW231908   5.883   0.305   2.813
10337SOL     OW31909   6.815   6.333   5.641
10337SOL    HW131910   6.736   6.276   5.662
10337SOL    HW231911   6.788   6.429   5.641
10338SOL     OW31912   2.216   6.384   1.469
10338SOL    HW131913   2.309   6.389   1.505
10338SOL    HW231914   2.170   6.471   1.484
10339SOL     OW31915   2.691   5.675   0.305
10339SOL    HW131916   2.647   5.751   0.256
10339SOL    HW231917   2.710   5.703   0.399
10340SOL     OW31918   0.865   5.519   0.640
10340SOL    HW131919   0.885   5.617   0.640
10340SOL    HW231920   0.779   5.502   0.593
10341SOL     OW31921   1.981   3.433   1.965
10341SOL    HW131922   2.067   3.477   1.990
10341SOL    HW231923   1.993   3.381   1.880
10342SOL     OW31924   0.743   6.142   5.279
10342SOL    HW131925   0.838   6.114   5.290
10342SOL    HW231926   0.723   6.156   5.183
10343SOL     OW31927   1.834   4.115   0.866
10343SOL    HW131928   1.842   4.097   0.768
10343SOL    HW231929   1.895   4.054   0.916
10344SOL     OW31930   4.276   3.450   1.805
10344SOL    HW131931   4.371   3.431   1.779
10344SOL    HW231932   4.237   3.516   1.741
10345SOL     OW31933   1.523   1.068   6.391
10345SOL    HW131934   1.553   1.123   6.469
10345SOL    HW231935   1.515   1.126   6.310
10346SOL     OW31936   5.750   0.828   0.823
10346SOL    HW131937   5.735   0.926   0.805
10346SOL    HW231938   5.789   0.816   0.914
10347SOL     OW31939   5.636   2.819   2.300
10347SOL    HW131940   5.540   2.843   2.317
10347SOL    HW231941   5.639   2.741   2.238
10348SOL     OW31942   6.549   1.416   0.273
10348SOL    HW131943   6.542   1.462   0.362
10348SOL    HW231944   6.556   1.484   0.201
10349SOL     OW31945   6.434   1.465   0.748
10349SOL    HW131946   6.357   1.453   0.811
10349SOL    HW231947   6.495   1.386   0.755
10350SOL     OW31948   2.223   5.883   5.224
10350SOL    HW131949   2.237   5.902   5.321
10350SOL    HW231950   2.229   5.969   5.172
10351SOL     OW31951   5.243   4.719   6.268
10351SOL    HW131952   5.317   4.749   6.208
10351SOL    HW231953   5.249   4.620   6.282
10352SOL     OW31954   5.442   2.155   0.221
10352SOL    HW131955   5.520   2.177   0.162
10352SOL    HW231956   5.462   2.073   0.274
10353SOL     OW31957   6.027   2.190   4.893
10353SOL    HW131958   6.101   2.129   4.922
10353SOL    HW231959   6.022   2.191   4.793
10354SOL     OW31960   6.827   2.397   1.887
10354SOL    HW131961   6.798   2.382   1.981
10354SOL    HW231962   6.812   2.313   1.834
10355SOL     OW31963   1.614   0.580   1.262
10355SOL    HW131964   1.526   0.627   1.263
10355SOL    HW231965   1.618   0.519   1.183
10356SOL     OW31966   0.130   3.925   5.389
10356SOL    HW131967   0.033   3.952   5.392
10356SOL    HW231968   0.181   3.977   5.458
10357SOL     OW31969   3.653   2.666   6.004
10357SOL    HW131970   3.675   2.668   6.102
10357SOL    HW231971   3.676   2.754   5.962
10358SOL     OW31972   6.782   3.194   3.472
10358SOL    HW131973   6.745   3.190   3.565
10358SOL    HW231974   6.882   3.193   3.475
10359SOL     OW31975   5.209   1.435   2.299
10359SOL    HW131976   5.119   1.401   2.271
10359SOL    HW231977   5.234   1.514   2.242
10360SOL     OW31978   4.630   5.786   1.728
10360SOL    HW131979   4.677   5.699   1.710
10360SOL    HW231980   4.690   5.845   1.783
10361SOL     OW31981   2.725   1.053   3.056
10361SOL    HW131982   2.771   0.984   3.112
10361SOL    HW231983   2.680   1.120   3.115
10362SOL     OW31984   0.203   5.496   3.037
10362SOL    HW131985   0.105   5.482   3.021
10362SOL    HW231986   0.223   5.594   3.036
10363SOL     OW31987   5.151   2.583   0.936
10363SOL    HW131988   5.128   2.671   0.978
10363SOL    HW231989   5.186   2.598   0.844
10364SOL     OW31990   3.651   3.929   1.677
10364SOL    HW131991   3.696   4.018   1.684
10364SOL    HW231992   3.616   3.917   1.584
10365SOL     OW31993   4.763   3.947   5.921
10365SOL    HW131994   4.738   4.040   5.948
10365SOL    HW231995   4.685   3.903   5.878
10366SOL     OW31996   3.587   6.688   4.039
10366SOL    HW131997   3.667   6.646   4.082
10366SOL    HW231998   3.542   6.749   4.104
10367SOL     OW31999   0.206   1.853   2.061
10367SOL    HW132000   0.285   1.830   2.119
10367SOL    HW232001   0.236   1.912   1.986
10368SOL     OW32002   2.324   1.391   2.591
10368SOL    HW132003   2.294   1.483   2.565
10368SOL    HW232004   2.289   1.370   2.682
10369SOL     OW32005   2.938   6.992   5.471
10369SOL    HW132006   2.896   7.017   5.384
10369SOL    HW232007   3.000   0.039   5.501
10370SOL     OW32008   6.312   0.960   5.417
10370SOL    HW132009   6.389   0.912   5.374
10370SOL    HW232010   6.312   1.055   5.388
10371SOL     OW32011   1.825   6.210   4.421
10371SOL    HW132012   1.860   6.116   4.420
10371SOL    HW232013   1.792   6.233   4.512
10372SOL     OW32014   2.254   1.550   6.705
10372SOL    HW132015   2.154   1.554   6.701
10372SOL    HW232016   2.283   1.454   6.714
10373SOL     OW32017   1.570   6.422   4.982
10373SOL    HW132018   1.540   6.410   5.077
10373SOL    HW232019   1.571   6.334   4.936
10374SOL     OW32020   2.853   0.637   3.901
10374SOL    HW132021   2.858   0.687   3.815
10374SOL    HW232022   2.928   0.664   3.961
10375SOL     OW32023   2.076   2.172   6.058
10375SOL    HW132024   2.011   2.206   6.125
10375SOL    HW232025   2.144   2.114   6.103
10376SOL     OW32026   1.128   5.767   3.558
10376SOL    HW132027   1.067   5.689   3.548
10376SOL    HW232028   1.203   5.743   3.620
10377SOL     OW32029   0.265   0.773   2.759
10377SOL    HW132030   0.273   0.873   2.756
10377SOL    HW232031   0.169   0.747   2.754
10378SOL     OW32032   5.937   5.620   6.083
10378SOL    HW132033   5.931   5.668   5.995
10378SOL    HW232034   5.849   5.578   6.105
10379SOL     OW32035   2.765   5.928   3.986
10379SOL    HW132036   2.697   5.872   3.939
10379SOL    HW232037   2.832   5.869   4.031
10380SOL     OW32038   0.607   2.690   4.823
10380SOL    HW132039   0.529   2.641   4.863
10380SOL    HW232040   0.601   2.686   4.723
10381SOL     OW32041   4.119   4.227   1.017
10381SOL    HW132042   4.034   4.223   0.966
10381SOL    HW232043   4.144   4.323   1.032
10382SOL     OW32044   1.842   5.537   1.658
10382SOL    HW132045   1.809   5.442   1.657
10382SOL    HW232046   1.804   5.587   1.580
10383SOL     OW32047   0.853   3.932   1.366
10383SOL    HW132048   0.783   3.957   1.299
10383SOL    HW232049   0.888   4.015   1.409
10384SOL     OW32050   6.731   0.335   0.895
10384SOL    HW132051   6.738   0.416   0.953
10384SOL    HW232052   6.796   0.266   0.925
10385SOL     OW32053   4.367   5.992   6.129
10385SOL    HW132054   4.319   5.981   6.042
10385SOL    HW232055   4.462   6.020   6.111
10386SOL     OW32056   6.755   1.683   5.549
10386SOL    HW132057   6.721   1.594   5.578
10386SOL    HW232058   6.696   1.755   5.587
10387SOL     OW32059   4.515   1.739   2.538
10387SOL    HW132060   4.444   1.672   2.514
10387SOL    HW232061   4.564   1.708   2.619
10388SOL     OW32062   1.497   5.851   1.923
10388SOL    HW132063   1.480   5.948   1.944
10388SOL    HW232064   1.429   5.795   1.971
10389SOL     OW32065   6.285   5.718   0.977
10389SOL    HW132066   6.379   5.749   0.962
10389SOL    HW232067   6.266   5.718   1.075
10390SOL     OW32068   1.711   2.933   1.267
10390SOL    HW132069   1.651   2.870   1.217
10390SOL    HW232070   1.655   3.002   1.314
10391SOL     OW32071   0.171   6.711   3.381
10391SOL    HW132072   0.074   6.733   3.368
10391SOL    HW232073   0.208   6.671   3.297
10392SOL     OW32074   6.319   4.704   5.653
10392SOL    HW132075   6.241   4.688   5.592
10392SOL    HW232076   6.399   4.729   5.598
10393SOL     OW32077   2.197   2.395   3.758
10393SOL    HW132078   2.264   2.469   3.757
10393SOL    HW232079   2.153   2.389   3.668
10394SOL     OW32080   2.018   5.645   5.306
10394SOL    HW132081   2.081   5.568   5.307
10394SOL    HW232082   2.070   5.730   5.291
10395SOL     OW32083   0.253   0.773   2.040
10395SOL    HW132084   0.271   0.755   2.136
10395SOL    HW232085   0.187   0.707   2.005
10396SOL     OW32086   3.789   1.151   3.243
10396SOL    HW132087   3.736   1.165   3.326
10396SOL    HW232088   3.824   1.057   3.241
10397SOL     OW32089   2.802   1.468   4.666
10397SOL    HW132090   2.898   1.442   4.676
10397SOL    HW232091   2.781   1.485   4.570
10398SOL     OW32092   5.110   2.774   0.511
10398SOL    HW132093   5.181   2.833   0.472
10398SOL    HW232094   5.152   2.711   0.576
10399SOL     OW32095   5.003   2.513   4.614
10399SOL    HW132096   4.953   2.468   4.540
10399SOL    HW232097   5.053   2.592   4.578
10400SOL     OW32098   4.286   5.799   0.263
10400SOL    HW132099   4.240   5.773   0.179
10400SOL    HW232100   4.316   5.717   0.312
10401SOL     OW32101   0.336   6.835   2.091
10401SOL    HW132102   0.307   6.924   2.125
10401SOL    HW232103   0.308   6.764   2.155
10402SOL     OW32104   0.140   1.576   5.255
10402SOL    HW132105   0.085   1.655   5.229
10402SOL    HW232106   0.108   1.540   5.343
10403SOL     OW32107   4.112   1.975   2.953
10403SOL    HW132108   4.012   1.965   2.951
10403SOL    HW232109   4.149   1.949   2.864
10404SOL     OW32110   6.639   6.611   4.060
10404SOL    HW132111   6.732   6.642   4.042
10404SOL    HW232112   6.573   6.677   4.022
10405SOL     OW32113   1.088   5.678   4.797
10405SOL    HW132114   1.098   5.594   4.851
10405SOL    HW232115   1.083   5.654   4.700
10406SOL     OW32116   2.297   2.950   5.326
10406SOL    HW132117   2.380   2.964   5.272
10406SOL    HW232118   2.217   2.975   5.272
10407SOL     OW32119   2.435   6.915   0.196
10407SOL    HW132120   2.360   6.947   0.139
10407SOL    HW232121   2.404   6.839   0.253
10408SOL     OW32122   4.241   6.805   2.002
10408SOL    HW132123   4.268   6.901   2.006
10408SOL    HW232124   4.210   6.774   2.092
10409SOL     OW32125   6.840   4.300   0.705
10409SOL    HW132126   6.919   4.341   0.750
10409SOL    HW232127   6.847   4.315   0.606
10410SOL     OW32128   5.532   3.036   2.054
10410SOL    HW132129   5.526   2.936   2.043
10410SOL    HW232130   5.552   3.057   2.149
10411SOL     OW32131   3.098   6.043   4.197
10411SOL    HW132132   3.193   6.062   4.223
10411SOL    HW232133   3.095   5.960   4.141
10412SOL     OW32134   0.179   1.047   0.021
10412SOL    HW132135   0.276   1.070   0.016
10412SOL    HW232136   0.131   1.085   6.967
10413SOL     OW32137   6.325   2.443   1.777
10413SOL    HW132138   6.323   2.409   1.683
10413SOL    HW232139   6.377   2.379   1.834
10414SOL     OW32140   3.655   5.134   6.076
10414SOL    HW132141   3.635   5.057   6.016
10414SOL    HW232142   3.572   5.164   6.122
10415SOL     OW32143   1.710   4.624   4.013
10415SOL    HW132144   1.634   4.559   4.009
10415SOL    HW232145   1.686   4.700   4.073
10416SOL     OW32146   5.773   6.660   5.350
10416SOL    HW132147   5.748   6.662   5.253
10416SOL    HW232148   5.826   6.742   5.373
10417SOL     OW32149   4.385   5.060   4.616
10417SOL    HW132150   4.310   5.058   4.682
10417SOL    HW232151   4.359   5.116   4.538
10418SOL     OW32152   0.035   4.373   6.171
10418SOL    HW132153   0.114   4.317   6.196
10418SOL    HW232154   6.978   4.315   6.167
10419SOL     OW32155   3.595   6.828   6.278
10419SOL    HW132156   3.511   6.780   6.253
10419SOL    HW232157   3.575   6.894   6.351
10420SOL     OW32158   0.134   4.289   4.485
10420SOL    HW132159   0.194   4.358   4.446
10420SOL    HW232160   0.185   4.234   4.552
10421SOL     OW32161   1.556   3.791   4.273
10421SOL    HW132162   1.593   3.719   4.215
10421SOL    HW232163   1.518   3.864   4.216
10422SOL     OW32164   6.748   3.125   6.148
10422SOL    HW132165   6.729   3.193   6.220
10422SOL    HW232166   6.798   3.169   6.074
10423SOL     OW32167   5.300   5.160   5.668
10423SOL    HW132168   5.339   5.140   5.757
10423SOL    HW232169   5.288   5.259   5.659
10424SOL     OW32170   4.007   3.385   0.716
10424SOL    HW132171   4.003   3.336   0.629
10424SOL    HW232172   3.924   3.366   0.769
10425SOL     OW32173   0.835   6.512   2.387
10425SOL    HW132174   0.802   6.483   2.297
10425SOL    HW232175   0.930   6.543   2.380
10426SOL     OW32176   5.308   5.020   6.924
10426SOL    HW132177   5.332   5.048   7.017
10426SOL    HW232178   5.339   4.926   6.908
10427SOL     OW32179   4.697   0.858   6.851
10427SOL    HW132180   4.652   0.896   6.933
10427SOL    HW232181   4.737   0.933   6.798
10428SOL     OW32182   3.194   1.078   3.954
10428SOL    HW132183   3.200   1.027   3.867
10428SOL    HW232184   3.253   1.159   3.948
10429SOL     OW32185   7.009   4.297   2.551
10429SOL    HW132186   0.003   4.294   2.650
10429SOL    HW232187   6.919   4.258   2.534
10430SOL     OW32188   3.917   6.485   5.231
10430SOL    HW132189   3.905   6.581   5.254
10430SOL    HW232190   3.865   6.463   5.149
10431SOL     OW32191   2.471   6.255   3.978
10431SOL    HW132192   2.391   6.231   3.922
10431SOL    HW232193   2.506   6.345   3.950
10432SOL     OW32194   6.357   0.722   4.808
10432SOL    HW132195   6.370   0.815   4.842
10432SOL    HW232196   6.288   0.722   4.736
10433SOL     OW32197   0.565   6.720   2.958
10433SOL    HW132198   0.530   6.633   2.992
10433SOL    HW232199   0.646   6.704   2.903
10434SOL     OW32200   3.152   6.257   2.854
10434SOL    HW132201   3.121   6.182   2.911
10434SOL    HW232202   3.225   6.225   2.793
10435SOL     OW32203   1.551   2.425   5.270
10435SOL    HW132204   1.631   2.485   5.259
10435SOL    HW232205   1.582   2.330   5.273
10436SOL     OW32206   6.091   4.623   5.179
10436SOL    HW132207   6.141   4.710   5.181
10436SOL    HW232208   6.037   4.618   5.095
10437SOL     OW32209   5.792   4.340   5.900
10437SOL    HW132210   5.777   4.386   5.988
10437SOL    HW232211   5.890   4.336   5.881
10438SOL     OW32212   0.725   5.651   6.223
10438SOL    HW132213   0.785   5.680   6.298
10438SOL    HW232214   0.720   5.551   6.221
10439SOL     OW32215   4.584   1.355   4.509
10439SOL    HW132216   4.542   1.270   4.477
10439SOL    HW232217   4.512   1.416   4.545
10440SOL     OW32218   0.571   6.971   0.460
10440SOL    HW132219   0.631   0.024   0.443
10440SOL    HW232220   0.508   6.993   0.535
10441SOL     OW32221   3.746   1.778   1.343
10441SOL    HW132222   3.649   1.795   1.362
10441SOL    HW232223   3.801   1.814   1.419
10442SOL     OW32224   4.188   6.338   5.569
10442SOL    HW132225   4.269   6.281   5.551
10442SOL    HW232226   4.215   6.416   5.626
10443SOL     OW32227   5.082   2.578   3.352
10443SOL    HW132228   5.124   2.492   3.381
10443SOL    HW232229   5.153   2.639   3.317
10444SOL     OW32230   3.603   5.260   3.436
10444SOL    HW132231   3.660   5.341   3.424
10444SOL    HW232232   3.595   5.212   3.348
10445SOL     OW32233   0.706   5.094   3.713
10445SOL    HW132234   0.660   5.181   3.733
10445SOL    HW232235   0.676   5.060   3.624
10446SOL     OW32236   2.479   3.040   6.361
10446SOL    HW132237   2.483   3.138   6.339
10446SOL    HW232238   2.565   3.012   6.404
10447SOL     OW32239   0.415   1.352   3.178
10447SOL    HW132240   0.335   1.335   3.120
10447SOL    HW232241   0.475   1.418   3.133
10448SOL     OW32242   4.245   0.537   2.587
10448SOL    HW132243   4.235   0.487   2.502
10448SOL    HW232244   4.263   0.633   2.568
10449SOL     OW32245   1.476   5.493   5.970
10449SOL    HW132246   1.490   5.418   6.035
10449SOL    HW232247   1.473   5.580   6.020
10450SOL     OW32248   0.722   1.263   0.427
10450SOL    HW132249   0.757   1.174   0.456
10450SOL    HW232250   0.637   1.283   0.475
10451SOL     OW32251   1.987   6.144   3.083
10451SOL    HW132252   2.060   6.167   3.019
10451SOL    HW232253   1.954   6.051   3.065
10452SOL     OW32254   6.055   3.120   2.633
10452SOL    HW132255   6.121   3.186   2.670
10452SOL    HW232256   6.043   3.045   2.698
10453SOL     OW32257   5.790   6.914   1.433
10453SOL    HW132258   5.844   6.891   1.514
10453SOL    HW232259   5.728   6.839   1.412
10454SOL     OW32260   4.979   2.951   0.059
10454SOL    HW132261   4.908   2.978   0.125
10454SOL    HW232262   4.951   2.980   6.992
10455SOL     OW32263   6.943   6.268   3.309
10455SOL    HW132264   6.884   6.349   3.308
10455SOL    HW232265   0.007   6.291   3.348
10456SOL     OW32266   1.513   5.376   0.402
10456SOL    HW132267   1.466   5.430   0.332
10456SOL    HW232268   1.472   5.285   0.408
10457SOL     OW32269   3.751   3.283   0.807
10457SOL    HW132270   3.742   3.305   0.904
10457SOL    HW232271   3.688   3.340   0.754
10458SOL     OW32272   6.272   0.144   6.109
10458SOL    HW132273   6.312   0.217   6.053
10458SOL    HW232274   6.318   0.142   6.198
10459SOL     OW32275   4.379   6.091   1.059
10459SOL    HW132276   4.389   6.003   1.105
10459SOL    HW232277   4.408   6.164   1.120
10460SOL     OW32278   1.008   4.176   1.703
10460SOL    HW132279   0.944   4.226   1.760
10460SOL    HW232280   1.098   4.220   1.706
10461SOL     OW32281   5.618   4.929   4.977
10461SOL    HW132282   5.659   5.007   5.023
10461SOL    HW232283   5.634   4.846   5.030
10462SOL     OW32284   5.109   2.201   3.165
10462SOL    HW132285   5.059   2.143   3.101
10462SOL    HW232286   5.089   2.171   3.259
10463SOL     OW32287   4.370   2.596   5.889
10463SOL    HW132288   4.297   2.609   5.821
10463SOL    HW232289   4.427   2.519   5.862
10464SOL     OW32290   6.693   6.754   1.666
10464SOL    HW132291   6.765   6.803   1.715
10464SOL    HW232292   6.734   6.677   1.616
10465SOL     OW32293   6.509   5.654   0.768
10465SOL    HW132294   6.581   5.590   0.793
10465SOL    HW232295   6.538   5.707   0.688
10466SOL     OW32296   4.526   4.824   5.616
10466SOL    HW132297   4.552   4.802   5.711
10466SOL    HW232298   4.437   4.869   5.616
10467SOL     OW32299   2.659   2.125   0.259
10467SOL    HW132300   2.590   2.061   0.226
10467SOL    HW232301   2.625   2.218   0.251
10468SOL     OW32302   3.576   5.151   3.178
10468SOL    HW132303   3.620   5.063   3.195
10468SOL    HW232304   3.575   5.168   3.079
10469SOL     OW32305   4.093   4.522   5.630
10469SOL    HW132306   4.017   4.563   5.679
10469SOL    HW232307   4.067   4.503   5.535
10470SOL     OW32308   1.993   2.751   3.924
10470SOL    HW132309   1.973   2.663   3.967
10470SOL    HW232310   2.059   2.801   3.980
10471SOL     OW32311   3.369   0.828   0.695
10471SOL    HW132312   3.327   0.888   0.762
10471SOL    HW232313   3.319   0.741   0.692
10472SOL     OW32314   3.409   5.937   0.604
10472SOL    HW132315   3.470   6.015   0.613
10472SOL    HW232316   3.441   5.863   0.663
10473SOL     OW32317   6.524   0.131   6.772
10473SOL    HW132318   6.545   0.139   6.869
10473SOL    HW232319   6.573   0.052   6.734
10474SOL     OW32320   4.037   1.284   4.068
10474SOL    HW132321   3.972   1.357   4.090
10474SOL    HW232322   4.128   1.324   4.056
10475SOL     OW32323   4.645   6.752   1.373
10475SOL    HW132324   4.623   6.849   1.384
10475SOL    HW232325   4.583   6.697   1.429
10476SOL     OW32326   6.971   6.874   0.137
10476SOL    HW132327   6.906   6.921   0.078
10476SOL    HW232328   6.973   6.777   0.114
10477SOL     OW32329   6.542   0.561   4.252
10477SOL    HW132330   6.638   0.544   4.272
10477SOL    HW232331   6.491   0.475   4.256
10478SOL     OW32332   6.087   0.683   0.468
10478SOL    HW132333   6.158   0.613   0.476
10478SOL    HW232334   6.019   0.670   0.540
10479SOL     OW32335   0.163   1.575   2.904
10479SOL    HW132336   0.065   1.593   2.916
10479SOL    HW232337   0.212   1.608   2.985
10480SOL     OW32338   0.374   0.870   1.792
10480SOL    HW132339   0.298   0.862   1.727
10480SOL    HW232340   0.340   0.854   1.885
10481SOL     OW32341   2.407   6.898   4.316
10481SOL    HW132342   2.454   6.986   4.330
10481SOL    HW232343   2.468   6.823   4.340
10482SOL     OW32344   6.302   5.003   4.526
10482SOL    HW132345   6.322   5.099   4.544
10482SOL    HW232346   6.384   4.948   4.541
10483SOL     OW32347   6.414   4.830   0.416
10483SOL    HW132348   6.453   4.797   0.330
10483SOL    HW232349   6.351   4.905   0.398
10484SOL     OW32350   6.244   2.039   2.002
10484SOL    HW132351   6.218   2.121   2.053
10484SOL    HW232352   6.269   2.064   1.909
10485SOL     OW32353   3.259   3.926   0.540
10485SOL    HW132354   3.196   3.958   0.611
10485SOL    HW232355   3.340   3.887   0.584
10486SOL     OW32356   0.401   0.566   0.386
10486SOL    HW132357   0.402   0.560   0.486
10486SOL    HW232358   0.344   0.493   0.349
10487SOL     OW32359   4.830   1.185   1.027
10487SOL    HW132360   4.790   1.275   1.009
10487SOL    HW232361   4.801   1.152   1.117
10488SOL     OW32362   3.011   1.130   5.995
10488SOL    HW132363   2.999   1.132   5.896
10488SOL    HW232364   3.063   1.049   6.021
10489SOL     OW32365   0.670   6.711   5.468
10489SOL    HW132366   0.616   6.729   5.550
10489SOL    HW232367   0.625   6.641   5.413
10490SOL     OW32368   5.558   1.699   1.185
10490SOL    HW132369   5.485   1.712   1.252
10490SOL    HW232370   5.550   1.768   1.113
10491SOL     OW32371   1.917   2.496   6.433
10491SOL    HW132372   1.930   2.421   6.497
10491SOL    HW232373   1.985   2.567   6.450
10492SOL     OW32374   5.714   5.281   0.011
10492SOL    HW132375   5.781   5.212   0.039
10492SOL    HW232376   5.636   5.237   6.991
10493SOL     OW32377   3.266   0.407   2.063
10493SOL    HW132378   3.198   0.457   2.117
10493SOL    HW232379   3.330   0.472   2.023
10494SOL     OW32380   5.352   4.120   5.553
10494SOL    HW132381   5.277   4.161   5.605
10494SOL    HW232382   5.424   4.090   5.616
10495SOL     OW32383   1.833   6.887   1.354
10495SOL    HW132384   1.765   6.832   1.403
10495SOL    HW232385   1.790   6.971   1.321
10496SOL     OW32386   6.578   3.760   6.087
10496SOL    HW132387   6.572   3.761   5.987
10496SOL    HW232388   6.602   3.668   6.118
10497SOL     OW32389   1.996   7.013   2.175
10497SOL    HW132390   1.919   0.017   2.119
10497SOL    HW232391   2.082   0.005   2.126
10498SOL     OW32392   4.566   5.082   0.992
10498SOL    HW132393   4.637   5.126   0.936
10498SOL    HW232394   4.495   5.044   0.933
10499SOL     OW32395   4.208   0.016   2.311
10499SOL    HW132396   4.129   0.057   2.357
10499SOL    HW232397   4.196   0.022   2.212
10500SOL     OW32398   6.119   1.238   6.129
10500SOL    HW132399   6.101   1.335   6.115
10500SOL    HW232400   6.043   1.185   6.091
10501SOL     OW32401   2.226   5.582   2.057
10501SOL    HW132402   2.274   5.558   1.973
10501SOL    HW232403   2.189   5.674   2.050
10502SOL     OW32404   2.547   1.453   2.078
10502SOL    HW132405   2.570   1.476   1.984
10502SOL    HW232406   2.630   1.449   2.133
10503SOL     OW32407   4.445   2.882   0.893
10503SOL    HW132408   4.386   2.803   0.913
10503SOL    HW232409   4.490   2.912   0.977
10504SOL     OW32410   1.101   1.978   6.039
10504SOL    HW132411   1.184   2.031   6.058
10504SOL    HW232412   1.058   1.952   6.125
10505SOL     OW32413   5.209   4.979   1.108
10505SOL    HW132414   5.236   4.999   1.014
10505SOL    HW232415   5.111   4.960   1.112
10506SOL     OW32416   6.885   4.894   0.631
10506SOL    HW132417   6.802   4.946   0.616
10506SOL    HW232418   6.863   4.806   0.673
10507SOL     OW32419   2.081   6.759   0.216
10507SOL    HW132420   2.161   6.723   0.264
10507SOL    HW232421   2.111   6.809   0.134
10508SOL     OW32422   6.218   5.850   4.870
10508SOL    HW132423   6.191   5.762   4.908
10508SOL    HW232424   6.137   5.908   4.860
10509SOL     OW32425   0.323   5.329   4.476
10509SOL    HW132426   0.393   5.390   4.439
10509SOL    HW232427   0.352   5.234   4.465
10510SOL     OW32428   4.641   5.706   6.628
10510SOL    HW132429   4.736   5.730   6.606
10510SOL    HW232430   4.625   5.720   6.726
10511SOL     OW32431   3.375   1.008   2.041
10511SOL    HW132432   3.443   0.965   1.982
10511SOL    HW232433   3.283   0.977   2.014
10512SOL     OW32434   4.327   0.378   6.474
10512SOL    HW132435   4.365   0.382   6.566
10512SOL    HW232436   4.228   0.362   6.480
10513SOL     OW32437   5.951   2.161   4.639
10513SOL    HW132438   5.977   2.214   4.558
10513SOL    HW232439   5.852   2.166   4.652
10514SOL     OW32440   0.276   3.226   1.266
10514SOL    HW132441   0.288   3.165   1.344
10514SOL    HW232442   0.251   3.317   1.298
10515SOL     OW32443   0.568   3.562   3.520
10515SOL    HW132444   0.616   3.649   3.511
10515SOL    HW232445   0.469   3.578   3.519
10516SOL     OW32446   4.449   1.308   0.659
10516SOL    HW132447   4.520   1.238   0.657
10516SOL    HW232448   4.360   1.265   0.645
10517SOL     OW32449   0.500   3.068   1.928
10517SOL    HW132450   0.591   3.105   1.944
10517SOL    HW232451   0.502   3.006   1.849
10518SOL     OW32452   0.671   6.090   0.397
10518SOL    HW132453   0.770   6.098   0.386
10518SOL    HW232454   0.639   6.161   0.460
10519SOL     OW32455   3.405   3.728   0.698
10519SOL    HW132456   3.393   3.697   0.792
10519SOL    HW232457   3.499   3.708   0.668
10520SOL     OW32458   0.333   2.349   6.053
10520SOL    HW132459   0.264   2.375   5.985
10520SOL    HW232460   0.417   2.401   6.037
10521SOL     OW32461   6.054   6.139   1.506
10521SOL    HW132462   6.060   6.060   1.567
10521SOL    HW232463   6.094   6.116   1.417
10522SOL     OW32464   0.998   0.641   5.474
10522SOL    HW132465   1.051   0.619   5.556
10522SOL    HW232466   0.941   0.721   5.490
10523SOL     OW32467   1.165   4.857   3.146
10523SOL    HW132468   1.232   4.928   3.168
10523SOL    HW232469   1.074   4.897   3.141
10524SOL     OW32470   1.768   0.031   4.019
10524SOL    HW132471   1.727   0.113   3.981
10524SOL    HW232472   1.867   0.036   4.012
10525SOL     OW32473   4.203   6.643   6.089
10525SOL    HW132474   4.109   6.629   6.118
10525SOL    HW232475   4.255   6.559   6.102
10526SOL     OW32476   1.936   6.673   3.782
10526SOL    HW132477   1.862   6.738   3.795
10526SOL    HW232478   1.943   6.613   3.861
10527SOL     OW32479   1.043   1.014   5.410
10527SOL    HW132480   0.977   0.957   5.460
10527SOL    HW232481   1.104   1.059   5.476
10528SOL     OW32482   1.722   3.146   5.927
10528SOL    HW132483   1.806   3.119   5.880
10528SOL    HW232484   1.660   3.190   5.862
10529SOL     OW32485   2.959   5.869   4.368
10529SOL    HW132486   2.986   5.949   4.315
10529SOL    HW232487   3.033   5.802   4.368
10530SOL     OW32488   1.713   0.524   6.498
10530SOL    HW132489   1.786   0.575   6.545
10530SOL    HW232490   1.752   0.475   6.419
10531SOL     OW32491   0.927   2.813   4.524
10531SOL    HW132492   1.024   2.840   4.519
10531SOL    HW232493   0.872   2.879   4.473
10532SOL     OW32494   1.110   6.367   6.200
10532SOL    HW132495   1.110   6.299   6.127
10532SOL    HW232496   1.138   6.456   6.163
10533SOL     OW32497   3.054   6.432   3.664
10533SOL    HW132498   3.024   6.416   3.570
10533SOL    HW232499   3.152   6.456   3.663
10534SOL     OW32500   6.346   6.274   1.239
10534SOL    HW132501   6.356   6.339   1.314
10534SOL    HW232502   6.434   6.261   1.194
10535SOL     OW32503   1.439   2.141   1.508
10535SOL    HW132504   1.375   2.204   1.552
10535SOL    HW232505   1.532   2.163   1.537
10536SOL     OW32506   4.635   0.618   3.891
10536SOL    HW132507   4.688   0.645   3.811
10536SOL    HW232508   4.696   0.574   3.957
10537SOL     OW32509   3.699   5.891   3.473
10537SOL    HW132510   3.665   5.800   3.495
10537SOL    HW232511   3.790   5.904   3.512
10538SOL     OW32512   6.066   2.694   0.979
10538SOL    HW132513   6.140   2.627   0.977
10538SOL    HW232514   6.103   2.784   0.998
10539SOL     OW32515   0.696   4.642   6.901
10539SOL    HW132516   0.624   4.711   6.895
10539SOL    HW232517   0.742   4.633   6.813
10540SOL     OW32518   1.708   1.827   5.185
10540SOL    HW132519   1.802   1.826   5.152
10540SOL    HW232520   1.646   1.825   5.106
10541SOL     OW32521   3.119   3.910   1.928
10541SOL    HW132522   3.055   3.870   1.863
10541SOL    HW232523   3.204   3.858   1.928
10542SOL     OW32524   0.187   0.294   5.213
10542SOL    HW132525   0.131   0.355   5.157
10542SOL    HW232526   0.276   0.281   5.170
10543SOL     OW32527   0.151   1.839   4.322
10543SOL    HW132528   0.121   1.752   4.362
10543SOL    HW232529   0.205   1.820   4.240
10544SOL     OW32530   2.503   6.958   1.617
10544SOL    HW132531   2.598   6.988   1.619
10544SOL    HW232532   2.446   0.003   1.572
10545SOL     OW32533   0.766   1.942   1.712
10545SOL    HW132534   0.687   1.980   1.663
10545SOL    HW232535   0.763   1.842   1.706
10546SOL     OW32536   1.882   1.071   0.866
10546SOL    HW132537   1.902   1.153   0.812
10546SOL    HW232538   1.807   1.021   0.824
10547SOL     OW32539   5.364   3.367   2.827
10547SOL    HW132540   5.463   3.362   2.815
10547SOL    HW232541   5.320   3.388   2.740
10548SOL     OW32542   5.629   4.630   3.975
10548SOL    HW132543   5.627   4.666   4.068
10548SOL    HW232544   5.659   4.535   3.977
10549SOL     OW32545   0.786   0.096   1.678
10549SOL    HW132546   0.697   0.050   1.678
10549SOL    HW232547   0.847   0.050   1.742
10550SOL     OW32548   4.719   6.497   3.542
10550SOL    HW132549   4.676   6.528   3.457
10550SOL    HW232550   4.815   6.478   3.526
10551SOL     OW32551   1.738   2.675   6.657
10551SOL    HW132552   1.667   2.608   6.633
10551SOL    HW232553   1.773   2.718   6.574
10552SOL     OW32554   3.561   0.442   5.900
10552SOL    HW132555   3.495   0.516   5.893
10552SOL    HW232556   3.654   0.479   5.899
10553SOL     OW32557   0.634   4.305   2.051
10553SOL    HW132558   0.605   4.338   2.141
10553SOL    HW232559   0.555   4.299   1.990
10554SOL     OW32560   5.753   4.642   0.575
10554SOL    HW132561   5.837   4.656   0.522
10554SOL    HW232562   5.699   4.569   0.533
10555SOL     OW32563   1.638   2.820   0.128
10555SOL    HW132564   1.718   2.837   0.185
10555SOL    HW232565   1.650   2.733   0.080
10556SOL     OW32566   1.893   1.536   5.082
10556SOL    HW132567   1.905   1.510   4.987
10556SOL    HW232568   1.981   1.528   5.130
10557SOL     OW32569   2.084   2.753   3.302
10557SOL    HW132570   1.993   2.761   3.261
10557SOL    HW232571   2.074   2.733   3.400
10558SOL     OW32572   4.273   0.274   4.052
10558SOL    HW132573   4.189   0.321   4.080
10558SOL    HW232574   4.265   0.247   3.956
10559SOL     OW32575   4.681   0.391   1.667
10559SOL    HW132576   4.728   0.364   1.751
10559SOL    HW232577   4.594   0.435   1.691
10560SOL     OW32578   4.146   6.168   2.850
10560SOL    HW132579   4.196   6.092   2.893
10560SOL    HW232580   4.173   6.174   2.754
10561SOL     OW32581   3.331   3.606   1.570
10561SOL    HW132582   3.375   3.680   1.621
10561SOL    HW232583   3.384   3.522   1.580
10562SOL     OW32584   4.613   4.869   0.269
10562SOL    HW132585   4.537   4.838   0.326
10562SOL    HW232586   4.577   4.905   0.183
10563SOL     OW32587   0.631   1.894   3.745
10563SOL    HW132588   0.615   1.842   3.661
10563SOL    HW232589   0.546   1.939   3.773
10564SOL     OW32590   5.752   6.108   2.152
10564SOL    HW132591   5.709   6.186   2.199
10564SOL    HW232592   5.726   6.023   2.198
10565SOL     OW32593   0.557   6.776   5.698
10565SOL    HW132594   0.560   6.695   5.756
10565SOL    HW232595   0.579   6.857   5.754
10566SOL     OW32596   3.435   1.800   6.260
10566SOL    HW132597   3.500   1.734   6.297
10566SOL    HW232598   3.390   1.762   6.179
10567SOL     OW32599   2.916   2.235   4.761
10567SOL    HW132600   2.862   2.170   4.814
10567SOL    HW232601   2.969   2.293   4.823
10568SOL     OW32602   5.735   3.256   1.520
10568SOL    HW132603   5.739   3.163   1.557
10568SOL    HW232604   5.774   3.319   1.587
10569SOL     OW32605   5.925   2.034   2.115
10569SOL    HW132606   5.994   2.104   2.133
10569SOL    HW232607   5.851   2.073   2.060
10570SOL     OW32608   0.817   5.611   3.375
10570SOL    HW132609   0.795   5.693   3.322
10570SOL    HW232610   0.735   5.577   3.421
10571SOL     OW32611   0.303   4.327   5.768
10571SOL    HW132612   0.326   4.377   5.684
10571SOL    HW232613   0.225   4.371   5.813
10572SOL     OW32614   6.323   4.248   3.570
10572SOL    HW132615   6.315   4.264   3.668
10572SOL    HW232616   6.358   4.155   3.555
10573SOL     OW32617   4.877   0.604   5.108
10573SOL    HW132618   4.836   0.538   5.045
10573SOL    HW232619   4.895   0.559   5.195
10574SOL     OW32620   1.675   1.459   4.398
10574SOL    HW132621   1.743   1.458   4.324
10574SOL    HW232622   1.705   1.522   4.469
10575SOL     OW32623   6.847   1.608   4.251
10575SOL    HW132624   6.886   1.646   4.166
10575SOL    HW232625   6.921   1.576   4.310
10576SOL     OW32626   0.172   5.556   4.939
10576SOL    HW132627   0.250   5.588   4.993
10576SOL    HW232628   0.087   5.586   4.984
10577SOL     OW32629   1.717   4.397   0.139
10577SOL    HW132630   1.690   4.399   0.235
10577SOL    HW232631   1.801   4.344   0.130
10578SOL     OW32632   4.830   1.248   2.797
10578SOL    HW132633   4.775   1.170   2.827
10578SOL    HW232634   4.775   1.309   2.741
10579SOL     OW32635   4.517   2.744   1.316
10579SOL    HW132636   4.442   2.761   1.380
10579SOL    HW232637   4.587   2.690   1.361
10580SOL     OW32638   6.985   0.197   6.414
10580SOL    HW132639   0.036   0.234   6.360
10580SOL    HW232640   6.903   0.251   6.398
10581SOL     OW32641   6.610   0.040   3.424
10581SOL    HW132642   6.707   0.017   3.415
10581SOL    HW232643   6.558   7.021   3.350
10582SOL     OW32644   4.996   4.617   5.845
10582SOL    HW132645   5.028   4.624   5.940
10582SOL    HW232646   5.030   4.695   5.792
10583SOL     OW32647   4.143   0.671   3.911
10583SOL    HW132648   4.118   0.660   3.815
10583SOL    HW232649   4.231   0.627   3.928
10584SOL     OW32650   6.513   0.188   0.836
10584SOL    HW132651   6.525   0.154   0.742
10584SOL    HW232652   6.582   0.257   0.856
10585SOL     OW32653   2.190   1.769   5.375
10585SOL    HW132654   2.250   1.843   5.343
10585SOL    HW232655   2.245   1.700   5.422
10586SOL     OW32656   6.744   5.270   4.192
10586SOL    HW132657   6.706   5.358   4.164
10586SOL    HW232658   6.824   5.284   4.250
10587SOL     OW32659   6.291   4.589   0.139
10587SOL    HW132660   6.309   4.522   0.211
10587SOL    HW232661   6.267   4.542   0.054
10588SOL     OW32662   1.332   3.691   4.404
10588SOL    HW132663   1.359   3.659   4.495
10588SOL    HW232664   1.404   3.750   4.367
10589SOL     OW32665   6.096   0.859   4.323
10589SOL    HW132666   6.191   0.829   4.329
10589SOL    HW232667   6.089   0.935   4.259
10590SOL     OW32668   0.805   0.337   1.564
10590SOL    HW132669   0.789   0.247   1.606
10590SOL    HW232670   0.723   0.365   1.513
10591SOL     OW32671   2.134   2.365   6.827
10591SOL    HW132672   2.096   2.457   6.829
10591SOL    HW232673   2.151   2.333   6.921
10592SOL     OW32674   5.303   3.422   2.553
10592SOL    HW132675   5.273   3.343   2.501
10592SOL    HW232676   5.262   3.505   2.514
10593SOL     OW32677   2.064   6.377   0.495
10593SOL    HW132678   2.126   6.306   0.461
10593SOL    HW232679   2.057   6.369   0.595
10594SOL     OW32680   4.882   0.781   2.577
10594SOL    HW132681   4.932   0.864   2.553
10594SOL    HW232682   4.879   0.720   2.498
10595SOL     OW32683   5.086   6.275   7.018
10595SOL    HW132684   5.181   6.308   7.019
10595SOL    HW232685   5.084   6.181   6.985
10596SOL     OW32686   4.405   7.020   0.219
10596SOL    HW132687   4.411   0.011   0.121
10596SOL    HW232688   4.365   6.930   0.237
10597SOL     OW32689   3.512   1.146   5.380
10597SOL    HW132690   3.486   1.234   5.339
10597SOL    HW232691   3.522   1.077   5.309
10598SOL     OW32692   3.526   2.514   6.933
10598SOL    HW132693   3.531   2.436   6.871
10598SOL    HW232694   3.617   2.555   6.942
10599SOL     OW32695   5.106   3.379   5.920
10599SOL    HW132696   5.079   3.471   5.891
10599SOL    HW232697   5.062   3.359   6.008
10600SOL     OW32698   2.692   2.582   0.766
10600SOL    HW132699   2.596   2.574   0.741
10600SOL    HW232700   2.746   2.607   0.686
10601SOL     OW32701   2.220   4.678   4.837
10601SOL    HW132702   2.153   4.664   4.910
10601SOL    HW232703   2.184   4.640   4.751
10602SOL     OW32704   3.115   1.042   1.898
10602SOL    HW132705   3.116   1.091   1.811
10602SOL    HW232706   3.128   1.107   1.973
10603SOL     OW32707   3.682   6.893   3.300
10603SOL    HW132708   3.630   6.811   3.274
10603SOL    HW232709   3.621   6.972   3.298
10604SOL     OW32710   6.197   5.315   5.355
10604SOL    HW132711   6.292   5.295   5.333
10604SOL    HW232712   6.190   5.406   5.396
10605SOL     OW32713   1.520   6.360   6.828
10605SOL    HW132714   1.470   6.433   6.783
10605SOL    HW232715   1.606   6.396   6.865
10606SOL     OW32716   6.769   0.958   2.496
10606SOL    HW132717   6.814   0.892   2.436
10606SOL    HW232718   6.726   1.029   2.440
10607SOL     OW32719   4.304   4.991   5.615
10607SOL    HW132720   4.229   4.983   5.550
10607SOL    HW232721   4.334   5.086   5.620
10608SOL     OW32722   5.766   2.709   5.837
10608SOL    HW132723   5.827   2.778   5.875
10608SOL    HW232724   5.749   2.728   5.741
10609SOL     OW32725   2.276   6.471   6.995
10609SOL    HW132726   2.281   6.425   6.906
10609SOL    HW232727   2.194   6.442   0.019
10610SOL     OW32728   0.745   2.156   5.015
10610SOL    HW132729   0.735   2.252   4.988
10610SOL    HW232730   0.839   2.139   5.042
10611SOL     OW32731   3.055   3.997   6.566
10611SOL    HW132732   2.991   4.023   6.494
10611SOL    HW232733   3.148   3.994   6.529
10612SOL     OW32734   3.495   1.561   4.739
10612SOL    HW132735   3.552   1.572   4.658
10612SOL    HW232736   3.519   1.631   4.807
10613SOL     OW32737   5.675   6.054   5.427
10613SOL    HW132738   5.578   6.035   5.442
10613SOL    HW232739   5.727   6.023   5.507
10614SOL     OW32740   5.964   1.698   4.550
10614SOL    HW132741   5.972   1.798   4.554
10614SOL    HW232742   6.011   1.658   4.628
10615SOL     OW32743   4.138   0.062   5.467
10615SOL    HW132744   4.089   0.008   5.535
10615SOL    HW232745   4.234   0.036   5.467
10616SOL     OW32746   3.028   6.630   0.943
10616SOL    HW132747   3.075   6.585   0.867
10616SOL    HW232748   2.930   6.613   0.937
10617SOL     OW32749   3.213   3.190   1.440
10617SOL    HW132750   3.130   3.139   1.460
10617SOL    HW232751   3.269   3.196   1.523
10618SOL     OW32752   0.765   3.894   6.060
10618SOL    HW132753   0.792   3.937   6.146
10618SOL    HW232754   0.838   3.905   5.992
10619SOL     OW32755   6.788   4.124   2.194
10619SOL    HW132756   6.723   4.078   2.134
10619SOL    HW232757   6.755   4.216   2.214
10620SOL     OW32758   1.045   5.874   5.040
10620SOL    HW132759   1.005   5.803   5.098
10620SOL    HW232760   1.021   5.856   4.944
10621SOL     OW32761   0.858   5.657   1.800
10621SOL    HW132762   0.782   5.713   1.768
10621SOL    HW232763   0.839   5.624   1.892
10622SOL     OW32764   5.201   2.025   1.505
10622SOL    HW132765   5.201   1.929   1.477
10622SOL    HW232766   5.283   2.044   1.559
10623SOL     OW32767   6.703   4.572   5.119
10623SOL    HW132768   6.755   4.514   5.057
10623SOL    HW232769   6.714   4.537   5.213
10624SOL     OW32770   0.640   3.174   4.609
10624SOL    HW132771   0.643   3.196   4.706
10624SOL    HW232772   0.554   3.128   4.588
10625SOL     OW32773   0.203   4.346   0.694
10625SOL    HW132774   0.219   4.442   0.671
10625SOL    HW232775   0.126   4.339   0.757
10626SOL     OW32776   2.489   3.126   0.721
10626SOL    HW132777   2.452   3.038   0.751
10626SOL    HW232778   2.588   3.127   0.734
10627SOL     OW32779   5.550   6.921   0.595
10627SOL    HW132780   5.531   7.002   0.539
10627SOL    HW232781   5.469   6.898   0.649
10628SOL     OW32782   5.293   6.375   0.235
10628SOL    HW132783   5.209   6.427   0.225
10628SOL    HW232784   5.305   6.315   0.156
10629SOL     OW32785   2.478   4.638   5.173
10629SOL    HW132786   2.437   4.573   5.238
10629SOL    HW232787   2.450   4.613   5.080
10630SOL     OW32788   6.454   1.640   3.530
10630SOL    HW132789   6.379   1.633   3.464
10630SOL    HW232790   6.425   1.599   3.617
10631SOL     OW32791   2.535   5.270   5.198
10631SOL    HW132792   2.483   5.188   5.175
10631SOL    HW232793   2.625   5.265   5.153
10632SOL     OW32794   5.831   1.718   3.874
10632SOL    HW132795   5.801   1.633   3.918
10632SOL    HW232796   5.930   1.725   3.879
10633SOL     OW32797   2.796   2.937   0.937
10633SOL    HW132798   2.836   2.851   0.906
10633SOL    HW232799   2.846   2.971   1.017
10634SOL     OW32800   3.225   5.052   0.874
10634SOL    HW132801   3.288   4.990   0.828
10634SOL    HW232802   3.270   5.140   0.890
10635SOL     OW32803   2.525   2.817   1.013
10635SOL    HW132804   2.558   2.734   1.059
10635SOL    HW232805   2.579   2.832   0.930
10636SOL     OW32806   1.229   1.958   1.470
10636SOL    HW132807   1.292   2.036   1.474
10636SOL    HW232808   1.258   1.896   1.397
10637SOL     OW32809   2.604   4.701   6.430
10637SOL    HW132810   2.585   4.615   6.381
10637SOL    HW232811   2.657   4.762   6.372
10638SOL     OW32812   6.455   5.588   2.736
10638SOL    HW132813   6.450   5.553   2.829
10638SOL    HW232814   6.496   5.679   2.737
10639SOL     OW32815   0.922   3.161   3.598
10639SOL    HW132816   0.861   3.239   3.597
10639SOL    HW232817   0.875   3.080   3.562
10640SOL     OW32818   3.779   0.262   5.395
10640SOL    HW132819   3.849   0.328   5.367
10640SOL    HW232820   3.727   0.232   5.314
10641SOL     OW32821   2.255   1.924   1.823
10641SOL    HW132822   2.185   1.984   1.784
10641SOL    HW232823   2.338   1.929   1.767
10642SOL     OW32824   6.279   2.656   1.941
10642SOL    HW132825   6.359   2.714   1.928
10642SOL    HW232826   6.286   2.576   1.882
10643SOL     OW32827   1.710   5.210   5.212
10643SOL    HW132828   1.784   5.152   5.246
10643SOL    HW232829   1.749   5.284   5.157
10644SOL     OW32830   5.459   2.990   2.948
10644SOL    HW132831   5.395   2.914   2.940
10644SOL    HW232832   5.545   2.966   2.903
10645SOL     OW32833   2.017   2.164   4.659
10645SOL    HW132834   2.117   2.165   4.652
10645SOL    HW232835   1.988   2.079   4.702
10646SOL     OW32836   0.127   0.552   6.448
10646SOL    HW132837   0.136   0.652   6.443
10646SOL    HW232838   0.034   0.525   6.424
10647SOL     OW32839   2.853   5.536   4.845
10647SOL    HW132840   2.897   5.503   4.929
10647SOL    HW232841   2.885   5.628   4.825
10648SOL     OW32842   5.690   4.532   6.098
10648SOL    HW132843   5.782   4.559   6.127
10648SOL    HW232844   5.659   4.592   6.025
10649SOL     OW32845   6.923   4.630   2.287
10649SOL    HW132846   6.979   4.713   2.281
10649SOL    HW232847   6.983   4.550   2.298
10650SOL     OW32848   1.260   6.915   3.759
10650SOL    HW132849   1.172   6.943   3.721
10650SOL    HW232850   1.247   6.834   3.816
10651SOL     OW32851   5.438   6.045   6.213
10651SOL    HW132852   5.476   6.068   6.303
10651SOL    HW232853   5.400   5.953   6.216
10652SOL     OW32854   3.398   6.932   5.856
10652SOL    HW132855   3.448   6.850   5.829
10652SOL    HW232856   3.458   6.993   5.908
10653SOL     OW32857   4.460   4.513   4.149
10653SOL    HW132858   4.412   4.591   4.188
10653SOL    HW232859   4.536   4.545   4.093
10654SOL     OW32860   5.370   1.029   0.538
10654SOL    HW132861   5.294   1.086   0.571
10654SOL    HW232862   5.406   0.975   0.613
10655SOL     OW32863   2.160   5.338   0.830
10655SOL    HW132864   2.115   5.284   0.759
10655SOL    HW232865   2.222   5.279   0.883
10656SOL     OW32866   6.732   2.304   2.591
10656SOL    HW132867   6.792   2.249   2.649
10656SOL    HW232868   6.638   2.298   2.626
10657SOL     OW32869   6.479   6.934   6.006
10657SOL    HW132870   6.383   6.921   5.980
10657SOL    HW232871   6.504   6.869   6.078
10658SOL     OW32872   6.193   4.112   5.069
10658SOL    HW132873   6.145   4.123   5.156
10658SOL    HW232874   6.138   4.152   4.996
10659SOL     OW32875   6.886   5.924   1.112
10659SOL    HW132876   6.954   5.954   1.178
10659SOL    HW232877   6.808   5.986   1.114
10660SOL     OW32878   5.322   4.411   6.750
10660SOL    HW132879   5.275   4.323   6.755
10660SOL    HW232880   5.320   4.445   6.656
10661SOL     OW32881   1.314   0.380   2.051
10661SOL    HW132882   1.373   0.334   1.985
10661SOL    HW232883   1.285   0.315   2.122
10662SOL     OW32884   5.706   0.033   2.992
10662SOL    HW132885   5.661   0.119   2.968
10662SOL    HW232886   5.638   6.986   3.001
10663SOL     OW32887   0.698   1.184   1.551
10663SOL    HW132888   0.620   1.127   1.523
10663SOL    HW232889   0.664   1.260   1.606
10664SOL     OW32890   0.221   4.631   5.319
10664SOL    HW132891   0.242   4.621   5.222
10664SOL    HW232892   0.192   4.543   5.356
10665SOL     OW32893   1.217   1.147   0.554
10665SOL    HW132894   1.247   1.076   0.491
10665SOL    HW232895   1.276   1.145   0.636
10666SOL     OW32896   3.156   4.084   1.467
10666SOL    HW132897   3.150   3.986   1.489
10666SOL    HW232898   3.098   4.135   1.531
10667SOL     OW32899   3.646   3.566   5.401
10667SOL    HW132900   3.736   3.567   5.359
10667SOL    HW232901   3.637   3.486   5.460
10668SOL     OW32902   1.946   0.779   4.746
10668SOL    HW132903   1.918   0.690   4.709
10668SOL    HW232904   1.865   0.830   4.775
10669SOL     OW32905   5.620   6.640   1.141
10669SOL    HW132906   5.615   6.555   1.088
10669SOL    HW232907   5.713   6.677   1.136
10670SOL     OW32908   5.110   3.367   5.314
10670SOL    HW132909   5.135   3.444   5.255
10670SOL    HW232910   5.184   3.348   5.378
10671SOL     OW32911   2.489   2.560   3.371
10671SOL    HW132912   2.399   2.560   3.328
10671SOL    HW232913   2.556   2.521   3.308
10672SOL     OW32914   6.258   2.625   0.289
10672SOL    HW132915   6.165   2.601   0.315
10672SOL    HW232916   6.257   2.704   0.228
10673SOL     OW32917   1.494   1.167   6.766
10673SOL    HW132918   1.565   1.229   6.798
10673SOL    HW232919   1.407   1.216   6.759
10674SOL     OW32920   3.400   3.873   1.660
10674SOL    HW132921   3.339   3.936   1.709
10674SOL    HW232922   3.494   3.889   1.687
10675SOL     OW32923   1.834   6.757   6.784
10675SOL    HW132924   1.787   6.717   6.863
10675SOL    HW232925   1.774   6.826   6.742
10676SOL     OW32926   6.710   6.279   6.520
10676SOL    HW132927   6.637   6.249   6.581
10676SOL    HW232928   6.720   6.213   6.445
10677SOL     OW32929   0.907   0.873   2.732
10677SOL    HW132930   0.875   0.917   2.816
10677SOL    HW232931   1.005   0.890   2.721
10678SOL     OW32932   3.101   5.814   4.039
10678SOL    HW132933   3.183   5.764   4.009
10678SOL    HW232934   3.021   5.756   4.029
10679SOL     OW32935   4.525   6.083   6.527
10679SOL    HW132936   4.534   6.182   6.542
10679SOL    HW232937   4.565   6.034   6.604
10680SOL     OW32938   2.769   1.598   3.430
10680SOL    HW132939   2.762   1.638   3.521
10680SOL    HW232940   2.764   1.671   3.361
10681SOL     OW32941   1.041   3.559   0.093
10681SOL    HW132942   1.034   3.512   0.181
10681SOL    HW232943   1.130   3.538   0.051
10682SOL     OW32944   2.064   1.078   4.329
10682SOL    HW132945   2.066   1.177   4.341
10682SOL    HW232946   2.093   1.033   4.413
10683SOL     OW32947   3.263   2.090   4.188
10683SOL    HW132948   3.331   2.089   4.115
10683SOL    HW232949   3.200   2.166   4.173
10684SOL     OW32950   5.173   3.996   1.190
10684SOL    HW132951   5.190   4.065   1.260
10684SOL    HW232952   5.090   3.944   1.213
10685SOL     OW32953   0.427   6.156   2.769
10685SOL    HW132954   0.358   6.107   2.821
10685SOL    HW232955   0.399   6.159   2.672
10686SOL     OW32956   1.767   4.738   6.342
10686SOL    HW132957   1.770   4.677   6.263
10686SOL    HW232958   1.725   4.824   6.316
10687SOL     OW32959   6.896   5.446   1.916
10687SOL    HW132960   6.972   5.386   1.891
10687SOL    HW232961   6.830   5.450   1.841
10688SOL     OW32962   5.886   4.377   2.820
10688SOL    HW132963   5.909   4.342   2.910
10688SOL    HW232964   5.922   4.469   2.809
10689SOL     OW32965   0.573   6.791   3.880
10689SOL    HW132966   0.605   6.885   3.870
10689SOL    HW232967   0.477   6.785   3.855
10690SOL     OW32968   6.946   6.672   3.102
10690SOL    HW132969   6.906   6.581   3.097
10690SOL    HW232970   6.942   6.705   3.196
10691SOL     OW32971   0.436   1.806   2.186
10691SOL    HW132972   0.435   1.795   2.286
10691SOL    HW232973   0.507   1.872   2.161
10692SOL     OW32974   2.905   5.066   2.680
10692SOL    HW132975   2.883   5.079   2.776
10692SOL    HW232976   2.844   4.997   2.641
10693SOL     OW32977   2.810   0.100   0.438
10693SOL    HW132978   2.768   0.039   0.371
10693SOL    HW232979   2.870   0.047   0.498
10694SOL     OW32980   5.246   6.581   1.639
10694SOL    HW132981   5.212   6.583   1.733
10694SOL    HW232982   5.282   6.671   1.614
10695SOL     OW32983   5.600   2.186   2.897
10695SOL    HW132984   5.624   2.188   2.800
10695SOL    HW232985   5.558   2.273   2.922
10696SOL     OW32986   6.440   3.971   3.621
10696SOL    HW132987   6.527   3.938   3.584
10696SOL    HW232988   6.433   3.945   3.717
10697SOL     OW32989   0.401   5.551   4.665
10697SOL    HW132990   0.342   5.474   4.689
10697SOL    HW232991   0.493   5.517   4.646
10698SOL     OW32992   4.058   5.465   4.586
10698SOL    HW132993   4.120   5.387   4.577
10698SOL    HW232994   4.041   5.482   4.683
10699SOL     OW32995   4.092   2.786   1.700
10699SOL    HW132996   4.033   2.808   1.778
10699SOL    HW232997   4.036   2.767   1.620
10700SOL     OW32998   0.674   0.082   0.718
10700SOL    HW132999   0.728   0.001   0.740
10700SOL    HW233000   0.581   0.055   0.694
10701SOL     OW33001   3.236   5.709   6.824
10701SOL    HW133002   3.235   5.799   6.868
10701SOL    HW233003   3.145   5.687   6.790
10702SOL     OW33004   5.915   2.437   2.204
10702SOL    HW133005   5.959   2.367   2.146
10702SOL    HW233006   5.944   2.527   2.173
10703SOL     OW33007   3.090   3.059   4.368
10703SOL    HW133008   3.094   3.014   4.278
10703SOL    HW233009   3.153   3.015   4.431
10704SOL     OW33010   5.953   5.496   1.155
10704SOL    HW133011   5.856   5.475   1.140
10704SOL    HW233012   5.961   5.570   1.222
10705SOL     OW33013   6.269   4.213   2.234
10705SOL    HW133014   6.324   4.184   2.312
10705SOL    HW233015   6.326   4.262   2.169
10706SOL     OW33016   4.359   6.667   2.378
10706SOL    HW133017   4.388   6.762   2.396
10706SOL    HW233018   4.354   6.617   2.465
10707SOL     OW33019   0.341   0.045   3.848
10707SOL    HW133020   0.336   6.983   3.799
10707SOL    HW233021   0.435   0.060   3.880
10708SOL     OW33022   4.248   0.812   2.570
10708SOL    HW133023   4.216   0.846   2.481
10708SOL    HW233024   4.319   0.873   2.605
10709SOL     OW33025   6.243   0.127   4.981
10709SOL    HW133026   6.246   0.037   5.025
10709SOL    HW233027   6.323   0.180   5.008
10710SOL     OW33028   0.291   6.413   4.512
10710SOL    HW133029   0.357   6.414   4.437
10710SOL    HW233030   0.241   6.499   4.515
10711SOL     OW33031   1.734   6.563   3.294
10711SOL    HW133032   1.829   6.543   3.318
10711SOL    HW233033   1.731   6.630   3.220
10712SOL     OW33034   2.749   1.018   1.425
10712SOL    HW133035   2.833   1.049   1.469
10712SOL    HW233036   2.727   1.078   1.347
10713SOL     OW33037   0.518   3.548   2.040
10713SOL    HW133038   0.603   3.504   2.070
10713SOL    HW233039   0.476   3.494   1.967
10714SOL     OW33040   6.471   3.930   5.804
10714SOL    HW133041   6.545   3.996   5.796
10714SOL    HW233042   6.426   3.942   5.893
10715SOL     OW33043   4.729   6.985   2.982
10715SOL    HW133044   4.786   7.007   3.061
10715SOL    HW233045   4.680   6.899   2.998
10716SOL     OW33046   6.176   2.591   4.652
10716SOL    HW133047   6.275   2.598   4.653
10716SOL    HW233048   6.146   2.528   4.724
10717SOL     OW33049   1.207   2.656   0.795
10717SOL    HW133050   1.114   2.685   0.773
10717SOL    HW233051   1.227   2.570   0.748
10718SOL     OW33052   0.203   3.188   6.473
10718SOL    HW133053   0.108   3.198   6.445
10718SOL    HW233054   0.259   3.167   6.393
10719SOL     OW33055   4.833   6.091   0.093
10719SOL    HW133056   4.752   6.032   0.096
10719SOL    HW233057   4.912   6.039   0.059
10720SOL     OW33058   6.631   2.968   5.695
10720SOL    HW133059   6.683   3.051   5.676
10720SOL    HW233060   6.590   2.933   5.611
10721SOL     OW33061   6.331   3.472   5.253
10721SOL    HW133062   6.426   3.469   5.221
10721SOL    HW233063   6.327   3.513   5.344
10722SOL     OW33064   6.534   3.782   0.712
10722SOL    HW133065   6.609   3.784   0.646
10722SOL    HW233066   6.450   3.815   0.669
10723SOL     OW33067   6.943   3.577   0.168
10723SOL    HW133068   6.869   3.511   0.155
10723SOL    HW233069   6.924   3.634   0.248
10724SOL     OW33070   4.387   0.771   6.855
10724SOL    HW133071   4.348   0.825   6.781
10724SOL    HW233072   4.313   0.732   6.910
10725SOL     OW33073   0.017   5.087   3.793
10725SOL    HW133074   0.107   5.129   3.805
10725SOL    HW233075   7.006   5.112   3.703
10726SOL     OW33076   6.075   6.190   5.842
10726SOL    HW133077   6.027   6.197   5.755
10726SOL    HW233078   6.014   6.151   5.911
10727SOL     OW33079   1.074   5.025   3.542
10727SOL    HW133080   1.154   4.965   3.552
10727SOL    HW233081   1.042   5.053   3.633
10728SOL     OW33082   6.604   6.138   1.699
10728SOL    HW133083   6.636   6.135   1.794
10728SOL    HW233084   6.528   6.074   1.687
10729SOL     OW33085   6.195   0.945   2.909
10729SOL    HW133086   6.189   0.853   2.946
10729SOL    HW233087   6.205   1.011   2.984
10730SOL     OW33088   2.651   0.332   1.143
10730SOL    HW133089   2.657   0.429   1.121
10730SOL    HW233090   2.712   0.312   1.220
10731SOL     OW33091   2.260   5.672   6.191
10731SOL    HW133092   2.333   5.733   6.161
10731SOL    HW233093   2.292   5.577   6.189
10732SOL     OW33094   5.583   6.191   2.608
10732SOL    HW133095   5.497   6.212   2.654
10732SOL    HW233096   5.609   6.267   2.548
10733SOL     OW33097   5.697   2.129   6.834
10733SOL    HW133098   5.685   2.220   6.794
10733SOL    HW233099   5.629   2.115   6.906
10734SOL     OW33100   1.265   0.200   6.712
10734SOL    HW133101   1.197   0.150   6.659
10734SOL    HW233102   1.219   0.261   6.777
10735SOL     OW33103   1.919   5.053   2.491
10735SOL    HW133104   1.932   5.059   2.590
10735SOL    HW233105   1.970   4.974   2.456
10736SOL     OW33106   0.710   1.002   3.758
10736SOL    HW133107   0.755   1.090   3.775
10736SOL    HW233108   0.644   1.012   3.684
10737SOL     OW33109   1.581   2.059   0.414
10737SOL    HW133110   1.672   2.040   0.377
10737SOL    HW233111   1.512   2.035   0.346
10738SOL     OW33112   2.552   0.520   2.192
10738SOL    HW133113   2.644   0.483   2.181
10738SOL    HW233114   2.500   0.506   2.107
10739SOL     OW33115   0.587   1.185   1.988
10739SOL    HW133116   0.646   1.238   2.049
10739SOL    HW233117   0.502   1.162   2.035
10740SOL     OW33118   1.405   4.206   6.385
10740SOL    HW133119   1.455   4.274   6.439
10740SOL    HW233120   1.442   4.115   6.404
10741SOL     OW33121   0.553   1.033   3.530
10741SOL    HW133122   0.515   1.122   3.507
10741SOL    HW233123   0.614   1.002   3.456
10742SOL     OW33124   6.296   0.364   1.607
10742SOL    HW133125   6.218   0.304   1.620
10742SOL    HW233126   6.379   0.309   1.593
10743SOL     OW33127   2.607   2.476   3.636
10743SOL    HW133128   2.560   2.525   3.709
10743SOL    HW233129   2.568   2.504   3.547
10744SOL     OW33130   3.510   1.888   2.723
10744SOL    HW133131   3.537   1.969   2.671
10744SOL    HW233132   3.590   1.829   2.737
10745SOL     OW33133   0.630   4.877   0.529
10745SOL    HW133134   0.712   4.851   0.580
10745SOL    HW233135   0.574   4.796   0.513
10746SOL     OW33136   1.537   4.106   1.728
10746SOL    HW133137   1.507   4.197   1.759
10746SOL    HW233138   1.588   4.116   1.643
10747SOL     OW33139   4.540   1.749   3.128
10747SOL    HW133140   4.581   1.824   3.181
10747SOL    HW233141   4.520   1.672   3.190
10748SOL     OW33142   4.964   0.075   1.177
10748SOL    HW133143   5.021   0.138   1.229
10748SOL    HW233144   4.958   0.106   1.082
10749SOL     OW33145   0.295   4.655   2.520
10749SOL    HW133146   0.309   4.567   2.475
10749SOL    HW233147   0.367   4.670   2.588
10750SOL     OW33148   3.987   5.880   4.133
10750SOL    HW133149   3.900   5.858   4.088
10750SOL    HW233150   4.030   5.795   4.164
10751SOL     OW33151   0.871   3.777   5.378
10751SOL    HW133152   0.773   3.757   5.381
10751SOL    HW233153   0.911   3.736   5.296
10752SOL     OW33154   6.349   3.958   6.095
10752SOL    HW133155   6.429   4.013   6.122
10752SOL    HW233156   6.364   3.863   6.121
10753SOL     OW33157   5.373   0.566   3.576
10753SOL    HW133158   5.349   0.484   3.524
10753SOL    HW233159   5.432   0.625   3.521
10754SOL     OW33160   1.950   1.758   3.355
10754SOL    HW133161   2.009   1.776   3.277
10754SOL    HW233162   1.854   1.764   3.326
10755SOL     OW33163   0.401   2.052   0.892
10755SOL    HW133164   0.478   2.102   0.853
10755SOL    HW233165   0.434   1.993   0.966
10756SOL     OW33166   6.067   4.193   7.004
10756SOL    HW133167   6.078   4.141   6.920
10756SOL    HW233168   6.015   4.139   0.046
10757SOL     OW33169   0.268   3.546   0.540
10757SOL    HW133170   0.277   3.600   0.623
10757SOL    HW233171   0.351   3.494   0.523
10758SOL     OW33172   1.615   6.174   4.907
10758SOL    HW133173   1.603   6.089   4.857
10758SOL    HW233174   1.692   6.165   4.971
10759SOL     OW33175   1.975   3.051   0.100
10759SOL    HW133176   1.876   3.066   0.104
10759SOL    HW233177   1.993   2.963   0.055
10760SOL     OW33178   7.011   0.555   0.552
10760SOL    HW133179   0.016   0.514   0.638
10760SOL    HW233180   0.039   0.639   0.535
10761SOL     OW33181   0.834   2.093   6.009
10761SOL    HW133182   0.859   2.166   6.072
10761SOL    HW233183   0.914   2.039   5.986
10762SOL     OW33184   4.315   1.682   4.854
10762SOL    HW133185   4.369   1.675   4.770
10762SOL    HW233186   4.286   1.591   4.883
10763SOL     OW33187   4.569   6.155   0.667
10763SOL    HW133188   4.658   6.143   0.710
10763SOL    HW233189   4.521   6.068   0.662
10764SOL     OW33190   5.710   1.597   5.643
10764SOL    HW133191   5.660   1.604   5.557
10764SOL    HW233192   5.674   1.664   5.708
10765SOL     OW33193   5.802   2.811   1.461
10765SOL    HW133194   5.738   2.825   1.385
10765SOL    HW233195   5.765   2.740   1.522
10766SOL     OW33196   3.192   3.230   0.307
10766SOL    HW133197   3.185   3.288   0.388
10766SOL    HW233198   3.255   3.271   0.241
10767SOL     OW33199   1.611   0.346   0.171
10767SOL    HW133200   1.695   0.396   0.193
10767SOL    HW233201   1.546   0.355   0.247
10768SOL     OW33202   5.269   5.431   1.049
10768SOL    HW133203   5.174   5.423   1.018
10768SOL    HW233204   5.305   5.521   1.025
10769SOL     OW33205   1.876   4.797   4.207
10769SOL    HW133206   1.931   4.847   4.140
10769SOL    HW233207   1.936   4.760   4.279
10770SOL     OW33208   5.408   6.964   4.656
10770SOL    HW133209   5.366   6.895   4.596
10770SOL    HW233210   5.453   6.918   4.733
10771SOL     OW33211   4.401   6.738   5.081
10771SOL    HW133212   4.436   6.808   5.019
10771SOL    HW233213   4.430   6.758   5.174
10772SOL     OW33214   6.377   6.759   4.030
10772SOL    HW133215   6.325   6.841   4.007
10772SOL    HW233216   6.332   6.712   4.106
10773SOL     OW33217   6.468   5.211   6.500
10773SOL    HW133218   6.507   5.119   6.489
10773SOL    HW233219   6.440   5.246   6.410
10774SOL     OW33220   1.661   1.745   6.858
10774SOL    HW133221   1.617   1.667   6.902
10774SOL    HW233222   1.696   1.718   6.768
10775SOL     OW33223   0.537   3.684   1.100
10775SOL    HW133224   0.565   3.632   1.180
10775SOL    HW233225   0.616   3.732   1.062
10776SOL     OW33226   1.237   6.237   0.729
10776SOL    HW133227   1.235   6.161   0.795
10776SOL    HW233228   1.222   6.202   0.637
10777SOL     OW33229   4.062   6.550   3.914
10777SOL    HW133230   4.029   6.490   3.987
10777SOL    HW233231   3.985   6.573   3.853
10778SOL     OW33232   5.620   6.044   5.166
10778SOL    HW133233   5.667   6.034   5.253
10778SOL    HW233234   5.573   5.959   5.142
10779SOL     OW33235   6.168   4.891   3.218
10779SOL    HW133236   6.206   4.982   3.235
10779SOL    HW233237   6.218   4.823   3.271
10780SOL     OW33238   1.100   6.920   2.938
10780SOL    HW133239   1.147   6.977   3.005
10780SOL    HW233240   1.004   6.948   2.931
10781SOL     OW33241   3.932   1.362   3.402
10781SOL    HW133242   3.886   1.303   3.336
10781SOL    HW233243   4.027   1.332   3.414
10782SOL     OW33244   6.760   2.122   3.817
10782SOL    HW133245   6.802   2.041   3.777
10782SOL    HW233246   6.832   2.180   3.856
10783SOL     OW33247   1.345   3.180   3.629
10783SOL    HW133248   1.257   3.204   3.671
10783SOL    HW233249   1.410   3.153   3.699
10784SOL     OW33250   2.832   0.532   2.398
10784SOL    HW133251   2.849   0.498   2.305
10784SOL    HW233252   2.756   0.482   2.439
10785SOL     OW33253   0.890   4.904   0.955
10785SOL    HW133254   0.870   4.981   1.016
10785SOL    HW233255   0.989   4.892   0.949
10786SOL     OW33256   4.782   3.333   1.796
10786SOL    HW133257   4.815   3.333   1.890
10786SOL    HW233258   4.794   3.242   1.756
10787SOL     OW33259   3.022   2.224   4.515
10787SOL    HW133260   3.085   2.146   4.515
10787SOL    HW233261   2.988   2.239   4.608
10788SOL     OW33262   1.771   4.350   0.611
10788SOL    HW133263   1.704   4.359   0.537
10788SOL    HW233264   1.781   4.253   0.634
10789SOL     OW33265   5.735   2.135   0.414
10789SOL    HW133266   5.832   2.141   0.390
10789SOL    HW233267   5.701   2.226   0.436
10790SOL     OW33268   1.199   0.839   3.854
10790SOL    HW133269   1.133   0.777   3.895
10790SOL    HW233270   1.227   0.804   3.764
10791SOL     OW33271   0.535   1.118   1.223
10791SOL    HW133272   0.599   1.052   1.184
10791SOL    HW233273   0.495   1.080   1.307
10792SOL     OW33274   3.825   3.317   1.705
10792SOL    HW133275   3.909   3.334   1.653
10792SOL    HW233276   3.796   3.222   1.692
10793SOL     OW33277   5.281   2.939   4.222
10793SOL    HW133278   5.196   2.988   4.242
10793SOL    HW233279   5.270   2.842   4.244
10794SOL     OW33280   2.919   3.796   2.872
10794SOL    HW133281   2.871   3.814   2.787
10794SOL    HW233282   3.004   3.848   2.874
10795SOL     OW33283   6.666   3.824   3.888
10795SOL    HW133284   6.579   3.856   3.851
10795SOL    HW233285   6.670   3.724   3.884
10796SOL     OW33286   5.355   6.353   6.908
10796SOL    HW133287   5.295   6.431   6.925
10796SOL    HW233288   5.435   6.383   6.856
10797SOL     OW33289   4.620   2.373   1.035
10797SOL    HW133290   4.655   2.466   1.029
10797SOL    HW233291   4.645   2.323   0.952
10798SOL     OW33292   2.194   6.732   0.699
10798SOL    HW133293   2.101   6.766   0.713
10798SOL    HW233294   2.259   6.803   0.726
10799SOL     OW33295   3.478   1.266   1.970
10799SOL    HW133296   3.556   1.258   2.033
10799SOL    HW233297   3.413   1.193   1.989
10800SOL     OW33298   1.077   0.180   0.071
10800SOL    HW133299   1.061   0.243   7.020
10800SOL    HW233300   1.162   0.130   0.056
10801SOL     OW33301   1.005   0.051   5.003
10801SOL    HW133302   0.988   0.055   4.905
10801SOL    HW233303   0.978   0.138   5.045
10802SOL     OW33304   2.218   2.997   4.602
10802SOL    HW133305   2.167   2.935   4.662
10802SOL    HW233306   2.295   3.035   4.652
10803SOL     OW33307   4.339   4.254   5.385
10803SOL    HW133308   4.335   4.173   5.327
10803SOL    HW233309   4.282   4.326   5.346
10804SOL     OW33310   6.833   3.962   1.521
10804SOL    HW133311   6.794   4.053   1.509
10804SOL    HW233312   6.760   3.894   1.517
10805SOL     OW33313   3.239   6.513   6.496
10805SOL    HW133314   3.276   6.606   6.504
10805SOL    HW233315   3.209   6.481   6.586
10806SOL     OW33316   5.043   4.414   6.591
10806SOL    HW133317   5.076   4.322   6.614
10806SOL    HW233318   5.111   4.481   6.619
10807SOL     OW33319   2.625   6.957   3.331
10807SOL    HW133320   2.621   6.947   3.231
10807SOL    HW233321   2.565   6.890   3.374
10808SOL     OW33322   6.585   4.020   6.857
10808SOL    HW133323   6.534   3.954   6.913
10808SOL    HW233324   6.534   4.105   6.850
10809SOL     OW33325   2.275   6.249   3.761
10809SOL    HW133326   2.299   6.171   3.704
10809SOL    HW233327   2.278   6.333   3.706
10810SOL     OW33328   1.704   0.144   4.689
10810SOL    HW133329   1.801   0.157   4.670
10810SOL    HW233330   1.668   0.070   4.632
10811SOL     OW33331   4.780   4.699   5.564
10811SOL    HW133332   4.860   4.759   5.569
10811SOL    HW233333   4.697   4.754   5.562
10812SOL     OW33334   0.604   3.471   2.542
10812SOL    HW133335   0.560   3.479   2.632
10812SOL    HW233336   0.625   3.562   2.507
10813SOL     OW33337   1.494   6.002   0.142
10813SOL    HW133338   1.591   6.022   0.158
10813SOL    HW233339   1.437   6.065   0.194
10814SOL     OW33340   1.596   6.687   6.921
10814SOL    HW133341   1.606   6.769   6.977
10814SOL    HW233342   1.608   6.606   6.977
10815SOL     OW33343   5.040   4.796   3.172
10815SOL    HW133344   4.948   4.785   3.135
10815SOL    HW233345   5.035   4.808   3.272
10816SOL     OW33346   1.350   1.742   1.931
10816SOL    HW133347   1.263   1.781   1.963
10816SOL    HW233348   1.363   1.764   1.834
10817SOL     OW33349   5.297   0.280   2.582
10817SOL    HW133350   5.249   0.365   2.562
10817SOL    HW233351   5.381   0.275   2.528
10818SOL     OW33352   4.591   4.285   5.452
10818SOL    HW133353   4.493   4.293   5.430
10818SOL    HW233354   4.633   4.216   5.394
10819SOL     OW33355   6.705   4.423   0.076
10819SOL    HW133356   6.609   4.449   0.074
10819SOL    HW233357   6.753   4.465   7.023
10820SOL     OW33358   5.967   5.828   4.270
10820SOL    HW133359   5.963   5.875   4.182
10820SOL    HW233360   5.880   5.841   4.319
10821SOL     OW33361   5.642   6.453   1.908
10821SOL    HW133362   5.569   6.493   1.963
10821SOL    HW233363   5.707   6.406   1.968
10822SOL     OW33364   0.828   2.706   2.875
10822SOL    HW133365   0.732   2.732   2.875
10822SOL    HW233366   0.881   2.774   2.927
10823SOL     OW33367   1.583   5.109   2.171
10823SOL    HW133368   1.655   5.048   2.204
10823SOL    HW233369   1.596   5.200   2.210
10824SOL     OW33370   4.949   0.083   3.835
10824SOL    HW133371   4.871   0.031   3.799
10824SOL    HW233372   5.033   0.031   3.820
10825SOL     OW33373   2.924   0.477   6.554
10825SOL    HW133374   2.877   0.391   6.572
10825SOL    HW233375   3.022   0.467   6.575
10826SOL     OW33376   0.637   3.543   3.908
10826SOL    HW133377   0.659   3.625   3.856
10826SOL    HW233378   0.651   3.561   4.006
10827SOL     OW33379   5.815   3.683   4.418
10827SOL    HW133380   5.776   3.673   4.326
10827SOL    HW233381   5.913   3.699   4.411
10828SOL     OW33382   1.010   5.631   2.149
10828SOL    HW133383   1.084   5.563   2.149
10828SOL    HW233384   1.003   5.673   2.240
10829SOL     OW33385   3.767   2.273   0.562
10829SOL    HW133386   3.829   2.344   0.596
10829SOL    HW233387   3.771   2.193   0.622
10830SOL     OW33388   5.492   2.185   3.979
10830SOL    HW133389   5.540   2.259   4.027
10830SOL    HW233390   5.557   2.112   3.959
10831SOL     OW33391   3.963   6.050   1.896
10831SOL    HW133392   3.986   6.130   1.951
10831SOL    HW233393   4.041   5.988   1.892
10832SOL     OW33394   0.203   2.150   0.707
10832SOL    HW133395   0.192   2.249   0.716
10832SOL    HW233396   0.282   2.120   0.761
10833SOL     OW33397   1.400   1.199   3.490
10833SOL    HW133398   1.328   1.157   3.436
10833SOL    HW233399   1.364   1.228   3.579
10834SOL     OW33400   1.374   2.313   6.310
10834SOL    HW133401   1.356   2.404   6.347
10834SOL    HW233402   1.461   2.279   6.346
10835SOL     OW33403   6.096   1.616   1.047
10835SOL    HW133404   6.191   1.589   1.028
10835SOL    HW233405   6.058   1.554   1.116
10836SOL     OW33406   6.470   1.245   4.680
10836SOL    HW133407   6.429   1.248   4.589
10836SOL    HW233408   6.409   1.291   4.745
10837SOL     OW33409   0.431   5.199   0.262
10837SOL    HW133410   0.375   5.177   0.182
10837SOL    HW233411   0.386   5.271   0.315
10838SOL     OW33412   5.979   6.296   4.978
10838SOL    HW133413   5.913   6.224   4.999
10838SOL    HW233414   5.931   6.375   4.939
10839SOL     OW33415   3.370   3.361   0.537
10839SOL    HW133416   3.353   3.286   0.601
10839SOL    HW233417   3.468   3.384   0.538
10840SOL     OW33418   3.911   5.504   1.432
10840SOL    HW133419   3.860   5.484   1.348
10840SOL    HW233420   3.891   5.597   1.461
10841SOL     OW33421   3.749   6.547   0.420
10841SOL    HW133422   3.650   6.543   0.431
10841SOL    HW233423   3.782   6.461   0.381
10842SOL     OW33424   5.266   3.328   1.098
10842SOL    HW133425   5.228   3.249   1.146
10842SOL    HW233426   5.341   3.298   1.039
10843SOL     OW33427   0.947   2.167   1.822
10843SOL    HW133428   1.034   2.125   1.797
10843SOL    HW233429   0.871   2.105   1.800
10844SOL     OW33430   0.264   0.075   4.101
10844SOL    HW133431   0.283   7.004   4.125
10844SOL    HW233432   0.297   0.093   4.008
10845SOL     OW33433   3.104   0.685   0.096
10845SOL    HW133434   3.051   0.746   0.037
10845SOL    HW233435   3.057   0.674   0.183
10846SOL     OW33436   4.905   3.217   0.741
10846SOL    HW133437   4.825   3.176   0.696
10846SOL    HW233438   4.906   3.316   0.724
10847SOL     OW33439   3.524   2.902   6.480
10847SOL    HW133440   3.590   2.974   6.503
10847SOL    HW233441   3.556   2.814   6.515
10848SOL     OW33442   3.289   2.071   6.566
10848SOL    HW133443   3.283   2.170   6.553
10848SOL    HW233444   3.269   2.025   6.479
10849SOL     OW33445   2.496   4.520   3.139
10849SOL    HW133446   2.555   4.554   3.213
10849SOL    HW233447   2.432   4.452   3.176
10850SOL     OW33448   4.172   6.139   0.058
10850SOL    HW133449   4.175   6.239   0.055
10850SOL    HW233450   4.248   6.105   0.112
10851SOL     OW33451   3.169   2.812   6.573
10851SOL    HW133452   3.225   2.811   6.491
10851SOL    HW233453   3.208   2.750   6.641
10852SOL     OW33454   0.237   6.448   6.564
10852SOL    HW133455   0.309   6.395   6.519
10852SOL    HW233456   0.149   6.402   6.551
10853SOL     OW33457   3.607   1.594   5.970
10853SOL    HW133458   3.594   1.508   5.921
10853SOL    HW233459   3.527   1.653   5.954
10854SOL     OW33460   6.027   6.179   5.553
10854SOL    HW133461   5.991   6.261   5.511
10854SOL    HW233462   6.121   6.163   5.521
10855SOL     OW33463   2.922   6.191   1.902
10855SOL    HW133464   2.849   6.122   1.907
10855SOL    HW233465   2.884   6.280   1.927
10856SOL     OW33466   6.146   1.565   2.309
10856SOL    HW133467   6.214   1.491   2.304
10856SOL    HW233468   6.167   1.624   2.388
10857SOL     OW33469   5.685   3.612   3.654
10857SOL    HW133470   5.644   3.537   3.706
10857SOL    HW233471   5.625   3.636   3.578
10858SOL     OW33472   0.930   2.463   6.664
10858SOL    HW133473   0.872   2.463   6.746
10858SOL    HW233474   0.922   2.552   6.618
10859SOL     OW33475   2.168   3.935   3.945
10859SOL    HW133476   2.173   3.903   3.851
10859SOL    HW233477   2.187   3.860   4.008
10860SOL     OW33478   6.409   1.359   6.170
10860SOL    HW133479   6.321   1.311   6.170
10860SOL    HW233480   6.483   1.292   6.174
10861SOL     OW33481   3.855   3.031   2.736
10861SOL    HW133482   3.756   3.029   2.750
10861SOL    HW233483   3.901   3.037   2.824
10862SOL     OW33484   2.935   1.697   6.403
10862SOL    HW133485   2.992   1.627   6.447
10862SOL    HW233486   2.990   1.779   6.387
10863SOL     OW33487   4.213   0.397   2.361
10863SOL    HW133488   4.137   0.331   2.363
10863SOL    HW233489   4.295   0.352   2.327
10864SOL     OW33490   2.378   5.200   0.902
10864SOL    HW133491   2.396   5.187   0.804
10864SOL    HW233492   2.371   5.111   0.947
10865SOL     OW33493   5.484   1.771   3.834
10865SOL    HW133494   5.430   1.853   3.856
10865SOL    HW233495   5.495   1.763   3.735
10866SOL     OW33496   5.027   5.142   0.870
10866SOL    HW133497   5.029   5.242   0.874
10866SOL    HW233498   5.119   5.107   0.858
10867SOL     OW33499   3.289   4.416   0.221
10867SOL    HW133500   3.292   4.338   0.283
10867SOL    HW233501   3.233   4.488   0.262
10868SOL     OW33502   1.742   2.147   3.919
10868SOL    HW133503   1.654   2.115   3.956
10868SOL    HW233504   1.804   2.070   3.910
10869NA      NA33505   0.224   2.298   6.245
10870NA      NA33506   4.529   4.484   5.207
10871NA      NA33507   2.364   4.467   2.170
10872NA      NA33508   4.895   3.986   3.889
10873NA      NA33509   4.333   2.426   5.258
10874NA      NA33510   3.225   4.482   1.544
10875NA      NA33511   0.804   4.526   0.032
10876NA      NA33512   3.663   3.847   2.358
10877NA      NA33513   4.847   4.880   1.334
10878NA      NA33514   3.582   0.308   5.570
10879NA      NA33515   6.298   5.537   0.778
10880NA      NA33516   2.188   0.638   5.121
10881NA      NA33517   4.176   4.851   1.794
10882NA      NA33518   4.136   2.680   1.105
   7.02459   7.02459   7.02459
