Generated by trjconv : CNT in water t=  73.00000
33518
    1C        C    1   2.845   2.771   4.746
    1C        C    2   2.896   2.718   4.867
    1C        C    3   2.839   2.773   4.982
    1C        C    4   2.848   2.773   4.258
    1C        C    5   2.899   2.725   4.381
    1C        C    6   2.846   2.772   4.503
    1C        C    7   3.010   2.638   4.623
    1C        C    8   2.895   2.719   4.624
    1C        C    9   3.076   2.603   4.743
    1C        C   10   3.010   2.635   4.863
    1C        C   11   3.178   2.486   4.973
    1C        C   12   3.057   2.557   4.970
    1C        C   13   2.848   2.769   3.768
    1C        C   14   2.900   2.721   3.890
    1C        C   15   2.846   2.770   4.011
    1C        C   16   3.015   2.646   4.137
    1C        C   17   2.901   2.729   4.135
    1C        C   18   3.080   2.614   4.258
    1C        C   19   3.020   2.652   4.381
    1C        C   20   3.210   2.559   4.502
    1C        C   21   3.078   2.609   4.502
    1C        C   22   3.280   2.539   4.624
    1C        C   23   3.206   2.545   4.744
    1C        C   24   3.409   2.476   4.861
    1C        C   25   3.269   2.502   4.864
    1C        C   26   3.486   2.472   4.979
    1C        C   27   2.849   2.766   3.280
    1C        C   28   2.904   2.723   3.403
    1C        C   29   2.849   2.772   3.523
    1C        C   30   3.021   2.648   3.646
    1C        C   31   2.906   2.730   3.646
    1C        C   32   3.080   2.611   3.769
    1C        C   33   3.019   2.645   3.892
    1C        C   34   3.209   2.556   4.015
    1C        C   35   3.078   2.609   4.016
    1C        C   36   3.277   2.532   4.137
    1C        C   37   3.213   2.567   4.258
    1C        C   38   3.417   2.510   4.380
    1C        C   39   3.279   2.542   4.380
    1C        C   40   3.487   2.500   4.502
    1C        C   41   3.416   2.503   4.624
    1C        C   42   3.631   2.481   4.743
    1C        C   43   3.488   2.479   4.743
    1C        C   44   3.703   2.486   4.864
    1C        C   45   3.625   2.469   4.978
    1C        C   46   2.838   2.754   2.794
    1C        C   47   2.895   2.712   2.916
    1C        C   48   2.842   2.764   3.036
    1C        C   49   3.019   2.642   3.160
    1C        C   50   2.900   2.719   3.157
    1C        C   51   3.081   2.608   3.282
    1C        C   52   3.018   2.640   3.404
    1C        C   53   3.210   2.547   3.525
    1C        C   54   3.081   2.605   3.526
    1C        C   55   3.277   2.526   3.647
    1C        C   56   3.207   2.549   3.768
    1C        C   57   3.412   2.508   3.892
    1C        C   58   3.272   2.530   3.892
    1C        C   59   3.483   2.498   4.013
    1C        C   60   3.415   2.501   4.137
    1C        C   61   3.628   2.494   4.257
    1C        C   62   3.487   2.492   4.258
    1C        C   63   3.700   2.505   4.378
    1C        C   64   3.628   2.505   4.500
    1C        C   65   3.836   2.538   4.622
    1C        C   66   3.700   2.501   4.621
    1C        C   67   3.906   2.562   4.743
    1C        C   68   3.839   2.526   4.862
    1C        C   69   4.051   2.581   4.979
    1C        C   70   3.921   2.529   4.975
    1C        C   71   2.824   2.737   2.308
    1C        C   72   2.885   2.697   2.428
    1C        C   73   2.836   2.749   2.550
    1C        C   74   3.011   2.631   2.669
    1C        C   75   2.892   2.707   2.672
    1C        C   76   3.075   2.599   2.791
    1C        C   77   3.014   2.636   2.914
    1C        C   78   3.205   2.545   3.035
    1C        C   79   3.076   2.604   3.037
    1C        C   80   3.276   2.534   3.156
    1C        C   81   3.211   2.551   3.280
    1C        C   82   3.416   2.501   3.401
    1C        C   83   3.276   2.524   3.402
    1C        C   84   3.485   2.498   3.525
    1C        C   85   3.417   2.503   3.648
    1C        C   86   3.626   2.495   3.769
    1C        C   87   3.485   2.495   3.772
    1C        C   88   3.696   2.506   3.891
    1C        C   89   3.624   2.498   4.013
    1C        C   90   3.831   2.550   4.137
    1C        C   91   3.696   2.509   4.134
    1C        C   92   3.899   2.575   4.259
    1C        C   93   3.835   2.547   4.381
    1C        C   94   4.031   2.629   4.499
    1C        C   95   3.907   2.561   4.502
    1C        C   96   4.088   2.674   4.620
    1C        C   97   4.031   2.629   4.741
    1C        C   98   4.189   2.762   4.858
    1C        C   99   4.097   2.652   4.864
    1C        C  100   4.218   2.840   4.971
    1C        C  101   2.824   2.731   2.071
    1C        C  102   2.987   2.587   2.188
    1C        C  103   2.875   2.676   2.190
    1C        C  104   3.061   2.569   2.308
    1C        C  105   3.001   2.616   2.426
    1C        C  106   3.198   2.531   2.548
    1C        C  107   3.069   2.588   2.547
    1C        C  108   3.267   2.518   2.670
    1C        C  109   3.205   2.545   2.794
    1C        C  110   3.413   2.497   2.911
    1C        C  111   3.274   2.519   2.915
    1C        C  112   3.484   2.499   3.033
    1C        C  113   3.416   2.512   3.156
    1C        C  114   3.626   2.503   3.278
    1C        C  115   3.485   2.499   3.278
    1C        C  116   3.695   2.507   3.402
    1C        C  117   3.626   2.501   3.525
    1C        C  118   3.835   2.539   3.646
    1C        C  119   3.698   2.506   3.647
    1C        C  120   3.899   2.568   3.769
    1C        C  121   3.832   2.544   3.891
    1C        C  122   4.024   2.630   4.013
    1C        C  123   3.896   2.570   4.014
    1C        C  124   4.087   2.669   4.133
    1C        C  125   4.028   2.633   4.257
    1C        C  126   4.196   2.764   4.376
    1C        C  127   4.088   2.673   4.378
    1C        C  128   4.244   2.821   4.496
    1C        C  129   4.192   2.770   4.618
    1C        C  130   4.327   2.934   4.740
    1C        C  131   4.244   2.819   4.740
    1C        C  132   4.357   3.003   4.860
    1C        C  133   4.284   2.962   4.972
    1C        C  134   3.171   2.466   2.083
    1C        C  135   3.037   2.506   2.081
    1C        C  136   3.260   2.477   2.191
    1C        C  137   3.194   2.517   2.309
    1C        C  138   3.408   2.482   2.428
    1C        C  139   3.268   2.502   2.429
    1C        C  140   3.481   2.481   2.549
    1C        C  141   3.406   2.492   2.668
    1C        C  142   3.623   2.497   2.789
    1C        C  143   3.482   2.491   2.788
    1C        C  144   3.697   2.505   2.909
    1C        C  145   3.626   2.497   3.031
    1C        C  146   3.832   2.537   3.156
    1C        C  147   3.694   2.508   3.154
    1C        C  148   3.901   2.558   3.278
    1C        C  149   3.833   2.539   3.400
    1C        C  150   4.029   2.619   3.524
    1C        C  151   3.900   2.562   3.522
    1C        C  152   4.087   2.662   3.645
    1C        C  153   4.022   2.636   3.768
    1C        C  154   4.189   2.766   3.888
    1C        C  155   4.080   2.676   3.891
    1C        C  156   4.244   2.813   4.009
    1C        C  157   4.196   2.760   4.131
    1C        C  158   4.335   2.920   4.254
    1C        C  159   4.245   2.812   4.252
    1C        C  160   4.376   2.982   4.374
    1C        C  161   4.331   2.932   4.498
    1C        C  162   4.439   3.117   4.614
    1C        C  163   4.371   2.993   4.619
    1C        C  164   4.469   3.187   4.733
    1C        C  165   4.434   3.121   4.854
    1C        C  166   4.512   3.322   4.969
    1C        C  167   4.479   3.187   4.969
    1C        C  168   3.476   2.429   2.072
    1C        C  169   3.399   2.451   2.187
    1C        C  170   3.617   2.465   2.303
    1C        C  171   3.475   2.462   2.305
    1C        C  172   3.691   2.485   2.422
    1C        C  173   3.622   2.485   2.545
    1C        C  174   3.830   2.535   2.664
    1C        C  175   3.693   2.501   2.666
    1C        C  176   3.897   2.561   2.786
    1C        C  177   3.835   2.534   2.910
    1C        C  178   4.026   2.622   3.032
    1C        C  179   3.899   2.560   3.034
    1C        C  180   4.088   2.656   3.155
    1C        C  181   4.025   2.625   3.278
    1C        C  182   4.196   2.747   3.397
    1C        C  183   4.087   2.658   3.401
    1C        C  184   4.244   2.799   3.519
    1C        C  185   4.196   2.752   3.643
    1C        C  186   4.332   2.917   3.765
    1C        C  187   4.244   2.806   3.764
    1C        C  188   4.375   2.979   3.885
    1C        C  189   4.333   2.923   4.007
    1C        C  190   4.444   3.101   4.128
    1C        C  191   4.372   2.979   4.131
    1C        C  192   4.471   3.170   4.248
    1C        C  193   4.444   3.106   4.371
    1C        C  194   4.504   3.314   4.488
    1C        C  195   4.471   3.177   4.491
    1C        C  196   4.524   3.389   4.606
    1C        C  197   4.509   3.323   4.730
    1C        C  198   4.551   3.537   4.847
    1C        C  199   4.521   3.397   4.851
    1C        C  200   4.584   3.618   4.960
    1C        C  201   3.616   2.417   2.068
    1C        C  202   3.827   2.503   2.180
    1C        C  203   3.693   2.454   2.183
    1C        C  204   3.898   2.536   2.299
    1C        C  205   3.827   2.522   2.421
    1C        C  206   4.023   2.610   2.542
    1C        C  207   3.898   2.546   2.541
    1C        C  208   4.083   2.654   2.663
    1C        C  209   4.023   2.624   2.787
    1C        C  210   4.199   2.742   2.907
    1C        C  211   4.085   2.659   2.909
    1C        C  212   4.247   2.797   3.029
    1C        C  213   4.193   2.750   3.151
    1C        C  214   4.332   2.907   3.269
    1C        C  215   4.246   2.795   3.274
    1C        C  216   4.368   2.966   3.392
    1C        C  217   4.334   2.909   3.516
    1C        C  218   4.431   3.096   3.637
    1C        C  219   4.371   2.968   3.639
    1C        C  220   4.459   3.164   3.758
    1C        C  221   4.440   3.104   3.884
    1C        C  222   4.502   3.305   4.001
    1C        C  223   4.473   3.167   4.006
    1C        C  224   4.514   3.377   4.122
    1C        C  225   4.506   3.307   4.244
    1C        C  226   4.518   3.522   4.364
    1C        C  227   4.515   3.381   4.364
    1C        C  228   4.517   3.597   4.484
    1C        C  229   4.536   3.530   4.606
    1C        C  230   4.510   3.746   4.725
    1C        C  231   4.543   3.608   4.724
    1C        C  232   4.499   3.821   4.845
    1C        C  233   4.551   3.755   4.956
    1C        C  234   4.013   2.614   2.065
    1C        C  235   3.894   2.542   2.063
    1C        C  236   4.082   2.649   2.182
    1C        C  237   4.022   2.605   2.302
    1C        C  238   4.199   2.733   2.420
    1C        C  239   4.087   2.646   2.421
    1C        C  240   4.253   2.782   2.541
    1C        C  241   4.198   2.736   2.663
    1C        C  242   4.330   2.904   2.783
    1C        C  243   4.250   2.787   2.784
    1C        C  244   4.376   2.962   2.903
    1C        C  245   4.341   2.902   3.026
    1C        C  246   4.434   3.094   3.149
    1C        C  247   4.376   2.965   3.148
    1C        C  248   4.456   3.158   3.273
    1C        C  249   4.429   3.094   3.396
    1C        C  250   4.491   3.301   3.512
    1C        C  251   4.452   3.165   3.516
    1C        C  252   4.500   3.369   3.635
    1C        C  253   4.493   3.301   3.758
    1C        C  254   4.523   3.514   3.875
    1C        C  255   4.516   3.373   3.878
    1C        C  256   4.518   3.588   3.995
    1C        C  257   4.522   3.519   4.118
    1C        C  258   4.494   3.729   4.236
    1C        C  259   4.514   3.589   4.240
    1C        C  260   4.476   3.800   4.357
    1C        C  261   4.487   3.735   4.481
    1C        C  262   4.424   3.938   4.600
    1C        C  263   4.481   3.808   4.602
    1C        C  264   4.399   4.008   4.720
    1C        C  265   4.438   3.948   4.842
    1C        C  266   4.319   4.127   4.959
    1C        C  267   4.402   4.015   4.960
    1C        C  268   4.259   2.773   2.059
    1C        C  269   4.199   2.727   2.177
    1C        C  270   4.347   2.884   2.296
    1C        C  271   4.252   2.778   2.297
    1C        C  272   4.382   2.949   2.416
    1C        C  273   4.343   2.890   2.539
    1C        C  274   4.446   3.078   2.657
    1C        C  275   4.378   2.954   2.660
    1C        C  276   4.470   3.147   2.778
    1C        C  277   4.446   3.085   2.903
    1C        C  278   4.498   3.290   3.022
    1C        C  279   4.466   3.153   3.025
    1C        C  280   4.508   3.360   3.144
    1C        C  281   4.491   3.295   3.268
    1C        C  282   4.507   3.510   3.386
    1C        C  283   4.502   3.368   3.388
    1C        C  284   4.511   3.579   3.509
    1C        C  285   4.511   3.510   3.633
    1C        C  286   4.488   3.723   3.750
    1C        C  287   4.513   3.584   3.753
    1C        C  288   4.472   3.792   3.872
    1C        C  289   4.490   3.727   3.996
    1C        C  290   4.429   3.934   4.113
    1C        C  291   4.473   3.800   4.116
    1C        C  292   4.398   3.998   4.236
    1C        C  293   4.427   3.933   4.358
    1C        C  294   4.326   4.124   4.476
    1C        C  295   4.396   4.002   4.477
    1C        C  296   4.287   4.186   4.597
    1C        C  297   4.324   4.128   4.720
    1C        C  298   4.199   4.308   4.837
    1C        C  299   4.279   4.189   4.840
    1C        C  300   4.167   4.393   4.947
    1C        C  301   4.346   2.882   2.059
    1C        C  302   4.469   3.064   2.174
    1C        C  303   4.398   2.940   2.176
    1C        C  304   4.481   3.140   2.294
    1C        C  305   4.445   3.076   2.414
    1C        C  306   4.500   3.282   2.535
    1C        C  307   4.472   3.144   2.535
    1C        C  308   4.511   3.355   2.656
    1C        C  309   4.500   3.285   2.779
    1C        C  310   4.522   3.499   2.896
    1C        C  311   4.510   3.358   2.899
    1C        C  312   4.517   3.572   3.017
    1C        C  313   4.516   3.501   3.139
    1C        C  314   4.482   3.713   3.261
    1C        C  315   4.505   3.573   3.260
    1C        C  316   4.472   3.786   3.382
    1C        C  317   4.491   3.719   3.505
    1C        C  318   4.423   3.922   3.624
    1C        C  319   4.471   3.789   3.626
    1C        C  320   4.391   3.986   3.745
    1C        C  321   4.422   3.925   3.868
    1C        C  322   4.315   4.109   3.989
    1C        C  323   4.394   3.992   3.989
    1C        C  324   4.275   4.166   4.111
    1C        C  325   4.324   4.118   4.235
    1C        C  326   4.185   4.283   4.350
    1C        C  327   4.284   4.182   4.354
    1C        C  328   4.136   4.335   4.472
    1C        C  329   4.196   4.294   4.593
    1C        C  330   4.026   4.429   4.710
    1C        C  331   4.143   4.349   4.713
    1C        C  332   3.971   4.485   4.827
    1C        C  333   4.048   4.468   4.943
    1C        C  334   4.549   3.262   2.060
    1C        C  335   4.530   3.123   2.059
    1C        C  336   4.538   3.347   2.170
    1C        C  337   4.509   3.280   2.291
    1C        C  338   4.518   3.492   2.410
    1C        C  339   4.515   3.351   2.413
    1C        C  340   4.512   3.565   2.531
    1C        C  341   4.518   3.496   2.653
    1C        C  342   4.487   3.708   2.774
    1C        C  343   4.514   3.570   2.774
    1C        C  344   4.475   3.782   2.894
    1C        C  345   4.490   3.710   3.015
    1C        C  346   4.417   3.910   3.136
    1C        C  347   4.468   3.778   3.137
    1C        C  348   4.392   3.979   3.257
    1C        C  349   4.427   3.919   3.380
    1C        C  350   4.315   4.102   3.500
    1C        C  351   4.392   3.984   3.501
    1C        C  352   4.270   4.161   3.621
    1C        C  353   4.313   4.104   3.742
    1C        C  354   4.172   4.262   3.863
    1C        C  355   4.269   4.159   3.865
    1C        C  356   4.121   4.312   3.985
    1C        C  357   4.177   4.269   4.107
    1C        C  358   4.009   4.398   4.229
    1C        C  359   4.129   4.325   4.227
    1C        C  360   3.948   4.438   4.350
    1C        C  361   4.019   4.415   4.470
    1C        C  362   3.829   4.516   4.590
    1C        C  363   3.957   4.457   4.590
    1C        C  364   3.762   4.546   4.710
    1C        C  365   3.840   4.537   4.828
    1C        C  366   3.629   4.592   4.951
    1C        C  367   3.766   4.570   4.943
    1C        C  368   4.506   3.560   2.047
    1C        C  369   4.521   3.487   2.166
    1C        C  370   4.497   3.701   2.285
    1C        C  371   4.513   3.561   2.286
    1C        C  372   4.482   3.774   2.405
    1C        C  373   4.497   3.706   2.528
    1C        C  374   4.427   3.908   2.646
    1C        C  375   4.471   3.773   2.649
    1C        C  376   4.396   3.973   2.767
    1C        C  377   4.424   3.914   2.892
    1C        C  378   4.315   4.095   3.010
    1C        C  379   4.395   3.978   3.014
    1C        C  380   4.272   4.154   3.131
    1C        C  381   4.318   4.099   3.252
    1C        C  382   4.173   4.252   3.372
    1C        C  383   4.275   4.154   3.375
    1C        C  384   4.120   4.305   3.492
    1C        C  385   4.171   4.262   3.617
    1C        C  386   4.004   4.390   3.742
    1C        C  387   4.120   4.308   3.740
    1C        C  388   3.943   4.427   3.864
    1C        C  389   4.006   4.395   3.986
    1C        C  390   3.815   4.487   4.105
    1C        C  391   3.944   4.431   4.108
    1C        C  392   3.748   4.510   4.227
    1C        C  393   3.818   4.492   4.349
    1C        C  394   3.616   4.554   4.473
    1C        C  395   3.755   4.530   4.470
    1C        C  396   3.545   4.556   4.595
    1C        C  397   3.621   4.558   4.714
    1C        C  398   3.412   4.550   4.836
    1C        C  399   3.552   4.573   4.836
    1C        C  400   3.345   4.515   4.954
    1C        C  401   4.501   3.699   2.047
    1C        C  402   4.455   3.911   2.168
    1C        C  403   4.485   3.773   2.164
    1C        C  404   4.414   3.978   2.285
    1C        C  405   4.440   3.909   2.406
    1C        C  406   4.329   4.095   2.522
    1C        C  407   4.406   3.977   2.524
    1C        C  408   4.277   4.147   2.643
    1C        C  409   4.313   4.087   2.766
    1C        C  410   4.174   4.250   2.885
    1C        C  411   4.269   4.146   2.886
    1C        C  412   4.122   4.298   3.007
    1C        C  413   4.178   4.259   3.131
    1C        C  414   3.999   4.376   3.252
    1C        C  415   4.120   4.303   3.252
    1C        C  416   3.939   4.411   3.375
    1C        C  417   4.002   4.382   3.498
    1C        C  418   3.811   4.472   3.618
    1C        C  419   3.941   4.419   3.620
    1C        C  420   3.744   4.500   3.740
    1C        C  421   3.812   4.480   3.862
    1C        C  422   3.608   4.537   3.984
    1C        C  423   3.746   4.509   3.984
    1C        C  424   3.541   4.545   4.108
    1C        C  425   3.610   4.540   4.231
    1C        C  426   3.400   4.556   4.357
    1C        C  427   3.542   4.559   4.353
    1C        C  428   3.329   4.548   4.479
    1C        C  429   3.404   4.557   4.598
    1C        C  430   3.193   4.520   4.721
    1C        C  431   3.332   4.550   4.720
    1C        C  432   3.125   4.495   4.843
    1C        C  433   3.207   4.495   4.956
    1C        C  434   4.384   4.116   2.050
    1C        C  435   4.442   3.989   2.052
    1C        C  436   4.307   4.164   2.160
    1C        C  437   4.333   4.095   2.281
    1C        C  438   4.176   4.243   2.398
    1C        C  439   4.280   4.148   2.401
    1C        C  440   4.123   4.292   2.520
    1C        C  441   4.176   4.246   2.642
    1C        C  442   4.004   4.375   2.764
    1C        C  443   4.124   4.299   2.762
    1C        C  444   3.941   4.409   2.885
    1C        C  445   4.003   4.375   3.007
    1C        C  446   3.809   4.463   3.129
    1C        C  447   3.940   4.410   3.128
    1C        C  448   3.744   4.490   3.252
    1C        C  449   3.812   4.473   3.375
    1C        C  450   3.606   4.529   3.495
    1C        C  451   3.744   4.498   3.496
    1C        C  452   3.538   4.536   3.619
    1C        C  453   3.607   4.534   3.742
    1C        C  454   3.395   4.546   3.866
    1C        C  455   3.536   4.551   3.863
    1C        C  456   3.328   4.532   3.990
    1C        C  457   3.400   4.544   4.112
    1C        C  458   3.195   4.504   4.235
    1C        C  459   3.331   4.541   4.235
    1C        C  460   3.125   4.485   4.357
    1C        C  461   3.192   4.512   4.478
    1C        C  462   2.994   4.439   4.602
    1C        C  463   3.125   4.494   4.601
    1C        C  464   2.928   4.402   4.721
    1C        C  465   2.993   4.440   4.841
    1C        C  466   2.802   4.338   4.959
    1C        C  467   2.906   4.432   4.955
    1C        C  468   4.124   4.284   2.036
    1C        C  469   4.189   4.246   2.154
    1C        C  470   4.005   4.363   2.276
    1C        C  471   4.126   4.287   2.274
    1C        C  472   3.938   4.397   2.396
    1C        C  473   4.003   4.366   2.518
    1C        C  474   3.813   4.460   2.642
    1C        C  475   3.942   4.404   2.640
    1C        C  476   3.744   4.490   2.762
    1C        C  477   3.813   4.468   2.883
    1C        C  478   3.605   4.515   3.005
    1C        C  479   3.744   4.488   3.005
    1C        C  480   3.537   4.527   3.129
    1C        C  481   3.606   4.519   3.252
    1C        C  482   3.394   4.534   3.376
    1C        C  483   3.535   4.530   3.373
    1C        C  484   3.326   4.533   3.500
    1C        C  485   3.397   4.542   3.622
    1C        C  486   3.190   4.496   3.745
    1C        C  487   3.326   4.535   3.743
    1C        C  488   3.125   4.478   3.869
    1C        C  489   3.191   4.499   3.992
    1C        C  490   3.001   4.409   4.114
    1C        C  491   3.126   4.475   4.115
    1C        C  492   2.942   4.380   4.238
    1C        C  493   2.997   4.426   4.360
    1C        C  494   2.825   4.304   4.480
    1C        C  495   2.935   4.392   4.482
    1C        C  496   2.773   4.254   4.602
    1C        C  497   2.816   4.314   4.722
    1C        C  498   2.668   4.163   4.842
    1C        C  499   2.758   4.272   4.844
    1C        C  500   2.602   4.113   4.955
    1C        C  501   4.003   4.354   2.041
    1C        C  502   3.812   4.459   2.154
    1C        C  503   3.942   4.404   2.157
    1C        C  504   3.742   4.476   2.275
    1C        C  505   3.809   4.453   2.397
    1C        C  506   3.605   4.503   2.518
    1C        C  507   3.744   4.480   2.520
    1C        C  508   3.533   4.513   2.639
    1C        C  509   3.604   4.511   2.761
    1C        C  510   3.393   4.524   2.889
    1C        C  511   3.534   4.518   2.883
    1C        C  512   3.323   4.519   3.011
    1C        C  513   3.396   4.527   3.132
    1C        C  514   3.187   4.491   3.255
    1C        C  515   3.324   4.523   3.253
    1C        C  516   3.119   4.471   3.378
    1C        C  517   3.189   4.498   3.497
    1C        C  518   3.000   4.408   3.624
    1C        C  519   3.125   4.475   3.621
    1C        C  520   2.943   4.369   3.747
    1C        C  521   3.002   4.408   3.869
    1C        C  522   2.831   4.285   3.996
    1C        C  523   2.940   4.375   3.991
    1C        C  524   2.784   4.235   4.119
    1C        C  525   2.833   4.290   4.239
    1C        C  526   2.694   4.131   4.366
    1C        C  527   2.776   4.246   4.361
    1C        C  528   2.651   4.072   4.487
    1C        C  529   2.693   4.138   4.605
    1C        C  530   2.585   3.956   4.728
    1C        C  531   2.645   4.085   4.726
    1C        C  532   2.538   3.898   4.849
    1C        C  533   2.525   3.996   4.953
    1C        C  534   3.616   4.560   2.042
    1C        C  535   3.746   4.507   2.040
    1C        C  536   3.533   4.536   2.157
    1C        C  537   3.603   4.505   2.277
    1C        C  538   3.390   4.518   2.401
    1C        C  539   3.531   4.511   2.398
    1C        C  540   3.320   4.518   2.524
    1C        C  541   3.392   4.522   2.645
    1C        C  542   3.183   4.487   2.766
    1C        C  543   3.321   4.516   2.767
    1C        C  544   3.118   4.465   2.889
    1C        C  545   3.186   4.485   3.011
    1C        C  546   2.993   4.403   3.133
    1C        C  547   3.118   4.469   3.134
    1C        C  548   2.937   4.363   3.257
    1C        C  549   2.994   4.406   3.379
    1C        C  550   2.828   4.281   3.506
    1C        C  551   2.937   4.371   3.503
    1C        C  552   2.781   4.229   3.629
    1C        C  553   2.831   4.283   3.749
    1C        C  554   2.703   4.117   3.876
    1C        C  555   2.784   4.232   3.873
    1C        C  556   2.665   4.059   4.000
    1C        C  557   2.701   4.120   4.122
    1C        C  558   2.600   3.937   4.245
    1C        C  559   2.660   4.065   4.246
    1C        C  560   2.568   3.874   4.367
    1C        C  561   2.586   3.947   4.487
    1C        C  562   2.521   3.747   4.613
    1C        C  563   2.562   3.882   4.610
    1C        C  564   2.506   3.679   4.736
    1C        C  565   2.514   3.757   4.855
    1C        C  566   2.534   3.545   4.975
    1C        C  567   2.522   3.683   4.974
    1C        C  568   3.327   4.469   2.042
    1C        C  569   3.393   4.515   2.156
    1C        C  570   3.182   4.472   2.279
    1C        C  571   3.321   4.504   2.278
    1C        C  572   3.116   4.456   2.403
    1C        C  573   3.183   4.482   2.524
    1C        C  574   2.986   4.401   2.646
    1C        C  575   3.113   4.462   2.645
    1C        C  576   2.930   4.362   2.770
    1C        C  577   2.993   4.400   2.891
    1C        C  578   2.825   4.269   3.016
    1C        C  579   2.932   4.362   3.012
    1C        C  580   2.780   4.217   3.139
    1C        C  581   2.831   4.270   3.260
    1C        C  582   2.697   4.113   3.385
    1C        C  583   2.780   4.228   3.384
    1C        C  584   2.661   4.054   3.508
    1C        C  585   2.696   4.116   3.630
    1C        C  586   2.598   3.932   3.753
    1C        C  587   2.664   4.057   3.754
    1C        C  588   2.573   3.870   3.877
    1C        C  589   2.606   3.931   4.000
    1C        C  590   2.535   3.734   4.126
    1C        C  591   2.578   3.869   4.123
    1C        C  592   2.513   3.669   4.250
    1C        C  593   2.526   3.739   4.372
    1C        C  594   2.504   3.530   4.497
    1C        C  595   2.508   3.671   4.494
    1C        C  596   2.515   3.462   4.620
    1C        C  597   2.505   3.537   4.739
    1C        C  598   2.536   3.325   4.861
    1C        C  599   2.520   3.465   4.860
    1C        C  600   2.531   3.243   4.975
    1C        C  601   3.192   4.437   2.044
    1C        C  602   2.977   4.399   2.156
    1C        C  603   3.112   4.447   2.158
    1C        C  604   2.926   4.360   2.283
    1C        C  605   2.989   4.394   2.405
    1C        C  606   2.819   4.266   2.527
    1C        C  607   2.926   4.359   2.526
    1C        C  608   2.770   4.218   2.651
    1C        C  609   2.826   4.267   2.771
    1C        C  610   2.686   4.108   2.895
    1C        C  611   2.774   4.219   2.894
    1C        C  612   2.651   4.050   3.018
    1C        C  613   2.693   4.106   3.141
    1C        C  614   2.593   3.923   3.263
    1C        C  615   2.657   4.048   3.266
    1C        C  616   2.568   3.862   3.388
    1C        C  617   2.599   3.927   3.510
    1C        C  618   2.527   3.729   3.636
    1C        C  619   2.573   3.863   3.633
    1C        C  620   2.513   3.664   3.761
    1C        C  621   2.532   3.734   3.882
    1C        C  622   2.505   3.525   4.008
    1C        C  623   2.514   3.666   4.004
    1C        C  624   2.515   3.456   4.131
    1C        C  625   2.509   3.528   4.252
    1C        C  626   2.529   3.319   4.377
    1C        C  627   2.508   3.458   4.375
    1C        C  628   2.549   3.251   4.499
    1C        C  629   2.537   3.322   4.620
    1C        C  630   2.593   3.116   4.743
    1C        C  631   2.549   3.251   4.741
    1C        C  632   2.609   3.041   4.863
    1C        C  633   2.557   3.106   4.980
    1C        C  634   2.778   4.306   2.054
    1C        C  635   2.886   4.395   2.047
    1C        C  636   2.755   4.226   2.167
    1C        C  637   2.812   4.274   2.286
    1C        C  638   2.679   4.105   2.409
    1C        C  639   2.765   4.216   2.406
    1C        C  640   2.642   4.044   2.531
    1C        C  641   2.688   4.103   2.650
    1C        C  642   2.587   3.919   2.775
    1C        C  643   2.651   4.045   2.773
    1C        C  644   2.565   3.854   2.899
    1C        C  645   2.591   3.922   3.020
    1C        C  646   2.529   3.719   3.145
    1C        C  647   2.567   3.855   3.142
    1C        C  648   2.512   3.655   3.270
    1C        C  649   2.527   3.726   3.391
    1C        C  650   2.504   3.518   3.518
    1C        C  651   2.510   3.659   3.514
    1C        C  652   2.512   3.451   3.642
    1C        C  653   2.509   3.523   3.764
    1C        C  654   2.533   3.313   3.888
    1C        C  655   2.510   3.453   3.887
    1C        C  656   2.548   3.248   4.012
    1C        C  657   2.531   3.316   4.135
    1C        C  658   2.605   3.117   4.255
    1C        C  659   2.552   3.247   4.257
    1C        C  660   2.630   3.053   4.378
    1C        C  661   2.594   3.117   4.500
    1C        C  662   2.707   2.937   4.620
    1C        C  663   2.624   3.051   4.621
    1C        C  664   2.752   2.878   4.740
    1C        C  665   2.696   2.928   4.861
    1C        C  666   2.745   2.876   4.982
    1C        C  667   2.675   4.025   2.051
    1C        C  668   2.684   4.104   2.166
    1C        C  669   2.588   3.912   2.290
    1C        C  670   2.644   4.043   2.287
    1C        C  671   2.561   3.845   2.412
    1C        C  672   2.581   3.917   2.532
    1C        C  673   2.515   3.717   2.659
    1C        C  674   2.557   3.852   2.655
    1C        C  675   2.506   3.647   2.782
    1C        C  676   2.524   3.719   2.902
    1C        C  677   2.498   3.508   3.027
    1C        C  678   2.516   3.648   3.024
    1C        C  679   2.498   3.442   3.152
    1C        C  680   2.504   3.514   3.273
    1C        C  681   2.527   3.305   3.399
    1C        C  682   2.507   3.445   3.397
    1C        C  683   2.548   3.240   3.523
    1C        C  684   2.527   3.311   3.643
    1C        C  685   2.593   3.110   3.767
    1C        C  686   2.546   3.243   3.766
    1C        C  687   2.632   3.050   3.889
    1C        C  688   2.607   3.120   4.009
    1C        C  689   2.709   2.934   4.135
    1C        C  690   2.635   3.054   4.131
    1C        C  691   2.755   2.880   4.257
    1C        C  692   2.711   2.938   4.378
    1C        C  693   2.756   2.881   4.499
    1C        C  694   2.620   3.896   2.056
    1C        C  695   2.525   3.702   2.173
    1C        C  696   2.575   3.834   2.173
    1C        C  697   2.505   3.635   2.296
    1C        C  698   2.521   3.710   2.415
    1C        C  699   2.494   3.503   2.539
    1C        C  700   2.506   3.643   2.539
    1C        C  701   2.495   3.434   2.663
    1C        C  702   2.493   3.506   2.784
    1C        C  703   2.522   3.296   2.910
    1C        C  704   2.494   3.435   2.906
    1C        C  705   2.540   3.231   3.034
    1C        C  706   2.525   3.303   3.155
    1C        C  707   2.596   3.104   3.278
    1C        C  708   2.545   3.236   3.277
    1C        C  709   2.629   3.042   3.401
    1C        C  710   2.600   3.109   3.522
    1C        C  711   2.710   2.931   3.648
    1C        C  712   2.631   3.048   3.646
    1C        C  713   2.752   2.873   3.770
    1C        C  714   2.714   2.935   3.891
    1C        C  715   2.752   2.875   4.014
    1C        C  716   2.442   3.500   2.059
    1C        C  717   2.492   3.631   2.058
    1C        C  718   2.459   3.421   2.177
    1C        C  719   2.482   3.495   2.297
    1C        C  720   2.514   3.287   2.421
    1C        C  721   2.492   3.427   2.420
    1C        C  722   2.529   3.221   2.544
    1C        C  723   2.520   3.295   2.664
    1C        C  724   2.593   3.099   2.789
    1C        C  725   2.535   3.227   2.787
    1C        C  726   2.628   3.040   2.913
    1C        C  727   2.593   3.100   3.035
    1C        C  728   2.702   2.919   3.157
    1C        C  729   2.622   3.036   3.158
    1C        C  730   2.750   2.866   3.279
    1C        C  731   2.712   2.928   3.400
    1C        C  732   2.755   2.877   3.525
    1C        C  733   2.479   3.192   2.072
    1C        C  734   2.482   3.280   2.181
    1C        C  735   2.582   3.084   2.301
    1C        C  736   2.526   3.215   2.300
    1C        C  737   2.610   3.022   2.424
    1C        C  738   2.587   3.092   2.545
    1C        C  739   2.695   2.911   2.667
    1C        C  740   2.621   3.032   2.668
    1C        C  741   2.741   2.856   2.789
    1C        C  742   2.703   2.920   2.909
    1C        C  743   2.744   2.866   3.033
    1C        C  744   2.533   3.064   2.071
    1C        C  745   2.678   2.894   2.185
    1C        C  746   2.605   3.015   2.180
    1C        C  747   2.726   2.841   2.306
    1C        C  748   2.687   2.904   2.427
    1C        C  749   2.737   2.849   2.547
    1C        C  750   2.731   2.835   2.069
    1C        C  751   3.655   2.312   1.972
    1C        O  752   3.660   2.190   2.004
    1C        O  753   3.718   2.342   1.850
    1C        C  754   4.621   3.047   1.970
    1C        O  755   4.589   3.002   1.857
    1C        O  756   4.738   2.993   2.024
    1C        C  757   4.455   4.210   1.959
    1C        O  758   4.562   4.261   2.001
    1C        O  759   4.480   4.181   1.824
    1C        C  760   3.605   4.681   1.959
    1C        O  761   3.585   4.794   2.011
    1C        O  762   3.655   4.683   1.828
    1C        C  763   2.878   4.506   1.949
    1C        O  764   2.928   4.515   1.833
    1C        O  765   2.797   4.615   1.983
    1C        C  766   2.324   3.474   1.973
    1C        O  767   2.333   3.425   1.857
    1C        O  768   2.190   3.484   2.010
    1C        C  769   4.683   3.588   5.066
    1C        O  770   4.639   3.560   5.181
    1C        O  771   4.822   3.588   5.049
    1C        C  772   4.279   4.451   5.024
    1C        O  773   4.308   4.404   5.138
    1C        O  774   4.345   4.566   4.980
    1C        C  775   4.150   2.499   5.054
    1C        O  776   4.155   2.374   5.044
    1C        O  777   4.194   2.551   5.176
    1C        C  778   2.880   4.552   5.037
    1C        O  779   2.782   4.626   5.010
    1C        O  780   2.943   4.576   5.160
    1C        C  781   2.473   3.033   5.078
    1C        O  782   2.354   3.001   5.054
    1C        O  783   2.486   3.078   5.208
    1C        C  784   2.409   4.008   5.045
    1C        O  785   2.293   4.047   5.019
    1C        O  786   2.411   3.949   5.172
    1C        C  787   2.952   2.429   1.987
    1C        O  788   2.980   2.432   1.864
    1C        O  789   2.902   2.303   2.016
    1C        C  790   3.168   2.348   5.026
    1C        O  791   3.113   2.250   4.967
    1C        O  792   3.183   2.323   5.163
    1C        H  793   4.254   3.035   5.044
    1C        H  794   4.200   2.797   5.068
    1C        H  795   4.491   3.134   5.060
    1C        H  796   4.499   3.374   5.062
    1C        H  797   4.583   3.811   5.042
    1C        H  798   4.413   3.970   5.056
    1C        H  799   4.285   4.165   5.054
    1C        H  800   4.002   4.471   5.039
    1C        H  801   3.818   4.626   5.018
    1C        H  802   3.587   4.642   5.036
    1C        H  803   3.395   4.487   5.044
    1C        H  804   3.158   4.506   5.051
    1C        H  805   3.874   2.531   5.071
    1C        H  806   3.675   2.463   5.072
    1C        H  807   2.983   2.521   5.038
    1C        H  808   3.440   2.433   5.067
    1C        H  809   2.866   2.737   5.079
    1C        H  810   2.689   2.886   5.072
    1C        H  811   2.538   3.293   5.069
    1C        H  812   2.557   3.499   5.068
    1C        H  813   2.526   3.729   5.071
    1C        H  814   2.579   4.182   5.033
    1C        H  815   2.744   4.318   5.047
    1C        H  816   2.724   2.895   1.981
    1C        H  817   2.821   2.664   1.988
    1C        H  818   3.197   2.389   2.014
    1C        H  819   3.437   2.456   1.976
    1C        H  820   3.873   2.486   1.975
    1C        H  821   4.053   2.646   1.971
    1C        H  822   4.259   2.716   1.969
    1C        H  823   4.359   2.933   1.966
    1C        H  824   4.621   3.293   1.987
    1C        H  825   4.457   3.511   1.966
    1C        H  826   4.484   3.743   1.950
    1C        H  827   3.785   4.485   1.943
    1C        H  828   3.936   4.334   1.960
    1C        H  829   4.181   4.296   1.946
    1C        H  830   4.511   3.963   1.975
    1C        H  831   2.611   3.846   1.962
    1C        H  832   2.693   4.069   1.954
    1C        H  833   2.720   4.304   1.964
    1C        H  834   3.380   4.443   1.953
    1C        H  835   3.153   4.388   1.957
    1C        H  836   2.473   2.998   2.012
    1C        H  837   2.386   3.204   2.020
    1C        H  838   2.528   3.666   1.963
    2V3OU   H29  839   2.804   3.549   1.151
    2V3OU   C27  840   2.778   3.496   1.246
    2V3OU   H27  841   2.720   3.572   1.305
    2V3OU   H28  842   2.730   3.396   1.231
    2V3OU   O11  843   2.908   3.475   1.302
    2V3OU   C15  844   2.922   3.393   1.412
    2V3OU   C13  845   3.048   3.372   1.472
    2V3OU   C14  846   3.073   3.263   1.557
    2V3OU   C16  847   2.966   3.183   1.595
    2V3OU    H6  848   2.983   3.109   1.674
    2V3OU   C12  849   3.211   3.227   1.595
    2V3OU    O2  850   3.234   3.127   1.666
    2V3OU   C10  851   3.324   3.310   1.549
    2V3OU    C8  852   3.454   3.268   1.573
    2V3OU   O10  853   3.484   3.146   1.626
    2V3OU   H26  854   3.402   3.112   1.664
    2V3OU    C6  855   3.561   3.349   1.523
    2V3OU    C5  856   3.532   3.466   1.454
    2V3OU    C4  857   3.700   3.296   1.526
    2V3OU    H4  858   3.720   3.231   1.616
    2V3OU    H5  859   3.708   3.228   1.436
    2V3OU    C2  860   3.815   3.397   1.525
    2V3OU    O6  861   3.808   3.476   1.644
    2V3OU   H21  862   3.760   3.553   1.609
    2V3OU    C3  863   3.777   3.496   1.414
    2V3OU    H2  864   3.859   3.572   1.405
    2V3OU    H3  865   3.781   3.438   1.318
    2V3OU   C25  866   3.948   3.324   1.506
    2V3OU    O7  867   3.994   3.295   1.396
    2V3OU   C26  868   4.027   3.287   1.631
    2V3OU   H22  869   4.054   3.384   1.681
    2V3OU   H23  870   4.119   3.231   1.602
    2V3OU    O8  871   3.962   3.209   1.729
    2V3OU   H24  872   3.909   3.261   1.792
    2V3OU    C1  873   3.642   3.564   1.425
    2V3OU    H1  874   3.623   3.619   1.328
    2V3OU    O3  875   3.653   3.655   1.536
    2V3OU   C19  876   3.618   3.793   1.528
    2V3OU    H9  877   3.523   3.805   1.469
    2V3OU    O4  878   3.713   3.849   1.440
    2V3OU   C20  879   3.844   3.871   1.494
    2V3OU   H10  880   3.891   3.769   1.508
    2V3OU   C24  881   3.609   3.854   1.668
    2V3OU   H16  882   3.543   3.788   1.730
    2V3OU   H17  883   3.566   3.957   1.670
    2V3OU   C23  884   3.749   3.871   1.727
    2V3OU   H15  885   3.793   3.768   1.743
    2V3OU    N1  886   3.733   3.952   1.846
    2V3OU   H19  887   3.802   3.918   1.910
    2V3OU   H20  888   3.648   3.931   1.895
    2V3OU   C21  889   3.845   3.945   1.628
    2V3OU   H11  890   3.947   3.925   1.671
    2V3OU    O5  891   3.825   4.085   1.633
    2V3OU   H18  892   3.778   4.106   1.715
    2V3OU   C22  893   3.913   3.946   1.382
    2V3OU   H12  894   3.861   4.044   1.364
    2V3OU   H13  895   3.899   3.893   1.284
    2V3OU   H14  896   4.022   3.960   1.402
    2V3OU   C11  897   3.153   3.470   1.444
    2V3OU    O1  898   3.140   3.585   1.397
    2V3OU    C9  899   3.292   3.425   1.473
    2V3OU    C7  900   3.397   3.504   1.429
    2V3OU    O9  901   3.385   3.617   1.350
    2V3OU   H25  902   3.290   3.632   1.362
    2V3OU   C17  903   2.816   3.310   1.455
    2V3OU    H7  904   2.712   3.338   1.438
    2V3OU   C18  905   2.838   3.208   1.547
    2V3OU    H8  906   2.753   3.152   1.588
    3SOL     OW  907   1.451   3.067   0.415
    3SOL    HW1  908   1.540   3.091   0.454
    3SOL    HW2  909   1.461   3.054   0.316
    4SOL     OW  910   5.757   0.447   1.677
    4SOL    HW1  911   5.682   0.514   1.685
    4SOL    HW2  912   5.818   0.474   1.603
    5SOL     OW  913   3.239   2.455   1.242
    5SOL    HW1  914   3.327   2.421   1.276
    5SOL    HW2  915   3.245   2.554   1.229
    6SOL     OW  916   2.997   1.828   1.186
    6SOL    HW1  917   2.944   1.856   1.106
    6SOL    HW2  918   2.975   1.733   1.209
    7SOL     OW  919   6.028   1.382   1.592
    7SOL    HW1  920   5.930   1.361   1.596
    7SOL    HW2  921   6.058   1.380   1.497
    8SOL     OW  922   2.240   1.095   4.779
    8SOL    HW1  923   2.182   1.157   4.727
    8SOL    HW2  924   2.298   1.147   4.842
    9SOL     OW  925   1.395   3.474   5.714
    9SOL    HW1  926   1.353   3.564   5.708
    9SOL    HW2  927   1.494   3.483   5.707
   10SOL     OW  928   0.329   3.482   0.181
   10SOL    HW1  929   0.401   3.454   0.118
   10SOL    HW2  930   0.365   3.486   0.274
   11SOL     OW  931   3.958   6.550   0.140
   11SOL    HW1  932   3.865   6.515   0.153
   11SOL    HW2  933   3.991   6.590   0.226
   12SOL     OW  934   5.561   6.537   2.409
   12SOL    HW1  935   5.544   6.455   2.355
   12SOL    HW2  936   5.513   6.529   2.497
   13SOL     OW  937   2.483   6.507   3.677
   13SOL    HW1  938   2.395   6.460   3.678
   13SOL    HW2  939   2.469   6.606   3.682
   14SOL     OW  940   3.300   6.103   1.222
   14SOL    HW1  941   3.305   6.007   1.249
   14SOL    HW2  942   3.220   6.119   1.164
   15SOL     OW  943   1.484   6.375   6.636
   15SOL    HW1  944   1.436   6.287   6.645
   15SOL    HW2  945   1.582   6.358   6.623
   16SOL     OW  946   6.432   1.860   5.777
   16SOL    HW1  947   6.488   1.943   5.779
   16SOL    HW2  948   6.471   1.795   5.712
   17SOL     OW  949   5.354   6.640   4.517
   17SOL    HW1  950   5.349   6.548   4.477
   17SOL    HW2  951   5.345   6.708   4.445
   18SOL     OW  952   1.562   1.454   6.213
   18SOL    HW1  953   1.476   1.466   6.263
   18SOL    HW2  954   1.626   1.526   6.238
   19SOL     OW  955   0.756   6.980   1.980
   19SOL    HW1  956   0.763   6.986   1.881
   19SOL    HW2  957   0.692   6.907   2.005
   20SOL     OW  958   3.011   1.886   4.313
   20SOL    HW1  959   2.915   1.858   4.308
   20SOL    HW2  960   3.040   1.891   4.408
   21SOL     OW  961   3.114   2.680   0.986
   21SOL    HW1  962   3.036   2.663   1.045
   21SOL    HW2  963   3.114   2.615   0.910
   22SOL     OW  964   1.354   7.012   5.948
   22SOL    HW1  965   1.332   0.074   5.895
   22SOL    HW2  966   1.401   6.946   5.889
   23SOL     OW  967   3.654   6.282   4.571
   23SOL    HW1  968   3.658   6.242   4.662
   23SOL    HW2  969   3.742   6.324   4.550
   24SOL     OW  970   4.186   1.293   4.922
   24SOL    HW1  971   4.241   1.272   4.841
   24SOL    HW2  972   4.247   1.306   5.001
   25SOL     OW  973   3.511   5.552   0.798
   25SOL    HW1  974   3.610   5.546   0.781
   25SOL    HW2  975   3.470   5.462   0.783
   26SOL     OW  976   6.412   1.610   2.312
   26SOL    HW1  977   6.479   1.541   2.285
   26SOL    HW2  978   6.459   1.690   2.349
   27SOL     OW  979   6.114   6.382   2.515
   27SOL    HW1  980   6.098   6.479   2.534
   27SOL    HW2  981   6.162   6.372   2.428
   28SOL     OW  982   3.893   0.382   0.013
   28SOL    HW1  983   3.823   0.353   0.078
   28SOL    HW2  984   3.963   0.311   0.004
   29SOL     OW  985   4.484   2.207   1.895
   29SOL    HW1  986   4.413   2.264   1.937
   29SOL    HW2  987   4.529   2.259   1.823
   30SOL     OW  988   3.490   0.542   4.710
   30SOL    HW1  989   3.459   0.617   4.651
   30SOL    HW2  990   3.426   0.531   4.786
   31SOL     OW  991   0.453   0.266   5.596
   31SOL    HW1  992   0.516   0.193   5.568
   31SOL    HW2  993   0.468   0.287   5.692
   32SOL     OW  994   0.456   2.001   1.269
   32SOL    HW1  995   0.451   1.961   1.361
   32SOL    HW2  996   0.549   1.992   1.233
   33SOL     OW  997   1.692   2.163   6.027
   33SOL    HW1  998   1.715   2.246   5.976
   33SOL    HW2  999   1.759   2.091   6.007
   34SOL     OW 1000   1.197   0.510   4.842
   34SOL    HW1 1001   1.253   0.450   4.786
   34SOL    HW2 1002   1.197   0.478   4.936
   35SOL     OW 1003   4.467   1.536   6.443
   35SOL    HW1 1004   4.497   1.630   6.458
   35SOL    HW2 1005   4.532   1.473   6.485
   36SOL     OW 1006   1.383   2.118   6.026
   36SOL    HW1 1007   1.479   2.130   6.048
   36SOL    HW2 1008   1.345   2.043   6.081
   37SOL     OW 1009   2.976   6.781   1.952
   37SOL    HW1 1010   3.064   6.812   1.989
   37SOL    HW2 1011   2.919   6.748   2.027
   38SOL     OW 1012   6.807   6.521   3.162
   38SOL    HW1 1013   6.904   6.513   3.139
   38SOL    HW2 1014   6.776   6.614   3.143
   39SOL     OW 1015   0.066   3.693   5.219
   39SOL    HW1 1016   0.144   3.666   5.163
   39SOL    HW2 1017   0.099   3.743   5.300
   40SOL     OW 1018   6.918   0.559   1.773
   40SOL    HW1 1019   6.965   0.564   1.861
   40SOL    HW2 1020   6.820   0.551   1.789
   41SOL     OW 1021   1.164   6.644   5.645
   41SOL    HW1 1022   1.214   6.723   5.681
   41SOL    HW2 1023   1.209   6.613   5.561
   42SOL     OW 1024   3.464   0.659   0.227
   42SOL    HW1 1025   3.510   0.733   0.275
   42SOL    HW2 1026   3.531   0.609   0.172
   43SOL     OW 1027   5.464   5.790   5.251
   43SOL    HW1 1028   5.546   5.734   5.258
   43SOL    HW2 1029   5.391   5.749   5.305
   44SOL     OW 1030   0.759   2.972   6.525
   44SOL    HW1 1031   0.705   2.898   6.485
   44SOL    HW2 1032   0.772   3.044   6.457
   45SOL     OW 1033   2.642   0.429   1.976
   45SOL    HW1 1034   2.642   0.331   1.992
   45SOL    HW2 1035   2.735   0.460   1.957
   46SOL     OW 1036   1.772   3.952   4.127
   46SOL    HW1 1037   1.829   3.893   4.184
   46SOL    HW2 1038   1.679   3.953   4.164
   47SOL     OW 1039   6.289   4.705   3.460
   47SOL    HW1 1040   6.275   4.778   3.528
   47SOL    HW2 1041   6.228   4.719   3.383
   48SOL     OW 1042   0.592   2.524   5.663
   48SOL    HW1 1043   0.629   2.616   5.675
   48SOL    HW2 1044   0.495   2.524   5.688
   49SOL     OW 1045   4.675   2.040   0.888
   49SOL    HW1 1046   4.658   2.014   0.983
   49SOL    HW2 1047   4.642   1.967   0.827
   50SOL     OW 1048   6.700   3.933   4.244
   50SOL    HW1 1049   6.794   3.959   4.263
   50SOL    HW2 1050   6.652   4.009   4.200
   51SOL     OW 1051   3.783   5.149   2.905
   51SOL    HW1 1052   3.715   5.222   2.913
   51SOL    HW2 1053   3.828   5.135   2.993
   52SOL     OW 1054   1.732   1.983   1.760
   52SOL    HW1 1055   1.805   2.041   1.798
   52SOL    HW2 1056   1.682   1.940   1.835
   53SOL     OW 1057   5.107   0.464   4.042
   53SOL    HW1 1058   5.194   0.511   4.026
   53SOL    HW2 1059   5.081   0.474   4.138
   54SOL     OW 1060   4.030   5.518   5.668
   54SOL    HW1 1061   4.123   5.524   5.632
   54SOL    HW2 1062   4.015   5.590   5.735
   55SOL     OW 1063   4.225   1.750   0.414
   55SOL    HW1 1064   4.312   1.713   0.446
   55SOL    HW2 1065   4.225   1.849   0.423
   56SOL     OW 1066   1.285   0.297   1.902
   56SOL    HW1 1067   1.222   0.233   1.947
   56SOL    HW2 1068   1.235   0.377   1.871
   57SOL     OW 1069   5.778   0.563   0.364
   57SOL    HW1 1070   5.683   0.579   0.392
   57SOL    HW2 1071   5.839   0.607   0.430
   58SOL     OW 1072   0.013   6.406   6.944
   58SOL    HW1 1073   0.039   6.395   0.020
   58SOL    HW2 1074   6.934   6.405   6.936
   59SOL     OW 1075   1.156   0.112   5.347
   59SOL    HW1 1076   1.229   0.178   5.366
   59SOL    HW2 1077   1.157   0.088   5.250
   60SOL     OW 1078   4.392   6.890   5.010
   60SOL    HW1 1079   4.457   6.818   4.986
   60SOL    HW2 1080   4.299   6.853   5.011
   61SOL     OW 1081   4.447   0.211   4.386
   61SOL    HW1 1082   4.411   0.154   4.312
   61SOL    HW2 1083   4.497   0.288   4.347
   62SOL     OW 1084   1.452   0.745   4.532
   62SOL    HW1 1085   1.527   0.683   4.556
   62SOL    HW2 1086   1.456   0.763   4.434
   63SOL     OW 1087   0.121   3.161   3.292
   63SOL    HW1 1088   0.157   3.251   3.268
   63SOL    HW2 1089   0.055   3.132   3.223
   64SOL     OW 1090   6.927   3.752   5.774
   64SOL    HW1 1091   6.953   3.718   5.864
   64SOL    HW2 1092   6.959   3.689   5.704
   65SOL     OW 1093   6.576   4.624   5.765
   65SOL    HW1 1094   6.593   4.700   5.828
   65SOL    HW2 1095   6.483   4.632   5.729
   66SOL     OW 1096   2.880   1.114   0.441
   66SOL    HW1 1097   2.898   1.079   0.348
   66SOL    HW2 1098   2.819   1.051   0.489
   67SOL     OW 1099   5.379   5.938   4.645
   67SOL    HW1 1100   5.398   5.860   4.585
   67SOL    HW2 1101   5.426   6.019   4.609
   68SOL     OW 1102   5.797   1.857   5.586
   68SOL    HW1 1103   5.862   1.816   5.651
   68SOL    HW2 1104   5.820   1.953   5.572
   69SOL     OW 1105   2.849   3.606   5.981
   69SOL    HW1 1106   2.851   3.672   6.056
   69SOL    HW2 1107   2.923   3.540   5.992
   70SOL     OW 1108   7.020   5.272   1.824
   70SOL    HW1 1109   7.007   5.212   1.903
   70SOL    HW2 1110   0.093   5.307   1.823
   71SOL     OW 1111   1.179   2.549   3.144
   71SOL    HW1 1112   1.224   2.518   3.060
   71SOL    HW2 1113   1.080   2.553   3.129
   72SOL     OW 1114   2.823   5.391   4.040
   72SOL    HW1 1115   2.907   5.435   4.009
   72SOL    HW2 1116   2.745   5.429   3.989
   73SOL     OW 1117   4.299   2.424   0.097
   73SOL    HW1 1118   4.242   2.488   0.149
   73SOL    HW2 1119   4.243   2.379   0.028
   74SOL     OW 1120   4.991   5.678   6.125
   74SOL    HW1 1121   5.023   5.718   6.039
   74SOL    HW2 1122   5.030   5.728   6.202
   75SOL     OW 1123   3.942   5.756   5.795
   75SOL    HW1 1124   3.889   5.828   5.840
   75SOL    HW2 1125   3.886   5.711   5.726
   76SOL     OW 1126   2.524   3.004   1.644
   76SOL    HW1 1127   2.536   3.098   1.676
   76SOL    HW2 1128   2.612   2.957   1.644
   77SOL     OW 1129   5.574   5.489   6.507
   77SOL    HW1 1130   5.616   5.405   6.472
   77SOL    HW2 1131   5.513   5.528   6.438
   78SOL     OW 1132   6.298   6.335   5.926
   78SOL    HW1 1133   6.287   6.416   5.984
   78SOL    HW2 1134   6.394   6.308   5.923
   79SOL     OW 1135   2.893   0.185   0.006
   79SOL    HW1 1136   2.853   0.106   6.980
   79SOL    HW2 1137   2.931   0.156   0.094
   80SOL     OW 1138   0.170   1.456   3.976
   80SOL    HW1 1139   0.176   1.530   4.043
   80SOL    HW2 1140   0.098   1.393   4.002
   81SOL     OW 1141   1.449   0.537   3.230
   81SOL    HW1 1142   1.427   0.491   3.315
   81SOL    HW2 1143   1.547   0.531   3.213
   82SOL     OW 1144   0.097   4.955   5.202
   82SOL    HW1 1145   0.165   4.883   5.187
   82SOL    HW2 1146   0.078   4.963   5.300
   83SOL     OW 1147   0.191   6.770   0.379
   83SOL    HW1 1148   0.168   6.866   0.390
   83SOL    HW2 1149   0.112   6.714   0.404
   84SOL     OW 1150   5.955   3.930   1.474
   84SOL    HW1 1151   5.986   3.937   1.568
   84SOL    HW2 1152   6.004   3.996   1.417
   85SOL     OW 1153   0.460   2.821   5.247
   85SOL    HW1 1154   0.551   2.802   5.210
   85SOL    HW2 1155   0.409   2.735   5.258
   86SOL     OW 1156   0.746   0.608   5.876
   86SOL    HW1 1157   0.674   0.615   5.945
   86SOL    HW2 1158   0.804   0.689   5.881
   87SOL     OW 1159   3.990   1.072   0.852
   87SOL    HW1 1160   3.969   1.155   0.903
   87SOL    HW2 1161   3.905   1.030   0.820
   88SOL     OW 1162   5.381   0.965   0.474
   88SOL    HW1 1163   5.403   1.038   0.539
   88SOL    HW2 1164   5.461   0.905   0.464
   89SOL     OW 1165   1.381   2.886   6.064
   89SOL    HW1 1166   1.471   2.911   6.100
   89SOL    HW2 1167   1.382   2.894   5.964
   90SOL     OW 1168   5.715   6.398   3.854
   90SOL    HW1 1169   5.645   6.328   3.866
   90SOL    HW2 1170   5.724   6.451   3.938
   91SOL     OW 1171   4.632   4.828   4.876
   91SOL    HW1 1172   4.717   4.775   4.874
   91SOL    HW2 1173   4.565   4.786   4.815
   92SOL     OW 1174   3.429   5.172   1.851
   92SOL    HW1 1175   3.453   5.096   1.791
   92SOL    HW2 1176   3.385   5.244   1.798
   93SOL     OW 1177   3.222   5.186   5.757
   93SOL    HW1 1178   3.267   5.273   5.775
   93SOL    HW2 1179   3.275   5.112   5.799
   94SOL     OW 1180   2.946   5.755   0.683
   94SOL    HW1 1181   2.959   5.798   0.772
   94SOL    HW2 1182   3.020   5.784   0.621
   95SOL     OW 1183   7.014   0.546   4.797
   95SOL    HW1 1184   0.070   0.600   4.762
   95SOL    HW2 1185   6.933   0.562   4.740
   96SOL     OW 1186   1.902   0.257   5.733
   96SOL    HW1 1187   1.945   0.343   5.762
   96SOL    HW2 1188   1.881   0.262   5.635
   97SOL     OW 1189   6.029   2.986   4.839
   97SOL    HW1 1190   6.082   3.033   4.909
   97SOL    HW2 1191   5.932   2.992   4.861
   98SOL     OW 1192   6.004   2.443   5.876
   98SOL    HW1 1193   6.099   2.446   5.909
   98SOL    HW2 1194   5.956   2.526   5.904
   99SOL     OW 1195   4.443   1.702   0.991
   99SOL    HW1 1196   4.427   1.669   1.084
   99SOL    HW2 1197   4.364   1.680   0.934
  100SOL     OW 1198   0.041   5.458   6.453
  100SOL    HW1 1199   6.990   5.403   6.410
  100SOL    HW2 1200   0.011   5.553   6.460
  101SOL     OW 1201   1.845   6.277   3.952
  101SOL    HW1 1202   1.776   6.342   3.920
  101SOL    HW2 1203   1.803   6.186   3.962
  102SOL     OW 1204   4.542   0.190   3.892
  102SOL    HW1 1205   4.488   0.156   3.815
  102SOL    HW2 1206   4.525   0.288   3.904
  103SOL     OW 1207   3.871   1.825   1.236
  103SOL    HW1 1208   3.967   1.808   1.262
  103SOL    HW2 1209   3.868   1.894   1.164
  104SOL     OW 1210   0.246   6.009   2.824
  104SOL    HW1 1211   0.340   6.003   2.791
  104SOL    HW2 1212   0.184   5.976   2.754
  105SOL     OW 1213   4.983   0.889   6.313
  105SOL    HW1 1214   4.903   0.949   6.311
  105SOL    HW2 1215   5.062   0.940   6.345
  106SOL     OW 1216   2.901   6.651   6.414
  106SOL    HW1 1217   2.887   6.583   6.486
  106SOL    HW2 1218   2.901   6.606   6.325
  107SOL     OW 1219   2.431   3.143   1.209
  107SOL    HW1 1220   2.340   3.184   1.208
  107SOL    HW2 1221   2.490   3.192   1.146
  108SOL     OW 1222   5.046   4.298   5.517
  108SOL    HW1 1223   5.119   4.337   5.574
  108SOL    HW2 1224   4.959   4.304   5.567
  109SOL     OW 1225   6.404   0.821   1.214
  109SOL    HW1 1226   6.353   0.811   1.128
  109SOL    HW2 1227   6.502   0.820   1.195
  110SOL     OW 1228   3.991   5.647   4.953
  110SOL    HW1 1229   4.018   5.645   4.857
  110SOL    HW2 1230   4.046   5.715   5.001
  111SOL     OW 1231   3.562   0.712   3.408
  111SOL    HW1 1232   3.494   0.698   3.481
  111SOL    HW2 1233   3.583   0.623   3.366
  112SOL     OW 1234   6.929   0.023   6.226
  112SOL    HW1 1235   6.924   6.963   6.287
  112SOL    HW2 1236   6.884   0.001   6.140
  113SOL     OW 1237   0.198   5.204   3.218
  113SOL    HW1 1238   0.191   5.155   3.131
  113SOL    HW2 1239   0.271   5.164   3.273
  114SOL     OW 1240   0.629   6.892   6.835
  114SOL    HW1 1241   0.607   6.975   6.886
  114SOL    HW2 1242   0.560   6.877   6.764
  115SOL     OW 1243   5.250   1.277   4.822
  115SOL    HW1 1244   5.340   1.265   4.863
  115SOL    HW2 1245   5.195   1.337   4.879
  116SOL     OW 1246   6.318   4.485   2.295
  116SOL    HW1 1247   6.237   4.457   2.346
  116SOL    HW2 1248   6.295   4.559   2.233
  117SOL     OW 1249   1.701   7.012   6.337
  117SOL    HW1 1250   1.649   0.027   6.260
  117SOL    HW2 1251   1.713   6.913   6.328
  118SOL     OW 1252   0.809   0.276   2.240
  118SOL    HW1 1253   0.770   0.188   2.267
  118SOL    HW2 1254   0.764   0.309   2.157
  119SOL     OW 1255   6.630   3.030   6.232
  119SOL    HW1 1256   6.717   2.989   6.261
  119SOL    HW2 1257   6.597   3.091   6.305
  120SOL     OW 1258   6.040   6.635   1.052
  120SOL    HW1 1259   5.978   6.559   1.068
  120SOL    HW2 1260   6.013   6.683   0.968
  121SOL     OW 1261   2.432   3.518   5.784
  121SOL    HW1 1262   2.418   3.543   5.880
  121SOL    HW2 1263   2.530   3.516   5.764
  122SOL     OW 1264   1.068   2.784   4.372
  122SOL    HW1 1265   1.092   2.750   4.463
  122SOL    HW2 1266   1.053   2.883   4.376
  123SOL     OW 1267   0.724   1.982   1.158
  123SOL    HW1 1268   0.770   2.002   1.244
  123SOL    HW2 1269   0.747   1.890   1.129
  124SOL     OW 1270   4.717   3.157   1.234
  124SOL    HW1 1271   4.710   3.081   1.299
  124SOL    HW2 1272   4.625   3.189   1.211
  125SOL     OW 1273   1.787   3.152   1.456
  125SOL    HW1 1274   1.868   3.112   1.499
  125SOL    HW2 1275   1.810   3.243   1.421
  126SOL     OW 1276   3.479   4.989   1.415
  126SOL    HW1 1277   3.559   4.930   1.409
  126SOL    HW2 1278   3.508   5.084   1.424
  127SOL     OW 1279   0.010   6.240   6.325
  127SOL    HW1 1280   7.020   6.221   6.227
  127SOL    HW2 1281   6.952   6.202   6.375
  128SOL     OW 1282   4.829   2.420   1.584
  128SOL    HW1 1283   4.890   2.341   1.582
  128SOL    HW2 1284   4.868   2.492   1.640
  129SOL     OW 1285   2.880   3.765   6.654
  129SOL    HW1 1286   2.876   3.865   6.663
  129SOL    HW2 1287   2.831   3.722   6.730
  130SOL     OW 1288   1.529   1.870   4.356
  130SOL    HW1 1289   1.600   1.927   4.314
  130SOL    HW2 1290   1.451   1.927   4.380
  131SOL     OW 1291   4.779   1.491   2.975
  131SOL    HW1 1292   4.761   1.409   3.029
  131SOL    HW2 1293   4.850   1.545   3.021
  132SOL     OW 1294   1.130   2.525   0.787
  132SOL    HW1 1295   1.145   2.609   0.735
  132SOL    HW2 1296   1.068   2.544   0.863
  133SOL     OW 1297   6.507   5.714   2.404
  133SOL    HW1 1298   6.513   5.766   2.319
  133SOL    HW2 1299   6.579   5.644   2.406
  134SOL     OW 1300   6.998   3.778   2.666
  134SOL    HW1 1301   0.014   3.776   2.759
  134SOL    HW2 1302   7.020   3.692   2.620
  135SOL     OW 1303   4.903   1.939   4.185
  135SOL    HW1 1304   4.872   1.854   4.229
  135SOL    HW2 1305   4.825   2.001   4.175
  136SOL     OW 1306   5.595   4.876   5.249
  136SOL    HW1 1307   5.558   4.825   5.170
  136SOL    HW2 1308   5.686   4.841   5.271
  137SOL     OW 1309   3.824   0.116   5.574
  137SOL    HW1 1310   3.750   0.175   5.542
  137SOL    HW2 1311   3.898   0.114   5.507
  138SOL     OW 1312   0.004   5.423   4.988
  138SOL    HW1 1313   6.945   5.410   5.047
  138SOL    HW2 1314   0.072   5.480   5.035
  139SOL     OW 1315   3.639   4.743   5.622
  139SOL    HW1 1316   3.734   4.716   5.601
  139SOL    HW2 1317   3.578   4.668   5.596
  140SOL     OW 1318   6.494   4.512   4.570
  140SOL    HW1 1319   6.568   4.480   4.630
  140SOL    HW2 1320   6.461   4.600   4.602
  141SOL     OW 1321   1.380   2.198   4.153
  141SOL    HW1 1322   1.427   2.223   4.237
  141SOL    HW2 1323   1.422   2.248   4.076
  142SOL     OW 1324   1.908   5.406   1.429
  142SOL    HW1 1325   1.969   5.471   1.475
  142SOL    HW2 1326   1.961   5.349   1.366
  143SOL     OW 1327   5.966   4.208   1.654
  143SOL    HW1 1328   5.894   4.169   1.711
  143SOL    HW2 1329   5.925   4.255   1.576
  144SOL     OW 1330   2.632   6.983   0.103
  144SOL    HW1 1331   2.611   6.931   0.186
  144SOL    HW2 1332   2.568   6.959   0.031
  145SOL     OW 1333   0.252   5.698   0.314
  145SOL    HW1 1334   0.258   5.603   0.283
  145SOL    HW2 1335   0.155   5.725   0.320
  146SOL     OW 1336   5.312   5.124   0.793
  146SOL    HW1 1337   5.355   5.112   0.882
  146SOL    HW2 1338   5.244   5.052   0.779
  147SOL     OW 1339   6.312   1.939   1.180
  147SOL    HW1 1340   6.336   1.866   1.244
  147SOL    HW2 1341   6.247   1.904   1.113
  148SOL     OW 1342   1.000   5.355   5.490
  148SOL    HW1 1343   0.973   5.451   5.484
  148SOL    HW2 1344   0.936   5.306   5.549
  149SOL     OW 1345   3.274   1.100   4.902
  149SOL    HW1 1346   3.211   1.126   4.975
  149SOL    HW2 1347   3.333   1.178   4.880
  150SOL     OW 1348   0.083   5.123   6.620
  150SOL    HW1 1349   0.066   5.091   6.713
  150SOL    HW2 1350   0.160   5.187   6.620
  151SOL     OW 1351   4.032   1.877   1.568
  151SOL    HW1 1352   4.096   1.910   1.637
  151SOL    HW2 1353   3.942   1.862   1.611
  152SOL     OW 1354   3.124   0.745   4.325
  152SOL    HW1 1355   3.103   0.737   4.227
  152SOL    HW2 1356   3.094   0.663   4.372
  153SOL     OW 1357   1.979   1.646   3.459
  153SOL    HW1 1358   1.951   1.741   3.448
  153SOL    HW2 1359   2.070   1.633   3.421
  154SOL     OW 1360   6.588   2.195   2.206
  154SOL    HW1 1361   6.510   2.189   2.269
  154SOL    HW2 1362   6.673   2.199   2.258
  155SOL     OW 1363   6.868   1.091   3.088
  155SOL    HW1 1364   6.962   1.121   3.076
  155SOL    HW2 1365   6.808   1.141   3.025
  156SOL     OW 1366   6.270   2.087   0.944
  156SOL    HW1 1367   6.281   2.095   1.043
  156SOL    HW2 1368   6.188   2.033   0.925
  157SOL     OW 1369   5.825   4.007   2.692
  157SOL    HW1 1370   5.923   4.020   2.676
  157SOL    HW2 1371   5.807   4.006   2.790
  158SOL     OW 1372   1.930   1.178   2.826
  158SOL    HW1 1373   1.925   1.231   2.910
  158SOL    HW2 1374   2.024   1.174   2.794
  159SOL     OW 1375   4.752   4.087   2.108
  159SOL    HW1 1376   4.677   4.132   2.059
  159SOL    HW2 1377   4.828   4.151   2.119
  160SOL     OW 1378   6.425   4.200   5.910
  160SOL    HW1 1379   6.472   4.135   5.851
  160SOL    HW2 1380   6.367   4.260   5.855
  161SOL     OW 1381   2.468   5.252   5.061
  161SOL    HW1 1382   2.479   5.194   5.141
  161SOL    HW2 1383   2.389   5.221   5.008
  162SOL     OW 1384   4.381   5.231   1.552
  162SOL    HW1 1385   4.324   5.310   1.532
  162SOL    HW2 1386   4.324   5.150   1.562
  163SOL     OW 1387   4.666   0.832   2.622
  163SOL    HW1 1388   4.617   0.763   2.677
  163SOL    HW2 1389   4.608   0.912   2.611
  164SOL     OW 1390   5.792   3.405   0.799
  164SOL    HW1 1391   5.872   3.435   0.747
  164SOL    HW2 1392   5.820   3.345   0.873
  165SOL     OW 1393   5.167   3.045   6.306
  165SOL    HW1 1394   5.067   3.035   6.299
  165SOL    HW2 1395   5.193   3.055   6.402
  166SOL     OW 1396   0.878   0.308   2.534
  166SOL    HW1 1397   0.802   0.269   2.586
  166SOL    HW2 1398   0.844   0.343   2.447
  167SOL     OW 1399   6.247   2.739   0.208
  167SOL    HW1 1400   6.254   2.660   0.269
  167SOL    HW2 1401   6.235   2.822   0.262
  168SOL     OW 1402   2.531   5.560   1.111
  168SOL    HW1 1403   2.449   5.570   1.054
  168SOL    HW2 1404   2.602   5.515   1.058
  169SOL     OW 1405   2.139   6.487   1.744
  169SOL    HW1 1406   2.165   6.552   1.672
  169SOL    HW2 1407   2.157   6.528   1.834
  170SOL     OW 1408   0.633   1.539   3.056
  170SOL    HW1 1409   0.592   1.507   3.141
  170SOL    HW2 1410   0.733   1.537   3.064
  171SOL     OW 1411   3.377   3.795   0.025
  171SOL    HW1 1412   3.376   3.844   6.958
  171SOL    HW2 1413   3.337   3.852   0.097
  172SOL     OW 1414   0.185   2.801   5.808
  172SOL    HW1 1415   0.110   2.757   5.757
  172SOL    HW2 1416   0.159   2.811   5.904
  173SOL     OW 1417   0.250   6.506   5.449
  173SOL    HW1 1418   0.303   6.584   5.482
  173SOL    HW2 1419   0.214   6.455   5.527
  174SOL     OW 1420   2.562   5.440   3.890
  174SOL    HW1 1421   2.501   5.465   3.815
  174SOL    HW2 1422   2.623   5.367   3.860
  175SOL     OW 1423   1.133   5.662   2.836
  175SOL    HW1 1424   1.049   5.607   2.841
  175SOL    HW2 1425   1.149   5.707   2.924
  176SOL     OW 1426   2.291   4.648   0.896
  176SOL    HW1 1427   2.278   4.741   0.862
  176SOL    HW2 1428   2.296   4.649   0.995
  177SOL     OW 1429   4.587   1.704   2.891
  177SOL    HW1 1430   4.655   1.753   2.836
  177SOL    HW2 1431   4.621   1.612   2.911
  178SOL     OW 1432   5.129   4.994   6.660
  178SOL    HW1 1433   5.174   4.948   6.583
  178SOL    HW2 1434   5.193   4.999   6.737
  179SOL     OW 1435   3.108   0.434   0.364
  179SOL    HW1 1436   3.028   0.469   0.316
  179SOL    HW2 1437   3.079   0.387   0.448
  180SOL     OW 1438   0.417   2.040   6.995
  180SOL    HW1 1439   0.486   2.010   0.040
  180SOL    HW2 1440   0.412   2.140   6.995
  181SOL     OW 1441   3.572   3.256   5.621
  181SOL    HW1 1442   3.555   3.355   5.623
  181SOL    HW2 1443   3.530   3.217   5.539
  182SOL     OW 1444   4.199   2.195   4.741
  182SOL    HW1 1445   4.207   2.293   4.723
  182SOL    HW2 1446   4.126   2.178   4.807
  183SOL     OW 1447   5.073   1.247   1.824
  183SOL    HW1 1448   5.098   1.175   1.760
  183SOL    HW2 1449   4.987   1.290   1.795
  184SOL     OW 1450   0.059   4.569   2.851
  184SOL    HW1 1451   0.113   4.516   2.786
  184SOL    HW2 1452   0.035   4.512   2.929
  185SOL     OW 1453   1.890   4.080   6.220
  185SOL    HW1 1454   1.924   4.158   6.273
  185SOL    HW2 1455   1.947   4.000   6.238
  186SOL     OW 1456   5.629   0.052   3.219
  186SOL    HW1 1457   5.588   0.039   3.309
  186SOL    HW2 1458   5.564   0.100   3.160
  187SOL     OW 1459   6.002   1.398   4.113
  187SOL    HW1 1460   5.981   1.355   4.025
  187SOL    HW2 1461   6.003   1.497   4.102
  188SOL     OW 1462   6.424   2.208   3.520
  188SOL    HW1 1463   6.456   2.268   3.593
  188SOL    HW2 1464   6.362   2.139   3.559
  189SOL     OW 1465   2.158   4.529   2.710
  189SOL    HW1 1466   2.107   4.485   2.783
  189SOL    HW2 1467   2.152   4.472   2.627
  190SOL     OW 1468   3.686   1.059   5.918
  190SOL    HW1 1469   3.661   0.962   5.927
  190SOL    HW2 1470   3.615   1.107   5.866
  191SOL     OW 1471   5.225   5.992   6.160
  191SOL    HW1 1472   5.280   5.948   6.089
  191SOL    HW2 1473   5.169   5.923   6.206
  192SOL     OW 1474   6.919   0.775   1.582
  192SOL    HW1 1475   6.949   0.688   1.622
  192SOL    HW2 1476   7.000   0.829   1.556
  193SOL     OW 1477   5.273   3.870   6.952
  193SOL    HW1 1478   5.360   3.873   7.002
  193SOL    HW2 1479   5.282   3.920   6.866
  194SOL     OW 1480   3.324   0.328   3.451
  194SOL    HW1 1481   3.290   0.421   3.437
  194SOL    HW2 1482   3.248   0.264   3.447
  195SOL     OW 1483   0.639   5.902   3.494
  195SOL    HW1 1484   0.539   5.900   3.489
  195SOL    HW2 1485   0.677   5.902   3.401
  196SOL     OW 1486   0.871   1.856   0.604
  196SOL    HW1 1487   0.917   1.945   0.614
  196SOL    HW2 1488   0.868   1.832   0.507
  197SOL     OW 1489   1.706   0.485   0.733
  197SOL    HW1 1490   1.640   0.560   0.741
  197SOL    HW2 1491   1.798   0.524   0.724
  198SOL     OW 1492   3.405   2.031   3.750
  198SOL    HW1 1493   3.405   2.055   3.653
  198SOL    HW2 1494   3.314   2.047   3.789
  199SOL     OW 1495   1.324   2.653   4.241
  199SOL    HW1 1496   1.248   2.704   4.281
  199SOL    HW2 1497   1.288   2.582   4.180
  200SOL     OW 1498   6.732   2.597   0.115
  200SOL    HW1 1499   6.687   2.511   0.091
  200SOL    HW2 1500   6.776   2.588   0.204
  201SOL     OW 1501   0.296   0.813   6.584
  201SOL    HW1 1502   0.285   0.715   6.604
  201SOL    HW2 1503   0.306   0.863   6.670
  202SOL     OW 1504   4.629   6.619   0.317
  202SOL    HW1 1505   4.728   6.614   0.333
  202SOL    HW2 1506   4.606   6.561   0.238
  203SOL     OW 1507   5.794   2.647   5.924
  203SOL    HW1 1508   5.747   2.641   5.836
  203SOL    HW2 1509   5.816   2.743   5.943
  204SOL     OW 1510   6.217   1.205   5.816
  204SOL    HW1 1511   6.184   1.159   5.733
  204SOL    HW2 1512   6.198   1.149   5.896
  205SOL     OW 1513   1.133   2.986   2.406
  205SOL    HW1 1514   1.080   3.028   2.333
  205SOL    HW2 1515   1.168   3.057   2.467
  206SOL     OW 1516   0.461   3.502   0.427
  206SOL    HW1 1517   0.559   3.502   0.407
  206SOL    HW2 1518   0.425   3.595   0.422
  207SOL     OW 1519   5.735   1.924   4.542
  207SOL    HW1 1520   5.712   1.952   4.449
  207SOL    HW2 1521   5.692   1.986   4.607
  208SOL     OW 1522   1.086   4.567   4.431
  208SOL    HW1 1523   1.063   4.474   4.403
  208SOL    HW2 1524   1.031   4.593   4.511
  209SOL     OW 1525   6.220   4.122   2.831
  209SOL    HW1 1526   6.246   4.179   2.910
  209SOL    HW2 1527   6.295   4.122   2.765
  210SOL     OW 1528   4.703   2.863   6.764
  210SOL    HW1 1529   4.740   2.770   6.759
  210SOL    HW2 1530   4.714   2.908   6.675
  211SOL     OW 1531   0.301   1.574   2.601
  211SOL    HW1 1532   0.236   1.651   2.593
  211SOL    HW2 1533   0.269   1.511   2.671
  212SOL     OW 1534   2.151   3.626   2.862
  212SOL    HW1 1535   2.149   3.675   2.775
  212SOL    HW2 1536   2.155   3.527   2.845
  213SOL     OW 1537   1.556   4.859   1.036
  213SOL    HW1 1538   1.545   4.853   1.135
  213SOL    HW2 1539   1.637   4.807   1.008
  214SOL     OW 1540   4.759   6.229   2.092
  214SOL    HW1 1541   4.712   6.159   2.038
  214SOL    HW2 1542   4.754   6.317   2.044
  215SOL     OW 1543   2.388   4.899   2.775
  215SOL    HW1 1544   2.373   4.852   2.862
  215SOL    HW2 1545   2.318   4.871   2.709
  216SOL     OW 1546   1.067   6.855   2.567
  216SOL    HW1 1547   1.152   6.814   2.600
  216SOL    HW2 1548   1.045   6.818   2.476
  217SOL     OW 1549   1.467   4.365   6.510
  217SOL    HW1 1550   1.476   4.418   6.594
  217SOL    HW2 1551   1.558   4.335   6.480
  218SOL     OW 1552   1.206   1.653   4.882
  218SOL    HW1 1553   1.252   1.575   4.839
  218SOL    HW2 1554   1.194   1.635   4.980
  219SOL     OW 1555   4.317   1.669   0.760
  219SOL    HW1 1556   4.243   1.614   0.721
  219SOL    HW2 1557   4.296   1.766   0.749
  220SOL     OW 1558   2.929   6.846   0.719
  220SOL    HW1 1559   2.853   6.815   0.663
  220SOL    HW2 1560   2.946   6.780   0.792
  221SOL     OW 1561   4.446   5.769   1.746
  221SOL    HW1 1562   4.402   5.680   1.757
  221SOL    HW2 1563   4.540   5.764   1.779
  222SOL     OW 1564   2.464   4.832   6.413
  222SOL    HW1 1565   2.451   4.791   6.503
  222SOL    HW2 1566   2.406   4.785   6.347
  223SOL     OW 1567   6.173   2.902   5.290
  223SOL    HW1 1568   6.247   2.870   5.349
  223SOL    HW2 1569   6.100   2.941   5.346
  224SOL     OW 1570   2.473   1.342   6.548
  224SOL    HW1 1571   2.457   1.258   6.600
  224SOL    HW2 1572   2.490   1.417   6.612
  225SOL     OW 1573   4.658   5.162   5.419
  225SOL    HW1 1574   4.692   5.068   5.419
  225SOL    HW2 1575   4.570   5.165   5.372
  226SOL     OW 1576   0.998   2.257   6.798
  226SOL    HW1 1577   0.899   2.270   6.800
  226SOL    HW2 1578   1.043   2.346   6.787
  227SOL     OW 1579   1.117   3.600   1.537
  227SOL    HW1 1580   1.188   3.591   1.607
  227SOL    HW2 1581   1.101   3.511   1.494
  228SOL     OW 1582   1.703   6.596   2.885
  228SOL    HW1 1583   1.757   6.568   2.805
  228SOL    HW2 1584   1.661   6.685   2.867
  229SOL     OW 1585   4.214   5.834   6.116
  229SOL    HW1 1586   4.238   5.890   6.037
  229SOL    HW2 1587   4.136   5.875   6.163
  230SOL     OW 1588   4.777   5.680   4.851
  230SOL    HW1 1589   4.825   5.677   4.763
  230SOL    HW2 1590   4.722   5.597   4.861
  231SOL     OW 1591   5.583   1.399   7.020
  231SOL    HW1 1592   5.592   1.496   0.020
  231SOL    HW2 1593   5.594   1.384   6.922
  232SOL     OW 1594   1.503   2.611   5.638
  232SOL    HW1 1595   1.561   2.642   5.714
  232SOL    HW2 1596   1.450   2.689   5.604
  233SOL     OW 1597   2.850   1.458   3.251
  233SOL    HW1 1598   2.762   1.472   3.296
  233SOL    HW2 1599   2.903   1.390   3.301
  234SOL     OW 1600   4.572   0.914   6.908
  234SOL    HW1 1601   4.543   0.841   6.847
  234SOL    HW2 1602   4.583   0.878   7.001
  235SOL     OW 1603   4.696   2.711   3.138
  235SOL    HW1 1604   4.753   2.733   3.058
  235SOL    HW2 1605   4.680   2.613   3.140
  236SOL     OW 1606   4.672   4.847   6.088
  236SOL    HW1 1607   4.680   4.761   6.039
  236SOL    HW2 1608   4.587   4.893   6.062
  237SOL     OW 1609   6.362   3.736   2.812
  237SOL    HW1 1610   6.306   3.783   2.880
  237SOL    HW2 1611   6.453   3.777   2.809
  238SOL     OW 1612   6.487   1.507   0.818
  238SOL    HW1 1613   6.486   1.604   0.841
  238SOL    HW2 1614   6.580   1.471   0.831
  239SOL     OW 1615   1.219   3.842   0.144
  239SOL    HW1 1616   1.198   3.918   0.205
  239SOL    HW2 1617   1.135   3.799   0.112
  240SOL     OW 1618   5.622   3.114   3.070
  240SOL    HW1 1619   5.692   3.063   3.020
  240SOL    HW2 1620   5.553   3.147   3.005
  241SOL     OW 1621   3.052   1.507   3.734
  241SOL    HW1 1622   3.003   1.595   3.734
  241SOL    HW2 1623   3.150   1.524   3.749
  242SOL     OW 1624   3.336   3.817   3.271
  242SOL    HW1 1625   3.345   3.742   3.337
  242SOL    HW2 1626   3.289   3.894   3.315
  243SOL     OW 1627   4.404   2.467   5.781
  243SOL    HW1 1628   4.363   2.431   5.865
  243SOL    HW2 1629   4.492   2.509   5.803
  244SOL     OW 1630   4.956   3.670   5.274
  244SOL    HW1 1631   5.011   3.589   5.293
  244SOL    HW2 1632   4.900   3.654   5.193
  245SOL     OW 1633   3.213   1.757   2.789
  245SOL    HW1 1634   3.252   1.831   2.844
  245SOL    HW2 1635   3.158   1.796   2.716
  246SOL     OW 1636   6.563   1.108   2.165
  246SOL    HW1 1637   6.661   1.097   2.147
  246SOL    HW2 1638   6.538   1.059   2.248
  247SOL     OW 1639   1.964   1.553   1.239
  247SOL    HW1 1640   1.888   1.488   1.243
  247SOL    HW2 1641   2.033   1.520   1.175
  248SOL     OW 1642   1.791   2.462   2.460
  248SOL    HW1 1643   1.834   2.542   2.417
  248SOL    HW2 1644   1.704   2.443   2.415
  249SOL     OW 1645   5.459   6.580   5.115
  249SOL    HW1 1646   5.456   6.496   5.168
  249SOL    HW2 1647   5.507   6.651   5.168
  250SOL     OW 1648   4.487   2.342   1.247
  250SOL    HW1 1649   4.472   2.273   1.318
  250SOL    HW2 1650   4.540   2.418   1.284
  251SOL     OW 1651   4.132   4.131   5.620
  251SOL    HW1 1652   4.203   4.082   5.671
  251SOL    HW2 1653   4.176   4.194   5.556
  252SOL     OW 1654   5.972   5.988   5.492
  252SOL    HW1 1655   5.899   5.974   5.425
  252SOL    HW2 1656   6.061   5.974   5.448
  253SOL     OW 1657   4.008   6.115   6.162
  253SOL    HW1 1658   3.984   6.043   6.227
  253SOL    HW2 1659   4.049   6.191   6.210
  254SOL     OW 1660   5.839   2.930   5.087
  254SOL    HW1 1661   5.822   2.831   5.093
  254SOL    HW2 1662   5.882   2.961   5.172
  255SOL     OW 1663   2.076   4.228   5.852
  255SOL    HW1 1664   2.033   4.172   5.781
  255SOL    HW2 1665   2.135   4.170   5.908
  256SOL     OW 1666   4.946   2.425   4.781
  256SOL    HW1 1667   4.971   2.329   4.793
  256SOL    HW2 1668   4.944   2.470   4.871
  257SOL     OW 1669   4.919   6.541   2.321
  257SOL    HW1 1670   4.907   6.581   2.230
  257SOL    HW2 1671   4.997   6.584   2.367
  258SOL     OW 1672   1.948   3.534   5.775
  258SOL    HW1 1673   2.039   3.560   5.743
  258SOL    HW2 1674   1.953   3.447   5.825
  259SOL     OW 1675   3.693   0.208   3.981
  259SOL    HW1 1676   3.782   0.243   4.011
  259SOL    HW2 1677   3.628   0.284   3.976
  260SOL     OW 1678   3.668   5.354   3.764
  260SOL    HW1 1679   3.728   5.325   3.689
  260SOL    HW2 1680   3.573   5.346   3.736
  261SOL     OW 1681   4.064   4.931   6.840
  261SOL    HW1 1682   3.982   4.982   6.815
  261SOL    HW2 1683   4.101   4.884   6.760
  262SOL     OW 1684   1.778   3.716   6.570
  262SOL    HW1 1685   1.691   3.671   6.551
  262SOL    HW2 1686   1.769   3.773   6.652
  263SOL     OW 1687   1.471   5.915   4.239
  263SOL    HW1 1688   1.446   5.926   4.142
  263SOL    HW2 1689   1.389   5.893   4.292
  264SOL     OW 1690   0.156   3.791   6.445
  264SOL    HW1 1691   0.059   3.779   6.423
  264SOL    HW2 1692   0.199   3.702   6.456
  265SOL     OW 1693   6.628   6.946   4.413
  265SOL    HW1 1694   6.674   6.860   4.392
  265SOL    HW2 1695   6.672   0.000   4.364
  266SOL     OW 1696   3.679   1.407   5.850
  266SOL    HW1 1697   3.603   1.342   5.846
  266SOL    HW2 1698   3.765   1.356   5.853
  267SOL     OW 1699   1.421   0.978   4.770
  267SOL    HW1 1700   1.417   0.922   4.687
  267SOL    HW2 1701   1.331   0.978   4.814
  268SOL     OW 1702   3.245   1.392   1.319
  268SOL    HW1 1703   3.242   1.292   1.311
  268SOL    HW2 1704   3.183   1.421   1.392
  269SOL     OW 1705   4.065   1.393   0.101
  269SOL    HW1 1706   3.972   1.430   0.087
  269SOL    HW2 1707   4.119   1.410   0.019
  270SOL     OW 1708   6.477   6.702   0.457
  270SOL    HW1 1709   6.491   6.619   0.512
  270SOL    HW2 1710   6.566   6.746   0.440
  271SOL     OW 1711   0.847   2.570   6.273
  271SOL    HW1 1712   0.822   2.635   6.201
  271SOL    HW2 1713   0.927   2.517   6.243
  272SOL     OW 1714   2.631   6.599   4.040
  272SOL    HW1 1715   2.532   6.598   4.029
  272SOL    HW2 1716   2.674   6.585   3.950
  273SOL     OW 1717   1.712   4.938   5.973
  273SOL    HW1 1718   1.697   4.839   5.969
  273SOL    HW2 1719   1.807   4.957   6.000
  274SOL     OW 1720   4.379   1.546   3.586
  274SOL    HW1 1721   4.451   1.613   3.570
  274SOL    HW2 1722   4.296   1.574   3.537
  275SOL     OW 1723   6.981   6.511   2.364
  275SOL    HW1 1724   0.040   6.483   2.418
  275SOL    HW2 1725   6.919   6.565   2.421
  276SOL     OW 1726   0.486   0.986   4.700
  276SOL    HW1 1727   0.549   0.908   4.704
  276SOL    HW2 1728   0.539   1.071   4.707
  277SOL     OW 1729   2.441   3.729   0.675
  277SOL    HW1 1730   2.503   3.715   0.752
  277SOL    HW2 1731   2.411   3.825   0.674
  278SOL     OW 1732   0.334   2.595   2.127
  278SOL    HW1 1733   0.370   2.669   2.183
  278SOL    HW2 1734   0.259   2.629   2.070
  279SOL     OW 1735   6.056   2.494   4.398
  279SOL    HW1 1736   6.023   2.514   4.306
  279SOL    HW2 1737   6.152   2.466   4.393
  280SOL     OW 1738   1.828   4.635   1.889
  280SOL    HW1 1739   1.798   4.588   1.806
  280SOL    HW2 1740   1.924   4.613   1.908
  281SOL     OW 1741   2.238   4.389   0.795
  281SOL    HW1 1742   2.323   4.337   0.801
  281SOL    HW2 1743   2.256   4.486   0.813
  282SOL     OW 1744   3.127   2.233   6.048
  282SOL    HW1 1745   3.071   2.154   6.069
  282SOL    HW2 1746   3.162   2.273   6.132
  283SOL     OW 1747   4.866   2.690   5.685
  283SOL    HW1 1748   4.945   2.633   5.662
  283SOL    HW2 1749   4.894   2.760   5.751
  284SOL     OW 1750   1.253   3.652   4.197
  284SOL    HW1 1751   1.162   3.676   4.230
  284SOL    HW2 1752   1.311   3.733   4.197
  285SOL     OW 1753   5.323   4.690   4.267
  285SOL    HW1 1754   5.290   4.640   4.186
  285SOL    HW2 1755   5.246   4.731   4.315
  286SOL     OW 1756   2.889   3.635   6.415
  286SOL    HW1 1757   2.870   3.691   6.496
  286SOL    HW2 1758   2.939   3.553   6.442
  287SOL     OW 1759   1.924   3.566   6.770
  287SOL    HW1 1760   1.934   3.469   6.748
  287SOL    HW2 1761   1.949   3.622   6.691
  288SOL     OW 1762   4.832   2.625   6.812
  288SOL    HW1 1763   4.876   2.605   6.725
  288SOL    HW2 1764   4.877   2.574   6.885
  289SOL     OW 1765   2.636   4.831   5.995
  289SOL    HW1 1766   2.627   4.868   6.087
  289SOL    HW2 1767   2.691   4.748   5.997
  290SOL     OW 1768   0.298   2.560   5.626
  290SOL    HW1 1769   0.285   2.466   5.656
  290SOL    HW2 1770   0.210   2.609   5.628
  291SOL     OW 1771   0.189   2.160   2.625
  291SOL    HW1 1772   0.095   2.129   2.608
  291SOL    HW2 1773   0.209   2.239   2.568
  292SOL     OW 1774   1.889   0.068   3.887
  292SOL    HW1 1775   1.855   0.013   3.964
  292SOL    HW2 1776   1.820   0.136   3.862
  293SOL     OW 1777   3.758   5.276   3.531
  293SOL    HW1 1778   3.821   5.232   3.467
  293SOL    HW2 1779   3.665   5.246   3.511
  294SOL     OW 1780   4.295   6.747   6.460
  294SOL    HW1 1781   4.300   6.776   6.556
  294SOL    HW2 1782   4.201   6.753   6.428
  295SOL     OW 1783   5.080   0.339   4.307
  295SOL    HW1 1784   5.051   0.300   4.395
  295SOL    HW2 1785   5.170   0.382   4.319
  296SOL     OW 1786   2.538   1.751   3.992
  296SOL    HW1 1787   2.496   1.841   4.004
  296SOL    HW2 1788   2.473   1.680   4.020
  297SOL     OW 1789   1.791   4.511   2.763
  297SOL    HW1 1790   1.765   4.578   2.693
  297SOL    HW2 1791   1.731   4.519   2.842
  298SOL     OW 1792   5.869   5.140   1.060
  298SOL    HW1 1793   5.906   5.047   1.070
  298SOL    HW2 1794   5.849   5.178   1.150
  299SOL     OW 1795   6.632   2.797   4.723
  299SOL    HW1 1796   6.650   2.753   4.811
  299SOL    HW2 1797   6.584   2.883   4.738
  300SOL     OW 1798   5.926   0.027   2.638
  300SOL    HW1 1799   5.906   0.044   2.541
  300SOL    HW2 1800   5.929   0.115   2.686
  301SOL     OW 1801   5.346   4.050   5.910
  301SOL    HW1 1802   5.264   3.992   5.909
  301SOL    HW2 1803   5.413   4.014   5.846
  302SOL     OW 1804   1.238   6.884   3.645
  302SOL    HW1 1805   1.151   6.911   3.685
  302SOL    HW2 1806   1.242   6.915   3.549
  303SOL     OW 1807   5.626   0.063   3.887
  303SOL    HW1 1808   5.587   6.993   3.907
  303SOL    HW2 1809   5.663   0.063   3.794
  304SOL     OW 1810   3.236   0.066   3.083
  304SOL    HW1 1811   3.260   0.162   3.098
  304SOL    HW2 1812   3.208   0.054   2.988
  305SOL     OW 1813   1.271   3.369   1.323
  305SOL    HW1 1814   1.314   3.460   1.324
  305SOL    HW2 1815   1.178   3.376   1.359
  306SOL     OW 1816   2.172   0.484   3.385
  306SOL    HW1 1817   2.120   0.446   3.309
  306SOL    HW2 1818   2.234   0.555   3.351
  307SOL     OW 1819   3.517   0.458   0.991
  307SOL    HW1 1820   3.430   0.417   1.021
  307SOL    HW2 1821   3.546   0.527   1.058
  308SOL     OW 1822   0.765   5.286   4.224
  308SOL    HW1 1823   0.729   5.370   4.183
  308SOL    HW2 1824   0.714   5.265   4.307
  309SOL     OW 1825   4.045   5.423   5.076
  309SOL    HW1 1826   4.020   5.512   5.038
  309SOL    HW2 1827   4.008   5.350   5.019
  310SOL     OW 1828   0.838   6.537   6.265
  310SOL    HW1 1829   0.876   6.628   6.255
  310SOL    HW2 1830   0.801   6.526   6.357
  311SOL     OW 1831   0.613   0.305   1.452
  311SOL    HW1 1832   0.672   0.365   1.398
  311SOL    HW2 1833   0.553   0.254   1.391
  312SOL     OW 1834   3.671   1.585   4.979
  312SOL    HW1 1835   3.742   1.655   4.974
  312SOL    HW2 1836   3.588   1.619   4.935
  313SOL     OW 1837   0.694   4.634   1.674
  313SOL    HW1 1838   0.695   4.619   1.773
  313SOL    HW2 1839   0.656   4.554   1.628
  314SOL     OW 1840   3.434   6.287   1.335
  314SOL    HW1 1841   3.392   6.210   1.286
  314SOL    HW2 1842   3.393   6.294   1.426
  315SOL     OW 1843   1.377   3.106   3.353
  315SOL    HW1 1844   1.399   3.068   3.443
  315SOL    HW2 1845   1.426   3.054   3.282
  316SOL     OW 1846   2.451   2.690   4.047
  316SOL    HW1 1847   2.429   2.733   3.960
  316SOL    HW2 1848   2.547   2.707   4.070
  317SOL     OW 1849   6.607   1.894   0.086
  317SOL    HW1 1850   6.676   1.965   0.101
  317SOL    HW2 1851   6.650   1.804   0.096
  318SOL     OW 1852   2.908   5.370   1.211
  318SOL    HW1 1853   2.932   5.273   1.222
  318SOL    HW2 1854   2.948   5.422   1.287
  319SOL     OW 1855   1.273   6.824   0.817
  319SOL    HW1 1856   1.310   6.737   0.849
  319SOL    HW2 1857   1.323   6.900   0.860
  320SOL     OW 1858   5.245   4.263   0.334
  320SOL    HW1 1859   5.239   4.224   0.242
  320SOL    HW2 1860   5.341   4.278   0.357
  321SOL     OW 1861   1.998   1.212   1.364
  321SOL    HW1 1862   2.060   1.266   1.306
  321SOL    HW2 1863   2.052   1.149   1.419
  322SOL     OW 1864   3.770   2.999   4.823
  322SOL    HW1 1865   3.847   2.995   4.760
  322SOL    HW2 1866   3.690   2.955   4.782
  323SOL     OW 1867   0.316   4.041   2.046
  323SOL    HW1 1868   0.412   4.027   2.069
  323SOL    HW2 1869   0.285   3.969   1.984
  324SOL     OW 1870   0.528   3.199   4.706
  324SOL    HW1 1871   0.440   3.166   4.672
  324SOL    HW2 1872   0.580   3.123   4.744
  325SOL     OW 1873   2.433   2.446   2.892
  325SOL    HW1 1874   2.383   2.423   2.976
  325SOL    HW2 1875   2.513   2.385   2.884
  326SOL     OW 1876   2.331   4.602   6.218
  326SOL    HW1 1877   2.237   4.629   6.240
  326SOL    HW2 1878   2.370   4.552   6.294
  327SOL     OW 1879   6.103   5.505   5.822
  327SOL    HW1 1880   6.059   5.517   5.733
  327SOL    HW2 1881   6.044   5.541   5.894
  328SOL     OW 1882   2.534   5.774   1.991
  328SOL    HW1 1883   2.550   5.867   1.958
  328SOL    HW2 1884   2.523   5.774   2.090
  329SOL     OW 1885   3.492   3.182   2.331
  329SOL    HW1 1886   3.413   3.211   2.385
  329SOL    HW2 1887   3.474   3.092   2.292
  330SOL     OW 1888   3.807   1.091   1.814
  330SOL    HW1 1889   3.889   1.064   1.762
  330SOL    HW2 1890   3.773   1.012   1.865
  331SOL     OW 1891   5.272   4.912   6.429
  331SOL    HW1 1892   5.241   4.987   6.371
  331SOL    HW2 1893   5.282   4.829   6.374
  332SOL     OW 1894   3.913   2.199   3.161
  332SOL    HW1 1895   3.941   2.198   3.065
  332SOL    HW2 1896   3.816   2.179   3.167
  333SOL     OW 1897   3.964   6.145   6.984
  333SOL    HW1 1898   3.892   6.201   6.942
  333SOL    HW2 1899   3.996   6.077   6.918
  334SOL     OW 1900   4.560   6.737   2.468
  334SOL    HW1 1901   4.622   6.666   2.502
  334SOL    HW2 1902   4.601   6.782   2.388
  335SOL     OW 1903   3.554   6.667   3.159
  335SOL    HW1 1904   3.543   6.731   3.235
  335SOL    HW2 1905   3.637   6.614   3.171
  336SOL     OW 1906   2.953   1.021   4.656
  336SOL    HW1 1907   2.942   1.049   4.752
  336SOL    HW2 1908   2.866   0.990   4.620
  337SOL     OW 1909   0.128   3.909   1.375
  337SOL    HW1 1910   0.166   3.940   1.288
  337SOL    HW2 1911   0.163   3.966   1.449
  338SOL     OW 1912   3.300   2.727   1.357
  338SOL    HW1 1913   3.229   2.765   1.417
  338SOL    HW2 1914   3.346   2.802   1.309
  339SOL     OW 1915   4.476   0.083   2.863
  339SOL    HW1 1916   4.487   0.047   2.770
  339SOL    HW2 1917   4.417   0.021   2.915
  340SOL     OW 1918   5.027   3.744   4.168
  340SOL    HW1 1919   5.086   3.821   4.193
  340SOL    HW2 1920   5.017   3.742   4.068
  341SOL     OW 1921   5.434   5.105   5.281
  341SOL    HW1 1922   5.491   5.148   5.351
  341SOL    HW2 1923   5.483   5.027   5.241
  342SOL     OW 1924   5.880   3.508   0.048
  342SOL    HW1 1925   5.885   3.544   0.142
  342SOL    HW2 1926   5.884   3.584   7.004
  343SOL     OW 1927   2.573   0.474   3.001
  343SOL    HW1 1928   2.486   0.520   2.980
  343SOL    HW2 1929   2.593   0.407   2.930
  344SOL     OW 1930   3.337   5.102   0.596
  344SOL    HW1 1931   3.307   5.023   0.649
  344SOL    HW2 1932   3.313   5.089   0.500
  345SOL     OW 1933   0.843   6.356   5.801
  345SOL    HW1 1934   0.876   6.339   5.894
  345SOL    HW2 1935   0.875   6.446   5.770
  346SOL     OW 1936   2.310   0.045   4.037
  346SOL    HW1 1937   2.278   0.075   3.947
  346SOL    HW2 1938   2.409   0.033   4.034
  347SOL     OW 1939   5.413   6.300   6.112
  347SOL    HW1 1940   5.392   6.231   6.181
  347SOL    HW2 1941   5.333   6.312   6.052
  348SOL     OW 1942   3.243   5.965   2.854
  348SOL    HW1 1943   3.313   6.022   2.897
  348SOL    HW2 1944   3.267   5.869   2.865
  349SOL     OW 1945   2.028   4.350   1.754
  349SOL    HW1 1946   1.953   4.347   1.688
  349SOL    HW2 1947   2.114   4.364   1.705
  350SOL     OW 1948   4.527   2.749   1.492
  350SOL    HW1 1949   4.436   2.711   1.474
  350SOL    HW2 1950   4.542   2.755   1.590
  351SOL     OW 1951   3.390   1.587   0.080
  351SOL    HW1 1952   3.298   1.573   0.043
  351SOL    HW2 1953   3.453   1.523   0.036
  352SOL     OW 1954   3.413   1.198   6.527
  352SOL    HW1 1955   3.443   1.112   6.487
  352SOL    HW2 1956   3.417   1.271   6.458
  353SOL     OW 1957   1.913   6.691   1.091
  353SOL    HW1 1958   1.997   6.637   1.099
  353SOL    HW2 1959   1.906   6.754   1.168
  354SOL     OW 1960   4.639   1.344   1.828
  354SOL    HW1 1961   4.549   1.351   1.872
  354SOL    HW2 1962   4.651   1.420   1.765
  355SOL     OW 1963   1.796   1.338   2.049
  355SOL    HW1 1964   1.870   1.300   2.104
  355SOL    HW2 1965   1.717   1.355   2.107
  356SOL     OW 1966   3.850   6.009   3.340
  356SOL    HW1 1967   3.899   6.000   3.427
  356SOL    HW2 1968   3.792   6.090   3.343
  357SOL     OW 1969   1.102   4.617   5.537
  357SOL    HW1 1970   1.183   4.558   5.533
  357SOL    HW2 1971   1.129   4.708   5.570
  358SOL     OW 1972   5.262   1.438   1.860
  358SOL    HW1 1973   5.253   1.466   1.956
  358SOL    HW2 1974   5.209   1.354   1.845
  359SOL     OW 1975   1.499   1.088   2.017
  359SOL    HW1 1976   1.411   1.100   2.063
  359SOL    HW2 1977   1.540   1.178   2.001
  360SOL     OW 1978   4.404   6.308   0.925
  360SOL    HW1 1979   4.462   6.357   0.990
  360SOL    HW2 1980   4.309   6.311   0.955
  361SOL     OW 1981   4.190   0.506   3.361
  361SOL    HW1 1982   4.266   0.501   3.297
  361SOL    HW2 1983   4.211   0.452   3.442
  362SOL     OW 1984   2.865   3.621   0.817
  362SOL    HW1 1985   2.962   3.639   0.801
  362SOL    HW2 1986   2.846   3.524   0.800
  363SOL     OW 1987   4.479   4.572   4.576
  363SOL    HW1 1988   4.467   4.602   4.481
  363SOL    HW2 1989   4.429   4.633   4.637
  364SOL     OW 1990   1.928   5.982   5.883
  364SOL    HW1 1991   1.892   5.888   5.882
  364SOL    HW2 1992   1.882   6.034   5.955
  365SOL     OW 1993   4.909   6.843   2.629
  365SOL    HW1 1994   4.879   6.816   2.537
  365SOL    HW2 1995   5.005   6.867   2.626
  366SOL     OW 1996   5.172   6.331   0.213
  366SOL    HW1 1997   5.173   6.239   0.252
  366SOL    HW2 1998   5.079   6.356   0.186
  367SOL     OW 1999   4.963   2.178   1.610
  367SOL    HW1 2000   4.946   2.093   1.560
  367SOL    HW2 2001   5.059   2.205   1.598
  368SOL     OW 2002   1.574   4.778   5.443
  368SOL    HW1 2003   1.640   4.710   5.413
  368SOL    HW2 2004   1.615   4.869   5.436
  369SOL     OW 2005   0.630   3.552   1.526
  369SOL    HW1 2006   0.563   3.497   1.577
  369SOL    HW2 2007   0.629   3.526   1.430
  370SOL     OW 2008   3.637   1.432   6.499
  370SOL    HW1 2009   3.645   1.399   6.593
  370SOL    HW2 2010   3.715   1.399   6.446
  371SOL     OW 2011   4.042   2.813   6.323
  371SOL    HW1 2012   4.121   2.870   6.302
  371SOL    HW2 2013   3.958   2.865   6.307
  372SOL     OW 2014   1.582   5.112   6.139
  372SOL    HW1 2015   1.561   5.051   6.216
  372SOL    HW2 2016   1.613   5.059   6.061
  373SOL     OW 2017   6.742   6.859   0.437
  373SOL    HW1 2018   6.765   6.903   0.524
  373SOL    HW2 2019   6.718   6.929   0.370
  374SOL     OW 2020   3.854   1.272   0.991
  374SOL    HW1 2021   3.866   1.197   1.056
  374SOL    HW2 2022   3.830   1.356   1.041
  375SOL     OW 2023   6.713   4.499   2.305
  375SOL    HW1 2024   6.647   4.424   2.319
  375SOL    HW2 2025   6.713   4.558   2.385
  376SOL     OW 2026   1.975   2.704   4.489
  376SOL    HW1 2027   1.944   2.788   4.534
  376SOL    HW2 2028   1.990   2.633   4.558
  377SOL     OW 2029   5.109   1.523   4.464
  377SOL    HW1 2030   5.105   1.623   4.472
  377SOL    HW2 2031   5.020   1.488   4.435
  378SOL     OW 2032   4.857   2.611   4.408
  378SOL    HW1 2033   4.946   2.620   4.453
  378SOL    HW2 2034   4.794   2.562   4.468
  379SOL     OW 2035   6.540   3.275   1.583
  379SOL    HW1 2036   6.623   3.252   1.634
  379SOL    HW2 2037   6.519   3.372   1.595
  380SOL     OW 2038   1.152   1.758   0.202
  380SOL    HW1 2039   1.170   1.855   0.218
  380SOL    HW2 2040   1.185   1.733   0.111
  381SOL     OW 2041   3.245   3.751   0.370
  381SOL    HW1 2042   3.159   3.699   0.373
  381SOL    HW2 2043   3.239   3.821   0.299
  382SOL     OW 2044   2.574   5.112   1.193
  382SOL    HW1 2045   2.556   5.206   1.222
  382SOL    HW2 2046   2.663   5.083   1.227
  383SOL     OW 2047   6.399   2.033   7.003
  383SOL    HW1 2048   6.409   2.034   6.903
  383SOL    HW2 2049   6.471   1.977   0.023
  384SOL     OW 2050   2.164   5.708   5.009
  384SOL    HW1 2051   2.087   5.658   5.049
  384SOL    HW2 2052   2.241   5.646   4.995
  385SOL     OW 2053   4.892   5.180   1.478
  385SOL    HW1 2054   4.823   5.151   1.545
  385SOL    HW2 2055   4.850   5.241   1.411
  386SOL     OW 2056   2.981   6.671   5.262
  386SOL    HW1 2057   3.001   6.679   5.164
  386SOL    HW2 2058   3.027   6.745   5.311
  387SOL     OW 2059   0.046   0.406   5.899
  387SOL    HW1 2060   0.111   0.364   5.835
  387SOL    HW2 2061   6.979   0.421   5.852
  388SOL     OW 2062   0.401   2.487   5.374
  388SOL    HW1 2063   0.345   2.494   5.457
  388SOL    HW2 2064   0.495   2.515   5.395
  389SOL     OW 2065   4.765   4.410   1.656
  389SOL    HW1 2066   4.684   4.354   1.640
  389SOL    HW2 2067   4.829   4.360   1.715
  390SOL     OW 2068   3.732   2.141   0.213
  390SOL    HW1 2069   3.696   2.083   0.287
  390SOL    HW2 2070   3.830   2.158   0.229
  391SOL     OW 2071   3.746   4.079   3.510
  391SOL    HW1 2072   3.827   4.095   3.566
  391SOL    HW2 2073   3.668   4.059   3.569
  392SOL     OW 2074   1.440   4.005   1.054
  392SOL    HW1 2075   1.496   3.922   1.049
  392SOL    HW2 2076   1.344   3.980   1.063
  393SOL     OW 2077   1.279   5.127   1.382
  393SOL    HW1 2078   1.352   5.193   1.399
  393SOL    HW2 2079   1.314   5.034   1.398
  394SOL     OW 2080   6.336   1.050   6.314
  394SOL    HW1 2081   6.285   1.012   6.392
  394SOL    HW2 2082   6.336   1.150   6.320
  395SOL     OW 2083   5.916   4.577   0.773
  395SOL    HW1 2084   5.972   4.658   0.788
  395SOL    HW2 2085   5.869   4.583   0.685
  396SOL     OW 2086   1.669   6.684   1.379
  396SOL    HW1 2087   1.766   6.706   1.377
  396SOL    HW2 2088   1.647   6.635   1.463
  397SOL     OW 2089   3.912   1.696   4.959
  397SOL    HW1 2090   3.970   1.633   4.906
  397SOL    HW2 2091   3.953   1.710   5.049
  398SOL     OW 2092   1.089   0.517   3.285
  398SOL    HW1 2093   1.099   0.588   3.216
  398SOL    HW2 2094   1.102   0.427   3.243
  399SOL     OW 2095   5.532   5.712   4.010
  399SOL    HW1 2096   5.471   5.673   3.941
  399SOL    HW2 2097   5.538   5.651   4.088
  400SOL     OW 2098   5.852   6.867   4.078
  400SOL    HW1 2099   5.873   6.841   4.173
  400SOL    HW2 2100   5.856   6.966   4.069
  401SOL     OW 2101   0.698   5.713   5.345
  401SOL    HW1 2102   0.612   5.723   5.295
  401SOL    HW2 2103   0.761   5.656   5.292
  402SOL     OW 2104   5.421   1.790   3.490
  402SOL    HW1 2105   5.324   1.776   3.510
  402SOL    HW2 2106   5.461   1.705   3.457
  403SOL     OW 2107   2.742   1.610   5.384
  403SOL    HW1 2108   2.778   1.703   5.395
  403SOL    HW2 2109   2.796   1.561   5.316
  404SOL     OW 2110   3.372   5.721   3.523
  404SOL    HW1 2111   3.344   5.697   3.616
  404SOL    HW2 2112   3.291   5.740   3.467
  405SOL     OW 2113   2.677   4.831   4.297
  405SOL    HW1 2114   2.705   4.927   4.290
  405SOL    HW2 2115   2.636   4.814   4.386
  406SOL     OW 2116   0.516   6.939   6.206
  406SOL    HW1 2117   0.516   0.015   6.180
  406SOL    HW2 2118   0.581   6.888   6.150
  407SOL     OW 2119   2.230   2.868   4.109
  407SOL    HW1 2120   2.311   2.812   4.091
  407SOL    HW2 2121   2.216   2.875   4.208
  408SOL     OW 2122   2.164   1.939   3.158
  408SOL    HW1 2123   2.072   1.906   3.140
  408SOL    HW2 2124   2.161   2.010   3.229
  409SOL     OW 2125   0.659   3.015   2.105
  409SOL    HW1 2126   0.745   2.969   2.080
  409SOL    HW2 2127   0.634   3.080   2.033
  410SOL     OW 2128   1.752   2.416   1.652
  410SOL    HW1 2129   1.709   2.345   1.709
  410SOL    HW2 2130   1.681   2.479   1.620
  411SOL     OW 2131   6.846   2.012   0.892
  411SOL    HW1 2132   6.750   1.988   0.889
  411SOL    HW2 2133   6.877   2.013   0.987
  412SOL     OW 2134   1.595   5.007   2.626
  412SOL    HW1 2135   1.626   4.934   2.686
  412SOL    HW2 2136   1.673   5.061   2.594
  413SOL     OW 2137   5.951   5.610   1.940
  413SOL    HW1 2138   5.957   5.709   1.929
  413SOL    HW2 2139   6.043   5.570   1.932
  414SOL     OW 2140   1.902   0.139   3.064
  414SOL    HW1 2141   1.846   0.103   3.138
  414SOL    HW2 2142   1.994   0.157   3.098
  415SOL     OW 2143   5.858   1.383   6.546
  415SOL    HW1 2144   5.811   1.314   6.602
  415SOL    HW2 2145   5.956   1.382   6.567
  416SOL     OW 2146   5.652   3.570   5.512
  416SOL    HW1 2147   5.662   3.661   5.473
  416SOL    HW2 2148   5.615   3.507   5.443
  417SOL     OW 2149   1.884   2.071   6.586
  417SOL    HW1 2150   1.785   2.077   6.594
  417SOL    HW2 2151   1.916   1.989   6.634
  418SOL     OW 2152   3.535   0.164   5.118
  418SOL    HW1 2153   3.517   0.153   5.020
  418SOL    HW2 2154   3.538   0.075   5.162
  419SOL     OW 2155   6.347   0.046   0.337
  419SOL    HW1 2156   6.378   6.986   0.285
  419SOL    HW2 2157   6.249   0.038   0.356
  420SOL     OW 2158   3.972   6.893   0.868
  420SOL    HW1 2159   3.999   6.975   0.818
  420SOL    HW2 2160   3.989   6.812   0.811
  421SOL     OW 2161   4.758   4.176   2.696
  421SOL    HW1 2162   4.674   4.228   2.714
  421SOL    HW2 2163   4.788   4.132   2.781
  422SOL     OW 2164   5.146   2.816   1.678
  422SOL    HW1 2165   5.181   2.904   1.645
  422SOL    HW2 2166   5.209   2.780   1.747
  423SOL     OW 2167   2.892   0.903   6.388
  423SOL    HW1 2168   2.987   0.886   6.365
  423SOL    HW2 2169   2.886   0.984   6.448
  424SOL     OW 2170   1.550   3.787   3.975
  424SOL    HW1 2171   1.638   3.762   4.015
  424SOL    HW2 2172   1.496   3.836   4.043
  425SOL     OW 2173   3.765   0.794   6.990
  425SOL    HW1 2174   3.841   0.732   6.972
  425SOL    HW2 2175   3.745   0.847   6.907
  426SOL     OW 2176   3.011   2.241   4.202
  426SOL    HW1 2177   2.993   2.239   4.300
  426SOL    HW2 2178   2.925   2.253   4.152
  427SOL     OW 2179   4.748   1.915   3.199
  427SOL    HW1 2180   4.798   1.929   3.114
  427SOL    HW2 2181   4.660   1.961   3.195
  428SOL     OW 2182   2.921   2.473   6.434
  428SOL    HW1 2183   2.853   2.445   6.366
  428SOL    HW2 2184   2.873   2.509   6.515
  429SOL     OW 2185   6.882   5.818   4.429
  429SOL    HW1 2186   6.959   5.809   4.493
  429SOL    HW2 2187   6.918   5.828   4.336
  430SOL     OW 2188   1.293   6.849   4.540
  430SOL    HW1 2189   1.293   6.886   4.633
  430SOL    HW2 2190   1.384   6.815   4.518
  431SOL     OW 2191   2.792   1.870   1.418
  431SOL    HW1 2192   2.695   1.887   1.432
  431SOL    HW2 2193   2.841   1.957   1.413
  432SOL     OW 2194   4.548   1.796   1.376
  432SOL    HW1 2195   4.548   1.830   1.470
  432SOL    HW2 2196   4.469   1.738   1.362
  433SOL     OW 2197   1.817   4.364   0.776
  433SOL    HW1 2198   1.873   4.282   0.787
  433SOL    HW2 2199   1.768   4.383   0.861
  434SOL     OW 2200   4.567   5.112   3.280
  434SOL    HW1 2201   4.521   5.125   3.367
  434SOL    HW2 2202   4.610   5.197   3.251
  435SOL     OW 2203   3.910   2.855   5.999
  435SOL    HW1 2204   3.845   2.781   5.985
  435SOL    HW2 2205   3.869   2.942   5.971
  436SOL     OW 2206   5.180   6.356   2.089
  436SOL    HW1 2207   5.237   6.325   2.013
  436SOL    HW2 2208   5.185   6.455   2.096
  437SOL     OW 2209   6.221   1.304   5.005
  437SOL    HW1 2210   6.140   1.346   5.045
  437SOL    HW2 2211   6.239   1.216   5.049
  438SOL     OW 2212   0.763   4.769   2.376
  438SOL    HW1 2213   0.820   4.822   2.313
  438SOL    HW2 2214   0.669   4.805   2.373
  439SOL     OW 2215   0.105   1.078   4.947
  439SOL    HW1 2216   0.049   1.126   5.014
  439SOL    HW2 2217   0.194   1.055   4.988
  440SOL     OW 2218   4.038   1.305   0.378
  440SOL    HW1 2219   4.069   1.363   0.453
  440SOL    HW2 2220   4.047   1.354   0.292
  441SOL     OW 2221   1.025   4.695   1.971
  441SOL    HW1 2222   1.118   4.731   1.972
  441SOL    HW2 2223   1.010   4.644   1.886
  442SOL     OW 2224   4.573   3.444   5.398
  442SOL    HW1 2225   4.601   3.482   5.310
  442SOL    HW2 2226   4.649   3.391   5.437
  443SOL     OW 2227   4.897   2.727   2.928
  443SOL    HW1 2228   4.962   2.779   2.984
  443SOL    HW2 2229   4.934   2.717   2.836
  444SOL     OW 2230   4.358   1.739   1.816
  444SOL    HW1 2231   4.335   1.835   1.833
  444SOL    HW2 2232   4.447   1.718   1.857
  445SOL     OW 2233   1.428   4.749   3.088
  445SOL    HW1 2234   1.371   4.720   3.165
  445SOL    HW2 2235   1.468   4.838   3.108
  446SOL     OW 2236   6.345   6.860   1.444
  446SOL    HW1 2237   6.364   6.958   1.448
  446SOL    HW2 2238   6.297   6.839   1.359
  447SOL     OW 2239   5.682   3.882   0.945
  447SOL    HW1 2240   5.584   3.893   0.929
  447SOL    HW2 2241   5.706   3.785   0.942
  448SOL     OW 2242   3.601   6.876   4.159
  448SOL    HW1 2243   3.592   6.789   4.209
  448SOL    HW2 2244   3.681   6.871   4.100
  449SOL     OW 2245   1.555   4.053   4.339
  449SOL    HW1 2246   1.483   4.103   4.389
  449SOL    HW2 2247   1.569   3.964   4.381
  450SOL     OW 2248   6.562   4.536   3.309
  450SOL    HW1 2249   6.547   4.490   3.396
  450SOL    HW2 2250   6.597   4.628   3.324
  451SOL     OW 2251   1.242   2.001   0.676
  451SOL    HW1 2252   1.242   1.990   0.776
  451SOL    HW2 2253   1.267   1.914   0.633
  452SOL     OW 2254   4.545   5.457   3.001
  452SOL    HW1 2255   4.616   5.396   3.038
  452SOL    HW2 2256   4.473   5.402   2.958
  453SOL     OW 2257   3.746   1.158   0.094
  453SOL    HW1 2258   3.839   1.121   0.094
  453SOL    HW2 2259   3.716   1.171   0.189
  454SOL     OW 2260   0.525   3.651   5.264
  454SOL    HW1 2261   0.449   3.625   5.204
  454SOL    HW2 2262   0.602   3.589   5.250
  455SOL     OW 2263   5.218   5.114   6.257
  455SOL    HW1 2264   5.176   5.129   6.167
  455SOL    HW2 2265   5.284   5.186   6.276
  456SOL     OW 2266   2.586   1.074   2.595
  456SOL    HW1 2267   2.576   1.171   2.573
  456SOL    HW2 2268   2.665   1.036   2.547
  457SOL     OW 2269   2.525   6.566   6.812
  457SOL    HW1 2270   2.558   6.618   6.733
  457SOL    HW2 2271   2.437   6.525   6.790
  458SOL     OW 2272   3.624   1.308   2.900
  458SOL    HW1 2273   3.581   1.278   2.815
  458SOL    HW2 2274   3.667   1.397   2.886
  459SOL     OW 2275   3.344   0.658   3.578
  459SOL    HW1 2276   3.281   0.656   3.656
  459SOL    HW2 2277   3.292   0.654   3.493
  460SOL     OW 2278   0.596   1.271   6.086
  460SOL    HW1 2279   0.661   1.203   6.051
  460SOL    HW2 2280   0.562   1.242   6.176
  461SOL     OW 2281   1.333   5.805   5.703
  461SOL    HW1 2282   1.298   5.775   5.615
  461SOL    HW2 2283   1.257   5.819   5.767
  462SOL     OW 2284   3.124   3.923   4.565
  462SOL    HW1 2285   3.164   3.959   4.649
  462SOL    HW2 2286   3.045   3.866   4.587
  463SOL     OW 2287   5.316   6.336   3.776
  463SOL    HW1 2288   5.360   6.401   3.839
  463SOL    HW2 2289   5.360   6.246   3.785
  464SOL     OW 2290   4.486   5.524   5.649
  464SOL    HW1 2291   4.475   5.548   5.746
  464SOL    HW2 2292   4.569   5.470   5.638
  465SOL     OW 2293   0.689   4.476   0.225
  465SOL    HW1 2294   0.700   4.505   0.130
  465SOL    HW2 2295   0.592   4.459   0.244
  466SOL     OW 2296   4.070   4.920   3.907
  466SOL    HW1 2297   4.143   4.927   3.839
  466SOL    HW2 2298   4.072   5.002   3.966
  467SOL     OW 2299   6.431   0.162   2.261
  467SOL    HW1 2300   6.453   0.231   2.330
  467SOL    HW2 2301   6.344   0.186   2.217
  468SOL     OW 2302   2.320   6.334   6.263
  468SOL    HW1 2303   2.336   6.272   6.187
  468SOL    HW2 2304   2.394   6.326   6.330
  469SOL     OW 2305   2.682   4.867   5.072
  469SOL    HW1 2306   2.754   4.935   5.088
  469SOL    HW2 2307   2.724   4.781   5.043
  470SOL     OW 2308   1.943   4.990   2.868
  470SOL    HW1 2309   1.977   4.967   2.776
  470SOL    HW2 2310   2.019   4.991   2.932
  471SOL     OW 2311   1.851   2.253   4.209
  471SOL    HW1 2312   1.781   2.324   4.195
  471SOL    HW2 2313   1.887   2.261   4.302
  472SOL     OW 2314   5.476   3.901   6.534
  472SOL    HW1 2315   5.575   3.902   6.548
  472SOL    HW2 2316   5.455   3.849   6.451
  473SOL     OW 2317   5.314   3.533   2.341
  473SOL    HW1 2318   5.388   3.474   2.309
  473SOL    HW2 2319   5.334   3.565   2.434
  474SOL     OW 2320   4.624   5.337   4.072
  474SOL    HW1 2321   4.530   5.351   4.042
  474SOL    HW2 2322   4.635   5.243   4.103
  475SOL     OW 2323   5.947   1.390   0.741
  475SOL    HW1 2324   5.956   1.426   0.648
  475SOL    HW2 2325   5.873   1.323   0.744
  476SOL     OW 2326   1.484   4.094   6.785
  476SOL    HW1 2327   1.437   4.013   6.821
  476SOL    HW2 2328   1.418   4.151   6.737
  477SOL     OW 2329   1.149   5.209   3.001
  477SOL    HW1 2330   1.069   5.229   3.057
  477SOL    HW2 2331   1.199   5.132   3.041
  478SOL     OW 2332   5.972   6.141   2.994
  478SOL    HW1 2333   6.069   6.154   3.015
  478SOL    HW2 2334   5.948   6.195   2.913
  479SOL     OW 2335   2.944   3.540   2.951
  479SOL    HW1 2336   3.034   3.497   2.964
  479SOL    HW2 2337   2.953   3.639   2.959
  480SOL     OW 2338   0.718   0.601   2.576
  480SOL    HW1 2339   0.624   0.568   2.583
  480SOL    HW2 2340   0.763   0.594   2.665
  481SOL     OW 2341   6.691   0.254   1.060
  481SOL    HW1 2342   6.682   0.289   0.966
  481SOL    HW2 2343   6.653   0.162   1.065
  482SOL     OW 2344   4.234   5.045   2.785
  482SOL    HW1 2345   4.315   5.098   2.760
  482SOL    HW2 2346   4.152   5.090   2.749
  483SOL     OW 2347   5.702   1.821   4.064
  483SOL    HW1 2348   5.698   1.721   4.068
  483SOL    HW2 2349   5.705   1.851   3.969
  484SOL     OW 2350   1.963   5.086   3.755
  484SOL    HW1 2351   1.908   5.056   3.677
  484SOL    HW2 2352   1.932   5.177   3.783
  485SOL     OW 2353   5.653   1.895   1.349
  485SOL    HW1 2354   5.649   1.987   1.309
  485SOL    HW2 2355   5.683   1.829   1.280
  486SOL     OW 2356   5.746   6.517   5.805
  486SOL    HW1 2357   5.780   6.607   5.833
  486SOL    HW2 2358   5.770   6.501   5.709
  487SOL     OW 2359   0.402   0.569   6.767
  487SOL    HW1 2360   0.446   0.603   6.851
  487SOL    HW2 2361   0.391   0.470   6.773
  488SOL     OW 2362   1.843   6.015   3.473
  488SOL    HW1 2363   1.903   6.095   3.480
  488SOL    HW2 2364   1.898   5.932   3.463
  489SOL     OW 2365   2.419   5.900   5.389
  489SOL    HW1 2366   2.517   5.919   5.398
  489SOL    HW2 2367   2.371   5.939   5.467
  490SOL     OW 2368   1.302   3.465   4.414
  490SOL    HW1 2369   1.269   3.527   4.344
  490SOL    HW2 2370   1.266   3.373   4.397
  491SOL     OW 2371   6.476   2.698   1.107
  491SOL    HW1 2372   6.515   2.620   1.059
  491SOL    HW2 2373   6.377   2.699   1.095
  492SOL     OW 2374   1.650   2.926   5.547
  492SOL    HW1 2375   1.565   2.873   5.536
  492SOL    HW2 2376   1.728   2.868   5.528
  493SOL     OW 2377   1.862   5.335   4.429
  493SOL    HW1 2378   1.832   5.368   4.339
  493SOL    HW2 2379   1.846   5.236   4.435
  494SOL     OW 2380   2.258   0.741   4.275
  494SOL    HW1 2381   2.283   0.650   4.310
  494SOL    HW2 2382   2.172   0.769   4.317
  495SOL     OW 2383   3.631   4.206   6.778
  495SOL    HW1 2384   3.555   4.190   6.715
  495SOL    HW2 2385   3.609   4.165   6.867
  496SOL     OW 2386   5.445   1.077   3.078
  496SOL    HW1 2387   5.412   1.041   2.991
  496SOL    HW2 2388   5.382   1.052   3.151
  497SOL     OW 2389   4.664   1.958   0.543
  497SOL    HW1 2390   4.602   1.887   0.575
  497SOL    HW2 2391   4.613   2.041   0.522
  498SOL     OW 2392   0.524   0.638   1.159
  498SOL    HW1 2393   0.458   0.706   1.128
  498SOL    HW2 2394   0.591   0.621   1.086
  499SOL     OW 2395   3.053   6.210   0.181
  499SOL    HW1 2396   3.133   6.151   0.170
  499SOL    HW2 2397   3.071   6.277   0.252
  500SOL     OW 2398   5.285   1.831   6.326
  500SOL    HW1 2399   5.193   1.795   6.311
  500SOL    HW2 2400   5.311   1.891   6.251
  501SOL     OW 2401   1.264   1.564   5.153
  501SOL    HW1 2402   1.362   1.553   5.135
  501SOL    HW2 2403   1.214   1.490   5.108
  502SOL     OW 2404   2.284   4.334   6.787
  502SOL    HW1 2405   2.185   4.319   6.799
  502SOL    HW2 2406   2.317   4.277   6.712
  503SOL     OW 2407   3.745   5.648   1.295
  503SOL    HW1 2408   3.840   5.671   1.315
  503SOL    HW2 2409   3.704   5.720   1.240
  504SOL     OW 2410   6.610   6.103   1.567
  504SOL    HW1 2411   6.634   6.010   1.540
  504SOL    HW2 2412   6.644   6.122   1.659
  505SOL     OW 2413   5.734   5.123   5.170
  505SOL    HW1 2414   5.678   5.191   5.122
  505SOL    HW2 2415   5.684   5.037   5.176
  506SOL     OW 2416   3.060   5.153   3.068
  506SOL    HW1 2417   3.047   5.055   3.051
  506SOL    HW2 2418   3.065   5.201   2.981
  507SOL     OW 2419   3.278   0.665   1.648
  507SOL    HW1 2420   3.277   0.571   1.614
  507SOL    HW2 2421   3.288   0.665   1.747
  508SOL     OW 2422   0.099   4.726   3.177
  508SOL    HW1 2423   0.086   4.627   3.184
  508SOL    HW2 2424   0.171   4.754   3.241
  509SOL     OW 2425   4.289   6.892   6.020
  509SOL    HW1 2426   4.238   6.814   6.055
  509SOL    HW2 2427   4.226   6.967   6.000
  510SOL     OW 2428   6.618   4.043   0.443
  510SOL    HW1 2429   6.535   4.057   0.496
  510SOL    HW2 2430   6.647   4.129   0.401
  511SOL     OW 2431   0.770   1.228   0.136
  511SOL    HW1 2432   0.718   1.144   0.116
  511SOL    HW2 2433   0.867   1.210   0.123
  512SOL     OW 2434   0.364   2.655   4.206
  512SOL    HW1 2435   0.401   2.637   4.115
  512SOL    HW2 2436   0.306   2.736   4.203
  513SOL     OW 2437   5.422   6.900   3.027
  513SOL    HW1 2438   5.471   6.814   3.037
  513SOL    HW2 2439   5.366   6.917   3.108
  514SOL     OW 2440   4.674   0.952   5.395
  514SOL    HW1 2441   4.666   0.982   5.490
  514SOL    HW2 2442   4.631   1.018   5.335
  515SOL     OW 2443   3.655   0.761   0.418
  515SOL    HW1 2444   3.709   0.706   0.481
  515SOL    HW2 2445   3.596   0.822   0.469
  516SOL     OW 2446   1.772   6.200   2.179
  516SOL    HW1 2447   1.851   6.139   2.169
  516SOL    HW2 2448   1.730   6.186   2.269
  517SOL     OW 2449   3.584   5.432   1.900
  517SOL    HW1 2450   3.573   5.343   1.854
  517SOL    HW2 2451   3.537   5.502   1.847
  518SOL     OW 2452   1.762   5.383   4.165
  518SOL    HW1 2453   1.794   5.294   4.132
  518SOL    HW2 2454   1.706   5.426   4.094
  519SOL     OW 2455   6.907   6.745   2.147
  519SOL    HW1 2456   6.921   6.669   2.210
  519SOL    HW2 2457   6.848   6.814   2.189
  520SOL     OW 2458   2.431   4.669   0.447
  520SOL    HW1 2459   2.481   4.657   0.533
  520SOL    HW2 2460   2.392   4.582   0.418
  521SOL     OW 2461   6.162   5.855   5.327
  521SOL    HW1 2462   6.256   5.857   5.360
  521SOL    HW2 2463   6.119   5.769   5.355
  522SOL     OW 2464   3.805   4.535   0.054
  522SOL    HW1 2465   3.802   4.435   0.061
  522SOL    HW2 2466   3.875   4.561   7.008
  523SOL     OW 2467   1.540   6.891   6.851
  523SOL    HW1 2468   1.637   6.899   6.876
  523SOL    HW2 2469   1.528   6.921   6.756
  524SOL     OW 2470   0.148   1.233   1.082
  524SOL    HW1 2471   0.100   1.218   0.995
  524SOL    HW2 2472   0.224   1.169   1.090
  525SOL     OW 2473   0.985   3.157   3.717
  525SOL    HW1 2474   0.972   3.217   3.796
  525SOL    HW2 2475   1.081   3.131   3.711
  526SOL     OW 2476   4.216   0.215   4.033
  526SOL    HW1 2477   4.240   0.134   4.086
  526SOL    HW2 2478   4.235   0.297   4.087
  527SOL     OW 2479   0.567   1.670   1.124
  527SOL    HW1 2480   0.665   1.689   1.130
  527SOL    HW2 2481   0.537   1.623   1.207
  528SOL     OW 2482   0.121   2.798   4.455
  528SOL    HW1 2483   0.082   2.871   4.399
  528SOL    HW2 2484   0.200   2.833   4.505
  529SOL     OW 2485   1.569   0.229   6.688
  529SOL    HW1 2486   1.515   0.150   6.720
  529SOL    HW2 2487   1.658   0.197   6.656
  530SOL     OW 2488   3.622   4.753   1.377
  530SOL    HW1 2489   3.575   4.743   1.290
  530SOL    HW2 2490   3.578   4.696   1.446
  531SOL     OW 2491   1.508   6.817   0.169
  531SOL    HW1 2492   1.490   6.895   0.229
  531SOL    HW2 2493   1.553   6.848   0.085
  532SOL     OW 2494   2.155   1.336   5.980
  532SOL    HW1 2495   2.198   1.423   6.007
  532SOL    HW2 2496   2.056   1.349   5.975
  533SOL     OW 2497   3.989   0.500   3.795
  533SOL    HW1 2498   3.930   0.509   3.715
  533SOL    HW2 2499   4.005   0.590   3.835
  534SOL     OW 2500   1.692   3.842   1.641
  534SOL    HW1 2501   1.641   3.862   1.725
  534SOL    HW2 2502   1.681   3.917   1.576
  535SOL     OW 2503   5.241   3.309   4.358
  535SOL    HW1 2504   5.229   3.253   4.276
  535SOL    HW2 2505   5.152   3.341   4.390
  536SOL     OW 2506   6.401   6.627   1.801
  536SOL    HW1 2507   6.424   6.715   1.843
  536SOL    HW2 2508   6.485   6.579   1.776
  537SOL     OW 2509   3.028   1.467   2.273
  537SOL    HW1 2510   3.061   1.552   2.313
  537SOL    HW2 2511   3.053   1.464   2.176
  538SOL     OW 2512   3.540   4.954   4.808
  538SOL    HW1 2513   3.505   4.867   4.844
  538SOL    HW2 2514   3.502   4.970   4.717
  539SOL     OW 2515   1.957   0.371   6.699
  539SOL    HW1 2516   2.043   0.329   6.730
  539SOL    HW2 2517   1.964   0.396   6.603
  540SOL     OW 2518   1.670   0.747   5.246
  540SOL    HW1 2519   1.586   0.759   5.194
  540SOL    HW2 2520   1.737   0.697   5.190
  541SOL     OW 2521   5.030   6.229   3.819
  541SOL    HW1 2522   5.109   6.290   3.812
  541SOL    HW2 2523   5.055   6.149   3.874
  542SOL     OW 2524   3.793   6.805   6.179
  542SOL    HW1 2525   3.840   6.734   6.231
  542SOL    HW2 2526   3.826   6.895   6.209
  543SOL     OW 2527   6.156   2.641   3.626
  543SOL    HW1 2528   6.165   2.550   3.667
  543SOL    HW2 2529   6.136   2.633   3.529
  544SOL     OW 2530   1.209   3.074   1.200
  544SOL    HW1 2531   1.247   3.147   1.257
  544SOL    HW2 2532   1.110   3.086   1.192
  545SOL     OW 2533   6.704   5.793   0.828
  545SOL    HW1 2534   6.734   5.877   0.785
  545SOL    HW2 2535   6.757   5.716   0.792
  546SOL     OW 2536   0.439   3.854   1.641
  546SOL    HW1 2537   0.536   3.834   1.655
  546SOL    HW2 2538   0.409   3.814   1.555
  547SOL     OW 2539   5.125   0.201   6.442
  547SOL    HW1 2540   5.117   0.151   6.355
  547SOL    HW2 2541   5.082   0.148   6.515
  548SOL     OW 2542   3.913   2.990   0.170
  548SOL    HW1 2543   3.876   3.043   0.246
  548SOL    HW2 2544   3.840   2.938   0.126
  549SOL     OW 2545   5.259   1.529   2.125
  549SOL    HW1 2546   5.237   1.625   2.137
  549SOL    HW2 2547   5.264   1.485   2.215
  550SOL     OW 2548   6.960   5.899   3.116
  550SOL    HW1 2549   6.929   5.826   3.177
  550SOL    HW2 2550   6.924   5.987   3.149
  551SOL     OW 2551   5.989   0.397   0.326
  551SOL    HW1 2552   5.907   0.448   0.302
  551SOL    HW2 2553   6.061   0.416   0.258
  552SOL     OW 2554   0.752   6.978   5.064
  552SOL    HW1 2555   0.695   6.965   5.145
  552SOL    HW2 2556   0.842   6.936   5.079
  553SOL     OW 2557   3.457   2.374   6.620
  553SOL    HW1 2558   3.428   2.447   6.559
  553SOL    HW2 2559   3.532   2.406   6.678
  554SOL     OW 2560   6.438   5.716   0.757
  554SOL    HW1 2561   6.428   5.619   0.732
  554SOL    HW2 2562   6.533   5.734   0.779
  555SOL     OW 2563   2.247   3.745   5.238
  555SOL    HW1 2564   2.228   3.722   5.143
  555SOL    HW2 2565   2.319   3.814   5.242
  556SOL     OW 2566   5.928   6.901   3.709
  556SOL    HW1 2567   5.952   6.881   3.614
  556SOL    HW2 2568   5.828   6.903   3.718
  557SOL     OW 2569   5.682   4.439   6.413
  557SOL    HW1 2570   5.667   4.527   6.369
  557SOL    HW2 2571   5.780   4.423   6.422
  558SOL     OW 2572   3.185   3.516   2.663
  558SOL    HW1 2573   3.105   3.573   2.680
  558SOL    HW2 2574   3.171   3.463   2.579
  559SOL     OW 2575   6.678   0.578   6.033
  559SOL    HW1 2576   6.667   0.534   6.122
  559SOL    HW2 2577   6.639   0.669   6.035
  560SOL     OW 2578   6.768   3.021   4.202
  560SOL    HW1 2579   6.699   2.994   4.269
  560SOL    HW2 2580   6.723   3.070   4.127
  561SOL     OW 2581   0.385   3.275   0.562
  561SOL    HW1 2582   0.408   3.361   0.516
  561SOL    HW2 2583   0.467   3.237   0.606
  562SOL     OW 2584   4.246   6.581   4.078
  562SOL    HW1 2585   4.277   6.668   4.039
  562SOL    HW2 2586   4.291   6.567   4.167
  563SOL     OW 2587   1.416   0.821   4.252
  563SOL    HW1 2588   1.317   0.810   4.251
  563SOL    HW2 2589   1.444   0.871   4.170
  564SOL     OW 2590   5.962   2.112   6.262
  564SOL    HW1 2591   5.953   2.024   6.310
  564SOL    HW2 2592   5.950   2.097   6.164
  565SOL     OW 2593   3.432   3.513   3.362
  565SOL    HW1 2594   3.509   3.568   3.395
  565SOL    HW2 2595   3.379   3.481   3.440
  566SOL     OW 2596   2.809   0.788   3.423
  566SOL    HW1 2597   2.790   0.786   3.521
  566SOL    HW2 2598   2.758   0.863   3.381
  567SOL     OW 2599   3.110   2.806   5.372
  567SOL    HW1 2600   3.102   2.826   5.470
  567SOL    HW2 2601   3.128   2.708   5.360
  568SOL     OW 2602   0.758   6.253   0.116
  568SOL    HW1 2603   0.814   6.299   0.047
  568SOL    HW2 2604   0.724   6.167   0.078
  569SOL     OW 2605   5.905   3.250   6.923
  569SOL    HW1 2606   5.988   3.262   6.869
  569SOL    HW2 2607   5.882   3.337   6.967
  570SOL     OW 2608   3.183   0.510   5.828
  570SOL    HW1 2609   3.250   0.511   5.902
  570SOL    HW2 2610   3.208   0.440   5.761
  571SOL     OW 2611   2.251   4.054   1.577
  571SOL    HW1 2612   2.344   4.058   1.613
  571SOL    HW2 2613   2.224   4.145   1.546
  572SOL     OW 2614   2.228   1.033   4.505
  572SOL    HW1 2615   2.195   1.102   4.441
  572SOL    HW2 2616   2.237   1.074   4.596
  573SOL     OW 2617   0.513   0.643   5.415
  573SOL    HW1 2618   0.562   0.608   5.494
  573SOL    HW2 2619   0.430   0.590   5.399
  574SOL     OW 2620   2.012   1.356   6.258
  574SOL    HW1 2621   2.107   1.373   6.284
  574SOL    HW2 2622   1.979   1.431   6.201
  575SOL     OW 2623   3.973   3.999   0.047
  575SOL    HW1 2624   3.920   3.916   0.060
  575SOL    HW2 2625   4.034   4.013   0.125
  576SOL     OW 2626   1.971   1.592   2.666
  576SOL    HW1 2627   1.947   1.556   2.576
  576SOL    HW2 2628   1.890   1.591   2.725
  577SOL     OW 2629   0.486   1.297   1.859
  577SOL    HW1 2630   0.552   1.345   1.801
  577SOL    HW2 2631   0.401   1.284   1.810
  578SOL     OW 2632   3.601   6.743   0.104
  578SOL    HW1 2633   3.657   6.688   0.043
  578SOL    HW2 2634   3.602   6.702   0.196
  579SOL     OW 2635   1.670   3.756   2.001
  579SOL    HW1 2636   1.718   3.702   2.071
  579SOL    HW2 2637   1.674   3.708   1.914
  580SOL     OW 2638   4.865   5.109   5.006
  580SOL    HW1 2639   4.800   5.137   4.935
  580SOL    HW2 2640   4.958   5.114   4.971
  581SOL     OW 2641   1.964   2.500   4.700
  581SOL    HW1 2642   1.890   2.438   4.725
  581SOL    HW2 2643   2.051   2.452   4.708
  582SOL     OW 2644   5.558   4.786   4.160
  582SOL    HW1 2645   5.461   4.780   4.187
  582SOL    HW2 2646   5.584   4.701   4.114
  583SOL     OW 2647   3.654   6.027   5.694
  583SOL    HW1 2648   3.690   6.114   5.726
  583SOL    HW2 2649   3.698   6.003   5.607
  584SOL     OW 2650   3.803   0.634   5.340
  584SOL    HW1 2651   3.832   0.573   5.266
  584SOL    HW2 2652   3.882   0.660   5.395
  585SOL     OW 2653   3.746   6.991   1.353
  585SOL    HW1 2654   3.724   6.897   1.379
  585SOL    HW2 2655   3.772   6.994   1.257
  586SOL     OW 2656   4.012   0.089   0.657
  586SOL    HW1 2657   4.045   0.138   0.576
  586SOL    HW2 2658   3.939   0.027   0.631
  587SOL     OW 2659   4.740   1.734   2.215
  587SOL    HW1 2660   4.821   1.774   2.174
  587SOL    HW2 2661   4.759   1.639   2.240
  588SOL     OW 2662   1.599   4.537   2.929
  588SOL    HW1 2663   1.538   4.608   2.964
  588SOL    HW2 2664   1.634   4.483   3.006
  589SOL     OW 2665   2.845   5.214   0.842
  589SOL    HW1 2666   2.862   5.170   0.754
  589SOL    HW2 2667   2.911   5.288   0.854
  590SOL     OW 2668   3.042   2.086   6.987
  590SOL    HW1 2669   3.059   2.079   6.888
  590SOL    HW2 2670   3.072   2.001   0.011
  591SOL     OW 2671   3.059   6.095   3.770
  591SOL    HW1 2672   3.086   6.135   3.683
  591SOL    HW2 2673   3.134   6.038   3.805
  592SOL     OW 2674   4.088   1.927   4.698
  592SOL    HW1 2675   3.994   1.956   4.681
  592SOL    HW2 2676   4.144   2.007   4.720
  593SOL     OW 2677   1.936   1.818   6.735
  593SOL    HW1 2678   1.877   1.831   6.814
  593SOL    HW2 2679   1.980   1.728   6.740
  594SOL     OW 2680   4.515   1.129   2.852
  594SOL    HW1 2681   4.488   1.093   2.942
  594SOL    HW2 2682   4.613   1.119   2.840
  595SOL     OW 2683   6.359   5.248   3.081
  595SOL    HW1 2684   6.452   5.216   3.067
  595SOL    HW2 2685   6.303   5.225   3.001
  596SOL     OW 2686   6.455   4.911   4.255
  596SOL    HW1 2687   6.459   4.994   4.199
  596SOL    HW2 2688   6.518   4.843   4.217
  597SOL     OW 2689   3.368   1.218   6.863
  597SOL    HW1 2690   3.375   1.168   6.949
  597SOL    HW2 2691   3.433   1.179   6.797
  598SOL     OW 2692   3.247   4.111   3.736
  598SOL    HW1 2693   3.229   4.198   3.783
  598SOL    HW2 2694   3.198   4.037   3.782
  599SOL     OW 2695   1.780   5.205   1.579
  599SOL    HW1 2696   1.805   5.267   1.504
  599SOL    HW2 2697   1.826   5.233   1.663
  600SOL     OW 2698   6.878   3.577   5.547
  600SOL    HW1 2699   6.808   3.638   5.510
  600SOL    HW2 2700   6.914   3.519   5.474
  601SOL     OW 2701   0.541   6.274   5.782
  601SOL    HW1 2702   0.629   6.300   5.744
  601SOL    HW2 2703   0.500   6.202   5.726
  602SOL     OW 2704   1.480   0.185   3.522
  602SOL    HW1 2705   1.410   0.255   3.536
  602SOL    HW2 2706   1.477   0.154   3.427
  603SOL     OW 2707   2.029   1.543   4.015
  603SOL    HW1 2708   2.004   1.559   4.111
  603SOL    HW2 2709   1.953   1.567   3.956
  604SOL     OW 2710   6.125   3.154   0.966
  604SOL    HW1 2711   6.150   3.117   0.876
  604SOL    HW2 2712   6.156   3.091   1.038
  605SOL     OW 2713   6.598   6.162   1.021
  605SOL    HW1 2714   6.574   6.067   1.004
  605SOL    HW2 2715   6.586   6.182   1.118
  606SOL     OW 2716   3.708   6.446   5.015
  606SOL    HW1 2717   3.758   6.407   5.092
  606SOL    HW2 2718   3.692   6.543   5.031
  607SOL     OW 2719   1.794   3.103   5.851
  607SOL    HW1 2720   1.786   3.146   5.761
  607SOL    HW2 2721   1.816   3.006   5.839
  608SOL     OW 2722   3.308   1.222   6.156
  608SOL    HW1 2723   3.230   1.232   6.218
  608SOL    HW2 2724   3.379   1.168   6.199
  609SOL     OW 2725   3.613   2.871   2.028
  609SOL    HW1 2726   3.540   2.875   1.959
  609SOL    HW2 2727   3.700   2.897   1.987
  610SOL     OW 2728   4.554   3.555   1.668
  610SOL    HW1 2729   4.651   3.560   1.693
  610SOL    HW2 2730   4.546   3.567   1.569
  611SOL     OW 2731   3.978   1.032   3.242
  611SOL    HW1 2732   3.895   0.976   3.246
  611SOL    HW2 2733   3.972   1.106   3.309
  612SOL     OW 2734   4.573   4.860   3.916
  612SOL    HW1 2735   4.635   4.851   3.993
  612SOL    HW2 2736   4.486   4.898   3.948
  613SOL     OW 2737   4.129   4.437   5.900
  613SOL    HW1 2738   4.120   4.348   5.944
  613SOL    HW2 2739   4.038   4.471   5.875
  614SOL     OW 2740   2.733   6.300   6.224
  614SOL    HW1 2741   2.714   6.222   6.164
  614SOL    HW2 2742   2.672   6.297   6.303
  615SOL     OW 2743   0.457   4.739   2.647
  615SOL    HW1 2744   0.524   4.811   2.631
  615SOL    HW2 2745   0.366   4.772   2.625
  616SOL     OW 2746   6.046   3.132   3.658
  616SOL    HW1 2747   6.118   3.071   3.690
  616SOL    HW2 2748   6.086   3.217   3.625
  617SOL     OW 2749   3.025   6.583   5.903
  617SOL    HW1 2750   2.981   6.561   5.989
  617SOL    HW2 2751   3.008   6.510   5.837
  618SOL     OW 2752   1.546   1.135   3.039
  618SOL    HW1 2753   1.492   1.205   2.992
  618SOL    HW2 2754   1.522   1.045   3.002
  619SOL     OW 2755   0.983   1.983   6.899
  619SOL    HW1 2756   0.887   1.959   6.913
  619SOL    HW2 2757   0.991   2.082   6.888
  620SOL     OW 2758   4.165   3.633   1.368
  620SOL    HW1 2759   4.195   3.669   1.456
  620SOL    HW2 2760   4.212   3.547   1.349
  621SOL     OW 2761   0.343   5.587   1.144
  621SOL    HW1 2762   0.251   5.548   1.150
  621SOL    HW2 2763   0.388   5.553   1.062
  622SOL     OW 2764   0.826   0.508   6.557
  622SOL    HW1 2765   0.859   0.421   6.519
  622SOL    HW2 2766   0.899   0.553   6.607
  623SOL     OW 2767   0.318   5.046   5.814
  623SOL    HW1 2768   0.244   5.038   5.881
  623SOL    HW2 2769   0.327   4.960   5.764
  624SOL     OW 2770   1.379   1.744   0.923
  624SOL    HW1 2771   1.352   1.839   0.940
  624SOL    HW2 2772   1.298   1.687   0.920
  625SOL     OW 2773   1.608   1.486   2.671
  625SOL    HW1 2774   1.692   1.461   2.719
  625SOL    HW2 2775   1.579   1.578   2.701
  626SOL     OW 2776   3.225   6.761   4.745
  626SOL    HW1 2777   3.133   6.732   4.767
  626SOL    HW2 2778   3.225   6.810   4.658
  627SOL     OW 2779   5.272   0.599   0.018
  627SOL    HW1 2780   5.357   0.613   6.987
  627SOL    HW2 2781   5.293   0.570   0.111
  628SOL     OW 2782   5.379   3.907   3.188
  628SOL    HW1 2783   5.440   3.985   3.182
  628SOL    HW2 2784   5.409   3.846   3.262
  629SOL     OW 2785   1.651   6.836   0.655
  629SOL    HW1 2786   1.610   6.927   0.664
  629SOL    HW2 2787   1.747   6.841   0.681
  630SOL     OW 2788   3.455   1.933   1.228
  630SOL    HW1 2789   3.362   1.928   1.265
  630SOL    HW2 2790   3.453   1.907   1.131
  631SOL     OW 2791   2.312   6.903   4.822
  631SOL    HW1 2792   2.412   6.906   4.818
  631SOL    HW2 2793   2.277   6.850   4.745
  632SOL     OW 2794   2.562   0.423   1.049
  632SOL    HW1 2795   2.487   0.383   1.102
  632SOL    HW2 2796   2.544   0.411   0.952
  633SOL     OW 2797   2.389   6.657   5.545
  633SOL    HW1 2798   2.458   6.598   5.587
  633SOL    HW2 2799   2.377   6.739   5.601
  634SOL     OW 2800   2.934   5.941   2.056
  634SOL    HW1 2801   3.023   5.921   2.098
  634SOL    HW2 2802   2.876   5.987   2.122
  635SOL     OW 2803   2.660   0.481   2.480
  635SOL    HW1 2804   2.686   0.565   2.528
  635SOL    HW2 2805   2.563   0.487   2.454
  636SOL     OW 2806   5.199   5.533   0.234
  636SOL    HW1 2807   5.142   5.552   0.314
  636SOL    HW2 2808   5.286   5.495   0.265
  637SOL     OW 2809   5.603   4.496   0.117
  637SOL    HW1 2810   5.539   4.548   0.059
  637SOL    HW2 2811   5.643   4.421   0.064
  638SOL     OW 2812   5.563   0.979   2.546
  638SOL    HW1 2813   5.532   0.965   2.641
  638SOL    HW2 2814   5.557   0.892   2.497
  639SOL     OW 2815   4.811   3.948   2.517
  639SOL    HW1 2816   4.766   4.013   2.578
  639SOL    HW2 2817   4.804   3.856   2.556
  640SOL     OW 2818   2.562   4.083   5.721
  640SOL    HW1 2819   2.557   4.121   5.813
  640SOL    HW2 2820   2.610   4.147   5.661
  641SOL     OW 2821   0.229   5.815   5.874
  641SOL    HW1 2822   0.197   5.728   5.837
  641SOL    HW2 2823   0.192   5.827   5.966
  642SOL     OW 2824   0.975   4.789   6.051
  642SOL    HW1 2825   1.053   4.851   6.044
  642SOL    HW2 2826   1.002   4.707   6.102
  643SOL     OW 2827   6.194   5.996   5.090
  643SOL    HW1 2828   6.239   5.936   5.024
  643SOL    HW2 2829   6.184   5.947   5.177
  644SOL     OW 2830   2.496   5.754   2.274
  644SOL    HW1 2831   2.582   5.803   2.285
  644SOL    HW2 2832   2.468   5.717   2.363
  645SOL     OW 2833   6.671   3.219   3.190
  645SOL    HW1 2834   6.722   3.233   3.106
  645SOL    HW2 2835   6.586   3.271   3.186
  646SOL     OW 2836   1.300   2.053   4.365
  646SOL    HW1 2837   1.310   2.113   4.285
  646SOL    HW2 2838   1.241   2.097   4.432
  647SOL     OW 2839   5.530   3.261   0.128
  647SOL    HW1 2840   5.583   3.212   0.059
  647SOL    HW2 2841   5.434   3.266   0.101
  648SOL     OW 2842   4.813   1.914   3.712
  648SOL    HW1 2843   4.831   1.923   3.614
  648SOL    HW2 2844   4.764   1.995   3.744
  649SOL     OW 2845   4.525   4.519   2.279
  649SOL    HW1 2846   4.562   4.430   2.250
  649SOL    HW2 2847   4.532   4.527   2.378
  650SOL     OW 2848   5.073   3.637   0.611
  650SOL    HW1 2849   5.143   3.704   0.633
  650SOL    HW2 2850   5.117   3.550   0.589
  651SOL     OW 2851   0.740   6.276   6.212
  651SOL    HW1 2852   0.693   6.238   6.133
  651SOL    HW2 2853   0.739   6.376   6.207
  652SOL     OW 2854   5.095   1.658   2.396
  652SOL    HW1 2855   5.172   1.600   2.419
  652SOL    HW2 2856   5.106   1.693   2.303
  653SOL     OW 2857   3.427   4.953   3.328
  653SOL    HW1 2858   3.403   4.992   3.240
  653SOL    HW2 2859   3.348   4.905   3.367
  654SOL     OW 2860   6.470   5.279   6.910
  654SOL    HW1 2861   6.445   5.185   6.930
  654SOL    HW2 2862   6.555   5.281   6.856
  655SOL     OW 2863   6.877   1.446   6.615
  655SOL    HW1 2864   6.800   1.407   6.664
  655SOL    HW2 2865   6.849   1.474   6.524
  656SOL     OW 2866   2.701   6.183   1.515
  656SOL    HW1 2867   2.640   6.176   1.436
  656SOL    HW2 2868   2.721   6.092   1.550
  657SOL     OW 2869   3.847   1.353   6.350
  657SOL    HW1 2870   3.854   1.393   6.259
  657SOL    HW2 2871   3.907   1.402   6.413
  658SOL     OW 2872   3.861   5.085   5.896
  658SOL    HW1 2873   3.953   5.121   5.880
  658SOL    HW2 2874   3.816   5.069   5.809
  659SOL     OW 2875   3.214   0.518   6.142
  659SOL    HW1 2876   3.155   0.586   6.098
  659SOL    HW2 2877   3.179   0.498   6.234
  660SOL     OW 2878   3.449   5.939   3.197
  660SOL    HW1 2879   3.411   5.848   3.176
  660SOL    HW2 2880   3.374   6.002   3.216
  661SOL     OW 2881   5.901   5.872   3.004
  661SOL    HW1 2882   5.973   5.808   2.977
  661SOL    HW2 2883   5.941   5.963   3.019
  662SOL     OW 2884   3.840   1.332   0.708
  662SOL    HW1 2885   3.867   1.329   0.804
  662SOL    HW2 2886   3.817   1.240   0.677
  663SOL     OW 2887   1.883   4.712   4.437
  663SOL    HW1 2888   1.921   4.778   4.501
  663SOL    HW2 2889   1.855   4.629   4.486
  664SOL     OW 2890   5.805   0.832   6.724
  664SOL    HW1 2891   5.811   0.917   6.671
  664SOL    HW2 2892   5.874   0.832   6.797
  665SOL     OW 2893   1.849   4.389   2.182
  665SOL    HW1 2894   1.758   4.364   2.216
  665SOL    HW2 2895   1.870   4.333   2.102
  666SOL     OW 2896   4.368   1.374   0.956
  666SOL    HW1 2897   4.308   1.453   0.962
  666SOL    HW2 2898   4.345   1.310   1.030
  667SOL     OW 2899   1.315   6.824   2.280
  667SOL    HW1 2900   1.246   6.767   2.326
  667SOL    HW2 2901   1.270   6.900   2.234
  668SOL     OW 2902   5.484   3.799   0.732
  668SOL    HW1 2903   5.427   3.828   0.654
  668SOL    HW2 2904   5.580   3.805   0.707
  669SOL     OW 2905   4.799   1.981   2.428
  669SOL    HW1 2906   4.802   1.883   2.449
  669SOL    HW2 2907   4.765   1.994   2.335
  670SOL     OW 2908   3.186   2.074   3.170
  670SOL    HW1 2909   3.218   2.059   3.264
  670SOL    HW2 2910   3.105   2.132   3.171
  671SOL     OW 2911   2.667   6.377   1.693
  671SOL    HW1 2912   2.568   6.376   1.708
  671SOL    HW2 2913   2.691   6.310   1.622
  672SOL     OW 2914   1.277   6.750   2.679
  672SOL    HW1 2915   1.215   6.720   2.752
  672SOL    HW2 2916   1.308   6.671   2.627
  673SOL     OW 2917   5.648   6.543   0.602
  673SOL    HW1 2918   5.573   6.556   0.667
  673SOL    HW2 2919   5.652   6.621   0.540
  674SOL     OW 2920   5.646   0.820   3.887
  674SOL    HW1 2921   5.646   0.851   3.981
  674SOL    HW2 2922   5.685   0.891   3.828
  675SOL     OW 2923   0.323   3.762   3.297
  675SOL    HW1 2924   0.301   3.665   3.285
  675SOL    HW2 2925   0.324   3.784   3.395
  676SOL     OW 2926   2.689   6.549   5.950
  676SOL    HW1 2927   2.662   6.460   5.914
  676SOL    HW2 2928   2.621   6.580   6.016
  677SOL     OW 2929   5.732   1.854   1.010
  677SOL    HW1 2930   5.790   1.843   0.929
  677SOL    HW2 2931   5.740   1.774   1.068
  678SOL     OW 2932   1.018   5.168   3.420
  678SOL    HW1 2933   1.093   5.127   3.367
  678SOL    HW2 2934   1.026   5.139   3.516
  679SOL     OW 2935   4.685   1.982   5.303
  679SOL    HW1 2936   4.630   1.967   5.221
  679SOL    HW2 2937   4.651   1.925   5.377
  680SOL     OW 2938   6.004   6.451   4.175
  680SOL    HW1 2939   6.075   6.476   4.109
  680SOL    HW2 2940   6.021   6.359   4.209
  681SOL     OW 2941   4.714   4.633   2.912
  681SOL    HW1 2942   4.798   4.613   2.862
  681SOL    HW2 2943   4.675   4.548   2.947
  682SOL     OW 2944   0.435   1.239   2.950
  682SOL    HW1 2945   0.403   1.245   3.044
  682SOL    HW2 2946   0.521   1.289   2.941
  683SOL     OW 2947   3.520   4.213   1.499
  683SOL    HW1 2948   3.590   4.227   1.569
  683SOL    HW2 2949   3.535   4.276   1.423
  684SOL     OW 2950   6.601   1.167   5.439
  684SOL    HW1 2951   6.522   1.173   5.500
  684SOL    HW2 2952   6.662   1.244   5.457
  685SOL     OW 2953   3.023   0.061   2.714
  685SOL    HW1 2954   2.940   0.041   2.660
  685SOL    HW2 2955   3.097   0.001   2.684
  686SOL     OW 2956   3.837   0.323   5.118
  686SOL    HW1 2957   3.893   0.300   5.039
  686SOL    HW2 2958   3.890   0.379   5.182
  687SOL     OW 2959   0.206   1.837   3.387
  687SOL    HW1 2960   0.113   1.865   3.409
  687SOL    HW2 2961   0.239   1.772   3.455
  688SOL     OW 2962   6.094   1.424   6.735
  688SOL    HW1 2963   6.086   1.524   6.735
  688SOL    HW2 2964   6.065   1.388   6.823
  689SOL     OW 2965   1.500   5.743   6.629
  689SOL    HW1 2966   1.543   5.657   6.602
  689SOL    HW2 2967   1.560   5.819   6.607
  690SOL     OW 2968   5.387   3.689   3.384
  690SOL    HW1 2969   5.335   3.622   3.331
  690SOL    HW2 2970   5.427   3.643   3.464
  691SOL     OW 2971   5.949   1.621   0.889
  691SOL    HW1 2972   5.890   1.587   0.962
  691SOL    HW2 2973   5.979   1.545   0.832
  692SOL     OW 2974   1.610   0.245   4.770
  692SOL    HW1 2975   1.623   0.163   4.826
  692SOL    HW2 2976   1.695   0.264   4.720
  693SOL     OW 2977   5.724   6.060   3.204
  693SOL    HW1 2978   5.687   6.145   3.242
  693SOL    HW2 2979   5.818   6.075   3.172
  694SOL     OW 2980   4.812   5.980   5.527
  694SOL    HW1 2981   4.862   5.916   5.468
  694SOL    HW2 2982   4.784   5.934   5.611
  695SOL     OW 2983   4.610   6.873   4.142
  695SOL    HW1 2984   4.544   6.838   4.208
  695SOL    HW2 2985   4.606   6.973   4.139
  696SOL     OW 2986   5.448   3.955   2.790
  696SOL    HW1 2987   5.438   3.938   2.692
  696SOL    HW2 2988   5.507   3.886   2.830
  697SOL     OW 2989   1.103   6.211   2.228
  697SOL    HW1 2990   1.045   6.165   2.295
  697SOL    HW2 2991   1.067   6.195   2.136
  698SOL     OW 2992   5.601   6.369   6.765
  698SOL    HW1 2993   5.653   6.395   6.846
  698SOL    HW2 2994   5.513   6.331   6.793
  699SOL     OW 2995   3.320   3.230   1.100
  699SOL    HW1 2996   3.276   3.143   1.078
  699SOL    HW2 2997   3.255   3.305   1.082
  700SOL     OW 2998   4.065   0.135   4.357
  700SOL    HW1 2999   4.125   0.174   4.428
  700SOL    HW2 3000   3.992   0.200   4.337
  701SOL     OW 3001   5.000   5.038   1.736
  701SOL    HW1 3002   5.013   5.086   1.650
  701SOL    HW2 3003   5.003   5.103   1.812
  702SOL     OW 3004   3.770   0.963   4.603
  702SOL    HW1 3005   3.850   0.994   4.551
  702SOL    HW2 3006   3.688   1.007   4.566
  703SOL     OW 3007   2.986   2.018   6.715
  703SOL    HW1 3008   2.992   2.088   6.645
  703SOL    HW2 3009   3.050   1.945   6.695
  704SOL     OW 3010   2.874   1.833   5.426
  704SOL    HW1 3011   2.884   1.924   5.387
  704SOL    HW2 3012   2.890   1.837   5.525
  705SOL     OW 3013   0.270   6.709   5.103
  705SOL    HW1 3014   0.321   6.689   5.019
  705SOL    HW2 3015   0.198   6.641   5.115
  706SOL     OW 3016   3.724   1.264   4.649
  706SOL    HW1 3017   3.642   1.217   4.615
  706SOL    HW2 3018   3.789   1.196   4.684
  707SOL     OW 3019   3.193   5.179   4.182
  707SOL    HW1 3020   3.118   5.242   4.199
  707SOL    HW2 3021   3.280   5.222   4.207
  708SOL     OW 3022   4.962   5.877   3.805
  708SOL    HW1 3023   4.964   5.934   3.724
  708SOL    HW2 3024   5.056   5.860   3.837
  709SOL     OW 3025   2.279   0.353   1.129
  709SOL    HW1 3026   2.289   0.333   1.227
  709SOL    HW2 3027   2.196   0.310   1.094
  710SOL     OW 3028   4.926   3.159   1.973
  710SOL    HW1 3029   5.013   3.111   1.965
  710SOL    HW2 3030   4.853   3.092   1.992
  711SOL     OW 3031   6.866   2.011   0.150
  711SOL    HW1 3032   6.891   2.093   0.201
  711SOL    HW2 3033   6.864   1.932   0.211
  712SOL     OW 3034   4.798   3.901   6.833
  712SOL    HW1 3035   4.778   3.895   6.735
  712SOL    HW2 3036   4.818   3.810   6.868
  713SOL     OW 3037   4.329   3.329   5.445
  713SOL    HW1 3038   4.422   3.368   5.443
  713SOL    HW2 3039   4.334   3.231   5.423
  714SOL     OW 3040   5.442   5.823   3.100
  714SOL    HW1 3041   5.494   5.822   3.015
  714SOL    HW2 3042   5.504   5.817   3.178
  715SOL     OW 3043   6.538   4.886   5.332
  715SOL    HW1 3044   6.576   4.897   5.240
  715SOL    HW2 3045   6.592   4.819   5.383
  716SOL     OW 3046   2.535   1.975   3.237
  716SOL    HW1 3047   2.593   2.019   3.306
  716SOL    HW2 3048   2.440   2.004   3.251
  717SOL     OW 3049   4.982   5.327   4.227
  717SOL    HW1 3050   4.966   5.425   4.222
  717SOL    HW2 3051   5.002   5.301   4.321
  718SOL     OW 3052   5.049   2.280   5.344
  718SOL    HW1 3053   5.046   2.379   5.360
  718SOL    HW2 3054   5.114   2.238   5.407
  719SOL     OW 3055   4.848   6.759   3.826
  719SOL    HW1 3056   4.910   6.831   3.793
  719SOL    HW2 3057   4.825   6.699   3.750
  720SOL     OW 3058   2.285   0.845   0.771
  720SOL    HW1 3059   2.305   0.866   0.867
  720SOL    HW2 3060   2.202   0.893   0.743
  721SOL     OW 3061   6.852   2.279   2.301
  721SOL    HW1 3062   6.951   2.295   2.304
  721SOL    HW2 3063   6.820   2.289   2.207
  722SOL     OW 3064   4.891   6.275   0.941
  722SOL    HW1 3065   4.886   6.311   0.848
  722SOL    HW2 3066   4.828   6.198   0.951
  723SOL     OW 3067   2.441   0.526   4.253
  723SOL    HW1 3068   2.536   0.542   4.226
  723SOL    HW2 3069   2.386   0.512   4.170
  724SOL     OW 3070   0.966   2.141   3.938
  724SOL    HW1 3071   0.948   2.044   3.929
  724SOL    HW2 3072   0.980   2.182   3.847
  725SOL     OW 3073   1.512   4.389   2.694
  725SOL    HW1 3074   1.551   4.297   2.701
  725SOL    HW2 3075   1.537   4.442   2.775
  726SOL     OW 3076   1.618   3.561   0.851
  726SOL    HW1 3077   1.547   3.496   0.878
  726SOL    HW2 3078   1.679   3.578   0.928
  727SOL     OW 3079   3.910   5.275   4.913
  727SOL    HW1 3080   3.851   5.206   4.955
  727SOL    HW2 3081   3.935   5.246   4.821
  728SOL     OW 3082   6.542   3.129   3.992
  728SOL    HW1 3083   6.557   3.041   3.947
  728SOL    HW2 3084   6.468   3.120   4.059
  729SOL     OW 3085   0.318   4.140   0.910
  729SOL    HW1 3086   0.359   4.208   0.971
  729SOL    HW2 3087   0.272   4.070   0.965
  730SOL     OW 3088   3.727   0.963   3.273
  730SOL    HW1 3089   3.690   1.056   3.266
  730SOL    HW2 3090   3.658   0.903   3.314
  731SOL     OW 3091   4.578   5.386   5.044
  731SOL    HW1 3092   4.600   5.421   4.953
  731SOL    HW2 3093   4.658   5.395   5.103
  732SOL     OW 3094   3.824   1.228   5.216
  732SOL    HW1 3095   3.794   1.287   5.291
  732SOL    HW2 3096   3.848   1.283   5.137
  733SOL     OW 3097   6.242   5.726   3.143
  733SOL    HW1 3098   6.258   5.808   3.089
  733SOL    HW2 3099   6.327   5.675   3.153
  734SOL     OW 3100   6.152   6.899   2.730
  734SOL    HW1 3101   6.093   6.893   2.810
  734SOL    HW2 3102   6.102   6.942   2.655
  735SOL     OW 3103   4.655   0.104   2.456
  735SOL    HW1 3104   4.729   0.063   2.402
  735SOL    HW2 3105   4.577   0.124   2.398
  736SOL     OW 3106   2.135   1.484   3.757
  736SOL    HW1 3107   2.147   1.404   3.700
  736SOL    HW2 3108   2.063   1.467   3.824
  737SOL     OW 3109   3.629   0.830   6.072
  737SOL    HW1 3110   3.542   0.812   6.026
  737SOL    HW2 3111   3.641   0.765   6.147
  738SOL     OW 3112   2.433   4.687   0.134
  738SOL    HW1 3113   2.488   4.758   0.087
  738SOL    HW2 3114   2.419   4.714   0.229
  739SOL     OW 3115   2.814   6.935   4.019
  739SOL    HW1 3116   2.785   6.840   4.008
  739SOL    HW2 3117   2.914   6.939   4.024
  740SOL     OW 3118   4.985   3.195   2.712
  740SOL    HW1 3119   5.018   3.135   2.785
  740SOL    HW2 3120   4.965   3.141   2.630
  741SOL     OW 3121   2.766   0.701   2.600
  741SOL    HW1 3122   2.758   0.705   2.700
  741SOL    HW2 3123   2.791   0.791   2.565
  742SOL     OW 3124   2.223   6.007   1.905
  742SOL    HW1 3125   2.215   6.101   1.871
  742SOL    HW2 3126   2.175   5.945   1.843
  743SOL     OW 3127   0.310   6.810   3.099
  743SOL    HW1 3128   0.361   6.800   3.014
  743SOL    HW2 3129   0.270   6.902   3.103
  744SOL     OW 3130   5.117   2.069   6.996
  744SOL    HW1 3131   5.152   2.162   7.013
  744SOL    HW2 3132   5.093   2.026   0.063
  745SOL     OW 3133   1.931   6.990   4.664
  745SOL    HW1 3134   1.968   0.061   4.687
  745SOL    HW2 3135   1.997   6.941   4.608
  746SOL     OW 3136   0.450   4.896   5.367
  746SOL    HW1 3137   0.438   4.880   5.269
  746SOL    HW2 3138   0.429   4.991   5.389
  747SOL     OW 3139   4.839   5.852   2.638
  747SOL    HW1 3140   4.834   5.769   2.583
  747SOL    HW2 3141   4.806   5.930   2.584
  748SOL     OW 3142   5.270   5.086   1.802
  748SOL    HW1 3143   5.257   5.148   1.879
  748SOL    HW2 3144   5.182   5.043   1.779
  749SOL     OW 3145   4.837   4.093   4.846
  749SOL    HW1 3146   4.798   4.117   4.757
  749SOL    HW2 3147   4.877   4.002   4.842
  750SOL     OW 3148   2.648   2.047   2.210
  750SOL    HW1 3149   2.746   2.065   2.203
  750SOL    HW2 3150   2.605   2.120   2.262
  751SOL     OW 3151   3.457   0.505   0.526
  751SOL    HW1 3152   3.550   0.482   0.500
  751SOL    HW2 3153   3.392   0.456   0.467
  752SOL     OW 3154   3.677   2.668   5.443
  752SOL    HW1 3155   3.611   2.707   5.378
  752SOL    HW2 3156   3.630   2.603   5.503
  753SOL     OW 3157   3.509   3.855   4.182
  753SOL    HW1 3158   3.470   3.795   4.113
  753SOL    HW2 3159   3.466   3.836   4.271
  754SOL     OW 3160   5.587   0.666   0.157
  754SOL    HW1 3161   5.671   0.664   0.212
  754SOL    HW2 3162   5.597   0.603   0.079
  755SOL     OW 3163   4.278   4.256   5.391
  755SOL    HW1 3164   4.272   4.321   5.316
  755SOL    HW2 3165   4.324   4.173   5.360
  756SOL     OW 3166   2.438   5.159   6.200
  756SOL    HW1 3167   2.481   5.177   6.288
  756SOL    HW2 3168   2.342   5.186   6.204
  757SOL     OW 3169   2.356   6.114   2.417
  757SOL    HW1 3170   2.266   6.120   2.461
  757SOL    HW2 3171   2.344   6.094   2.319
  758SOL     OW 3172   4.553   0.429   4.259
  758SOL    HW1 3173   4.649   0.417   4.233
  758SOL    HW2 3174   4.528   0.525   4.253
  759SOL     OW 3175   0.872   3.575   3.718
  759SOL    HW1 3176   0.914   3.522   3.792
  759SOL    HW2 3177   0.777   3.545   3.705
  760SOL     OW 3178   6.625   5.268   3.397
  760SOL    HW1 3179   6.560   5.337   3.366
  760SOL    HW2 3180   6.708   5.273   3.342
  761SOL     OW 3181   4.158   4.471   6.284
  761SOL    HW1 3182   4.097   4.531   6.233
  761SOL    HW2 3183   4.224   4.527   6.335
  762SOL     OW 3184   3.114   6.231   3.543
  762SOL    HW1 3185   3.079   6.278   3.462
  762SOL    HW2 3186   3.139   6.298   3.612
  763SOL     OW 3187   5.335   0.698   0.303
  763SOL    HW1 3188   5.315   0.789   0.266
  763SOL    HW2 3189   5.431   0.676   0.290
  764SOL     OW 3190   5.156   6.600   5.632
  764SOL    HW1 3191   5.202   6.590   5.544
  764SOL    HW2 3192   5.072   6.546   5.632
  765SOL     OW 3193   6.819   6.981   0.675
  765SOL    HW1 3194   6.869   0.046   0.659
  765SOL    HW2 3195   6.865   6.928   0.747
  766SOL     OW 3196   2.461   2.114   4.379
  766SOL    HW1 3197   2.495   2.039   4.437
  766SOL    HW2 3198   2.530   2.186   4.375
  767SOL     OW 3199   6.555   5.276   4.609
  767SOL    HW1 3200   6.533   5.179   4.600
  767SOL    HW2 3201   6.648   5.292   4.575
  768SOL     OW 3202   1.677   5.278   2.824
  768SOL    HW1 3203   1.664   5.362   2.876
  768SOL    HW2 3204   1.774   5.266   2.803
  769SOL     OW 3205   3.153   2.024   5.386
  769SOL    HW1 3206   3.103   2.103   5.351
  769SOL    HW2 3207   3.126   1.943   5.333
  770SOL     OW 3208   1.184   4.948   6.042
  770SOL    HW1 3209   1.169   5.043   6.070
  770SOL    HW2 3210   1.225   4.947   5.951
  771SOL     OW 3211   1.306   4.971   2.691
  771SOL    HW1 3212   1.389   4.999   2.739
  771SOL    HW2 3213   1.313   4.996   2.595
  772SOL     OW 3214   5.959   4.019   0.296
  772SOL    HW1 3215   5.906   4.103   0.284
  772SOL    HW2 3216   6.010   4.024   0.381
  773SOL     OW 3217   1.617   4.070   3.722
  773SOL    HW1 3218   1.711   4.037   3.733
  773SOL    HW2 3219   1.553   3.996   3.743
  774SOL     OW 3220   2.055   0.870   3.361
  774SOL    HW1 3221   2.106   0.809   3.300
  774SOL    HW2 3222   1.958   0.869   3.336
  775SOL     OW 3223   1.143   4.544   3.012
  775SOL    HW1 3224   1.212   4.602   2.969
  775SOL    HW2 3225   1.157   4.449   2.984
  776SOL     OW 3226   2.393   5.486   5.786
  776SOL    HW1 3227   2.363   5.487   5.881
  776SOL    HW2 3228   2.459   5.560   5.771
  777SOL     OW 3229   2.417   3.818   6.335
  777SOL    HW1 3230   2.392   3.905   6.291
  777SOL    HW2 3231   2.338   3.780   6.381
  778SOL     OW 3232   2.886   5.977   6.888
  778SOL    HW1 3233   2.977   5.987   6.845
  778SOL    HW2 3234   2.867   6.057   6.945
  779SOL     OW 3235   6.464   2.233   2.852
  779SOL    HW1 3236   6.478   2.172   2.930
  779SOL    HW2 3237   6.428   2.181   2.775
  780SOL     OW 3238   6.768   2.190   4.885
  780SOL    HW1 3239   6.803   2.255   4.817
  780SOL    HW2 3240   6.690   2.141   4.847
  781SOL     OW 3241   0.047   4.581   6.624
  781SOL    HW1 3242   7.012   4.546   6.700
  781SOL    HW2 3243   7.020   4.564   6.538
  782SOL     OW 3244   1.771   3.574   4.815
  782SOL    HW1 3245   1.683   3.535   4.788
  782SOL    HW2 3246   1.777   3.669   4.784
  783SOL     OW 3247   6.546   4.793   6.889
  783SOL    HW1 3248   6.476   4.798   6.818
  783SOL    HW2 3249   6.519   4.849   6.967
  784SOL     OW 3250   2.382   5.969   0.564
  784SOL    HW1 3251   2.403   5.972   0.467
  784SOL    HW2 3252   2.282   5.963   0.576
  785SOL     OW 3253   0.638   0.983   3.844
  785SOL    HW1 3254   0.690   0.905   3.880
  785SOL    HW2 3255   0.540   0.964   3.850
  786SOL     OW 3256   5.941   0.706   4.081
  786SOL    HW1 3257   5.935   0.733   3.985
  786SOL    HW2 3258   5.897   0.617   4.094
  787SOL     OW 3259   2.307   6.847   1.090
  787SOL    HW1 3260   2.375   6.909   1.129
  787SOL    HW2 3261   2.289   6.873   0.995
  788SOL     OW 3262   1.907   2.514   1.916
  788SOL    HW1 3263   2.000   2.487   1.940
  788SOL    HW2 3264   1.896   2.508   1.816
  789SOL     OW 3265   4.374   4.640   2.808
  789SOL    HW1 3266   4.378   4.601   2.716
  789SOL    HW2 3267   4.438   4.590   2.867
  790SOL     OW 3268   0.887   2.900   2.050
  790SOL    HW1 3269   0.939   2.969   2.101
  790SOL    HW2 3270   0.928   2.810   2.065
  791SOL     OW 3271   2.851   6.462   4.202
  791SOL    HW1 3272   2.904   6.542   4.175
  791SOL    HW2 3273   2.774   6.450   4.139
  792SOL     OW 3274   2.004   0.214   7.006
  792SOL    HW1 3275   2.021   0.118   0.005
  792SOL    HW2 3276   2.086   0.256   6.967
  793SOL     OW 3277   2.358   6.502   4.306
  793SOL    HW1 3278   2.276   6.509   4.249
  793SOL    HW2 3279   2.365   6.410   4.345
  794SOL     OW 3280   2.868   3.466   2.657
  794SOL    HW1 3281   2.886   3.471   2.755
  794SOL    HW2 3282   2.865   3.370   2.628
  795SOL     OW 3283   4.399   0.885   6.083
  795SOL    HW1 3284   4.459   0.965   6.088
  795SOL    HW2 3285   4.308   0.913   6.051
  796SOL     OW 3286   0.452   2.500   0.573
  796SOL    HW1 3287   0.510   2.525   0.651
  796SOL    HW2 3288   0.473   2.560   0.496
  797SOL     OW 3289   3.886   0.008   1.101
  797SOL    HW1 3290   3.891   0.106   1.082
  797SOL    HW2 3291   3.909   6.978   1.017
  798SOL     OW 3292   5.334   5.522   1.282
  798SOL    HW1 3293   5.343   5.594   1.351
  798SOL    HW2 3294   5.266   5.456   1.313
  799SOL     OW 3295   2.491   2.390   5.574
  799SOL    HW1 3296   2.475   2.336   5.491
  799SOL    HW2 3297   2.589   2.398   5.591
  800SOL     OW 3298   5.509   2.974   3.258
  800SOL    HW1 3299   5.566   2.896   3.284
  800SOL    HW2 3300   5.555   3.026   3.186
  801SOL     OW 3301   1.676   6.155   6.386
  801SOL    HW1 3302   1.735   6.192   6.315
  801SOL    HW2 3303   1.580   6.168   6.360
  802SOL     OW 3304   4.882   1.886   6.504
  802SOL    HW1 3305   4.824   1.919   6.579
  802SOL    HW2 3306   4.886   1.786   6.508
  803SOL     OW 3307   2.364   1.736   4.347
  803SOL    HW1 3308   2.297   1.809   4.332
  803SOL    HW2 3309   2.344   1.690   4.434
  804SOL     OW 3310   5.150   0.534   2.760
  804SOL    HW1 3311   5.166   0.568   2.852
  804SOL    HW2 3312   5.069   0.475   2.760
  805SOL     OW 3313   3.549   0.417   3.992
  805SOL    HW1 3314   3.553   0.457   4.083
  805SOL    HW2 3315   3.514   0.485   3.928
  806SOL     OW 3316   2.807   6.189   5.245
  806SOL    HW1 3317   2.821   6.234   5.334
  806SOL    HW2 3318   2.869   6.230   5.178
  807SOL     OW 3319   1.182   6.375   5.877
  807SOL    HW1 3320   1.137   6.401   5.791
  807SOL    HW2 3321   1.121   6.316   5.929
  808SOL     OW 3322   5.376   2.616   5.880
  808SOL    HW1 3323   5.389   2.672   5.798
  808SOL    HW2 3324   5.288   2.569   5.875
  809SOL     OW 3325   2.750   5.384   0.083
  809SOL    HW1 3326   2.786   5.334   0.161
  809SOL    HW2 3327   2.668   5.338   0.048
  810SOL     OW 3328   3.611   3.660   0.106
  810SOL    HW1 3329   3.594   3.583   0.045
  810SOL    HW2 3330   3.526   3.712   0.120
  811SOL     OW 3331   6.401   5.366   4.820
  811SOL    HW1 3332   6.460   5.326   4.750
  811SOL    HW2 3333   6.451   5.372   4.906
  812SOL     OW 3334   0.881   3.706   1.622
  812SOL    HW1 3335   0.811   3.654   1.573
  812SOL    HW2 3336   0.969   3.659   1.615
  813SOL     OW 3337   1.767   1.815   5.804
  813SOL    HW1 3338   1.682   1.843   5.758
  813SOL    HW2 3339   1.807   1.737   5.755
  814SOL     OW 3340   0.549   4.494   2.628
  814SOL    HW1 3341   0.645   4.491   2.657
  814SOL    HW2 3342   0.517   4.589   2.626
  815SOL     OW 3343   4.204   1.713   4.815
  815SOL    HW1 3344   4.155   1.794   4.781
  815SOL    HW2 3345   4.302   1.728   4.807
  816SOL     OW 3346   5.888   3.966   6.497
  816SOL    HW1 3347   5.894   4.048   6.553
  816SOL    HW2 3348   5.823   3.902   6.538
  817SOL     OW 3349   0.384   5.120   6.975
  817SOL    HW1 3350   0.332   5.196   6.937
  817SOL    HW2 3351   0.328   5.073   0.023
  818SOL     OW 3352   0.141   2.703   5.094
  818SOL    HW1 3353   0.218   2.647   5.063
  818SOL    HW2 3354   0.084   2.727   5.016
  819SOL     OW 3355   4.627   3.244   1.676
  819SOL    HW1 3356   4.693   3.310   1.710
  819SOL    HW2 3357   4.662   3.151   1.692
  820SOL     OW 3358   2.666   2.054   5.441
  820SOL    HW1 3359   2.740   2.058   5.374
  820SOL    HW2 3360   2.637   1.959   5.453
  821SOL     OW 3361   5.180   3.258   6.793
  821SOL    HW1 3362   5.086   3.290   6.802
  821SOL    HW2 3363   5.180   3.162   6.765
  822SOL     OW 3364   0.447   4.913   3.119
  822SOL    HW1 3365   0.431   4.827   3.069
  822SOL    HW2 3366   0.406   4.906   3.210
  823SOL     OW 3367   1.471   3.047   5.130
  823SOL    HW1 3368   1.519   3.046   5.042
  823SOL    HW2 3369   1.432   2.957   5.148
  824SOL     OW 3370   5.156   0.457   6.558
  824SOL    HW1 3371   5.117   0.383   6.502
  824SOL    HW2 3372   5.228   0.420   6.617
  825SOL     OW 3373   6.107   6.051   1.045
  825SOL    HW1 3374   6.106   6.039   1.144
  825SOL    HW2 3375   6.148   5.971   1.002
  826SOL     OW 3376   3.462   2.171   0.073
  826SOL    HW1 3377   3.555   2.168   0.111
  826SOL    HW2 3378   3.396   2.163   0.148
  827SOL     OW 3379   3.740   3.749   5.461
  827SOL    HW1 3380   3.662   3.805   5.491
  827SOL    HW2 3381   3.825   3.800   5.476
  828SOL     OW 3382   0.121   6.636   6.444
  828SOL    HW1 3383   0.052   6.580   6.398
  828SOL    HW2 3384   0.178   6.682   6.376
  829SOL     OW 3385   3.711   3.345   2.304
  829SOL    HW1 3386   3.614   3.331   2.285
  829SOL    HW2 3387   3.727   3.442   2.324
  830SOL     OW 3388   6.625   4.414   6.993
  830SOL    HW1 3389   6.645   4.506   0.006
  830SOL    HW2 3390   6.702   4.354   7.014
  831SOL     OW 3391   5.031   0.763   2.060
  831SOL    HW1 3392   5.004   0.698   2.131
  831SOL    HW2 3393   4.958   0.769   1.992
  832SOL     OW 3394   2.807   1.443   4.834
  832SOL    HW1 3395   2.886   1.501   4.854
  832SOL    HW2 3396   2.819   1.354   4.878
  833SOL     OW 3397   3.997   2.549   0.014
  833SOL    HW1 3398   4.019   2.625   6.974
  833SOL    HW2 3399   4.046   2.559   0.100
  834SOL     OW 3400   5.835   2.474   0.692
  834SOL    HW1 3401   5.860   2.523   0.776
  834SOL    HW2 3402   5.820   2.541   0.619
  835SOL     OW 3403   0.156   6.959   4.981
  835SOL    HW1 3404   0.187   0.030   5.007
  835SOL    HW2 3405   0.216   6.890   5.021
  836SOL     OW 3406   4.824   0.819   5.049
  836SOL    HW1 3407   4.890   0.888   5.019
  836SOL    HW2 3408   4.749   0.814   4.983
  837SOL     OW 3409   1.633   0.465   0.062
  837SOL    HW1 3410   1.678   0.482   6.994
  837SOL    HW2 3411   1.538   0.495   0.058
  838SOL     OW 3412   1.260   5.880   3.399
  838SOL    HW1 3413   1.201   5.936   3.456
  838SOL    HW2 3414   1.231   5.784   3.405
  839SOL     OW 3415   1.461   2.040   0.363
  839SOL    HW1 3416   1.508   1.959   0.397
  839SOL    HW2 3417   1.502   2.122   0.405
  840SOL     OW 3418   4.423   4.996   0.443
  840SOL    HW1 3419   4.409   5.094   0.450
  840SOL    HW2 3420   4.467   4.974   0.356
  841SOL     OW 3421   2.983   5.181   0.188
  841SOL    HW1 3422   3.043   5.184   0.268
  841SOL    HW2 3423   2.958   5.085   0.169
  842SOL     OW 3424   4.387   5.434   1.109
  842SOL    HW1 3425   4.429   5.516   1.149
  842SOL    HW2 3426   4.369   5.367   1.182
  843SOL     OW 3427   1.261   0.520   2.303
  843SOL    HW1 3428   1.263   0.520   2.203
  843SOL    HW2 3429   1.295   0.433   2.337
  844SOL     OW 3430   0.028   0.605   1.379
  844SOL    HW1 3431   7.003   0.673   1.437
  844SOL    HW2 3432   0.026   0.636   1.284
  845SOL     OW 3433   3.115   1.891   2.576
  845SOL    HW1 3434   3.019   1.918   2.584
  845SOL    HW2 3435   3.124   1.820   2.507
  846SOL     OW 3436   2.896   1.966   0.736
  846SOL    HW1 3437   2.904   1.893   0.804
  846SOL    HW2 3438   2.931   2.051   0.774
  847SOL     OW 3439   2.594   3.749   1.432
  847SOL    HW1 3440   2.669   3.750   1.498
  847SOL    HW2 3441   2.573   3.655   1.406
  848SOL     OW 3442   6.806   6.420   0.327
  848SOL    HW1 3443   6.866   6.396   0.404
  848SOL    HW2 3444   6.717   6.448   0.361
  849SOL     OW 3445   6.100   3.170   6.698
  849SOL    HW1 3446   6.157   3.094   6.728
  849SOL    HW2 3447   6.122   3.192   6.603
  850SOL     OW 3448   0.972   1.088   5.089
  850SOL    HW1 3449   1.063   1.083   5.131
  850SOL    HW2 3450   0.905   1.112   5.158
  851SOL     OW 3451   5.285   3.491   5.713
  851SOL    HW1 3452   5.379   3.524   5.726
  851SOL    HW2 3453   5.274   3.404   5.762
  852SOL     OW 3454   0.393   3.695   2.010
  852SOL    HW1 3455   0.478   3.683   2.061
  852SOL    HW2 3456   0.315   3.683   2.071
  853SOL     OW 3457   2.788   2.982   0.545
  853SOL    HW1 3458   2.762   2.886   0.559
  853SOL    HW2 3459   2.724   3.040   0.595
  854SOL     OW 3460   6.007   5.941   5.772
  854SOL    HW1 3461   5.977   5.957   5.678
  854SOL    HW2 3462   6.089   5.996   5.790
  855SOL     OW 3463   6.027   1.595   0.090
  855SOL    HW1 3464   6.022   1.663   0.017
  855SOL    HW2 3465   5.985   1.632   0.173
  856SOL     OW 3466   2.019   5.005   1.638
  856SOL    HW1 3467   1.986   5.087   1.684
  856SOL    HW2 3468   2.074   5.031   1.558
  857SOL     OW 3469   6.898   6.021   5.118
  857SOL    HW1 3470   6.946   5.953   5.062
  857SOL    HW2 3471   6.814   6.049   5.072
  858SOL     OW 3472   4.408   3.457   0.206
  858SOL    HW1 3473   4.362   3.370   0.187
  858SOL    HW2 3474   4.467   3.446   0.286
  859SOL     OW 3475   5.324   6.252   4.994
  859SOL    HW1 3476   5.286   6.159   4.992
  859SOL    HW2 3477   5.251   6.319   4.984
  860SOL     OW 3478   4.936   2.585   6.391
  860SOL    HW1 3479   4.935   2.488   6.365
  860SOL    HW2 3480   4.985   2.595   6.477
  861SOL     OW 3481   1.816   5.615   1.836
  861SOL    HW1 3482   1.753   5.539   1.852
  861SOL    HW2 3483   1.852   5.647   1.924
  862SOL     OW 3484   0.419   4.134   3.956
  862SOL    HW1 3485   0.381   4.047   3.924
  862SOL    HW2 3486   0.439   4.192   3.877
  863SOL     OW 3487   6.100   0.700   1.592
  863SOL    HW1 3488   6.143   0.770   1.535
  863SOL    HW2 3489   6.143   0.699   1.682
  864SOL     OW 3490   5.691   6.661   3.775
  864SOL    HW1 3491   5.659   6.722   3.848
  864SOL    HW2 3492   5.699   6.568   3.811
  865SOL     OW 3493   1.686   5.935   5.475
  865SOL    HW1 3494   1.614   5.962   5.411
  865SOL    HW2 3495   1.774   5.931   5.427
  866SOL     OW 3496   3.680   0.159   1.889
  866SOL    HW1 3497   3.628   0.110   1.959
  866SOL    HW2 3498   3.770   0.183   1.924
  867SOL     OW 3499   6.227   1.639   5.767
  867SOL    HW1 3500   6.250   1.589   5.683
  867SOL    HW2 3501   6.282   1.723   5.771
  868SOL     OW 3502   0.201   2.437   1.857
  868SOL    HW1 3503   0.168   2.514   1.912
  868SOL    HW2 3504   0.263   2.472   1.787
  869SOL     OW 3505   6.950   3.720   3.676
  869SOL    HW1 3506   6.904   3.808   3.682
  869SOL    HW2 3507   6.894   3.650   3.721
  870SOL     OW 3508   3.775   5.130   2.260
  870SOL    HW1 3509   3.738   5.125   2.167
  870SOL    HW2 3510   3.733   5.207   2.308
  871SOL     OW 3511   4.863   1.473   3.338
  871SOL    HW1 3512   4.792   1.539   3.363
  871SOL    HW2 3513   4.945   1.523   3.310
  872SOL     OW 3514   1.079   2.374   4.927
  872SOL    HW1 3515   1.117   2.435   4.857
  872SOL    HW2 3516   1.063   2.427   5.010
  873SOL     OW 3517   4.281   0.253   5.925
  873SOL    HW1 3518   4.332   0.333   5.955
  873SOL    HW2 3519   4.289   0.243   5.825
  874SOL     OW 3520   4.846   3.657   1.594
  874SOL    HW1 3521   4.903   3.736   1.573
  874SOL    HW2 3522   4.893   3.573   1.569
  875SOL     OW 3523   4.722   5.522   1.622
  875SOL    HW1 3524   4.684   5.547   1.533
  875SOL    HW2 3525   4.822   5.528   1.619
  876SOL     OW 3526   6.942   0.193   0.649
  876SOL    HW1 3527   7.020   0.166   0.706
  876SOL    HW2 3528   6.892   0.267   0.695
  877SOL     OW 3529   1.941   3.595   6.393
  877SOL    HW1 3530   1.891   3.529   6.337
  877SOL    HW2 3531   1.877   3.641   6.455
  878SOL     OW 3532   3.913   6.366   4.530
  878SOL    HW1 3533   3.980   6.392   4.461
  878SOL    HW2 3534   3.917   6.430   4.607
  879SOL     OW 3535   5.790   0.042   0.572
  879SOL    HW1 3536   5.852   7.004   0.519
  879SOL    HW2 3537   5.819   0.138   0.562
  880SOL     OW 3538   2.884   3.465   2.366
  880SOL    HW1 3539   2.813   3.398   2.347
  880SOL    HW2 3540   2.883   3.487   2.464
  881SOL     OW 3541   4.464   1.635   0.436
  881SOL    HW1 3542   4.525   1.611   0.361
  881SOL    HW2 3543   4.494   1.589   0.519
  882SOL     OW 3544   1.545   3.186   4.629
  882SOL    HW1 3545   1.525   3.158   4.535
  882SOL    HW2 3546   1.638   3.159   4.653
  883SOL     OW 3547   2.628   6.991   2.976
  883SOL    HW1 3548   2.696   0.045   2.978
  883SOL    HW2 3549   2.674   6.904   2.961
  884SOL     OW 3550   4.066   3.672   5.702
  884SOL    HW1 3551   4.000   3.625   5.761
  884SOL    HW2 3552   4.100   3.607   5.633
  885SOL     OW 3553   4.156   2.624   6.475
  885SOL    HW1 3554   4.224   2.560   6.438
  885SOL    HW2 3555   4.111   2.672   6.400
  886SOL     OW 3556   3.531   0.530   6.789
  886SOL    HW1 3557   3.538   0.606   6.854
  886SOL    HW2 3558   3.609   0.530   6.727
  887SOL     OW 3559   4.907   1.676   4.797
  887SOL    HW1 3560   4.825   1.668   4.740
  887SOL    HW2 3561   4.898   1.756   4.857
  888SOL     OW 3562   6.599   6.690   2.865
  888SOL    HW1 3563   6.691   6.694   2.825
  888SOL    HW2 3564   6.549   6.773   2.843
  889SOL     OW 3565   0.505   4.031   7.019
  889SOL    HW1 3566   0.496   3.961   6.949
  889SOL    HW2 3567   0.595   4.024   0.043
  890SOL     OW 3568   2.531   5.190   4.068
  890SOL    HW1 3569   2.437   5.173   4.098
  890SOL    HW2 3570   2.532   5.267   4.004
  891SOL     OW 3571   4.704   5.867   1.580
  891SOL    HW1 3572   4.683   5.820   1.494
  891SOL    HW2 3573   4.749   5.804   1.643
  892SOL     OW 3574   2.796   4.460   0.681
  892SOL    HW1 3575   2.718   4.516   0.708
  892SOL    HW2 3576   2.816   4.394   0.753
  893SOL     OW 3577   2.026   6.334   2.399
  893SOL    HW1 3578   2.062   6.332   2.306
  893SOL    HW2 3579   2.049   6.249   2.446
  894SOL     OW 3580   0.605   4.149   1.135
  894SOL    HW1 3581   0.655   4.147   1.049
  894SOL    HW2 3582   0.528   4.212   1.127
  895SOL     OW 3583   0.502   5.815   4.184
  895SOL    HW1 3584   0.600   5.821   4.198
  895SOL    HW2 3585   0.468   5.900   4.144
  896SOL     OW 3586   0.095   0.171   6.353
  896SOL    HW1 3587   0.016   0.123   6.316
  896SOL    HW2 3588   0.084   0.183   6.451
  897SOL     OW 3589   5.004   0.722   0.015
  897SOL    HW1 3590   5.092   0.677   0.001
  897SOL    HW2 3591   4.990   0.791   6.964
  898SOL     OW 3592   4.193   6.494   3.275
  898SOL    HW1 3593   4.161   6.410   3.320
  898SOL    HW2 3594   4.167   6.573   3.330
  899SOL     OW 3595   0.171   4.939   0.374
  899SOL    HW1 3596   0.097   4.878   0.346
  899SOL    HW2 3597   0.174   4.946   0.473
  900SOL     OW 3598   5.257   5.384   0.654
  900SOL    HW1 3599   5.287   5.306   0.709
  900SOL    HW2 3600   5.283   5.469   0.700
  901SOL     OW 3601   1.646   0.761   2.524
  901SOL    HW1 3602   1.607   0.836   2.471
  901SOL    HW2 3603   1.573   0.716   2.576
  902SOL     OW 3604   5.983   3.557   1.851
  902SOL    HW1 3605   5.914   3.520   1.789
  902SOL    HW2 3606   5.938   3.591   1.934
  903SOL     OW 3607   0.158   2.072   0.797
  903SOL    HW1 3608   0.059   2.079   0.785
  903SOL    HW2 3609   0.203   2.141   0.740
  904SOL     OW 3610   3.203   1.356   1.727
  904SOL    HW1 3611   3.285   1.405   1.756
  904SOL    HW2 3612   3.158   1.407   1.654
  905SOL     OW 3613   6.100   3.083   6.285
  905SOL    HW1 3614   6.159   3.006   6.310
  905SOL    HW2 3615   6.007   3.049   6.272
  906SOL     OW 3616   5.938   3.526   6.578
  906SOL    HW1 3617   5.842   3.499   6.574
  906SOL    HW2 3618   5.991   3.466   6.518
  907SOL     OW 3619   5.030   4.073   6.730
  907SOL    HW1 3620   4.990   4.160   6.760
  907SOL    HW2 3621   4.977   3.997   6.769
  908SOL     OW 3622   1.159   4.475   2.630
  908SOL    HW1 3623   1.169   4.464   2.532
  908SOL    HW2 3624   1.231   4.535   2.665
  909SOL     OW 3625   5.344   5.352   6.247
  909SOL    HW1 3626   5.365   5.363   6.150
  909SOL    HW2 3627   5.338   5.442   6.290
  910SOL     OW 3628   2.490   4.332   0.993
  910SOL    HW1 3629   2.432   4.273   1.050
  910SOL    HW2 3630   2.536   4.277   0.923
  911SOL     OW 3631   0.765   5.239   6.519
  911SOL    HW1 3632   0.741   5.174   6.591
  911SOL    HW2 3633   0.740   5.201   6.430
  912SOL     OW 3634   5.115   2.007   3.465
  912SOL    HW1 3635   5.017   2.018   3.480
  912SOL    HW2 3636   5.146   1.924   3.510
  913SOL     OW 3637   5.416   6.789   2.759
  913SOL    HW1 3638   5.447   6.695   2.741
  913SOL    HW2 3639   5.408   6.803   2.858
  914SOL     OW 3640   2.978   0.231   6.391
  914SOL    HW1 3641   2.920   0.149   6.389
  914SOL    HW2 3642   3.021   0.244   6.302
  915SOL     OW 3643   5.066   5.646   0.960
  915SOL    HW1 3644   5.113   5.735   0.951
  915SOL    HW2 3645   4.973   5.654   0.924
  916SOL     OW 3646   1.751   2.417   2.716
  916SOL    HW1 3647   1.818   2.485   2.747
  916SOL    HW2 3648   1.756   2.409   2.616
  917SOL     OW 3649   6.743   6.109   0.765
  917SOL    HW1 3650   6.806   6.110   0.843
  917SOL    HW2 3651   6.688   6.193   0.766
  918SOL     OW 3652   2.680   5.720   0.309
  918SOL    HW1 3653   2.601   5.660   0.323
  918SOL    HW2 3654   2.651   5.802   0.261
  919SOL     OW 3655   6.081   1.986   4.692
  919SOL    HW1 3656   6.141   2.039   4.752
  919SOL    HW2 3657   6.013   2.046   4.651
  920SOL     OW 3658   2.882   5.188   2.404
  920SOL    HW1 3659   2.954   5.255   2.385
  920SOL    HW2 3660   2.923   5.101   2.430
  921SOL     OW 3661   4.932   5.223   5.254
  921SOL    HW1 3662   4.928   5.195   5.158
  921SOL    HW2 3663   4.873   5.301   5.269
  922SOL     OW 3664   3.867   2.996   3.616
  922SOL    HW1 3665   3.923   2.942   3.552
  922SOL    HW2 3666   3.771   2.967   3.609
  923SOL     OW 3667   2.268   3.513   5.385
  923SOL    HW1 3668   2.271   3.598   5.333
  923SOL    HW2 3669   2.349   3.458   5.364
  924SOL     OW 3670   0.203   3.582   2.340
  924SOL    HW1 3671   0.261   3.509   2.304
  924SOL    HW2 3672   0.168   3.555   2.430
  925SOL     OW 3673   0.220   1.765   0.126
  925SOL    HW1 3674   0.162   1.687   0.152
  925SOL    HW2 3675   0.286   1.735   0.057
  926SOL     OW 3676   1.657   1.676   2.141
  926SOL    HW1 3677   1.585   1.733   2.180
  926SOL    HW2 3678   1.647   1.583   2.176
  927SOL     OW 3679   6.253   3.715   4.305
  927SOL    HW1 3680   6.247   3.747   4.400
  927SOL    HW2 3681   6.179   3.754   4.251
  928SOL     OW 3682   3.465   4.630   6.171
  928SOL    HW1 3683   3.503   4.651   6.261
  928SOL    HW2 3684   3.517   4.679   6.100
  929SOL     OW 3685   0.409   1.605   4.965
  929SOL    HW1 3686   0.448   1.625   5.055
  929SOL    HW2 3687   0.317   1.643   4.959
  930SOL     OW 3688   5.178   4.988   5.419
  930SOL    HW1 3689   5.092   5.037   5.434
  930SOL    HW2 3690   5.243   5.048   5.374
  931SOL     OW 3691   6.483   1.746   2.894
  931SOL    HW1 3692   6.464   1.718   2.800
  931SOL    HW2 3693   6.525   1.669   2.944
  932SOL     OW 3694   3.933   0.537   3.527
  932SOL    HW1 3695   4.020   0.519   3.481
  932SOL    HW2 3696   3.869   0.463   3.507
  933SOL     OW 3697   1.219   5.548   2.016
  933SOL    HW1 3698   1.277   5.493   2.076
  933SOL    HW2 3699   1.252   5.642   2.015
  934SOL     OW 3700   1.784   3.714   0.137
  934SOL    HW1 3701   1.717   3.765   0.191
  934SOL    HW2 3702   1.744   3.691   0.048
  935SOL     OW 3703   6.086   2.920   4.344
  935SOL    HW1 3704   6.051   2.921   4.438
  935SOL    HW2 3705   6.027   2.976   4.286
  936SOL     OW 3706   1.521   0.075   6.166
  936SOL    HW1 3707   1.589   0.147   6.155
  936SOL    HW2 3708   1.470   0.063   6.081
  937SOL     OW 3709   3.480   2.063   6.037
  937SOL    HW1 3710   3.555   2.013   5.994
  937SOL    HW2 3711   3.516   2.122   6.110
  938SOL     OW 3712   6.210   5.641   4.561
  938SOL    HW1 3713   6.154   5.714   4.600
  938SOL    HW2 3714   6.218   5.653   4.462
  939SOL     OW 3715   0.051   6.561   6.036
  939SOL    HW1 3716   0.151   6.567   6.031
  939SOL    HW2 3717   0.024   6.517   6.122
  940SOL     OW 3718   2.300   4.927   6.886
  940SOL    HW1 3719   2.262   4.942   6.977
  940SOL    HW2 3720   2.230   4.948   6.817
  941SOL     OW 3721   3.789   6.953   0.554
  941SOL    HW1 3722   3.788   6.909   0.464
  941SOL    HW2 3723   3.710   7.014   0.562
  942SOL     OW 3724   0.225   5.206   0.325
  942SOL    HW1 3725   0.228   5.246   0.417
  942SOL    HW2 3726   0.212   5.108   0.332
  943SOL     OW 3727   3.511   5.882   1.843
  943SOL    HW1 3728   3.557   5.793   1.856
  943SOL    HW2 3729   3.510   5.905   1.746
  944SOL     OW 3730   6.294   6.769   4.570
  944SOL    HW1 3731   6.242   6.735   4.493
  944SOL    HW2 3732   6.382   6.722   4.575
  945SOL     OW 3733   0.577   5.201   0.285
  945SOL    HW1 3734   0.550   5.250   0.202
  945SOL    HW2 3735   0.496   5.185   0.342
  946SOL     OW 3736   5.431   2.485   4.423
  946SOL    HW1 3737   5.411   2.559   4.358
  946SOL    HW2 3738   5.509   2.433   4.390
  947SOL     OW 3739   3.687   4.136   3.880
  947SOL    HW1 3740   3.620   4.147   3.953
  947SOL    HW2 3741   3.642   4.147   3.791
  948SOL     OW 3742   3.546   0.527   2.910
  948SOL    HW1 3743   3.513   0.437   2.882
  948SOL    HW2 3744   3.645   0.530   2.903
  949SOL     OW 3745   3.522   6.878   5.843
  949SOL    HW1 3746   3.520   6.941   5.921
  949SOL    HW2 3747   3.610   6.885   5.797
  950SOL     OW 3748   6.731   6.925   2.272
  950SOL    HW1 3749   6.768   7.017   2.283
  950SOL    HW2 3750   6.637   6.922   2.306
  951SOL     OW 3751   1.746   6.815   3.217
  951SOL    HW1 3752   1.764   6.748   3.145
  951SOL    HW2 3753   1.804   6.796   3.296
  952SOL     OW 3754   3.198   0.807   3.031
  952SOL    HW1 3755   3.228   0.891   3.075
  952SOL    HW2 3756   3.144   0.830   2.949
  953SOL     OW 3757   6.959   4.408   5.359
  953SOL    HW1 3758   0.016   4.344   5.363
  953SOL    HW2 3759   6.971   4.471   5.283
  954SOL     OW 3760   4.631   6.029   2.538
  954SOL    HW1 3761   4.609   6.048   2.633
  954SOL    HW2 3762   4.618   6.113   2.484
  955SOL     OW 3763   2.209   4.829   0.413
  955SOL    HW1 3764   2.139   4.769   0.453
  955SOL    HW2 3765   2.299   4.786   0.422
  956SOL     OW 3766   4.842   0.679   1.000
  956SOL    HW1 3767   4.884   0.588   1.006
  956SOL    HW2 3768   4.754   0.672   0.953
  957SOL     OW 3769   5.871   1.263   3.210
  957SOL    HW1 3770   5.808   1.192   3.177
  957SOL    HW2 3771   5.885   1.252   3.308
  958SOL     OW 3772   5.391   0.004   1.354
  958SOL    HW1 3773   5.305   0.022   1.403
  958SOL    HW2 3774   5.413   0.081   1.295
  959SOL     OW 3775   4.532   6.854   3.619
  959SOL    HW1 3776   4.620   6.829   3.577
  959SOL    HW2 3777   4.546   6.871   3.716
  960SOL     OW 3778   1.735   6.725   6.366
  960SOL    HW1 3779   1.742   6.628   6.346
  960SOL    HW2 3780   1.821   6.758   6.403
  961SOL     OW 3781   3.397   0.046   3.297
  961SOL    HW1 3782   3.388   0.141   3.329
  961SOL    HW2 3783   3.361   0.039   3.204
  962SOL     OW 3784   6.578   0.792   4.695
  962SOL    HW1 3785   6.510   0.829   4.758
  962SOL    HW2 3786   6.557   0.822   4.602
  963SOL     OW 3787   5.244   2.790   1.126
  963SOL    HW1 3788   5.147   2.768   1.135
  963SOL    HW2 3789   5.266   2.802   1.029
  964SOL     OW 3790   4.590   5.116   5.119
  964SOL    HW1 3791   4.688   5.095   5.119
  964SOL    HW2 3792   4.576   5.208   5.084
  965SOL     OW 3793   6.039   2.265   3.328
  965SOL    HW1 3794   6.023   2.260   3.426
  965SOL    HW2 3795   6.048   2.173   3.291
  966SOL     OW 3796   4.614   1.183   4.439
  966SOL    HW1 3797   4.665   1.200   4.354
  966SOL    HW2 3798   4.582   1.270   4.477
  967SOL     OW 3799   4.314   4.013   6.565
  967SOL    HW1 3800   4.320   4.042   6.470
  967SOL    HW2 3801   4.405   3.990   6.599
  968SOL     OW 3802   4.166   0.883   1.459
  968SOL    HW1 3803   4.071   0.907   1.480
  968SOL    HW2 3804   4.227   0.938   1.517
  969SOL     OW 3805   3.067   4.218   6.328
  969SOL    HW1 3806   2.987   4.251   6.278
  969SOL    HW2 3807   3.122   4.296   6.358
  970SOL     OW 3808   5.271   0.181   6.140
  970SOL    HW1 3809   5.370   0.175   6.152
  970SOL    HW2 3810   5.249   0.171   6.043
  971SOL     OW 3811   5.692   3.380   3.746
  971SOL    HW1 3812   5.637   3.308   3.703
  971SOL    HW2 3813   5.763   3.338   3.803
  972SOL     OW 3814   6.972   2.769   0.180
  972SOL    HW1 3815   6.969   2.805   0.087
  972SOL    HW2 3816   7.003   2.673   0.178
  973SOL     OW 3817   7.016   3.637   5.990
  973SOL    HW1 3818   0.078   3.695   5.996
  973SOL    HW2 3819   0.022   3.546   5.960
  974SOL     OW 3820   0.240   4.886   2.557
  974SOL    HW1 3821   0.236   4.985   2.549
  974SOL    HW2 3822   0.176   4.856   2.628
  975SOL     OW 3823   3.216   0.672   2.147
  975SOL    HW1 3824   3.228   0.702   2.052
  975SOL    HW2 3825   3.288   0.606   2.170
  976SOL     OW 3826   0.001   3.491   3.347
  976SOL    HW1 3827   6.958   3.433   3.397
  976SOL    HW2 3828   6.994   3.496   3.251
  977SOL     OW 3829   6.460   0.640   2.283
  977SOL    HW1 3830   6.511   0.669   2.363
  977SOL    HW2 3831   6.387   0.706   2.264
  978SOL     OW 3832   5.482   2.840   2.001
  978SOL    HW1 3833   5.415   2.771   1.974
  978SOL    HW2 3834   5.464   2.926   1.953
  979SOL     OW 3835   0.446   4.511   6.943
  979SOL    HW1 3836   0.433   4.525   0.021
  979SOL    HW2 3837   0.357   4.492   6.900
  980SOL     OW 3838   3.753   0.833   4.836
  980SOL    HW1 3839   3.851   0.822   4.852
  980SOL    HW2 3840   3.736   0.858   4.741
  981SOL     OW 3841   0.145   0.085   5.676
  981SOL    HW1 3842   0.075   0.016   5.696
  981SOL    HW2 3843   0.108   0.152   5.612
  982SOL     OW 3844   6.349   1.401   6.011
  982SOL    HW1 3845   6.316   1.352   5.930
  982SOL    HW2 3846   6.274   1.412   6.076
  983SOL     OW 3847   0.424   4.610   3.899
  983SOL    HW1 3848   0.345   4.670   3.885
  983SOL    HW2 3849   0.495   4.659   3.949
  984SOL     OW 3850   0.643   3.460   3.673
  984SOL    HW1 3851   0.546   3.483   3.663
  984SOL    HW2 3852   0.651   3.365   3.704
  985SOL     OW 3853   6.522   5.141   5.107
  985SOL    HW1 3854   6.568   5.129   5.195
  985SOL    HW2 3855   6.502   5.238   5.093
  986SOL     OW 3856   4.880   5.290   1.797
  986SOL    HW1 3857   4.791   5.330   1.819
  986SOL    HW2 3858   4.911   5.325   1.709
  987SOL     OW 3859   4.780   4.060   4.369
  987SOL    HW1 3860   4.816   3.975   4.407
  987SOL    HW2 3861   4.777   4.054   4.270
  988SOL     OW 3862   2.561   4.617   2.070
  988SOL    HW1 3863   2.563   4.584   2.165
  988SOL    HW2 3864   2.651   4.605   2.030
  989SOL     OW 3865   1.791   2.353   0.693
  989SOL    HW1 3866   1.767   2.415   0.768
  989SOL    HW2 3867   1.886   2.368   0.667
  990SOL     OW 3868   3.748   0.107   4.593
  990SOL    HW1 3869   3.778   0.155   4.511
  990SOL    HW2 3870   3.694   0.027   4.567
  991SOL     OW 3871   6.808   5.623   4.090
  991SOL    HW1 3872   6.833   5.714   4.122
  991SOL    HW2 3873   6.758   5.575   4.162
  992SOL     OW 3874   0.135   2.266   0.098
  992SOL    HW1 3875   0.053   2.251   0.043
  992SOL    HW2 3876   0.174   2.178   0.123
  993SOL     OW 3877   1.586   5.030   0.060
  993SOL    HW1 3878   1.640   4.953   0.095
  993SOL    HW2 3879   1.489   5.012   0.076
  994SOL     OW 3880   3.466   5.978   0.382
  994SOL    HW1 3881   3.466   6.057   0.443
  994SOL    HW2 3882   3.557   5.937   0.381
  995SOL     OW 3883   6.572   4.338   6.093
  995SOL    HW1 3884   6.533   4.282   6.021
  995SOL    HW2 3885   6.521   4.323   6.178
  996SOL     OW 3886   3.796   5.852   4.055
  996SOL    HW1 3887   3.819   5.931   4.112
  996SOL    HW2 3888   3.764   5.883   3.966
  997SOL     OW 3889   1.351   6.720   3.816
  997SOL    HW1 3890   1.382   6.635   3.774
  997SOL    HW2 3891   1.301   6.774   3.749
  998SOL     OW 3892   4.714   6.909   6.227
  998SOL    HW1 3893   4.616   6.911   6.242
  998SOL    HW2 3894   4.757   6.988   6.272
  999SOL     OW 3895   4.884   3.374   2.465
  999SOL    HW1 3896   4.836   3.342   2.547
  999SOL    HW2 3897   4.903   3.297   2.404
 1000SOL     OW 3898   5.269   2.415   1.838
 1000SOL    HW1 3899   5.210   2.442   1.914
 1000SOL    HW2 3900   5.315   2.329   1.861
 1001SOL     OW 3901   2.875   0.035   2.427
 1001SOL    HW1 3902   2.863   0.053   2.329
 1001SOL    HW2 3903   2.888   0.122   2.475
 1002SOL     OW 3904   5.137   2.481   1.353
 1002SOL    HW1 3905   5.212   2.468   1.288
 1002SOL    HW2 3906   5.125   2.578   1.371
 1003SOL     OW 3907   0.896   0.060   3.237
 1003SOL    HW1 3908   0.874   0.032   3.331
 1003SOL    HW2 3909   0.994   0.046   3.221
 1004SOL     OW 3910   5.321   1.269   4.119
 1004SOL    HW1 3911   5.293   1.330   4.045
 1004SOL    HW2 3912   5.341   1.323   4.201
 1005SOL     OW 3913   1.215   4.934   2.058
 1005SOL    HW1 3914   1.282   4.902   1.991
 1005SOL    HW2 3915   1.187   5.028   2.036
 1006SOL     OW 3916   2.427   3.959   1.365
 1006SOL    HW1 3917   2.350   3.983   1.425
 1006SOL    HW2 3918   2.496   3.910   1.417
 1007SOL     OW 3919   4.676   0.955   6.345
 1007SOL    HW1 3920   4.609   0.901   6.294
 1007SOL    HW2 3921   4.664   0.939   6.443
 1008SOL     OW 3922   0.782   4.800   5.289
 1008SOL    HW1 3923   0.698   4.799   5.235
 1008SOL    HW2 3924   0.824   4.709   5.286
 1009SOL     OW 3925   6.862   5.652   5.766
 1009SOL    HW1 3926   6.951   5.624   5.802
 1009SOL    HW2 3927   6.801   5.573   5.761
 1010SOL     OW 3928   3.139   3.434   0.483
 1010SOL    HW1 3929   3.142   3.343   0.441
 1010SOL    HW2 3930   3.047   3.473   0.472
 1011SOL     OW 3931   0.041   5.632   2.706
 1011SOL    HW1 3932   0.081   5.712   2.662
 1011SOL    HW2 3933   6.990   5.662   2.770
 1012SOL     OW 3934   5.180   6.550   3.068
 1012SOL    HW1 3935   5.169   6.645   3.037
 1012SOL    HW2 3936   5.270   6.539   3.111
 1013SOL     OW 3937   6.701   6.949   6.450
 1013SOL    HW1 3938   6.799   6.936   6.467
 1013SOL    HW2 3939   6.656   6.980   6.534
 1014SOL     OW 3940   1.085   4.413   5.200
 1014SOL    HW1 3941   1.077   4.509   5.227
 1014SOL    HW2 3942   1.017   4.359   5.250
 1015SOL     OW 3943   2.635   6.479   0.134
 1015SOL    HW1 3944   2.672   6.436   0.217
 1015SOL    HW2 3945   2.605   6.572   0.155
 1016SOL     OW 3946   6.352   4.032   1.260
 1016SOL    HW1 3947   6.368   3.956   1.197
 1016SOL    HW2 3948   6.420   4.028   1.334
 1017SOL     OW 3949   2.269   1.724   1.886
 1017SOL    HW1 3950   2.242   1.729   1.789
 1017SOL    HW2 3951   2.297   1.631   1.908
 1018SOL     OW 3952   6.333   6.426   5.093
 1018SOL    HW1 3953   6.291   6.351   5.041
 1018SOL    HW2 3954   6.397   6.388   5.160
 1019SOL     OW 3955   6.596   3.999   1.018
 1019SOL    HW1 3956   6.606   4.076   1.081
 1019SOL    HW2 3957   6.636   3.917   1.060
 1020SOL     OW 3958   5.249   1.600   0.773
 1020SOL    HW1 3959   5.339   1.557   0.781
 1020SOL    HW2 3960   5.236   1.666   0.847
 1021SOL     OW 3961   0.972   6.691   0.947
 1021SOL    HW1 3962   1.035   6.647   1.012
 1021SOL    HW2 3963   0.977   6.790   0.958
 1022SOL     OW 3964   2.556   5.778   6.421
 1022SOL    HW1 3965   2.506   5.865   6.430
 1022SOL    HW2 3966   2.637   5.781   6.479
 1023SOL     OW 3967   0.415   0.996   3.232
 1023SOL    HW1 3968   0.357   0.931   3.282
 1023SOL    HW2 3969   0.496   0.948   3.197
 1024SOL     OW 3970   1.896   1.858   4.332
 1024SOL    HW1 3971   1.832   1.908   4.275
 1024SOL    HW2 3972   1.848   1.821   4.412
 1025SOL     OW 3973   4.838   4.276   0.447
 1025SOL    HW1 3974   4.930   4.239   0.459
 1025SOL    HW2 3975   4.779   4.247   0.523
 1026SOL     OW 3976   2.994   2.718   1.635
 1026SOL    HW1 3977   3.025   2.629   1.603
 1026SOL    HW2 3978   3.025   2.789   1.571
 1027SOL     OW 3979   0.661   6.700   0.273
 1027SOL    HW1 3980   0.613   6.737   0.352
 1027SOL    HW2 3981   0.700   6.611   0.296
 1028SOL     OW 3982   1.185   6.068   2.617
 1028SOL    HW1 3983   1.176   5.969   2.614
 1028SOL    HW2 3984   1.193   6.098   2.712
 1029SOL     OW 3985   0.977   1.075   5.824
 1029SOL    HW1 3986   1.072   1.105   5.832
 1029SOL    HW2 3987   0.926   1.105   5.905
 1030SOL     OW 3988   3.937   3.285   1.043
 1030SOL    HW1 3989   3.915   3.353   1.112
 1030SOL    HW2 3990   3.889   3.307   0.958
 1031SOL     OW 3991   3.819   3.035   1.077
 1031SOL    HW1 3992   3.842   3.005   1.169
 1031SOL    HW2 3993   3.861   3.124   1.060
 1032SOL     OW 3994   2.183   1.427   0.131
 1032SOL    HW1 3995   2.228   1.469   0.053
 1032SOL    HW2 3996   2.084   1.436   0.122
 1033SOL     OW 3997   0.249   6.722   2.646
 1033SOL    HW1 3998   0.251   6.747   2.549
 1033SOL    HW2 3999   0.304   6.640   2.661
 1034SOL     OW 4000   2.989   0.738   4.615
 1034SOL    HW1 4001   2.916   0.800   4.584
 1034SOL    HW2 4002   3.054   0.789   4.672
 1035SOL     OW 4003   1.511   1.495   0.097
 1035SOL    HW1 4004   1.439   1.488   0.029
 1035SOL    HW2 4005   1.600   1.491   0.052
 1036SOL     OW 4006   4.808   1.125   1.452
 1036SOL    HW1 4007   4.849   1.203   1.499
 1036SOL    HW2 4008   4.785   1.150   1.358
 1037SOL     OW 4009   1.672   2.994   1.654
 1037SOL    HW1 4010   1.750   2.945   1.694
 1037SOL    HW2 4011   1.704   3.075   1.606
 1038SOL     OW 4012   2.606   5.984   0.014
 1038SOL    HW1 4013   2.604   6.083   0.010
 1038SOL    HW2 4014   2.696   5.950   7.008
 1039SOL     OW 4015   3.605   3.408   2.741
 1039SOL    HW1 4016   3.666   3.337   2.773
 1039SOL    HW2 4017   3.511   3.374   2.742
 1040SOL     OW 4018   3.516   2.110   3.407
 1040SOL    HW1 4019   3.554   2.152   3.325
 1040SOL    HW2 4020   3.586   2.107   3.479
 1041SOL     OW 4021   6.126   5.561   6.558
 1041SOL    HW1 4022   6.167   5.506   6.485
 1041SOL    HW2 4023   6.098   5.649   6.520
 1042SOL     OW 4024   5.098   4.411   3.025
 1042SOL    HW1 4025   5.121   4.430   2.930
 1042SOL    HW2 4026   5.138   4.324   3.053
 1043SOL     OW 4027   2.788   2.301   3.626
 1043SOL    HW1 4028   2.880   2.265   3.637
 1043SOL    HW2 4029   2.721   2.230   3.649
 1044SOL     OW 4030   6.120   4.550   1.685
 1044SOL    HW1 4031   6.020   4.542   1.678
 1044SOL    HW2 4032   6.150   4.518   1.774
 1045SOL     OW 4033   2.138   0.481   1.902
 1045SOL    HW1 4034   2.057   0.461   1.958
 1045SOL    HW2 4035   2.141   0.418   1.825
 1046SOL     OW 4036   3.194   1.971   1.324
 1046SOL    HW1 4037   3.131   2.034   1.370
 1046SOL    HW2 4038   3.142   1.893   1.289
 1047SOL     OW 4039   3.500   6.550   3.664
 1047SOL    HW1 4040   3.425   6.612   3.686
 1047SOL    HW2 4041   3.575   6.565   3.728
 1048SOL     OW 4042   1.092   6.307   2.620
 1048SOL    HW1 4043   1.125   6.310   2.714
 1048SOL    HW2 4044   1.100   6.214   2.584
 1049SOL     OW 4045   4.509   6.133   4.943
 1049SOL    HW1 4046   4.456   6.186   4.877
 1049SOL    HW2 4047   4.491   6.035   4.930
 1050SOL     OW 4048   2.879   6.145   3.949
 1050SOL    HW1 4049   2.816   6.219   3.923
 1050SOL    HW2 4050   2.941   6.126   3.873
 1051SOL     OW 4051   0.985   0.895   6.107
 1051SOL    HW1 4052   1.052   0.921   6.176
 1051SOL    HW2 4053   1.033   0.860   6.026
 1052SOL     OW 4054   3.516   0.973   0.136
 1052SOL    HW1 4055   3.615   0.971   0.148
 1052SOL    HW2 4056   3.481   1.063   0.163
 1053SOL     OW 4057   5.143   1.822   4.202
 1053SOL    HW1 4058   5.053   1.852   4.173
 1053SOL    HW2 4059   5.136   1.776   4.291
 1054SOL     OW 4060   3.766   4.981   6.131
 1054SOL    HW1 4061   3.797   5.042   6.059
 1054SOL    HW2 4062   3.845   4.951   6.186
 1055SOL     OW 4063   4.754   5.693   6.377
 1055SOL    HW1 4064   4.657   5.668   6.376
 1055SOL    HW2 4065   4.808   5.611   6.393
 1056SOL     OW 4066   2.906   4.018   0.223
 1056SOL    HW1 4067   2.926   4.100   0.276
 1056SOL    HW2 4068   2.819   3.980   0.252
 1057SOL     OW 4069   2.944   2.861   0.290
 1057SOL    HW1 4070   2.891   2.927   0.343
 1057SOL    HW2 4071   2.904   2.770   0.298
 1058SOL     OW 4072   2.922   2.169   2.249
 1058SOL    HW1 4073   2.945   2.252   2.299
 1058SOL    HW2 4074   2.919   2.188   2.151
 1059SOL     OW 4075   2.395   6.362   1.679
 1059SOL    HW1 4076   2.366   6.283   1.626
 1059SOL    HW2 4077   2.315   6.418   1.701
 1060SOL     OW 4078   6.336   0.333   6.049
 1060SOL    HW1 4079   6.350   0.431   6.063
 1060SOL    HW2 4080   6.304   0.317   5.956
 1061SOL     OW 4081   6.855   3.712   6.205
 1061SOL    HW1 4082   6.870   3.634   6.265
 1061SOL    HW2 4083   6.899   3.696   6.117
 1062SOL     OW 4084   3.550   5.894   4.397
 1062SOL    HW1 4085   3.534   5.989   4.423
 1062SOL    HW2 4086   3.543   5.886   4.297
 1063SOL     OW 4087   3.695   6.380   5.450
 1063SOL    HW1 4088   3.596   6.365   5.453
 1063SOL    HW2 4089   3.716   6.474   5.477
 1064SOL     OW 4090   1.902   3.587   0.368
 1064SOL    HW1 4091   1.885   3.635   0.454
 1064SOL    HW2 4092   1.875   3.644   0.291
 1065SOL     OW 4093   5.455   0.663   4.487
 1065SOL    HW1 4094   5.376   0.721   4.504
 1065SOL    HW2 4095   5.455   0.587   4.552
 1066SOL     OW 4096   5.212   6.668   1.296
 1066SOL    HW1 4097   5.293   6.684   1.353
 1066SOL    HW2 4098   5.150   6.606   1.345
 1067SOL     OW 4099   2.691   1.513   0.342
 1067SOL    HW1 4100   2.657   1.476   0.428
 1067SOL    HW2 4101   2.779   1.471   0.320
 1068SOL     OW 4102   6.809   2.777   1.610
 1068SOL    HW1 4103   6.782   2.769   1.514
 1068SOL    HW2 4104   6.796   2.689   1.656
 1069SOL     OW 4105   6.335   3.250   1.929
 1069SOL    HW1 4106   6.312   3.342   1.959
 1069SOL    HW2 4107   6.321   3.243   1.830
 1070SOL     OW 4108   1.072   7.014   2.278
 1070SOL    HW1 4109   1.064   6.919   2.249
 1070SOL    HW2 4110   0.981   0.032   2.295
 1071SOL     OW 4111   0.308   2.847   5.531
 1071SOL    HW1 4112   0.287   2.832   5.628
 1071SOL    HW2 4113   0.327   2.759   5.487
 1072SOL     OW 4114   1.455   1.842   2.279
 1072SOL    HW1 4115   1.385   1.859   2.210
 1072SOL    HW2 4116   1.416   1.855   2.371
 1073SOL     OW 4117   5.017   2.289   3.122
 1073SOL    HW1 4118   5.025   2.199   3.080
 1073SOL    HW2 4119   4.973   2.352   3.058
 1074SOL     OW 4120   2.883   4.826   1.671
 1074SOL    HW1 4121   2.975   4.797   1.698
 1074SOL    HW2 4122   2.823   4.827   1.751
 1075SOL     OW 4123   6.234   4.409   5.883
 1075SOL    HW1 4124   6.272   4.467   5.811
 1075SOL    HW2 4125   6.254   4.449   5.973
 1076SOL     OW 4126   1.641   4.672   4.841
 1076SOL    HW1 4127   1.701   4.742   4.881
 1076SOL    HW2 4128   1.644   4.589   4.897
 1077SOL     OW 4129   6.834   0.008   0.214
 1077SOL    HW1 4130   6.913   7.014   0.273
 1077SOL    HW2 4131   6.856   0.077   0.145
 1078SOL     OW 4132   6.311   0.004   4.670
 1078SOL    HW1 4133   6.408   0.026   4.686
 1078SOL    HW2 4134   6.305   6.938   4.619
 1079SOL     OW 4135   1.183   6.759   1.550
 1079SOL    HW1 4136   1.145   6.844   1.586
 1079SOL    HW2 4137   1.262   6.732   1.605
 1080SOL     OW 4138   3.717   5.972   6.677
 1080SOL    HW1 4139   3.731   6.070   6.694
 1080SOL    HW2 4140   3.783   5.919   6.732
 1081SOL     OW 4141   6.655   6.408   4.288
 1081SOL    HW1 4142   6.745   6.390   4.328
 1081SOL    HW2 4143   6.585   6.361   4.341
 1082SOL     OW 4144   4.392   6.747   6.907
 1082SOL    HW1 4145   4.420   6.820   6.969
 1082SOL    HW2 4146   4.339   6.678   6.957
 1083SOL     OW 4147   5.271   4.518   2.118
 1083SOL    HW1 4148   5.265   4.436   2.061
 1083SOL    HW2 4149   5.367   4.538   2.137
 1084SOL     OW 4150   6.389   0.664   5.318
 1084SOL    HW1 4151   6.483   0.656   5.352
 1084SOL    HW2 4152   6.385   0.632   5.224
 1085SOL     OW 4153   2.081   3.689   4.524
 1085SOL    HW1 4154   2.143   3.651   4.455
 1085SOL    HW2 4155   2.123   3.771   4.564
 1086SOL     OW 4156   5.984   5.418   0.800
 1086SOL    HW1 4157   5.925   5.354   0.849
 1086SOL    HW2 4158   5.992   5.502   0.853
 1087SOL     OW 4159   3.482   0.156   5.624
 1087SOL    HW1 4160   3.449   0.062   5.615
 1087SOL    HW2 4161   3.488   0.198   5.533
 1088SOL     OW 4162   6.495   5.023   3.358
 1088SOL    HW1 4163   6.538   5.108   3.389
 1088SOL    HW2 4164   6.398   5.038   3.344
 1089SOL     OW 4165   6.269   4.717   4.335
 1089SOL    HW1 4166   6.308   4.627   4.315
 1089SOL    HW2 4167   6.325   4.789   4.294
 1090SOL     OW 4168   5.162   1.944   5.427
 1090SOL    HW1 4169   5.227   1.873   5.455
 1090SOL    HW2 4170   5.159   1.950   5.328
 1091SOL     OW 4171   2.370   2.325   3.126
 1091SOL    HW1 4172   2.343   2.394   3.193
 1091SOL    HW2 4173   2.290   2.270   3.102
 1092SOL     OW 4174   6.994   5.622   0.608
 1092SOL    HW1 4175   6.904   5.620   0.566
 1092SOL    HW2 4176   0.005   5.717   0.615
 1093SOL     OW 4177   1.659   0.656   2.846
 1093SOL    HW1 4178   1.726   0.582   2.846
 1093SOL    HW2 4179   1.571   0.621   2.878
 1094SOL     OW 4180   0.599   0.271   3.342
 1094SOL    HW1 4181   0.601   0.183   3.294
 1094SOL    HW2 4182   0.570   0.343   3.279
 1095SOL     OW 4183   5.206   3.019   0.514
 1095SOL    HW1 4184   5.200   2.924   0.544
 1095SOL    HW2 4185   5.182   3.026   0.417
 1096SOL     OW 4186   2.514   6.014   1.801
 1096SOL    HW1 4187   2.484   5.974   1.715
 1096SOL    HW2 4188   2.434   6.049   1.851
 1097SOL     OW 4189   2.878   6.009   4.629
 1097SOL    HW1 4190   2.922   6.007   4.718
 1097SOL    HW2 4191   2.870   6.104   4.597
 1098SOL     OW 4192   6.041   4.194   0.559
 1098SOL    HW1 4193   6.064   4.241   0.644
 1098SOL    HW2 4194   6.048   4.095   0.572
 1099SOL     OW 4195   4.762   6.764   5.832
 1099SOL    HW1 4196   4.671   6.769   5.874
 1099SOL    HW2 4197   4.820   6.836   5.871
 1100SOL     OW 4198   4.095   1.542   4.429
 1100SOL    HW1 4199   4.092   1.546   4.529
 1100SOL    HW2 4200   4.002   1.550   4.393
 1101SOL     OW 4201   5.217   3.119   6.050
 1101SOL    HW1 4202   5.199   3.092   6.144
 1101SOL    HW2 4203   5.133   3.114   5.996
 1102SOL     OW 4204   2.646   0.699   2.850
 1102SOL    HW1 4205   2.634   0.617   2.906
 1102SOL    HW2 4206   2.557   0.742   2.833
 1103SOL     OW 4207   3.660   6.615   0.414
 1103SOL    HW1 4208   3.747   6.657   0.440
 1103SOL    HW2 4209   3.673   6.557   0.334
 1104SOL     OW 4210   0.840   2.938   3.866
 1104SOL    HW1 4211   0.912   3.002   3.838
 1104SOL    HW2 4212   0.835   2.935   3.965
 1105SOL     OW 4213   5.136   1.108   5.824
 1105SOL    HW1 4214   5.212   1.174   5.826
 1105SOL    HW2 4215   5.114   1.086   5.729
 1106SOL     OW 4216   6.827   1.528   0.540
 1106SOL    HW1 4217   6.893   1.586   0.588
 1106SOL    HW2 4218   6.784   1.581   0.466
 1107SOL     OW 4219   0.841   1.312   6.430
 1107SOL    HW1 4220   0.781   1.242   6.469
 1107SOL    HW2 4221   0.875   1.371   6.504
 1108SOL     OW 4222   2.365   0.437   3.923
 1108SOL    HW1 4223   2.266   0.426   3.934
 1108SOL    HW2 4224   2.402   0.355   3.880
 1109SOL     OW 4225   4.610   2.065   4.861
 1109SOL    HW1 4226   4.649   2.153   4.889
 1109SOL    HW2 4227   4.588   2.068   4.764
 1110SOL     OW 4228   2.518   0.613   2.149
 1110SOL    HW1 4229   2.533   0.573   2.059
 1110SOL    HW2 4230   2.528   0.712   2.144
 1111SOL     OW 4231   5.942   4.329   6.423
 1111SOL    HW1 4232   6.021   4.281   6.461
 1111SOL    HW2 4233   5.960   4.353   6.328
 1112SOL     OW 4234   5.660   0.837   2.176
 1112SOL    HW1 4235   5.693   0.778   2.103
 1112SOL    HW2 4236   5.682   0.797   2.264
 1113SOL     OW 4237   5.805   4.147   2.448
 1113SOL    HW1 4238   5.781   4.106   2.536
 1113SOL    HW2 4239   5.795   4.246   2.453
 1114SOL     OW 4240   3.494   3.892   4.631
 1114SOL    HW1 4241   3.502   3.907   4.730
 1114SOL    HW2 4242   3.539   3.967   4.582
 1115SOL     OW 4243   2.823   4.289   5.674
 1115SOL    HW1 4244   2.840   4.268   5.578
 1115SOL    HW2 4245   2.801   4.386   5.683
 1116SOL     OW 4246   4.612   6.632   6.762
 1116SOL    HW1 4247   4.624   6.688   6.680
 1116SOL    HW2 4248   4.541   6.673   6.820
 1117SOL     OW 4249   2.286   2.431   1.263
 1117SOL    HW1 4250   2.190   2.449   1.283
 1117SOL    HW2 4251   2.340   2.511   1.288
 1118SOL     OW 4252   4.195   5.760   0.183
 1118SOL    HW1 4253   4.197   5.852   0.145
 1118SOL    HW2 4254   4.112   5.713   0.152
 1119SOL     OW 4255   3.081   5.289   3.831
 1119SOL    HW1 4256   3.036   5.205   3.860
 1119SOL    HW2 4257   3.032   5.329   3.754
 1120SOL     OW 4258   6.734   3.802   1.133
 1120SOL    HW1 4259   6.822   3.848   1.146
 1120SOL    HW2 4260   6.742   3.735   1.059
 1121SOL     OW 4261   0.013   5.006   4.403
 1121SOL    HW1 4262   7.015   4.973   4.311
 1121SOL    HW2 4263   6.963   4.970   4.466
 1122SOL     OW 4264   5.582   2.293   2.095
 1122SOL    HW1 4265   5.681   2.280   2.102
 1122SOL    HW2 4266   5.559   2.323   2.003
 1123SOL     OW 4267   3.991   0.945   3.654
 1123SOL    HW1 4268   3.927   0.876   3.619
 1123SOL    HW2 4269   4.040   0.986   3.578
 1124SOL     OW 4270   1.968   2.169   4.481
 1124SOL    HW1 4271   2.001   2.176   4.575
 1124SOL    HW2 4272   2.044   2.147   4.420
 1125SOL     OW 4273   2.135   3.699   3.508
 1125SOL    HW1 4274   2.057   3.708   3.570
 1125SOL    HW2 4275   2.214   3.663   3.559
 1126SOL     OW 4276   4.085   4.852   4.829
 1126SOL    HW1 4277   4.106   4.755   4.818
 1126SOL    HW2 4278   4.080   4.873   4.927
 1127SOL     OW 4279   6.130   6.847   2.333
 1127SOL    HW1 4280   6.030   6.839   2.332
 1127SOL    HW2 4281   6.170   6.767   2.377
 1128SOL     OW 4282   4.735   1.318   4.192
 1128SOL    HW1 4283   4.684   1.365   4.120
 1128SOL    HW2 4284   4.745   1.221   4.169
 1129SOL     OW 4285   1.535   0.676   0.773
 1129SOL    HW1 4286   1.539   0.740   0.849
 1129SOL    HW2 4287   1.441   0.670   0.738
 1130SOL     OW 4288   2.116   4.594   1.919
 1130SOL    HW1 4289   2.207   4.634   1.905
 1130SOL    HW2 4290   2.113   4.504   1.876
 1131SOL     OW 4291   1.391   5.564   3.999
 1131SOL    HW1 4292   1.463   5.606   4.053
 1131SOL    HW2 4293   1.319   5.531   4.060
 1132SOL     OW 4294   2.390   1.345   2.309
 1132SOL    HW1 4295   2.372   1.329   2.406
 1132SOL    HW2 4296   2.424   1.438   2.296
 1133SOL     OW 4297   0.904   6.874   6.186
 1133SOL    HW1 4298   0.861   6.956   6.148
 1133SOL    HW2 4299   1.003   6.881   6.173
 1134SOL     OW 4300   3.337   6.797   1.403
 1134SOL    HW1 4301   3.299   6.720   1.453
 1134SOL    HW2 4302   3.348   6.875   1.464
 1135SOL     OW 4303   1.984   5.793   3.467
 1135SOL    HW1 4304   2.020   5.814   3.558
 1135SOL    HW2 4305   2.036   5.717   3.428
 1136SOL     OW 4306   1.717   5.158   2.018
 1136SOL    HW1 4307   1.662   5.076   2.033
 1136SOL    HW2 4308   1.782   5.169   2.094
 1137SOL     OW 4309   1.052   5.298   5.035
 1137SOL    HW1 4310   1.034   5.259   5.125
 1137SOL    HW2 4311   1.108   5.235   4.982
 1138SOL     OW 4312   1.998   3.453   4.663
 1138SOL    HW1 4313   1.955   3.505   4.737
 1138SOL    HW2 4314   2.056   3.514   4.609
 1139SOL     OW 4315   2.574   5.587   5.311
 1139SOL    HW1 4316   2.572   5.523   5.235
 1139SOL    HW2 4317   2.481   5.598   5.348
 1140SOL     OW 4318   1.983   2.252   1.087
 1140SOL    HW1 4319   1.951   2.289   0.999
 1140SOL    HW2 4320   2.019   2.326   1.143
 1141SOL     OW 4321   6.987   4.838   6.265
 1141SOL    HW1 4322   6.976   4.796   6.174
 1141SOL    HW2 4323   0.059   4.875   6.272
 1142SOL     OW 4324   1.771   5.938   2.000
 1142SOL    HW1 4325   1.829   5.858   2.010
 1142SOL    HW2 4326   1.695   5.917   1.938
 1143SOL     OW 4327   0.716   3.950   1.690
 1143SOL    HW1 4328   0.789   4.011   1.720
 1143SOL    HW2 4329   0.757   3.869   1.646
 1144SOL     OW 4330   5.691   4.538   0.539
 1144SOL    HW1 4331   5.657   4.624   0.577
 1144SOL    HW2 4332   5.747   4.558   0.459
 1145SOL     OW 4333   5.970   6.873   0.823
 1145SOL    HW1 4334   5.916   6.956   0.805
 1145SOL    HW2 4335   6.062   6.899   0.853
 1146SOL     OW 4336   0.759   1.351   1.226
 1146SOL    HW1 4337   0.668   1.386   1.249
 1146SOL    HW2 4338   0.752   1.256   1.195
 1147SOL     OW 4339   2.508   6.179   1.319
 1147SOL    HW1 4340   2.481   6.249   1.253
 1147SOL    HW2 4341   2.428   6.145   1.367
 1148SOL     OW 4342   4.101   5.861   3.199
 1148SOL    HW1 4343   4.095   5.947   3.250
 1148SOL    HW2 4344   4.009   5.824   3.186
 1149SOL     OW 4345   4.372   3.308   1.484
 1149SOL    HW1 4346   4.329   3.352   1.563
 1149SOL    HW2 4347   4.465   3.281   1.509
 1150SOL     OW 4348   1.580   3.693   0.466
 1150SOL    HW1 4349   1.601   3.744   0.549
 1150SOL    HW2 4350   1.585   3.595   0.485
 1151SOL     OW 4351   6.127   5.469   4.154
 1151SOL    HW1 4352   6.167   5.520   4.230
 1151SOL    HW2 4353   6.164   5.503   4.068
 1152SOL     OW 4354   3.628   6.090   6.295
 1152SOL    HW1 4355   3.689   6.162   6.329
 1152SOL    HW2 4356   3.571   6.056   6.370
 1153SOL     OW 4357   5.921   0.159   1.361
 1153SOL    HW1 4358   5.950   0.112   1.278
 1153SOL    HW2 4359   5.987   0.140   1.434
 1154SOL     OW 4360   1.926   2.803   1.024
 1154SOL    HW1 4361   1.842   2.830   1.071
 1154SOL    HW2 4362   2.005   2.824   1.082
 1155SOL     OW 4363   2.773   6.776   4.485
 1155SOL    HW1 4364   2.702   6.720   4.441
 1155SOL    HW2 4365   2.861   6.760   4.440
 1156SOL     OW 4366   2.719   1.885   3.641
 1156SOL    HW1 4367   2.678   1.797   3.666
 1156SOL    HW2 4368   2.790   1.870   3.572
 1157SOL     OW 4369   3.447   0.825   6.947
 1157SOL    HW1 4370   3.490   0.875   0.002
 1157SOL    HW2 4371   3.353   0.800   6.973
 1158SOL     OW 4372   5.450   4.578   3.170
 1158SOL    HW1 4373   5.481   4.582   3.075
 1158SOL    HW2 4374   5.372   4.640   3.182
 1159SOL     OW 4375   6.387   5.098   0.917
 1159SOL    HW1 4376   6.406   5.039   0.995
 1159SOL    HW2 4377   6.300   5.145   0.929
 1160SOL     OW 4378   5.644   1.642   0.110
 1160SOL    HW1 4379   5.548   1.666   0.117
 1160SOL    HW2 4380   5.677   1.666   0.018
 1161SOL     OW 4381   0.012   5.316   0.912
 1161SOL    HW1 4382   7.016   5.394   0.851
 1161SOL    HW2 4383   6.964   5.245   0.893
 1162SOL     OW 4384   2.881   2.254   4.805
 1162SOL    HW1 4385   2.966   2.290   4.842
 1162SOL    HW2 4386   2.883   2.154   4.808
 1163SOL     OW 4387   5.714   3.059   1.832
 1163SOL    HW1 4388   5.634   3.021   1.785
 1163SOL    HW2 4389   5.744   2.996   1.904
 1164SOL     OW 4390   4.141   2.234   5.560
 1164SOL    HW1 4391   4.121   2.245   5.463
 1164SOL    HW2 4392   4.207   2.160   5.572
 1165SOL     OW 4393   3.797   6.324   3.716
 1165SOL    HW1 4394   3.774   6.410   3.760
 1165SOL    HW2 4395   3.716   6.287   3.671
 1166SOL     OW 4396   3.217   4.509   6.116
 1166SOL    HW1 4397   3.306   4.539   6.150
 1166SOL    HW2 4398   3.150   4.583   6.129
 1167SOL     OW 4399   5.091   4.669   2.453
 1167SOL    HW1 4400   5.119   4.705   2.364
 1167SOL    HW2 4401   5.065   4.573   2.443
 1168SOL     OW 4402   6.335   0.620   3.071
 1168SOL    HW1 4403   6.309   0.543   3.012
 1168SOL    HW2 4404   6.402   0.677   3.022
 1169SOL     OW 4405   5.001   1.007   5.607
 1169SOL    HW1 4406   4.934   1.068   5.564
 1169SOL    HW2 4407   5.022   0.932   5.545
 1170SOL     OW 4408   4.891   6.244   3.566
 1170SOL    HW1 4409   4.939   6.212   3.648
 1170SOL    HW2 4410   4.871   6.166   3.506
 1171SOL     OW 4411   0.872   5.913   0.894
 1171SOL    HW1 4412   0.928   5.994   0.876
 1171SOL    HW2 4413   0.911   5.834   0.845
 1172SOL     OW 4414   6.772   3.580   6.691
 1172SOL    HW1 4415   6.703   3.626   6.747
 1172SOL    HW2 4416   6.863   3.605   6.725
 1173SOL     OW 4417   3.689   1.582   0.488
 1173SOL    HW1 4418   3.786   1.571   0.468
 1173SOL    HW2 4419   3.656   1.667   0.447
 1174SOL     OW 4420   2.614   3.738   0.406
 1174SOL    HW1 4421   2.546   3.690   0.461
 1174SOL    HW2 4422   2.594   3.726   0.309
 1175SOL     OW 4423   3.436   2.929   4.201
 1175SOL    HW1 4424   3.448   2.991   4.278
 1175SOL    HW2 4425   3.521   2.925   4.149
 1176SOL     OW 4426   5.536   3.569   5.788
 1176SOL    HW1 4427   5.586   3.530   5.711
 1176SOL    HW2 4428   5.532   3.669   5.778
 1177SOL     OW 4429   0.267   1.978   4.487
 1177SOL    HW1 4430   0.297   1.926   4.567
 1177SOL    HW2 4431   0.334   2.049   4.466
 1178SOL     OW 4432   3.733   5.437   0.611
 1178SOL    HW1 4433   3.768   5.401   0.697
 1178SOL    HW2 4434   3.683   5.365   0.563
 1179SOL     OW 4435   1.870   5.256   7.017
 1179SOL    HW1 4436   1.829   5.273   0.086
 1179SOL    HW2 4437   1.964   5.290   7.016
 1180SOL     OW 4438   3.421   6.032   0.847
 1180SOL    HW1 4439   3.387   6.119   0.881
 1180SOL    HW2 4440   3.509   6.045   0.801
 1181SOL     OW 4441   0.360   6.536   0.261
 1181SOL    HW1 4442   0.369   6.634   0.244
 1181SOL    HW2 4443   0.407   6.512   0.345
 1182SOL     OW 4444   4.463   4.476   3.056
 1182SOL    HW1 4445   4.496   4.426   3.135
 1182SOL    HW2 4446   4.433   4.567   3.084
 1183SOL     OW 4447   2.481   3.257   5.646
 1183SOL    HW1 4448   2.557   3.210   5.692
 1183SOL    HW2 4449   2.459   3.341   5.695
 1184SOL     OW 4450   0.704   6.796   6.021
 1184SOL    HW1 4451   0.707   6.697   6.008
 1184SOL    HW2 4452   0.780   6.825   6.079
 1185SOL     OW 4453   6.671   1.714   6.702
 1185SOL    HW1 4454   6.661   1.627   6.653
 1185SOL    HW2 4455   6.702   1.695   6.795
 1186SOL     OW 4456   5.315   6.214   4.669
 1186SOL    HW1 4457   5.218   6.198   4.653
 1186SOL    HW2 4458   5.332   6.224   4.767
 1187SOL     OW 4459   5.871   0.650   6.217
 1187SOL    HW1 4460   5.909   0.624   6.128
 1187SOL    HW2 4461   5.923   0.604   6.290
 1188SOL     OW 4462   2.669   0.280   6.143
 1188SOL    HW1 4463   2.743   0.214   6.135
 1188SOL    HW2 4464   2.583   0.240   6.110
 1189SOL     OW 4465   5.464   3.304   3.269
 1189SOL    HW1 4466   5.404   3.325   3.192
 1189SOL    HW2 4467   5.413   3.312   3.355
 1190SOL     OW 4468   2.207   5.816   3.152
 1190SOL    HW1 4469   2.198   5.870   3.068
 1190SOL    HW2 4470   2.256   5.870   3.221
 1191SOL     OW 4471   4.110   5.979   2.928
 1191SOL    HW1 4472   4.100   5.968   3.027
 1191SOL    HW2 4473   4.103   6.076   2.905
 1192SOL     OW 4474   5.628   6.348   3.271
 1192SOL    HW1 4475   5.702   6.345   3.204
 1192SOL    HW2 4476   5.658   6.399   3.352
 1193SOL     OW 4477   6.503   5.385   4.089
 1193SOL    HW1 4478   6.472   5.479   4.107
 1193SOL    HW2 4479   6.449   5.321   4.144
 1194SOL     OW 4480   3.798   0.857   0.841
 1194SOL    HW1 4481   3.786   0.868   0.939
 1194SOL    HW2 4482   3.824   0.762   0.821
 1195SOL     OW 4483   5.581   2.422   3.658
 1195SOL    HW1 4484   5.595   2.336   3.708
 1195SOL    HW2 4485   5.664   2.477   3.662
 1196SOL     OW 4486   6.083   6.269   5.324
 1196SOL    HW1 4487   6.118   6.197   5.264
 1196SOL    HW2 4488   5.988   6.288   5.301
 1197SOL     OW 4489   2.547   6.201   0.695
 1197SOL    HW1 4490   2.554   6.133   0.622
 1197SOL    HW2 4491   2.451   6.213   0.721
 1198SOL     OW 4492   1.484   2.921   0.158
 1198SOL    HW1 4493   1.459   2.829   0.129
 1198SOL    HW2 4494   1.413   2.985   0.129
 1199SOL     OW 4495   5.473   3.971   1.611
 1199SOL    HW1 4496   5.405   4.045   1.607
 1199SOL    HW2 4497   5.547   3.991   1.546
 1200SOL     OW 4498   3.045   3.299   1.887
 1200SOL    HW1 4499   3.036   3.369   1.959
 1200SOL    HW2 4500   3.134   3.254   1.897
 1201SOL     OW 4501   2.017   1.919   4.658
 1201SOL    HW1 4502   2.016   1.866   4.573
 1201SOL    HW2 4503   1.955   1.878   4.724
 1202SOL     OW 4504   0.498   5.229   5.803
 1202SOL    HW1 4505   0.513   5.273   5.891
 1202SOL    HW2 4506   0.458   5.138   5.818
 1203SOL     OW 4507   4.760   5.824   6.122
 1203SOL    HW1 4508   4.705   5.806   6.204
 1203SOL    HW2 4509   4.842   5.768   6.123
 1204SOL     OW 4510   1.982   6.751   2.995
 1204SOL    HW1 4511   2.036   6.777   3.075
 1204SOL    HW2 4512   1.983   6.651   2.986
 1205SOL     OW 4513   5.305   4.383   2.412
 1205SOL    HW1 4514   5.325   4.432   2.327
 1205SOL    HW2 4515   5.208   4.392   2.433
 1206SOL     OW 4516   3.032   3.117   4.828
 1206SOL    HW1 4517   2.965   3.110   4.902
 1206SOL    HW2 4518   2.995   3.176   4.756
 1207SOL     OW 4519   1.369   6.312   2.210
 1207SOL    HW1 4520   1.277   6.273   2.220
 1207SOL    HW2 4521   1.373   6.367   2.127
 1208SOL     OW 4522   3.341   4.188   6.076
 1208SOL    HW1 4523   3.261   4.215   6.023
 1208SOL    HW2 4524   3.364   4.093   6.054
 1209SOL     OW 4525   4.234   6.319   5.513
 1209SOL    HW1 4526   4.316   6.350   5.560
 1209SOL    HW2 4527   4.238   6.220   5.502
 1210SOL     OW 4528   3.347   0.597   3.092
 1210SOL    HW1 4529   3.424   0.578   3.032
 1210SOL    HW2 4530   3.307   0.686   3.068
 1211SOL     OW 4531   1.181   3.582   6.865
 1211SOL    HW1 4532   1.263   3.569   6.921
 1211SOL    HW2 4533   1.100   3.552   6.916
 1212SOL     OW 4534   1.444   6.591   0.305
 1212SOL    HW1 4535   1.483   6.660   0.243
 1212SOL    HW2 4536   1.433   6.505   0.256
 1213SOL     OW 4537   5.630   2.741   1.405
 1213SOL    HW1 4538   5.571   2.670   1.444
 1213SOL    HW2 4539   5.725   2.713   1.413
 1214SOL     OW 4540   0.155   2.430   1.458
 1214SOL    HW1 4541   0.206   2.499   1.509
 1214SOL    HW2 4542   0.210   2.347   1.449
 1215SOL     OW 4543   1.618   5.683   4.126
 1215SOL    HW1 4544   1.710   5.701   4.161
 1215SOL    HW2 4545   1.555   5.752   4.162
 1216SOL     OW 4546   4.557   6.559   0.706
 1216SOL    HW1 4547   4.627   6.617   0.664
 1216SOL    HW2 4548   4.538   6.591   0.798
 1217SOL     OW 4549   2.922   4.045   6.684
 1217SOL    HW1 4550   2.838   4.054   6.631
 1217SOL    HW2 4551   2.900   4.040   6.781
 1218SOL     OW 4552   1.856   4.660   3.520
 1218SOL    HW1 4553   1.899   4.570   3.529
 1218SOL    HW2 4554   1.894   4.707   3.441
 1219SOL     OW 4555   4.463   6.276   2.431
 1219SOL    HW1 4556   4.546   6.310   2.387
 1219SOL    HW2 4557   4.430   6.343   2.497
 1220SOL     OW 4558   0.804   4.716   2.635
 1220SOL    HW1 4559   0.857   4.638   2.668
 1220SOL    HW2 4560   0.792   4.708   2.536
 1221SOL     OW 4561   5.199   3.967   6.231
 1221SOL    HW1 4562   5.274   4.024   6.262
 1221SOL    HW2 4563   5.139   4.020   6.171
 1222SOL     OW 4564   6.405   0.077   6.474
 1222SOL    HW1 4565   6.334   0.103   6.409
 1222SOL    HW2 4566   6.386   7.005   6.509
 1223SOL     OW 4567   3.457   6.212   0.570
 1223SOL    HW1 4568   3.432   6.234   0.664
 1223SOL    HW2 4569   3.541   6.260   0.546
 1224SOL     OW 4570   3.482   0.440   2.053
 1224SOL    HW1 4571   3.549   0.466   1.983
 1224SOL    HW2 4572   3.478   0.511   2.123
 1225SOL     OW 4573   2.563   4.192   6.337
 1225SOL    HW1 4574   2.495   4.259   6.367
 1225SOL    HW2 4575   2.638   4.240   6.290
 1226SOL     OW 4576   2.057   4.363   1.097
 1226SOL    HW1 4577   2.034   4.342   1.192
 1226SOL    HW2 4578   2.150   4.332   1.078
 1227SOL     OW 4579   0.295   3.742   6.152
 1227SOL    HW1 4580   0.246   3.797   6.220
 1227SOL    HW2 4581   0.344   3.668   6.199
 1228SOL     OW 4582   3.565   1.636   5.988
 1228SOL    HW1 4583   3.592   1.572   5.916
 1228SOL    HW2 4584   3.469   1.661   5.976
 1229SOL     OW 4585   3.390   4.188   6.627
 1229SOL    HW1 4586   3.429   4.203   6.537
 1229SOL    HW2 4587   3.299   4.147   6.617
 1230SOL     OW 4588   4.680   6.330   3.373
 1230SOL    HW1 4589   4.749   6.401   3.384
 1230SOL    HW2 4590   4.602   6.349   3.432
 1231SOL     OW 4591   1.491   4.939   4.315
 1231SOL    HW1 4592   1.556   4.902   4.250
 1231SOL    HW2 4593   1.427   4.867   4.343
 1232SOL     OW 4594   1.761   2.278   4.817
 1232SOL    HW1 4595   1.835   2.211   4.826
 1232SOL    HW2 4596   1.717   2.292   4.906
 1233SOL     OW 4597   0.733   2.913   4.477
 1233SOL    HW1 4598   0.685   2.974   4.415
 1233SOL    HW2 4599   0.826   2.947   4.493
 1234SOL     OW 4600   6.448   4.126   4.358
 1234SOL    HW1 4601   6.519   4.188   4.325
 1234SOL    HW2 4602   6.401   4.168   4.436
 1235SOL     OW 4603   6.542   5.864   4.032
 1235SOL    HW1 4604   6.537   5.789   3.966
 1235SOL    HW2 4605   6.635   5.901   4.035
 1236SOL     OW 4606   4.859   0.950   6.902
 1236SOL    HW1 4607   4.775   0.983   6.946
 1236SOL    HW2 4608   4.937   0.995   6.945
 1237SOL     OW 4609   3.017   4.378   6.676
 1237SOL    HW1 4610   3.044   4.283   6.660
 1237SOL    HW2 4611   3.031   4.432   6.593
 1238SOL     OW 4612   1.408   1.494   1.514
 1238SOL    HW1 4613   1.480   1.563   1.521
 1238SOL    HW2 4614   1.447   1.410   1.476
 1239SOL     OW 4615   0.217   6.831   6.271
 1239SOL    HW1 4616   0.288   6.895   6.301
 1239SOL    HW2 4617   0.181   6.859   6.182
 1240SOL     OW 4618   4.275   5.798   2.057
 1240SOL    HW1 4619   4.304   5.815   2.151
 1240SOL    HW2 4620   4.323   5.719   2.020
 1241SOL     OW 4621   6.799   3.337   3.426
 1241SOL    HW1 4622   6.757   3.288   3.349
 1241SOL    HW2 4623   6.837   3.272   3.491
 1242SOL     OW 4624   2.631   3.689   6.228
 1242SOL    HW1 4625   2.704   3.751   6.257
 1242SOL    HW2 4626   2.544   3.722   6.265
 1243SOL     OW 4627   2.734   5.133   5.547
 1243SOL    HW1 4628   2.806   5.071   5.516
 1243SOL    HW2 4629   2.761   5.175   5.634
 1244SOL     OW 4630   0.754   0.874   2.878
 1244SOL    HW1 4631   0.681   0.920   2.828
 1244SOL    HW2 4632   0.783   0.794   2.827
 1245SOL     OW 4633   2.374   3.184   6.125
 1245SOL    HW1 4634   2.433   3.164   6.046
 1245SOL    HW2 4635   2.379   3.282   6.146
 1246SOL     OW 4636   1.055   6.717   2.314
 1246SOL    HW1 4637   1.053   6.749   2.220
 1246SOL    HW2 4638   1.021   6.624   2.319
 1247SOL     OW 4639   1.839   6.571   6.918
 1247SOL    HW1 4640   1.848   6.611   7.009
 1247SOL    HW2 4641   1.747   6.532   6.909
 1248SOL     OW 4642   1.942   6.420   3.622
 1248SOL    HW1 4643   1.923   6.491   3.555
 1248SOL    HW2 4644   1.989   6.344   3.577
 1249SOL     OW 4645   6.432   3.404   3.189
 1249SOL    HW1 4646   6.376   3.323   3.209
 1249SOL    HW2 4647   6.396   3.448   3.107
 1250SOL     OW 4648   0.572   4.319   4.072
 1250SOL    HW1 4649   0.537   4.285   4.159
 1250SOL    HW2 4650   0.549   4.255   3.999
 1251SOL     OW 4651   3.285   6.631   5.470
 1251SOL    HW1 4652   3.251   6.689   5.396
 1251SOL    HW2 4653   3.209   6.576   5.505
 1252SOL     OW 4654   3.292   3.515   6.665
 1252SOL    HW1 4655   3.286   3.493   6.762
 1252SOL    HW2 4656   3.362   3.457   6.622
 1253SOL     OW 4657   4.348   6.173   3.594
 1253SOL    HW1 4658   4.402   6.247   3.554
 1253SOL    HW2 4659   4.384   6.150   3.684
 1254SOL     OW 4660   6.515   1.853   2.450
 1254SOL    HW1 4661   6.579   1.927   2.467
 1254SOL    HW2 4662   6.524   1.783   2.521
 1255SOL     OW 4663   6.018   6.963   0.423
 1255SOL    HW1 4664   6.029   6.869   0.455
 1255SOL    HW2 4665   6.057   0.006   0.490
 1256SOL     OW 4666   4.326   1.645   3.849
 1256SOL    HW1 4667   4.336   1.627   3.752
 1256SOL    HW2 4668   4.367   1.734   3.871
 1257SOL     OW 4669   6.519   1.224   4.172
 1257SOL    HW1 4670   6.569   1.310   4.163
 1257SOL    HW2 4671   6.484   1.196   4.082
 1258SOL     OW 4672   7.000   6.697   4.129
 1258SOL    HW1 4673   6.940   6.722   4.054
 1258SOL    HW2 4674   7.015   6.776   4.188
 1259SOL     OW 4675   4.122   2.250   5.278
 1259SOL    HW1 4676   4.087   2.290   5.193
 1259SOL    HW2 4677   4.172   2.166   5.257
 1260SOL     OW 4678   0.492   1.354   5.675
 1260SOL    HW1 4679   0.424   1.300   5.626
 1260SOL    HW2 4680   0.550   1.403   5.610
 1261SOL     OW 4681   6.296   3.679   0.694
 1261SOL    HW1 4682   6.311   3.743   0.770
 1261SOL    HW2 4683   6.218   3.709   0.640
 1262SOL     OW 4684   5.113   6.173   2.440
 1262SOL    HW1 4685   5.068   6.178   2.351
 1262SOL    HW2 4686   5.104   6.081   2.477
 1263SOL     OW 4687   0.058   2.652   3.601
 1263SOL    HW1 4688   0.111   2.586   3.656
 1263SOL    HW2 4689   6.997   2.606   3.563
 1264SOL     OW 4690   0.808   3.077   5.282
 1264SOL    HW1 4691   0.795   3.062   5.380
 1264SOL    HW2 4692   0.721   3.104   5.241
 1265SOL     OW 4693   5.481   6.396   5.431
 1265SOL    HW1 4694   5.475   6.495   5.443
 1265SOL    HW2 4695   5.452   6.350   5.515
 1266SOL     OW 4696   1.923   1.583   5.744
 1266SOL    HW1 4697   1.915   1.485   5.723
 1266SOL    HW2 4698   2.017   1.603   5.772
 1267SOL     OW 4699   3.530   0.303   2.755
 1267SOL    HW1 4700   3.493   0.322   2.665
 1267SOL    HW2 4701   3.475   0.232   2.800
 1268SOL     OW 4702   4.197   2.720   5.717
 1268SOL    HW1 4703   4.211   2.643   5.654
 1268SOL    HW2 4704   4.277   2.779   5.715
 1269SOL     OW 4705   5.950   2.017   4.093
 1269SOL    HW1 4706   6.013   1.939   4.088
 1269SOL    HW2 4707   5.856   1.985   4.082
 1270SOL     OW 4708   6.568   5.568   2.825
 1270SOL    HW1 4709   6.514   5.632   2.770
 1270SOL    HW2 4710   6.551   5.474   2.794
 1271SOL     OW 4711   1.724   1.357   0.942
 1271SOL    HW1 4712   1.673   1.272   0.932
 1271SOL    HW2 4713   1.767   1.381   0.855
 1272SOL     OW 4714   6.257   2.855   6.318
 1272SOL    HW1 4715   6.285   2.774   6.369
 1272SOL    HW2 4716   6.298   2.853   6.227
 1273SOL     OW 4717   1.144   4.663   5.284
 1273SOL    HW1 4718   1.236   4.635   5.256
 1273SOL    HW2 4719   1.138   4.664   5.383
 1274SOL     OW 4720   0.115   5.138   2.868
 1274SOL    HW1 4721   0.062   5.058   2.894
 1274SOL    HW2 4722   0.209   5.111   2.849
 1275SOL     OW 4723   2.109   1.163   3.067
 1275SOL    HW1 4724   2.011   1.175   3.081
 1275SOL    HW2 4725   2.156   1.164   3.155
 1276SOL     OW 4726   5.536   5.002   3.730
 1276SOL    HW1 4727   5.607   4.995   3.800
 1276SOL    HW2 4728   5.446   4.998   3.772
 1277SOL     OW 4729   0.374   6.122   0.513
 1277SOL    HW1 4730   0.300   6.161   0.457
 1277SOL    HW2 4731   0.428   6.058   0.457
 1278SOL     OW 4732   1.106   6.013   3.048
 1278SOL    HW1 4733   1.077   6.065   3.128
 1278SOL    HW2 4734   1.093   5.915   3.065
 1279SOL     OW 4735   2.759   2.907   1.690
 1279SOL    HW1 4736   2.783   2.979   1.755
 1279SOL    HW2 4737   2.833   2.840   1.684
 1280SOL     OW 4738   2.225   2.169   3.994
 1280SOL    HW1 4739   2.137   2.214   4.007
 1280SOL    HW2 4740   2.297   2.238   3.984
 1281SOL     OW 4741   4.905   6.259   5.308
 1281SOL    HW1 4742   4.927   6.184   5.246
 1281SOL    HW2 4743   4.976   6.329   5.303
 1282SOL     OW 4744   0.381   2.728   1.306
 1282SOL    HW1 4745   0.313   2.710   1.377
 1282SOL    HW2 4746   0.378   2.655   1.238
 1283SOL     OW 4747   6.800   3.034   4.521
 1283SOL    HW1 4748   6.829   3.122   4.485
 1283SOL    HW2 4749   6.868   3.000   4.586
 1284SOL     OW 4750   4.057   2.100   1.873
 1284SOL    HW1 4751   3.980   2.057   1.920
 1284SOL    HW2 4752   4.097   2.171   1.930
 1285SOL     OW 4753   4.145   1.189   5.344
 1285SOL    HW1 4754   4.078   1.153   5.279
 1285SOL    HW2 4755   4.204   1.115   5.377
 1286SOL     OW 4756   5.482   1.417   0.877
 1286SOL    HW1 4757   5.528   1.328   0.885
 1286SOL    HW2 4758   5.546   1.484   0.840
 1287SOL     OW 4759   6.867   5.008   4.795
 1287SOL    HW1 4760   6.820   4.939   4.740
 1287SOL    HW2 4761   6.881   5.091   4.741
 1288SOL     OW 4762   4.692   4.487   7.003
 1288SOL    HW1 4763   4.776   4.538   0.003
 1288SOL    HW2 4764   4.656   4.516   6.915
 1289SOL     OW 4765   0.064   6.644   1.171
 1289SOL    HW1 4766   0.107   6.628   1.082
 1289SOL    HW2 4767   7.012   6.713   1.161
 1290SOL     OW 4768   1.100   6.183   5.186
 1290SOL    HW1 4769   1.092   6.085   5.204
 1290SOL    HW2 4770   1.028   6.211   5.123
 1291SOL     OW 4771   6.329   4.910   3.641
 1291SOL    HW1 4772   6.428   4.915   3.624
 1291SOL    HW2 4773   6.295   5.001   3.664
 1292SOL     OW 4774   1.176   6.834   1.840
 1292SOL    HW1 4775   1.260   6.841   1.786
 1292SOL    HW2 4776   1.115   6.909   1.815
 1293SOL     OW 4777   4.828   1.082   0.215
 1293SOL    HW1 4778   4.899   1.013   0.224
 1293SOL    HW2 4779   4.738   1.038   0.215
 1294SOL     OW 4780   2.026   4.340   5.106
 1294SOL    HW1 4781   1.968   4.301   5.034
 1294SOL    HW2 4782   2.122   4.334   5.078
 1295SOL     OW 4783   6.556   4.524   0.938
 1295SOL    HW1 4784   6.655   4.510   0.938
 1295SOL    HW2 4785   6.536   4.622   0.946
 1296SOL     OW 4786   5.285   0.151   5.841
 1296SOL    HW1 4787   5.374   0.138   5.798
 1296SOL    HW2 4788   5.241   0.063   5.855
 1297SOL     OW 4789   0.442   0.422   1.678
 1297SOL    HW1 4790   0.455   0.378   1.767
 1297SOL    HW2 4791   0.517   0.396   1.617
 1298SOL     OW 4792   5.172   0.738   2.379
 1298SOL    HW1 4793   5.185   0.777   2.471
 1298SOL    HW2 4794   5.257   0.745   2.327
 1299SOL     OW 4795   0.992   3.072   4.376
 1299SOL    HW1 4796   0.932   3.149   4.355
 1299SOL    HW2 4797   1.077   3.106   4.417
 1300SOL     OW 4798   0.830   5.518   1.478
 1300SOL    HW1 4799   0.742   5.565   1.493
 1300SOL    HW2 4800   0.896   5.582   1.440
 1301SOL     OW 4801   0.011   0.319   0.426
 1301SOL    HW1 4802   6.991   0.247   0.483
 1301SOL    HW2 4803   0.093   0.355   0.472
 1302SOL     OW 4804   6.241   6.864   5.158
 1302SOL    HW1 4805   6.145   6.850   5.133
 1302SOL    HW2 4806   6.284   6.922   5.089
 1303SOL     OW 4807   3.193   6.615   1.551
 1303SOL    HW1 4808   3.160   6.614   1.645
 1303SOL    HW2 4809   3.221   6.522   1.524
 1304SOL     OW 4810   0.375   0.794   0.604
 1304SOL    HW1 4811   0.431   0.713   0.618
 1304SOL    HW2 4812   0.389   0.858   0.679
 1305SOL     OW 4813   4.585   3.457   6.239
 1305SOL    HW1 4814   4.502   3.456   6.183
 1305SOL    HW2 4815   4.612   3.552   6.256
 1306SOL     OW 4816   3.035   5.559   3.990
 1306SOL    HW1 4817   3.094   5.504   3.931
 1306SOL    HW2 4818   3.085   5.583   4.074
 1307SOL     OW 4819   2.636   2.456   3.418
 1307SOL    HW1 4820   2.698   2.411   3.483
 1307SOL    HW2 4821   2.654   2.422   3.326
 1308SOL     OW 4822   0.064   4.432   6.240
 1308SOL    HW1 4823   0.144   4.421   6.299
 1308SOL    HW2 4824   0.010   4.348   6.242
 1309SOL     OW 4825   5.656   4.618   6.780
 1309SOL    HW1 4826   5.605   4.645   6.698
 1309SOL    HW2 4827   5.712   4.538   6.759
 1310SOL     OW 4828   1.581   4.454   3.211
 1310SOL    HW1 4829   1.648   4.379   3.208
 1310SOL    HW2 4830   1.503   4.427   3.267
 1311SOL     OW 4831   5.969   5.010   0.816
 1311SOL    HW1 4832   5.998   5.045   0.905
 1311SOL    HW2 4833   6.034   4.941   0.784
 1312SOL     OW 4834   2.802   1.095   6.063
 1312SOL    HW1 4835   2.800   1.137   6.154
 1312SOL    HW2 4836   2.784   0.997   6.071
 1313SOL     OW 4837   6.527   5.524   1.987
 1313SOL    HW1 4838   6.544   5.454   2.056
 1313SOL    HW2 4839   6.497   5.481   1.902
 1314SOL     OW 4840   2.314   1.868   5.043
 1314SOL    HW1 4841   2.228   1.827   5.073
 1314SOL    HW2 4842   2.390   1.822   5.089
 1315SOL     OW 4843   6.129   1.161   3.165
 1315SOL    HW1 4844   6.039   1.199   3.142
 1315SOL    HW2 4845   6.194   1.235   3.179
 1316SOL     OW 4846   5.621   0.491   6.682
 1316SOL    HW1 4847   5.614   0.403   6.636
 1316SOL    HW2 4848   5.680   0.552   6.628
 1317SOL     OW 4849   3.694   3.641   5.746
 1317SOL    HW1 4850   3.716   3.544   5.736
 1317SOL    HW2 4851   3.663   3.677   5.658
 1318SOL     OW 4852   1.474   1.933   6.380
 1318SOL    HW1 4853   1.542   1.945   6.307
 1318SOL    HW2 4854   1.498   1.854   6.435
 1319SOL     OW 4855   6.990   6.945   0.910
 1319SOL    HW1 4856   0.069   6.948   0.923
 1319SOL    HW2 4857   6.949   6.888   0.982
 1320SOL     OW 4858   3.743   3.103   6.072
 1320SOL    HW1 4859   3.741   3.129   5.975
 1320SOL    HW2 4860   3.685   3.165   6.125
 1321SOL     OW 4861   6.863   2.545   0.412
 1321SOL    HW1 4862   6.802   2.593   0.474
 1321SOL    HW2 4863   6.958   2.564   0.436
 1322SOL     OW 4864   3.207   2.539   6.823
 1322SOL    HW1 4865   3.213   2.452   6.872
 1322SOL    HW2 4866   3.270   2.537   6.745
 1323SOL     OW 4867   3.861   6.494   1.061
 1323SOL    HW1 4868   3.806   6.563   1.013
 1323SOL    HW2 4869   3.853   6.406   1.015
 1324SOL     OW 4870   1.984   4.046   6.642
 1324SOL    HW1 4871   1.907   4.017   6.699
 1324SOL    HW2 4872   2.028   4.126   6.684
 1325SOL     OW 4873   2.779   5.737   5.219
 1325SOL    HW1 4874   2.802   5.678   5.142
 1325SOL    HW2 4875   2.700   5.699   5.268
 1326SOL     OW 4876   4.831   2.120   4.510
 1326SOL    HW1 4877   4.796   2.207   4.476
 1326SOL    HW2 4878   4.775   2.045   4.475
 1327SOL     OW 4879   5.111   5.510   2.133
 1327SOL    HW1 4880   5.065   5.507   2.044
 1327SOL    HW2 4881   5.091   5.597   2.178
 1328SOL     OW 4882   1.957   2.648   5.726
 1328SOL    HW1 4883   1.941   2.700   5.643
 1328SOL    HW2 4884   1.924   2.701   5.805
 1329SOL     OW 4885   0.951   2.534   4.177
 1329SOL    HW1 4886   0.955   2.559   4.273
 1329SOL    HW2 4887   1.028   2.474   4.155
 1330SOL     OW 4888   5.893   3.062   2.526
 1330SOL    HW1 4889   5.977   3.026   2.567
 1330SOL    HW2 4890   5.908   3.156   2.495
 1331SOL     OW 4891   4.430   1.908   3.874
 1331SOL    HW1 4892   4.444   1.974   3.947
 1331SOL    HW2 4893   4.467   1.944   3.789
 1332SOL     OW 4894   2.084   5.852   0.283
 1332SOL    HW1 4895   2.107   5.949   0.276
 1332SOL    HW2 4896   2.063   5.816   0.192
 1333SOL     OW 4897   3.033   3.788   3.030
 1333SOL    HW1 4898   3.075   3.835   2.952
 1333SOL    HW2 4899   3.043   3.844   3.112
 1334SOL     OW 4900   6.763   3.188   1.756
 1334SOL    HW1 4901   6.719   3.104   1.788
 1334SOL    HW2 4902   6.779   3.248   1.835
 1335SOL     OW 4903   0.881   3.886   3.048
 1335SOL    HW1 4904   0.945   3.891   2.971
 1335SOL    HW2 4905   0.792   3.856   3.015
 1336SOL     OW 4906   2.411   0.339   5.582
 1336SOL    HW1 4907   2.377   0.424   5.622
 1336SOL    HW2 4908   2.497   0.355   5.534
 1337SOL     OW 4909   6.778   0.643   2.997
 1337SOL    HW1 4910   6.798   0.576   3.068
 1337SOL    HW2 4911   6.827   0.728   3.015
 1338SOL     OW 4912   6.585   4.154   4.807
 1338SOL    HW1 4913   6.530   4.095   4.749
 1338SOL    HW2 4914   6.623   4.229   4.753
 1339SOL     OW 4915   6.908   0.263   0.069
 1339SOL    HW1 4916   6.865   0.330   0.130
 1339SOL    HW2 4917   6.912   0.300   6.996
 1340SOL     OW 4918   4.199   2.739   1.363
 1340SOL    HW1 4919   4.127   2.723   1.431
 1340SOL    HW2 4920   4.159   2.782   1.282
 1341SOL     OW 4921   4.972   5.912   0.028
 1341SOL    HW1 4922   4.944   5.872   0.115
 1341SOL    HW2 4923   5.065   5.884   0.006
 1342SOL     OW 4924   2.095   6.221   1.734
 1342SOL    HW1 4925   2.024   6.186   1.795
 1342SOL    HW2 4926   2.083   6.320   1.723
 1343SOL     OW 4927   6.230   6.225   3.292
 1343SOL    HW1 4928   6.248   6.173   3.376
 1343SOL    HW2 4929   6.249   6.322   3.309
 1344SOL     OW 4930   0.705   0.806   4.625
 1344SOL    HW1 4931   0.784   0.844   4.578
 1344SOL    HW2 4932   0.716   0.707   4.635
 1345SOL     OW 4933   0.337   6.357   0.068
 1345SOL    HW1 4934   0.386   6.403   7.014
 1345SOL    HW2 4935   0.326   6.421   0.144
 1346SOL     OW 4936   3.174   4.947   4.883
 1346SOL    HW1 4937   3.152   4.902   4.969
 1346SOL    HW2 4938   3.202   5.041   4.901
 1347SOL     OW 4939   1.269   6.923   6.491
 1347SOL    HW1 4940   1.251   7.017   6.518
 1347SOL    HW2 4941   1.238   6.908   6.397
 1348SOL     OW 4942   0.593   6.204   5.200
 1348SOL    HW1 4943   0.516   6.234   5.256
 1348SOL    HW2 4944   0.565   6.127   5.143
 1349SOL     OW 4945   4.761   2.784   3.802
 1349SOL    HW1 4946   4.843   2.727   3.790
 1349SOL    HW2 4947   4.787   2.871   3.842
 1350SOL     OW 4948   4.205   4.281   6.756
 1350SOL    HW1 4949   4.204   4.327   6.844
 1350SOL    HW2 4950   4.153   4.335   6.689
 1351SOL     OW 4951   0.669   2.768   5.716
 1351SOL    HW1 4952   0.759   2.789   5.754
 1351SOL    HW2 4953   0.599   2.815   5.770
 1352SOL     OW 4954   7.008   0.455   2.033
 1352SOL    HW1 4955   0.069   0.415   1.990
 1352SOL    HW2 4956   0.016   0.514   2.109
 1353SOL     OW 4957   0.976   0.878   0.180
 1353SOL    HW1 4958   1.043   0.949   0.158
 1353SOL    HW2 4959   0.941   0.838   0.095
 1354SOL     OW 4960   4.680   5.198   2.848
 1354SOL    HW1 4961   4.720   5.171   2.935
 1354SOL    HW2 4962   4.711   5.289   2.824
 1355SOL     OW 4963   5.546   3.032   5.920
 1355SOL    HW1 4964   5.490   3.038   5.837
 1355SOL    HW2 4965   5.505   2.967   5.984
 1356SOL     OW 4966   2.454   3.092   0.104
 1356SOL    HW1 4967   2.505   3.178   0.103
 1356SOL    HW2 4968   2.434   3.066   0.199
 1357SOL     OW 4969   1.329   3.280   5.504
 1357SOL    HW1 4970   1.412   3.227   5.486
 1357SOL    HW2 4971   1.346   3.346   5.577
 1358SOL     OW 4972   2.586   6.890   0.399
 1358SOL    HW1 4973   2.517   6.961   0.412
 1358SOL    HW2 4974   2.632   6.873   0.487
 1359SOL     OW 4975   6.502   4.609   1.384
 1359SOL    HW1 4976   6.596   4.602   1.348
 1359SOL    HW2 4977   6.452   4.526   1.359
 1360SOL     OW 4978   1.956   2.565   0.143
 1360SOL    HW1 4979   1.926   2.502   0.215
 1360SOL    HW2 4980   2.028   2.623   0.179
 1361SOL     OW 4981   0.060   4.618   4.914
 1361SOL    HW1 4982   0.063   4.711   4.878
 1361SOL    HW2 4983   0.012   4.559   4.849
 1362SOL     OW 4984   3.594   2.898   2.851
 1362SOL    HW1 4985   3.688   2.865   2.849
 1362SOL    HW2 4986   3.587   2.974   2.917
 1363SOL     OW 4987   1.080   6.050   4.293
 1363SOL    HW1 4988   1.095   5.965   4.242
 1363SOL    HW2 4989   1.163   6.106   4.291
 1364SOL     OW 4990   4.733   4.292   1.001
 1364SOL    HW1 4991   4.780   4.330   0.921
 1364SOL    HW2 4992   4.665   4.225   0.971
 1365SOL     OW 4993   6.402   3.279   6.701
 1365SOL    HW1 4994   6.376   3.190   6.664
 1365SOL    HW2 4995   6.354   3.294   6.787
 1366SOL     OW 4996   2.736   6.850   5.180
 1366SOL    HW1 4997   2.733   6.911   5.100
 1366SOL    HW2 4998   2.817   6.793   5.175
 1367SOL     OW 4999   2.654   1.254   1.850
 1367SOL    HW1 5000   2.626   1.340   1.807
 1367SOL    HW2 5001   2.573   1.199   1.869
 1368SOL     OW 5002   5.666   6.514   3.485
 1368SOL    HW1 5003   5.640   6.479   3.576
 1368SOL    HW2 5004   5.589   6.564   3.446
 1369SOL     OW 5005   1.016   0.918   2.742
 1369SOL    HW1 5006   0.925   0.914   2.782
 1369SOL    HW2 5007   1.009   0.928   2.643
 1370SOL     OW 5008   2.195   0.471   1.518
 1370SOL    HW1 5009   2.203   0.550   1.579
 1370SOL    HW2 5010   2.133   0.404   1.557
 1371SOL     OW 5011   4.201   0.203   6.802
 1371SOL    HW1 5012   4.274   0.137   6.816
 1371SOL    HW2 5013   4.223   0.262   6.724
 1372SOL     OW 5014   3.078   2.080   1.917
 1372SOL    HW1 5015   3.165   2.124   1.896
 1372SOL    HW2 5016   3.005   2.148   1.919
 1373SOL     OW 5017   1.128   5.802   0.525
 1373SOL    HW1 5018   1.134   5.902   0.531
 1373SOL    HW2 5019   1.219   5.764   0.511
 1374SOL     OW 5020   4.900   3.581   0.424
 1374SOL    HW1 5021   4.952   3.622   0.499
 1374SOL    HW2 5022   4.813   3.547   0.459
 1375SOL     OW 5023   0.746   4.422   5.020
 1375SOL    HW1 5024   0.678   4.386   5.083
 1375SOL    HW2 5025   0.710   4.420   4.927
 1376SOL     OW 5026   4.166   1.682   2.650
 1376SOL    HW1 5027   4.244   1.656   2.706
 1376SOL    HW2 5028   4.184   1.659   2.554
 1377SOL     OW 5029   1.003   4.953   4.835
 1377SOL    HW1 5030   0.955   5.027   4.882
 1377SOL    HW2 5031   0.954   4.867   4.848
 1378SOL     OW 5032   1.604   2.832   6.464
 1378SOL    HW1 5033   1.634   2.765   6.395
 1378SOL    HW2 5034   1.681   2.892   6.487
 1379SOL     OW 5035   4.395   6.046   1.248
 1379SOL    HW1 5036   4.356   6.016   1.336
 1379SOL    HW2 5037   4.490   6.017   1.242
 1380SOL     OW 5038   6.283   6.321   2.757
 1380SOL    HW1 5039   6.251   6.358   2.670
 1380SOL    HW2 5040   6.348   6.385   2.798
 1381SOL     OW 5041   5.887   0.431   1.309
 1381SOL    HW1 5042   5.905   0.337   1.337
 1381SOL    HW2 5043   5.964   0.465   1.255
 1382SOL     OW 5044   6.787   5.034   6.378
 1382SOL    HW1 5045   6.808   5.132   6.376
 1382SOL    HW2 5046   6.864   4.983   6.340
 1383SOL     OW 5047   2.879   0.479   0.237
 1383SOL    HW1 5048   2.829   0.564   0.221
 1383SOL    HW2 5049   2.874   0.422   0.155
 1384SOL     OW 5050   2.416   2.196   2.183
 1384SOL    HW1 5051   2.496   2.255   2.173
 1384SOL    HW2 5052   2.385   2.166   2.092
 1385SOL     OW 5053   5.788   2.986   3.880
 1385SOL    HW1 5054   5.700   2.940   3.877
 1385SOL    HW2 5055   5.775   3.084   3.867
 1386SOL     OW 5056   2.096   2.641   3.845
 1386SOL    HW1 5057   2.034   2.563   3.841
 1386SOL    HW2 5058   2.074   2.697   3.925
 1387SOL     OW 5059   2.382   0.814   4.652
 1387SOL    HW1 5060   2.307   0.879   4.651
 1387SOL    HW2 5061   2.430   0.818   4.565
 1388SOL     OW 5062   6.443   1.247   4.642
 1388SOL    HW1 5063   6.455   1.209   4.550
 1388SOL    HW2 5064   6.524   1.226   4.697
 1389SOL     OW 5065   6.562   0.885   4.132
 1389SOL    HW1 5066   6.468   0.867   4.104
 1389SOL    HW2 5067   6.612   0.928   4.057
 1390SOL     OW 5068   4.396   2.408   2.205
 1390SOL    HW1 5069   4.349   2.406   2.294
 1390SOL    HW2 5070   4.415   2.503   2.179
 1391SOL     OW 5071   5.886   1.484   4.809
 1391SOL    HW1 5072   5.797   1.529   4.810
 1391SOL    HW2 5073   5.947   1.533   4.747
 1392SOL     OW 5074   4.604   6.123   5.415
 1392SOL    HW1 5075   4.686   6.074   5.445
 1392SOL    HW2 5076   4.623   6.169   5.328
 1393SOL     OW 5077   5.345   0.075   6.998
 1393SOL    HW1 5078   5.409   0.045   6.927
 1393SOL    HW2 5079   5.395   0.094   0.062
 1394SOL     OW 5080   4.473   0.481   3.616
 1394SOL    HW1 5081   4.463   0.491   3.715
 1394SOL    HW2 5082   4.435   0.393   3.588
 1395SOL     OW 5083   0.940   5.154   2.327
 1395SOL    HW1 5084   0.889   5.127   2.245
 1395SOL    HW2 5085   1.024   5.200   2.300
 1396SOL     OW 5086   1.240   1.313   3.862
 1396SOL    HW1 5087   1.177   1.235   3.859
 1396SOL    HW2 5088   1.272   1.334   3.770
 1397SOL     OW 5089   0.658   5.102   5.294
 1397SOL    HW1 5090   0.619   5.068   5.380
 1397SOL    HW2 5091   0.653   5.030   5.224
 1398SOL     OW 5092   1.952   6.880   6.464
 1398SOL    HW1 5093   2.026   6.880   6.531
 1398SOL    HW2 5094   1.888   6.954   6.485
 1399SOL     OW 5095   3.971   6.950   6.531
 1399SOL    HW1 5096   3.906   0.005   6.528
 1399SOL    HW2 5097   4.011   6.944   6.623
 1400SOL     OW 5098   6.862   1.429   5.100
 1400SOL    HW1 5099   6.833   1.475   5.184
 1400SOL    HW2 5100   6.873   1.497   5.027
 1401SOL     OW 5101   5.640   0.450   2.526
 1401SOL    HW1 5102   5.554   0.449   2.577
 1401SOL    HW2 5103   5.648   0.366   2.472
 1402SOL     OW 5104   6.922   4.789   2.032
 1402SOL    HW1 5105   7.013   4.787   1.990
 1402SOL    HW2 5106   6.913   4.712   2.095
 1403SOL     OW 5107   3.223   3.167   6.121
 1403SOL    HW1 5108   3.278   3.172   6.204
 1403SOL    HW2 5109   3.282   3.143   6.044
 1404SOL     OW 5110   4.331   6.834   0.902
 1404SOL    HW1 5111   4.276   6.814   0.984
 1404SOL    HW2 5112   4.426   6.808   0.919
 1405SOL     OW 5113   0.814   3.853   0.427
 1405SOL    HW1 5114   0.799   3.945   0.464
 1405SOL    HW2 5115   0.797   3.786   0.499
 1406SOL     OW 5116   2.119   2.781   0.192
 1406SOL    HW1 5117   2.053   2.845   0.152
 1406SOL    HW2 5118   2.199   2.773   0.132
 1407SOL     OW 5119   0.701   2.695   1.070
 1407SOL    HW1 5120   0.628   2.706   1.003
 1407SOL    HW2 5121   0.680   2.619   1.131
 1408SOL     OW 5122   5.372   6.320   0.808
 1408SOL    HW1 5123   5.364   6.235   0.757
 1408SOL    HW2 5124   5.468   6.343   0.821
 1409SOL     OW 5125   6.503   1.658   5.601
 1409SOL    HW1 5126   6.513   1.705   5.513
 1409SOL    HW2 5127   6.498   1.559   5.586
 1410SOL     OW 5128   3.419   0.210   0.038
 1410SOL    HW1 5129   3.383   0.257   0.118
 1410SOL    HW2 5130   3.442   0.116   0.062
 1411SOL     OW 5131   3.546   4.911   6.802
 1411SOL    HW1 5132   3.461   4.911   6.748
 1411SOL    HW2 5133   3.551   4.827   6.855
 1412SOL     OW 5134   2.442   1.889   0.175
 1412SOL    HW1 5135   2.356   1.839   0.183
 1412SOL    HW2 5136   2.517   1.824   0.161
 1413SOL     OW 5137   2.210   1.721   5.397
 1413SOL    HW1 5138   2.133   1.737   5.459
 1413SOL    HW2 5139   2.224   1.802   5.340
 1414SOL     OW 5140   0.879   5.049   1.787
 1414SOL    HW1 5141   0.881   4.977   1.718
 1414SOL    HW2 5142   0.934   5.127   1.756
 1415SOL     OW 5143   3.282   1.821   5.058
 1415SOL    HW1 5144   3.303   1.739   5.112
 1415SOL    HW2 5145   3.366   1.858   5.019
 1416SOL     OW 5146   4.201   0.717   4.746
 1416SOL    HW1 5147   4.146   0.634   4.755
 1416SOL    HW2 5148   4.266   0.723   4.822
 1417SOL     OW 5149   3.245   3.547   4.340
 1417SOL    HW1 5150   3.206   3.609   4.272
 1417SOL    HW2 5151   3.218   3.577   4.432
 1418SOL     OW 5152   3.539   3.464   5.922
 1418SOL    HW1 5153   3.447   3.450   5.885
 1418SOL    HW2 5154   3.583   3.540   5.874
 1419SOL     OW 5155   0.933   6.054   2.387
 1419SOL    HW1 5156   0.902   6.013   2.472
 1419SOL    HW2 5157   0.966   5.983   2.324
 1420SOL     OW 5158   2.963   5.968   2.877
 1420SOL    HW1 5159   2.915   6.055   2.890
 1420SOL    HW2 5160   3.059   5.986   2.854
 1421SOL     OW 5161   2.173   5.331   6.564
 1421SOL    HW1 5162   2.239   5.255   6.555
 1421SOL    HW2 5163   2.222   5.417   6.573
 1422SOL     OW 5164   1.678   3.385   6.571
 1422SOL    HW1 5165   1.613   3.320   6.610
 1422SOL    HW2 5166   1.766   3.376   6.618
 1423SOL     OW 5167   3.688   0.664   5.046
 1423SOL    HW1 5168   3.600   0.635   5.083
 1423SOL    HW2 5169   3.674   0.711   4.959
 1424SOL     OW 5170   6.594   2.510   0.936
 1424SOL    HW1 5171   6.690   2.530   0.914
 1424SOL    HW2 5172   6.535   2.546   0.863
 1425SOL     OW 5173   5.291   0.220   3.816
 1425SOL    HW1 5174   5.327   0.180   3.901
 1425SOL    HW2 5175   5.191   0.219   3.818
 1426SOL     OW 5176   4.657   0.328   0.005
 1426SOL    HW1 5177   4.585   0.365   0.064
 1426SOL    HW2 5178   4.693   0.401   6.966
 1427SOL     OW 5179   1.038   0.576   4.136
 1427SOL    HW1 5180   1.109   0.506   4.139
 1427SOL    HW2 5181   0.960   0.547   4.191
 1428SOL     OW 5182   2.044   3.910   3.892
 1428SOL    HW1 5183   1.975   3.979   3.913
 1428SOL    HW2 5184   2.036   3.834   3.956
 1429SOL     OW 5185   5.949   0.220   1.820
 1429SOL    HW1 5186   5.887   0.271   1.761
 1429SOL    HW2 5187   6.044   0.244   1.798
 1430SOL     OW 5188   2.179   4.007   4.326
 1430SOL    HW1 5189   2.217   3.935   4.268
 1430SOL    HW2 5190   2.236   4.089   4.319
 1431SOL     OW 5191   3.359   1.461   0.386
 1431SOL    HW1 5192   3.358   1.525   0.309
 1431SOL    HW2 5193   3.301   1.495   0.459
 1432SOL     OW 5194   4.278   6.809   2.678
 1432SOL    HW1 5195   4.323   6.895   2.654
 1432SOL    HW2 5196   4.341   6.752   2.729
 1433SOL     OW 5197   3.049   1.013   3.679
 1433SOL    HW1 5198   3.101   1.099   3.681
 1433SOL    HW2 5199   3.069   0.964   3.595
 1434SOL     OW 5200   5.510   4.365   0.362
 1434SOL    HW1 5201   5.551   4.433   0.422
 1434SOL    HW2 5202   5.512   4.398   0.268
 1435SOL     OW 5203   0.872   0.059   4.667
 1435SOL    HW1 5204   0.813   0.005   4.607
 1435SOL    HW2 5205   0.940   7.019   4.709
 1436SOL     OW 5206   5.705   0.982   0.248
 1436SOL    HW1 5207   5.622   0.999   0.195
 1436SOL    HW2 5208   5.688   0.908   0.314
 1437SOL     OW 5209   4.073   1.036   0.348
 1437SOL    HW1 5210   4.038   1.130   0.340
 1437SOL    HW2 5211   4.142   1.032   0.420
 1438SOL     OW 5212   2.250   0.013   2.509
 1438SOL    HW1 5213   2.217   6.942   2.531
 1438SOL    HW2 5214   2.172   0.073   2.488
 1439SOL     OW 5215   0.475   5.381   6.606
 1439SOL    HW1 5216   0.502   5.362   6.700
 1439SOL    HW2 5217   0.535   5.452   6.568
 1440SOL     OW 5218   4.115   3.289   2.566
 1440SOL    HW1 5219   4.020   3.258   2.566
 1440SOL    HW2 5220   4.159   3.263   2.480
 1441SOL     OW 5221   6.126   2.048   5.661
 1441SOL    HW1 5222   6.031   2.046   5.690
 1441SOL    HW2 5223   6.150   1.962   5.617
 1442SOL     OW 5224   5.409   6.310   0.417
 1442SOL    HW1 5225   5.419   6.261   0.330
 1442SOL    HW2 5226   5.495   6.305   0.468
 1443SOL     OW 5227   1.322   2.735   3.253
 1443SOL    HW1 5228   1.269   2.816   3.277
 1443SOL    HW2 5229   1.261   2.666   3.213
 1444SOL     OW 5230   5.280   6.662   4.885
 1444SOL    HW1 5231   5.341   6.619   4.952
 1444SOL    HW2 5232   5.321   6.748   4.853
 1445SOL     OW 5233   6.650   1.793   0.382
 1445SOL    HW1 5234   6.715   1.869   0.384
 1445SOL    HW2 5235   6.560   1.825   0.410
 1446SOL     OW 5236   3.708   6.340   1.447
 1446SOL    HW1 5237   3.711   6.435   1.478
 1446SOL    HW2 5238   3.622   6.324   1.397
 1447SOL     OW 5239   6.540   1.360   5.046
 1447SOL    HW1 5240   6.449   1.378   5.009
 1447SOL    HW2 5241   6.536   1.282   5.109
 1448SOL     OW 5242   5.574   0.819   6.871
 1448SOL    HW1 5243   5.650   0.802   6.808
 1448SOL    HW2 5244   5.570   0.747   6.940
 1449SOL     OW 5245   4.793   5.460   0.997
 1449SOL    HW1 5246   4.751   5.373   0.972
 1449SOL    HW2 5247   4.774   5.528   0.926
 1450SOL     OW 5248   6.296   1.949   3.634
 1450SOL    HW1 5249   6.209   1.963   3.681
 1450SOL    HW2 5250   6.363   1.913   3.699
 1451SOL     OW 5251   1.690   6.191   1.652
 1451SOL    HW1 5252   1.785   6.168   1.675
 1451SOL    HW2 5253   1.633   6.183   1.734
 1452SOL     OW 5254   3.521   0.635   5.348
 1452SOL    HW1 5255   3.620   0.642   5.337
 1452SOL    HW2 5256   3.478   0.637   5.257
 1453SOL     OW 5257   4.695   4.436   4.477
 1453SOL    HW1 5258   4.613   4.489   4.500
 1453SOL    HW2 5259   4.678   4.385   4.393
 1454SOL     OW 5260   4.879   4.367   0.784
 1454SOL    HW1 5261   4.879   4.461   0.818
 1454SOL    HW2 5262   4.805   4.355   0.718
 1455SOL     OW 5263   1.920   2.156   1.846
 1455SOL    HW1 5264   2.000   2.166   1.787
 1455SOL    HW2 5265   1.948   2.157   1.942
 1456SOL     OW 5266   5.786   5.176   4.684
 1456SOL    HW1 5267   5.766   5.166   4.586
 1456SOL    HW2 5268   5.795   5.086   4.725
 1457SOL     OW 5269   2.423   0.208   3.599
 1457SOL    HW1 5270   2.428   0.305   3.573
 1457SOL    HW2 5271   2.435   0.199   3.697
 1458SOL     OW 5272   6.941   5.392   0.418
 1458SOL    HW1 5273   6.974   5.422   0.329
 1458SOL    HW2 5274   7.010   5.409   0.488
 1459SOL     OW 5275   2.454   0.050   1.215
 1459SOL    HW1 5276   2.465   0.004   1.303
 1459SOL    HW2 5277   2.422   0.144   1.230
 1460SOL     OW 5278   0.874   6.433   6.957
 1460SOL    HW1 5279   0.805   6.506   6.947
 1460SOL    HW2 5280   0.946   6.446   6.889
 1461SOL     OW 5281   5.028   5.399   2.567
 1461SOL    HW1 5282   4.963   5.342   2.616
 1461SOL    HW2 5283   5.119   5.390   2.609
 1462SOL     OW 5284   5.084   0.400   5.133
 1462SOL    HW1 5285   5.051   0.417   5.226
 1462SOL    HW2 5286   5.094   0.487   5.085
 1463SOL     OW 5287   0.736   2.333   6.281
 1463SOL    HW1 5288   0.703   2.302   6.370
 1463SOL    HW2 5289   0.769   2.427   6.288
 1464SOL     OW 5290   0.685   1.189   1.526
 1464SOL    HW1 5291   0.666   1.260   1.594
 1464SOL    HW2 5292   0.783   1.173   1.523
 1465SOL     OW 5293   0.503   0.574   4.216
 1465SOL    HW1 5294   0.592   0.618   4.203
 1465SOL    HW2 5295   0.515   0.474   4.218
 1466SOL     OW 5296   5.373   5.275   4.482
 1466SOL    HW1 5297   5.289   5.242   4.525
 1466SOL    HW2 5298   5.438   5.200   4.474
 1467SOL     OW 5299   5.818   3.571   3.599
 1467SOL    HW1 5300   5.844   3.635   3.671
 1467SOL    HW2 5301   5.779   3.488   3.639
 1468SOL     OW 5302   5.154   0.063   2.129
 1468SOL    HW1 5303   5.231   0.048   2.066
 1468SOL    HW2 5304   5.078   0.104   2.079
 1469SOL     OW 5305   0.998   1.159   2.083
 1469SOL    HW1 5306   0.979   1.128   1.989
 1469SOL    HW2 5307   1.095   1.148   2.102
 1470SOL     OW 5308   6.767   0.707   3.321
 1470SOL    HW1 5309   6.686   0.651   3.305
 1470SOL    HW2 5310   6.822   0.667   3.394
 1471SOL     OW 5311   6.115   0.565   1.196
 1471SOL    HW1 5312   6.072   0.648   1.161
 1471SOL    HW2 5313   6.195   0.589   1.250
 1472SOL     OW 5314   4.631   5.436   4.753
 1472SOL    HW1 5315   4.591   5.350   4.721
 1472SOL    HW2 5316   4.700   5.468   4.687
 1473SOL     OW 5317   6.057   3.899   3.247
 1473SOL    HW1 5318   6.074   3.805   3.276
 1473SOL    HW2 5319   6.040   3.956   3.328
 1474SOL     OW 5320   4.992   5.539   3.183
 1474SOL    HW1 5321   5.046   5.612   3.226
 1474SOL    HW2 5322   4.897   5.546   3.214
 1475SOL     OW 5323   6.292   0.583   3.829
 1475SOL    HW1 5324   6.309   0.550   3.737
 1475SOL    HW2 5325   6.224   0.524   3.874
 1476SOL     OW 5326   6.992   2.428   1.058
 1476SOL    HW1 5327   0.043   2.467   0.999
 1476SOL    HW2 5328   6.931   2.370   1.003
 1477SOL     OW 5329   2.228   6.402   3.711
 1477SOL    HW1 5330   2.132   6.431   3.709
 1477SOL    HW2 5331   2.238   6.324   3.773
 1478SOL     OW 5332   0.056   3.991   1.827
 1478SOL    HW1 5333   0.051   3.983   1.926
 1478SOL    HW2 5334   0.025   3.906   1.784
 1479SOL     OW 5335   1.489   4.882   0.697
 1479SOL    HW1 5336   1.418   4.815   0.719
 1479SOL    HW2 5337   1.489   4.954   0.767
 1480SOL     OW 5338   2.614   0.908   0.143
 1480SOL    HW1 5339   2.674   0.832   0.168
 1480SOL    HW2 5340   2.640   0.942   0.052
 1481SOL     OW 5341   0.443   2.787   6.303
 1481SOL    HW1 5342   0.350   2.818   6.288
 1481SOL    HW2 5343   0.466   2.799   6.400
 1482SOL     OW 5344   5.375   0.548   6.407
 1482SOL    HW1 5345   5.293   0.508   6.447
 1482SOL    HW2 5346   5.401   0.630   6.457
 1483SOL     OW 5347   6.502   2.160   6.480
 1483SOL    HW1 5348   6.557   2.078   6.499
 1483SOL    HW2 5349   6.431   2.137   6.414
 1484SOL     OW 5350   6.204   0.007   3.520
 1484SOL    HW1 5351   6.210   6.986   3.610
 1484SOL    HW2 5352   6.227   0.104   3.526
 1485SOL     OW 5353   5.951   3.040   4.160
 1485SOL    HW1 5354   5.894   3.091   4.225
 1485SOL    HW2 5355   5.916   3.056   4.067
 1486SOL     OW 5356   5.482   2.042   2.069
 1486SOL    HW1 5357   5.529   2.125   2.099
 1486SOL    HW2 5358   5.428   2.005   2.144
 1487SOL     OW 5359   6.754   1.129   5.961
 1487SOL    HW1 5360   6.684   1.183   6.008
 1487SOL    HW2 5361   6.832   1.116   6.022
 1488SOL     OW 5362   5.350   2.003   4.172
 1488SOL    HW1 5363   5.299   2.063   4.233
 1488SOL    HW2 5364   5.307   1.912   4.171
 1489SOL     OW 5365   3.877   5.339   4.082
 1489SOL    HW1 5366   3.917   5.295   4.162
 1489SOL    HW2 5367   3.950   5.373   4.023
 1490SOL     OW 5368   2.469   2.641   1.307
 1490SOL    HW1 5369   2.469   2.741   1.299
 1490SOL    HW2 5370   2.529   2.615   1.382
 1491SOL     OW 5371   6.979   2.737   5.404
 1491SOL    HW1 5372   0.025   2.734   5.329
 1491SOL    HW2 5373   6.973   2.830   5.440
 1492SOL     OW 5374   5.727   2.466   1.669
 1492SOL    HW1 5375   5.746   2.559   1.699
 1492SOL    HW2 5376   5.747   2.458   1.571
 1493SOL     OW 5377   6.099   1.618   5.348
 1493SOL    HW1 5378   6.101   1.604   5.249
 1493SOL    HW2 5379   6.015   1.580   5.385
 1494SOL     OW 5380   5.608   1.520   4.810
 1494SOL    HW1 5381   5.512   1.495   4.793
 1494SOL    HW2 5382   5.643   1.571   4.731
 1495SOL     OW 5383   1.018   3.773   2.810
 1495SOL    HW1 5384   0.958   3.700   2.777
 1495SOL    HW2 5385   1.101   3.775   2.754
 1496SOL     OW 5386   0.930   1.183   2.344
 1496SOL    HW1 5387   0.939   1.187   2.245
 1496SOL    HW2 5388   0.951   1.091   2.376
 1497SOL     OW 5389   5.291   4.833   5.594
 1497SOL    HW1 5390   5.388   4.822   5.569
 1497SOL    HW2 5391   5.248   4.896   5.530
 1498SOL     OW 5392   2.398   5.258   0.273
 1498SOL    HW1 5393   2.346   5.185   0.318
 1498SOL    HW2 5394   2.337   5.313   0.217
 1499SOL     OW 5395   0.739   4.110   4.303
 1499SOL    HW1 5396   0.749   4.059   4.388
 1499SOL    HW2 5397   0.817   4.091   4.243
 1500SOL     OW 5398   4.584   6.788   5.411
 1500SOL    HW1 5399   4.526   6.820   5.485
 1500SOL    HW2 5400   4.553   6.697   5.382
 1501SOL     OW 5401   4.117   0.135   0.022
 1501SOL    HW1 5402   4.131   0.173   6.951
 1501SOL    HW2 5403   4.167   0.190   0.089
 1502SOL     OW 5404   7.018   6.188   6.755
 1502SOL    HW1 5405   0.055   6.130   6.697
 1502SOL    HW2 5406   0.053   6.226   6.829
 1503SOL     OW 5407   3.398   4.171   5.086
 1503SOL    HW1 5408   3.458   4.090   5.087
 1503SOL    HW2 5409   3.304   4.142   5.104
 1504SOL     OW 5410   2.571   6.669   4.312
 1504SOL    HW1 5411   2.612   6.659   4.221
 1504SOL    HW2 5412   2.497   6.603   4.324
 1505SOL     OW 5413   4.715   6.842   2.220
 1505SOL    HW1 5414   4.668   6.917   2.174
 1505SOL    HW2 5415   4.765   6.788   2.152
 1506SOL     OW 5416   0.627   6.784   3.158
 1506SOL    HW1 5417   0.576   6.757   3.076
 1506SOL    HW2 5418   0.725   6.792   3.135
 1507SOL     OW 5419   2.719   2.330   6.852
 1507SOL    HW1 5420   2.749   2.344   6.757
 1507SOL    HW2 5421   2.797   2.339   6.913
 1508SOL     OW 5422   4.883   0.020   0.941
 1508SOL    HW1 5423   4.977   0.052   0.940
 1508SOL    HW2 5424   4.852   0.005   0.846
 1509SOL     OW 5425   5.552   1.506   6.710
 1509SOL    HW1 5426   5.454   1.528   6.714
 1509SOL    HW2 5427   5.569   1.446   6.632
 1510SOL     OW 5428   6.908   2.114   2.937
 1510SOL    HW1 5429   7.007   2.107   2.949
 1510SOL    HW2 5430   6.867   2.152   3.019
 1511SOL     OW 5431   0.819   3.021   0.500
 1511SOL    HW1 5432   0.800   2.957   0.575
 1511SOL    HW2 5433   0.918   3.032   0.490
 1512SOL     OW 5434   6.270   0.819   2.166
 1512SOL    HW1 5435   6.177   0.852   2.151
 1512SOL    HW2 5436   6.320   0.886   2.222
 1513SOL     OW 5437   3.208   0.669   2.597
 1513SOL    HW1 5438   3.200   0.578   2.637
 1513SOL    HW2 5439   3.304   0.695   2.592
 1514SOL     OW 5440   4.676   0.688   6.002
 1514SOL    HW1 5441   4.758   0.744   6.003
 1514SOL    HW2 5442   4.612   0.721   6.072
 1515SOL     OW 5443   5.613   5.378   5.066
 1515SOL    HW1 5444   5.678   5.392   5.140
 1515SOL    HW2 5445   5.656   5.402   4.978
 1516SOL     OW 5446   0.822   1.030   0.680
 1516SOL    HW1 5447   0.895   1.098   0.667
 1516SOL    HW2 5448   0.750   1.046   0.613
 1517SOL     OW 5449   3.363   5.372   3.329
 1517SOL    HW1 5450   3.405   5.299   3.383
 1517SOL    HW2 5451   3.283   5.408   3.377
 1518SOL     OW 5452   0.740   4.476   0.960
 1518SOL    HW1 5453   0.652   4.444   0.926
 1518SOL    HW2 5454   0.726   4.539   1.037
 1519SOL     OW 5455   6.988   4.090   1.205
 1519SOL    HW1 5456   6.972   4.155   1.280
 1519SOL    HW2 5457   0.060   4.052   1.214
 1520SOL     OW 5458   1.293   2.443   2.934
 1520SOL    HW1 5459   1.233   2.369   2.902
 1520SOL    HW2 5460   1.358   2.467   2.863
 1521SOL     OW 5461   2.286   4.088   5.341
 1521SOL    HW1 5462   2.319   4.017   5.278
 1521SOL    HW2 5463   2.360   4.153   5.357
 1522SOL     OW 5464   1.185   2.416   6.424
 1522SOL    HW1 5465   1.133   2.407   6.339
 1522SOL    HW2 5466   1.206   2.325   6.460
 1523SOL     OW 5467   5.816   1.159   1.337
 1523SOL    HW1 5468   5.808   1.066   1.372
 1523SOL    HW2 5469   5.829   1.157   1.238
 1524SOL     OW 5470   6.043   0.290   2.473
 1524SOL    HW1 5471   6.119   0.354   2.484
 1524SOL    HW2 5472   5.974   0.308   2.543
 1525SOL     OW 5473   4.540   1.229   6.302
 1525SOL    HW1 5474   4.498   1.226   6.393
 1525SOL    HW2 5475   4.608   1.156   6.295
 1526SOL     OW 5476   6.526   1.235   6.916
 1526SOL    HW1 5477   6.472   1.302   6.866
 1526SOL    HW2 5478   6.519   1.253   7.014
 1527SOL     OW 5479   2.841   1.208   5.827
 1527SOL    HW1 5480   2.939   1.186   5.829
 1527SOL    HW2 5481   2.802   1.192   5.918
 1528SOL     OW 5482   5.557   5.518   4.216
 1528SOL    HW1 5483   5.457   5.507   4.219
 1528SOL    HW2 5484   5.601   5.429   4.227
 1529SOL     OW 5485   2.453   0.615   5.329
 1529SOL    HW1 5486   2.502   0.537   5.367
 1529SOL    HW2 5487   2.460   0.614   5.230
 1530SOL     OW 5488   2.886   6.850   1.697
 1530SOL    HW1 5489   2.926   6.830   1.786
 1530SOL    HW2 5490   2.823   6.776   1.671
 1531SOL     OW 5491   5.651   0.398   6.358
 1531SOL    HW1 5492   5.653   0.380   6.260
 1531SOL    HW2 5493   5.576   0.461   6.379
 1532SOL     OW 5494   3.186   2.547   5.308
 1532SOL    HW1 5495   3.153   2.490   5.233
 1532SOL    HW2 5496   3.213   2.488   5.384
 1533SOL     OW 5497   5.315   2.882   6.874
 1533SOL    HW1 5498   5.394   2.935   6.842
 1533SOL    HW2 5499   5.232   2.936   6.863
 1534SOL     OW 5500   6.467   6.909   2.295
 1534SOL    HW1 5501   6.450   7.006   2.276
 1534SOL    HW2 5502   6.383   6.858   2.281
 1535SOL     OW 5503   5.020   4.146   4.479
 1535SOL    HW1 5504   4.921   4.135   4.478
 1535SOL    HW2 5505   5.045   4.235   4.443
 1536SOL     OW 5506   3.047   5.564   3.278
 1536SOL    HW1 5507   2.979   5.526   3.215
 1536SOL    HW2 5508   3.002   5.590   3.363
 1537SOL     OW 5509   2.875   5.517   4.656
 1537SOL    HW1 5510   2.903   5.587   4.590
 1537SOL    HW2 5511   2.860   5.431   4.608
 1538SOL     OW 5512   3.580   4.989   6.333
 1538SOL    HW1 5513   3.634   4.972   6.250
 1538SOL    HW2 5514   3.563   4.902   6.379
 1539SOL     OW 5515   3.778   5.932   2.210
 1539SOL    HW1 5516   3.735   5.936   2.301
 1539SOL    HW2 5517   3.710   5.956   2.141
 1540SOL     OW 5518   5.862   0.443   5.144
 1540SOL    HW1 5519   5.895   0.459   5.237
 1540SOL    HW2 5520   5.799   0.365   5.144
 1541SOL     OW 5521   4.918   1.409   1.028
 1541SOL    HW1 5522   4.822   1.437   1.036
 1541SOL    HW2 5523   4.977   1.490   1.031
 1542SOL     OW 5524   0.979   5.717   0.762
 1542SOL    HW1 5525   1.014   5.701   0.669
 1542SOL    HW2 5526   0.991   5.634   0.817
 1543SOL     OW 5527   3.543   4.076   2.944
 1543SOL    HW1 5528   3.508   3.984   2.964
 1543SOL    HW2 5529   3.602   4.105   3.019
 1544SOL     OW 5530   3.258   3.391   2.400
 1544SOL    HW1 5531   3.320   3.435   2.335
 1544SOL    HW2 5532   3.194   3.332   2.351
 1545SOL     OW 5533   0.192   0.534   4.361
 1545SOL    HW1 5534   0.151   0.619   4.394
 1545SOL    HW2 5535   0.288   0.529   4.391
 1546SOL     OW 5536   6.268   6.537   6.404
 1546SOL    HW1 5537   6.251   6.633   6.426
 1546SOL    HW2 5538   6.204   6.479   6.454
 1547SOL     OW 5539   3.124   5.812   0.208
 1547SOL    HW1 5540   3.093   5.764   0.126
 1547SOL    HW2 5541   3.110   5.754   0.288
 1548SOL     OW 5542   5.678   3.900   3.919
 1548SOL    HW1 5543   5.610   3.940   3.980
 1548SOL    HW2 5544   5.678   3.800   3.928
 1549SOL     OW 5545   0.094   2.566   0.522
 1549SOL    HW1 5546   0.120   2.656   0.557
 1549SOL    HW2 5547   0.128   2.556   0.428
 1550SOL     OW 5548   2.243   5.374   2.744
 1550SOL    HW1 5549   2.249   5.467   2.781
 1550SOL    HW2 5550   2.322   5.320   2.774
 1551SOL     OW 5551   0.165   3.188   1.462
 1551SOL    HW1 5552   0.230   3.145   1.525
 1551SOL    HW2 5553   0.211   3.264   1.415
 1552SOL     OW 5554   0.778   6.656   2.004
 1552SOL    HW1 5555   0.767   6.559   2.022
 1552SOL    HW2 5556   0.712   6.708   2.058
 1553SOL     OW 5557   5.198   1.014   6.432
 1553SOL    HW1 5558   5.295   1.003   6.406
 1553SOL    HW2 5559   5.191   1.079   6.508
 1554SOL     OW 5560   2.886   2.431   1.336
 1554SOL    HW1 5561   2.919   2.396   1.249
 1554SOL    HW2 5562   2.961   2.436   1.401
 1555SOL     OW 5563   4.110   0.601   0.217
 1555SOL    HW1 5564   4.098   0.635   0.124
 1555SOL    HW2 5565   4.048   0.649   0.279
 1556SOL     OW 5566   3.769   1.943   6.962
 1556SOL    HW1 5567   3.740   2.037   6.943
 1556SOL    HW2 5568   3.864   1.931   6.933
 1557SOL     OW 5569   1.726   3.478   0.610
 1557SOL    HW1 5570   1.700   3.504   0.702
 1557SOL    HW2 5571   1.802   3.413   0.614
 1558SOL     OW 5572   5.321   2.731   6.635
 1558SOL    HW1 5573   5.370   2.754   6.719
 1558SOL    HW2 5574   5.356   2.645   6.598
 1559SOL     OW 5575   2.735   6.153   3.228
 1559SOL    HW1 5576   2.641   6.150   3.193
 1559SOL    HW2 5577   2.740   6.104   3.315
 1560SOL     OW 5578   4.004   2.702   1.060
 1560SOL    HW1 5579   3.952   2.674   0.980
 1560SOL    HW2 5580   3.971   2.653   1.141
 1561SOL     OW 5581   5.667   6.325   0.898
 1561SOL    HW1 5582   5.705   6.365   0.981
 1561SOL    HW2 5583   5.675   6.225   0.903
 1562SOL     OW 5584   3.643   0.609   1.901
 1562SOL    HW1 5585   3.641   0.654   1.991
 1562SOL    HW2 5586   3.724   0.639   1.852
 1563SOL     OW 5587   1.997   2.643   4.180
 1563SOL    HW1 5588   1.999   2.619   4.277
 1563SOL    HW2 5589   1.984   2.741   4.170
 1564SOL     OW 5590   0.870   1.353   2.870
 1564SOL    HW1 5591   0.810   1.389   2.798
 1564SOL    HW2 5592   0.833   1.266   2.903
 1565SOL     OW 5593   4.735   1.682   5.122
 1565SOL    HW1 5594   4.719   1.615   5.050
 1565SOL    HW2 5595   4.764   1.769   5.082
 1566SOL     OW 5596   6.603   4.143   3.763
 1566SOL    HW1 5597   6.584   4.061   3.817
 1566SOL    HW2 5598   6.641   4.117   3.674
 1567SOL     OW 5599   5.350   0.316   5.096
 1567SOL    HW1 5600   5.398   0.380   5.156
 1567SOL    HW2 5601   5.251   0.332   5.101
 1568SOL     OW 5602   2.955   5.111   1.586
 1568SOL    HW1 5603   2.927   5.027   1.633
 1568SOL    HW2 5604   3.040   5.094   1.536
 1569SOL     OW 5605   2.619   1.441   2.697
 1569SOL    HW1 5606   2.692   1.397   2.749
 1569SOL    HW2 5607   2.605   1.535   2.731
 1570SOL     OW 5608   3.002   6.235   6.354
 1570SOL    HW1 5609   2.948   6.291   6.291
 1570SOL    HW2 5610   3.098   6.233   6.323
 1571SOL     OW 5611   6.968   3.528   4.429
 1571SOL    HW1 5612   6.879   3.562   4.399
 1571SOL    HW2 5613   0.018   3.598   4.411
 1572SOL     OW 5614   2.179   5.954   2.925
 1572SOL    HW1 5615   2.218   5.896   2.853
 1572SOL    HW2 5616   2.176   6.049   2.893
 1573SOL     OW 5617   5.204   5.779   0.600
 1573SOL    HW1 5618   5.271   5.735   0.539
 1573SOL    HW2 5619   5.131   5.820   0.546
 1574SOL     OW 5620   0.883   4.050   2.660
 1574SOL    HW1 5621   0.868   4.115   2.735
 1574SOL    HW2 5622   0.953   3.983   2.687
 1575SOL     OW 5623   0.138   2.499   0.251
 1575SOL    HW1 5624   0.203   2.569   0.223
 1575SOL    HW2 5625   0.151   2.417   0.195
 1576SOL     OW 5626   1.850   5.808   1.631
 1576SOL    HW1 5627   1.812   5.733   1.685
 1576SOL    HW2 5628   1.783   5.883   1.626
 1577SOL     OW 5629   3.316   5.916   4.132
 1577SOL    HW1 5630   3.316   6.013   4.154
 1577SOL    HW2 5631   3.410   5.882   4.132
 1578SOL     OW 5632   4.923   1.348   1.606
 1578SOL    HW1 5633   4.965   1.424   1.555
 1578SOL    HW2 5634   4.838   1.379   1.647
 1579SOL     OW 5635   1.465   3.230   1.472
 1579SOL    HW1 5636   1.395   3.278   1.421
 1579SOL    HW2 5637   1.555   3.250   1.433
 1580SOL     OW 5638   3.220   3.083   2.548
 1580SOL    HW1 5639   3.175   3.056   2.462
 1580SOL    HW2 5640   3.275   3.006   2.582
 1581SOL     OW 5641   6.352   4.240   4.923
 1581SOL    HW1 5642   6.296   4.168   4.963
 1581SOL    HW2 5643   6.414   4.201   4.855
 1582SOL     OW 5644   4.994   5.860   4.938
 1582SOL    HW1 5645   5.070   5.796   4.951
 1582SOL    HW2 5646   4.908   5.813   4.957
 1583SOL     OW 5647   1.736   5.626   5.825
 1583SOL    HW1 5648   1.778   5.577   5.749
 1583SOL    HW2 5649   1.703   5.715   5.793
 1584SOL     OW 5650   0.076   3.792   0.427
 1584SOL    HW1 5651   0.151   3.828   0.483
 1584SOL    HW2 5652   0.046   3.704   0.463
 1585SOL     OW 5653   4.464   6.575   3.746
 1585SOL    HW1 5654   4.378   6.569   3.797
 1585SOL    HW2 5655   4.465   6.660   3.693
 1586SOL     OW 5656   2.901   6.163   2.503
 1586SOL    HW1 5657   2.842   6.215   2.565
 1586SOL    HW2 5658   2.925   6.076   2.546
 1587SOL     OW 5659   3.336   6.574   6.815
 1587SOL    HW1 5660   3.424   6.601   6.777
 1587SOL    HW2 5661   3.263   6.600   6.751
 1588SOL     OW 5662   6.542   1.847   3.309
 1588SOL    HW1 5663   6.583   1.881   3.393
 1588SOL    HW2 5664   6.523   1.923   3.248
 1589SOL     OW 5665   6.771   3.651   4.278
 1589SOL    HW1 5666   6.753   3.631   4.182
 1589SOL    HW2 5667   6.784   3.750   4.289
 1590SOL     OW 5668   6.287   1.375   3.244
 1590SOL    HW1 5669   6.370   1.344   3.291
 1590SOL    HW2 5670   6.292   1.474   3.229
 1591SOL     OW 5671   1.414   5.675   0.736
 1591SOL    HW1 5672   1.481   5.723   0.792
 1591SOL    HW2 5673   1.322   5.710   0.755
 1592SOL     OW 5674   0.254   3.803   5.878
 1592SOL    HW1 5675   0.286   3.796   5.973
 1592SOL    HW2 5676   0.281   3.891   5.840
 1593SOL     OW 5677   3.705   6.436   0.194
 1593SOL    HW1 5678   3.777   6.369   0.213
 1593SOL    HW2 5679   3.636   6.395   0.134
 1594SOL     OW 5680   5.423   0.545   2.692
 1594SOL    HW1 5681   5.454   0.632   2.730
 1594SOL    HW2 5682   5.323   0.538   2.703
 1595SOL     OW 5683   0.494   3.095   0.016
 1595SOL    HW1 5684   0.524   3.129   0.105
 1595SOL    HW2 5685   0.469   3.172   6.977
 1596SOL     OW 5686   4.839   4.705   3.214
 1596SOL    HW1 5687   4.748   4.735   3.244
 1596SOL    HW2 5688   4.848   4.606   3.227
 1597SOL     OW 5689   3.267   6.032   0.185
 1597SOL    HW1 5690   3.192   5.965   0.188
 1597SOL    HW2 5691   3.330   6.016   0.262
 1598SOL     OW 5692   1.026   4.708   6.459
 1598SOL    HW1 5693   0.955   4.767   6.420
 1598SOL    HW2 5694   1.017   4.616   6.419
 1599SOL     OW 5695   4.494   5.430   3.481
 1599SOL    HW1 5696   4.430   5.467   3.548
 1599SOL    HW2 5697   4.475   5.469   3.391
 1600SOL     OW 5698   4.216   0.754   1.769
 1600SOL    HW1 5699   4.296   0.695   1.776
 1600SOL    HW2 5700   4.149   0.712   1.707
 1601SOL     OW 5701   6.693   1.477   4.646
 1601SOL    HW1 5702   6.619   1.419   4.681
 1601SOL    HW2 5703   6.731   1.435   4.564
 1602SOL     OW 5704   4.667   5.865   3.926
 1602SOL    HW1 5705   4.758   5.877   3.885
 1602SOL    HW2 5706   4.597   5.896   3.862
 1603SOL     OW 5707   2.836   4.806   2.805
 1603SOL    HW1 5708   2.746   4.775   2.836
 1603SOL    HW2 5709   2.838   4.906   2.801
 1604SOL     OW 5710   4.564   4.877   2.822
 1604SOL    HW1 5711   4.616   4.804   2.868
 1604SOL    HW2 5712   4.628   4.947   2.790
 1605SOL     OW 5713   4.807   4.714   0.554
 1605SOL    HW1 5714   4.847   4.806   0.559
 1605SOL    HW2 5715   4.737   4.705   0.624
 1606SOL     OW 5716   3.085   6.252   4.844
 1606SOL    HW1 5717   3.035   6.166   4.855
 1606SOL    HW2 5718   3.182   6.236   4.865
 1607SOL     OW 5719   4.809   4.534   3.955
 1607SOL    HW1 5720   4.809   4.599   3.878
 1607SOL    HW2 5721   4.718   4.492   3.962
 1608SOL     OW 5722   5.911   2.231   3.563
 1608SOL    HW1 5723   5.897   2.263   3.657
 1608SOL    HW2 5724   5.824   2.198   3.526
 1609SOL     OW 5725   2.270   6.673   1.588
 1609SOL    HW1 5726   2.363   6.688   1.621
 1609SOL    HW2 5727   2.216   6.756   1.601
 1610SOL     OW 5728   5.719   6.815   0.920
 1610SOL    HW1 5729   5.813   6.822   0.888
 1610SOL    HW2 5730   5.663   6.883   0.872
 1611SOL     OW 5731   1.404   4.155   0.334
 1611SOL    HW1 5732   1.337   4.149   0.408
 1611SOL    HW2 5733   1.359   4.137   0.247
 1612SOL     OW 5734   4.427   1.460   2.532
 1612SOL    HW1 5735   4.357   1.497   2.471
 1612SOL    HW2 5736   4.480   1.390   2.484
 1613SOL     OW 5737   6.734   5.554   2.434
 1613SOL    HW1 5738   6.766   5.533   2.527
 1613SOL    HW2 5739   6.770   5.487   2.370
 1614SOL     OW 5740   6.486   1.640   6.068
 1614SOL    HW1 5741   6.421   1.714   6.052
 1614SOL    HW2 5742   6.438   1.552   6.061
 1615SOL     OW 5743   0.132   4.086   6.100
 1615SOL    HW1 5744   0.121   4.139   6.016
 1615SOL    HW2 5745   0.217   4.113   6.146
 1616SOL     OW 5746   0.754   0.255   3.931
 1616SOL    HW1 5747   0.748   0.353   3.913
 1616SOL    HW2 5748   0.662   0.218   3.944
 1617SOL     OW 5749   6.712   5.802   3.385
 1617SOL    HW1 5750   6.647   5.742   3.431
 1617SOL    HW2 5751   6.777   5.746   3.332
 1618SOL     OW 5752   3.285   5.477   3.092
 1618SOL    HW1 5753   3.218   5.547   3.115
 1618SOL    HW2 5754   3.307   5.423   3.173
 1619SOL     OW 5755   0.474   4.532   6.430
 1619SOL    HW1 5756   0.387   4.572   6.459
 1619SOL    HW2 5757   0.483   4.441   6.470
 1620SOL     OW 5758   3.319   6.190   4.179
 1620SOL    HW1 5759   3.313   6.238   4.267
 1620SOL    HW2 5760   3.258   6.235   4.113
 1621SOL     OW 5761   4.498   5.465   0.644
 1621SOL    HW1 5762   4.423   5.464   0.578
 1621SOL    HW2 5763   4.546   5.553   0.640
 1622SOL     OW 5764   6.340   4.026   4.125
 1622SOL    HW1 5765   6.394   4.043   4.207
 1622SOL    HW2 5766   6.272   4.099   4.114
 1623SOL     OW 5767   0.081   2.572   2.968
 1623SOL    HW1 5768   7.010   2.534   2.956
 1623SOL    HW2 5769   0.087   2.617   3.057
 1624SOL     OW 5770   3.851   3.115   0.402
 1624SOL    HW1 5771   3.890   3.205   0.420
 1624SOL    HW2 5772   3.799   3.085   0.482
 1625SOL     OW 5773   0.710   6.761   0.727
 1625SOL    HW1 5774   0.775   6.836   0.713
 1625SOL    HW2 5775   0.652   6.751   0.645
 1626SOL     OW 5776   2.876   1.760   1.672
 1626SOL    HW1 5777   2.926   1.709   1.602
 1626SOL    HW2 5778   2.814   1.824   1.628
 1627SOL     OW 5779   4.043   2.181   6.039
 1627SOL    HW1 5780   4.041   2.235   5.955
 1627SOL    HW2 5781   4.138   2.174   6.071
 1628SOL     OW 5782   5.605   0.001   0.801
 1628SOL    HW1 5783   5.660   0.013   0.719
 1628SOL    HW2 5784   5.508   0.010   0.779
 1629SOL     OW 5785   1.040   0.189   3.579
 1629SOL    HW1 5786   0.955   0.241   3.567
 1629SOL    HW2 5787   1.055   0.172   3.676
 1630SOL     OW 5788   0.359   3.599   6.378
 1630SOL    HW1 5789   0.293   3.528   6.399
 1630SOL    HW2 5790   0.441   3.587   6.435
 1631SOL     OW 5791   6.541   3.564   0.636
 1631SOL    HW1 5792   6.445   3.591   0.638
 1631SOL    HW2 5793   6.563   3.511   0.718
 1632SOL     OW 5794   6.563   5.740   2.144
 1632SOL    HW1 5795   6.543   5.664   2.082
 1632SOL    HW2 5796   6.496   5.814   2.129
 1633SOL     OW 5797   5.381   3.297   4.982
 1633SOL    HW1 5798   5.311   3.228   4.966
 1633SOL    HW2 5799   5.471   3.258   4.965
 1634SOL     OW 5800   0.432   2.804   5.908
 1634SOL    HW1 5801   0.440   2.712   5.947
 1634SOL    HW2 5802   0.338   2.819   5.877
 1635SOL     OW 5803   3.241   6.657   3.715
 1635SOL    HW1 5804   3.183   6.576   3.718
 1635SOL    HW2 5805   3.236   6.704   3.803
 1636SOL     OW 5806   6.369   5.830   1.198
 1636SOL    HW1 5807   6.376   5.922   1.234
 1636SOL    HW2 5808   6.451   5.808   1.145
 1637SOL     OW 5809   1.184   1.247   2.907
 1637SOL    HW1 5810   1.158   1.239   3.004
 1637SOL    HW2 5811   1.147   1.170   2.856
 1638SOL     OW 5812   5.483   2.438   2.321
 1638SOL    HW1 5813   5.543   2.398   2.252
 1638SOL    HW2 5814   5.451   2.366   2.382
 1639SOL     OW 5815   5.185   2.228   2.131
 1639SOL    HW1 5816   5.255   2.165   2.099
 1639SOL    HW2 5817   5.105   2.221   2.071
 1640SOL     OW 5818   5.595   0.730   6.157
 1640SOL    HW1 5819   5.650   0.760   6.236
 1640SOL    HW2 5820   5.631   0.644   6.122
 1641SOL     OW 5821   6.431   1.960   3.085
 1641SOL    HW1 5822   6.333   1.979   3.078
 1641SOL    HW2 5823   6.450   1.869   3.049
 1642SOL     OW 5824   6.951   3.500   6.356
 1642SOL    HW1 5825   6.932   3.405   6.330
 1642SOL    HW2 5826   0.010   3.503   6.416
 1643SOL     OW 5827   2.243   5.182   4.095
 1643SOL    HW1 5828   2.211   5.239   4.020
 1643SOL    HW2 5829   2.201   5.092   4.089
 1644SOL     OW 5830   6.159   2.103   1.585
 1644SOL    HW1 5831   6.093   2.035   1.618
 1644SOL    HW2 5832   6.215   2.134   1.662
 1645SOL     OW 5833   2.261   1.005   5.415
 1645SOL    HW1 5834   2.273   1.103   5.429
 1645SOL    HW2 5835   2.331   0.954   5.465
 1646SOL     OW 5836   1.086   4.912   0.885
 1646SOL    HW1 5837   1.169   4.966   0.898
 1646SOL    HW2 5838   1.104   4.817   0.910
 1647SOL     OW 5839   5.645   3.029   4.502
 1647SOL    HW1 5840   5.656   2.930   4.504
 1647SOL    HW2 5841   5.550   3.052   4.483
 1648SOL     OW 5842   5.737   6.085   1.586
 1648SOL    HW1 5843   5.701   6.136   1.664
 1648SOL    HW2 5844   5.753   6.149   1.510
 1649SOL     OW 5845   3.571   1.644   3.566
 1649SOL    HW1 5846   3.532   1.583   3.497
 1649SOL    HW2 5847   3.649   1.598   3.610
 1650SOL     OW 5848   3.013   3.608   5.447
 1650SOL    HW1 5849   2.938   3.659   5.405
 1650SOL    HW2 5850   3.085   3.593   5.380
 1651SOL     OW 5851   0.573   2.294   3.447
 1651SOL    HW1 5852   0.611   2.335   3.365
 1651SOL    HW2 5853   0.592   2.196   3.447
 1652SOL     OW 5854   0.738   3.351   1.716
 1652SOL    HW1 5855   0.714   3.334   1.621
 1652SOL    HW2 5856   0.744   3.450   1.733
 1653SOL     OW 5857   0.431   4.853   2.064
 1653SOL    HW1 5858   0.504   4.843   1.996
 1653SOL    HW2 5859   0.464   4.906   2.142
 1654SOL     OW 5860   0.332   3.404   1.941
 1654SOL    HW1 5861   0.331   3.398   2.041
 1654SOL    HW2 5862   0.317   3.498   1.913
 1655SOL     OW 5863   0.623   0.534   5.645
 1655SOL    HW1 5864   0.564   0.455   5.660
 1655SOL    HW2 5865   0.669   0.558   5.731
 1656SOL     OW 5866   2.176   4.091   3.016
 1656SOL    HW1 5867   2.116   4.127   2.944
 1656SOL    HW2 5868   2.209   4.166   3.073
 1657SOL     OW 5869   0.140   6.875   5.988
 1657SOL    HW1 5870   0.193   6.958   5.973
 1657SOL    HW2 5871   0.047   6.888   5.953
 1658SOL     OW 5872   5.468   6.552   6.206
 1658SOL    HW1 5873   5.483   6.464   6.162
 1658SOL    HW2 5874   5.393   6.599   6.160
 1659SOL     OW 5875   4.230   6.614   5.721
 1659SOL    HW1 5876   4.237   6.514   5.730
 1659SOL    HW2 5877   4.134   6.641   5.732
 1660SOL     OW 5878   2.102   0.607   2.176
 1660SOL    HW1 5879   2.015   0.594   2.223
 1660SOL    HW2 5880   2.142   0.518   2.155
 1661SOL     OW 5881   4.845   3.800   2.856
 1661SOL    HW1 5882   4.853   3.765   2.763
 1661SOL    HW2 5883   4.860   3.726   2.921
 1662SOL     OW 5884   0.278   2.186   3.726
 1662SOL    HW1 5885   0.313   2.136   3.647
 1662SOL    HW2 5886   0.233   2.122   3.789
 1663SOL     OW 5887   5.118   4.405   0.963
 1663SOL    HW1 5888   5.061   4.487   0.962
 1663SOL    HW2 5889   5.214   4.432   0.968
 1664SOL     OW 5890   1.337   0.445   6.309
 1664SOL    HW1 5891   1.254   0.498   6.293
 1664SOL    HW2 5892   1.369   0.461   6.402
 1665SOL     OW 5893   2.751   4.501   6.656
 1665SOL    HW1 5894   2.804   4.569   6.606
 1665SOL    HW2 5895   2.809   4.423   6.678
 1666SOL     OW 5896   4.748   6.527   6.362
 1666SOL    HW1 5897   4.828   6.527   6.422
 1666SOL    HW2 5898   4.692   6.447   6.381
 1667SOL     OW 5899   6.725   5.628   0.527
 1667SOL    HW1 5900   6.642   5.588   0.565
 1667SOL    HW2 5901   6.714   5.640   0.428
 1668SOL     OW 5902   5.719   3.817   2.348
 1668SOL    HW1 5903   5.804   3.864   2.326
 1668SOL    HW2 5904   5.646   3.847   2.286
 1669SOL     OW 5905   6.787   3.226   5.438
 1669SOL    HW1 5906   6.726   3.292   5.395
 1669SOL    HW2 5907   6.862   3.275   5.482
 1670SOL     OW 5908   2.689   4.534   5.679
 1670SOL    HW1 5909   2.742   4.619   5.673
 1670SOL    HW2 5910   2.599   4.555   5.717
 1671SOL     OW 5911   5.774   2.661   0.506
 1671SOL    HW1 5912   5.785   2.760   0.490
 1671SOL    HW2 5913   5.690   2.629   0.464
 1672SOL     OW 5914   0.619   2.495   1.234
 1672SOL    HW1 5915   0.523   2.489   1.207
 1672SOL    HW2 5916   0.625   2.490   1.334
 1673SOL     OW 5917   1.224   0.561   4.464
 1673SOL    HW1 5918   1.261   0.652   4.482
 1673SOL    HW2 5919   1.289   0.491   4.495
 1674SOL     OW 5920   4.994   1.867   2.838
 1674SOL    HW1 5921   4.903   1.893   2.869
 1674SOL    HW2 5922   5.022   1.928   2.764
 1675SOL     OW 5923   5.011   0.407   1.721
 1675SOL    HW1 5924   5.005   0.435   1.817
 1675SOL    HW2 5925   4.973   0.315   1.711
 1676SOL     OW 5926   0.945   2.567   3.604
 1676SOL    HW1 5927   0.892   2.580   3.520
 1676SOL    HW2 5928   0.903   2.495   3.659
 1677SOL     OW 5929   3.381   3.185   3.217
 1677SOL    HW1 5930   3.393   3.245   3.296
 1677SOL    HW2 5931   3.293   3.205   3.174
 1678SOL     OW 5932   1.393   0.326   0.734
 1678SOL    HW1 5933   1.481   0.344   0.778
 1678SOL    HW2 5934   1.406   0.316   0.635
 1679SOL     OW 5935   6.559   1.473   6.634
 1679SOL    HW1 5936   6.469   1.458   6.675
 1679SOL    HW2 5937   6.619   1.396   6.656
 1680SOL     OW 5938   5.755   2.439   3.358
 1680SOL    HW1 5939   5.684   2.388   3.309
 1680SOL    HW2 5940   5.799   2.380   3.425
 1681SOL     OW 5941   3.314   6.143   5.019
 1681SOL    HW1 5942   3.343   6.074   4.952
 1681SOL    HW2 5943   3.261   6.098   5.091
 1682SOL     OW 5944   3.580   0.469   4.259
 1682SOL    HW1 5945   3.599   0.555   4.306
 1682SOL    HW2 5946   3.526   0.409   4.318
 1683SOL     OW 5947   6.342   3.164   3.264
 1683SOL    HW1 5948   6.245   3.140   3.250
 1683SOL    HW2 5949   6.369   3.137   3.356
 1684SOL     OW 5950   2.731   4.845   1.882
 1684SOL    HW1 5951   2.772   4.765   1.926
 1684SOL    HW2 5952   2.734   4.923   1.945
 1685SOL     OW 5953   6.901   1.467   5.675
 1685SOL    HW1 5954   6.840   1.540   5.706
 1685SOL    HW2 5955   6.978   1.507   5.626
 1686SOL     OW 5956   4.520   5.495   2.720
 1686SOL    HW1 5957   4.520   5.593   2.699
 1686SOL    HW2 5958   4.565   5.480   2.808
 1687SOL     OW 5959   4.942   4.619   0.887
 1687SOL    HW1 5960   4.955   4.634   0.789
 1687SOL    HW2 5961   4.987   4.693   0.938
 1688SOL     OW 5962   1.298   0.211   3.202
 1688SOL    HW1 5963   1.254   0.267   3.133
 1688SOL    HW2 5964   1.387   0.180   3.169
 1689SOL     OW 5965   4.818   0.552   1.412
 1689SOL    HW1 5966   4.746   0.621   1.419
 1689SOL    HW2 5967   4.794   0.474   1.470
 1690SOL     OW 5968   6.617   4.906   3.826
 1690SOL    HW1 5969   6.579   4.984   3.775
 1690SOL    HW2 5970   6.600   4.822   3.774
 1691SOL     OW 5971   4.432   2.698   5.223
 1691SOL    HW1 5972   4.422   2.616   5.278
 1691SOL    HW2 5973   4.404   2.679   5.129
 1692SOL     OW 5974   5.072   4.951   1.352
 1692SOL    HW1 5975   5.134   5.026   1.327
 1692SOL    HW2 5976   4.983   4.989   1.379
 1693SOL     OW 5977   5.747   6.610   6.286
 1693SOL    HW1 5978   5.657   6.574   6.261
 1693SOL    HW2 5979   5.809   6.534   6.304
 1694SOL     OW 5980   4.790   1.868   5.951
 1694SOL    HW1 5981   4.808   1.791   6.013
 1694SOL    HW2 5982   4.869   1.929   5.950
 1695SOL     OW 5983   3.467   0.524   5.865
 1695SOL    HW1 5984   3.481   0.519   5.766
 1695SOL    HW2 5985   3.555   0.518   5.912
 1696SOL     OW 5986   4.118   6.410   0.747
 1696SOL    HW1 5987   4.133   6.394   0.844
 1696SOL    HW2 5988   4.206   6.415   0.700
 1697SOL     OW 5989   4.797   2.743   1.978
 1697SOL    HW1 5990   4.732   2.697   2.039
 1697SOL    HW2 5991   4.792   2.842   1.993
 1698SOL     OW 5992   4.066   1.349   1.279
 1698SOL    HW1 5993   4.133   1.311   1.215
 1698SOL    HW2 5994   4.076   1.306   1.369
 1699SOL     OW 5995   2.194   0.228   0.412
 1699SOL    HW1 5996   2.108   0.259   0.452
 1699SOL    HW2 5997   2.244   0.306   0.375
 1700SOL     OW 5998   5.561   2.805   2.869
 1700SOL    HW1 5999   5.469   2.838   2.848
 1700SOL    HW2 6000   5.615   2.802   2.785
 1701SOL     OW 6001   0.132   6.408   5.049
 1701SOL    HW1 6002   0.162   6.315   5.070
 1701SOL    HW2 6003   0.032   6.409   5.039
 1702SOL     OW 6004   2.173   2.472   0.010
 1702SOL    HW1 6005   2.196   2.407   0.083
 1702SOL    HW2 6006   2.084   2.513   0.030
 1703SOL     OW 6007   1.192   1.714   1.915
 1703SOL    HW1 6008   1.166   1.763   1.832
 1703SOL    HW2 6009   1.247   1.634   1.891
 1704SOL     OW 6010   2.755   2.654   0.295
 1704SOL    HW1 6011   2.741   2.618   0.387
 1704SOL    HW2 6012   2.797   2.584   0.237
 1705SOL     OW 6013   4.450   2.819   0.546
 1705SOL    HW1 6014   4.524   2.879   0.577
 1705SOL    HW2 6015   4.404   2.780   0.625
 1706SOL     OW 6016   6.187   2.065   6.545
 1706SOL    HW1 6017   6.243   2.052   6.463
 1706SOL    HW2 6018   6.143   2.155   6.541
 1707SOL     OW 6019   3.872   1.287   2.199
 1707SOL    HW1 6020   3.850   1.257   2.292
 1707SOL    HW2 6021   3.792   1.276   2.140
 1708SOL     OW 6022   2.935   4.802   2.117
 1708SOL    HW1 6023   2.885   4.726   2.076
 1708SOL    HW2 6024   2.871   4.875   2.142
 1709SOL     OW 6025   5.021   4.946   0.856
 1709SOL    HW1 6026   4.945   5.002   0.888
 1709SOL    HW2 6027   5.092   4.942   0.926
 1710SOL     OW 6028   4.863   3.894   2.258
 1710SOL    HW1 6029   4.807   3.962   2.210
 1710SOL    HW2 6030   4.850   3.905   2.357
 1711SOL     OW 6031   3.992   5.550   0.077
 1711SOL    HW1 6032   4.052   5.524   0.001
 1711SOL    HW2 6033   3.969   5.469   0.131
 1712SOL     OW 6034   0.748   1.687   1.996
 1712SOL    HW1 6035   0.726   1.679   2.093
 1712SOL    HW2 6036   0.791   1.602   1.965
 1713SOL     OW 6037   2.824   1.584   2.988
 1713SOL    HW1 6038   2.904   1.637   3.017
 1713SOL    HW2 6039   2.788   1.532   3.065
 1714SOL     OW 6040   2.844   3.805   1.049
 1714SOL    HW1 6041   2.866   3.796   0.952
 1714SOL    HW2 6042   2.922   3.846   1.097
 1715SOL     OW 6043   1.267   6.223   1.518
 1715SOL    HW1 6044   1.343   6.264   1.568
 1715SOL    HW2 6045   1.223   6.292   1.461
 1716SOL     OW 6046   3.817   1.479   3.184
 1716SOL    HW1 6047   3.793   1.575   3.177
 1716SOL    HW2 6048   3.863   1.449   3.101
 1717SOL     OW 6049   3.159   5.698   4.195
 1717SOL    HW1 6050   3.146   5.708   4.294
 1717SOL    HW2 6051   3.210   5.776   4.160
 1718SOL     OW 6052   1.893   2.888   1.353
 1718SOL    HW1 6053   1.975   2.946   1.355
 1718SOL    HW2 6054   1.815   2.940   1.387
 1719SOL     OW 6055   1.253   5.433   2.541
 1719SOL    HW1 6056   1.340   5.436   2.589
 1719SOL    HW2 6057   1.188   5.379   2.593
 1720SOL     OW 6058   0.996   3.514   5.455
 1720SOL    HW1 6059   0.967   3.479   5.366
 1720SOL    HW2 6060   1.000   3.439   5.521
 1721SOL     OW 6061   1.917   2.795   0.366
 1721SOL    HW1 6062   1.869   2.714   0.399
 1721SOL    HW2 6063   2.006   2.769   0.329
 1722SOL     OW 6064   2.215   2.177   4.315
 1722SOL    HW1 6065   2.206   2.265   4.268
 1722SOL    HW2 6066   2.309   2.166   4.346
 1723SOL     OW 6067   5.748   4.331   1.453
 1723SOL    HW1 6068   5.667   4.387   1.467
 1723SOL    HW2 6069   5.763   4.317   1.355
 1724SOL     OW 6070   5.087   2.350   1.078
 1724SOL    HW1 6071   5.119   2.401   0.998
 1724SOL    HW2 6072   5.004   2.392   1.114
 1725SOL     OW 6073   1.745   6.360   5.861
 1725SOL    HW1 6074   1.789   6.450   5.865
 1725SOL    HW2 6075   1.646   6.372   5.854
 1726SOL     OW 6076   5.148   4.419   2.767
 1726SOL    HW1 6077   5.246   4.436   2.756
 1726SOL    HW2 6078   5.120   4.345   2.705
 1727SOL     OW 6079   3.047   3.902   3.284
 1727SOL    HW1 6080   3.095   3.990   3.284
 1727SOL    HW2 6081   2.968   3.907   3.345
 1728SOL     OW 6082   5.854   2.491   4.047
 1728SOL    HW1 6083   5.891   2.584   4.057
 1728SOL    HW2 6084   5.755   2.496   4.040
 1729SOL     OW 6085   1.367   2.666   2.725
 1729SOL    HW1 6086   1.279   2.711   2.739
 1729SOL    HW2 6087   1.383   2.653   2.627
 1730SOL     OW 6088   2.119   6.366   4.571
 1730SOL    HW1 6089   2.021   6.387   4.565
 1730SOL    HW2 6090   2.134   6.272   4.539
 1731SOL     OW 6091   4.987   4.962   3.589
 1731SOL    HW1 6092   4.976   5.041   3.649
 1731SOL    HW2 6093   5.017   4.883   3.643
 1732SOL     OW 6094   2.912   3.762   5.113
 1732SOL    HW1 6095   2.842   3.733   5.177
 1732SOL    HW2 6096   2.938   3.684   5.055
 1733SOL     OW 6097   1.785   2.785   6.217
 1733SOL    HW1 6098   1.860   2.804   6.280
 1733SOL    HW2 6099   1.734   2.869   6.200
 1734SOL     OW 6100   6.766   2.783   1.010
 1734SOL    HW1 6101   6.692   2.845   0.984
 1734SOL    HW2 6102   6.732   2.718   1.079
 1735SOL     OW 6103   3.685   5.369   6.266
 1735SOL    HW1 6104   3.766   5.325   6.305
 1735SOL    HW2 6105   3.695   5.468   6.270
 1736SOL     OW 6106   5.201   2.345   6.386
 1736SOL    HW1 6107   5.105   2.318   6.384
 1736SOL    HW2 6108   5.259   2.264   6.394
 1737SOL     OW 6109   3.390   0.775   5.971
 1737SOL    HW1 6110   3.422   0.688   5.934
 1737SOL    HW2 6111   3.295   0.790   5.944
 1738SOL     OW 6112   2.033   3.360   2.458
 1738SOL    HW1 6113   2.081   3.420   2.394
 1738SOL    HW2 6114   1.979   3.416   2.521
 1739SOL     OW 6115   5.456   6.405   3.076
 1739SOL    HW1 6116   5.500   6.368   3.157
 1739SOL    HW2 6117   5.432   6.331   3.013
 1740SOL     OW 6118   6.537   2.910   5.029
 1740SOL    HW1 6119   6.505   3.005   5.023
 1740SOL    HW2 6120   6.548   2.885   5.125
 1741SOL     OW 6121   0.699   1.962   4.903
 1741SOL    HW1 6122   0.782   2.012   4.928
 1741SOL    HW2 6123   0.649   2.014   4.834
 1742SOL     OW 6124   6.345   6.581   6.835
 1742SOL    HW1 6125   6.266   6.642   6.845
 1742SOL    HW2 6126   6.373   6.578   6.739
 1743SOL     OW 6127   1.755   2.301   2.042
 1743SOL    HW1 6128   1.824   2.367   2.011
 1743SOL    HW2 6129   1.725   2.245   1.964
 1744SOL     OW 6130   3.582   2.467   5.625
 1744SOL    HW1 6131   3.533   2.387   5.592
 1744SOL    HW2 6132   3.519   2.529   5.672
 1745SOL     OW 6133   6.497   6.159   1.280
 1745SOL    HW1 6134   6.476   6.148   1.377
 1745SOL    HW2 6135   6.437   6.229   1.241
 1746SOL     OW 6136   2.646   4.769   3.253
 1746SOL    HW1 6137   2.745   4.757   3.254
 1746SOL    HW2 6138   2.620   4.837   3.322
 1747SOL     OW 6139   3.804   6.986   2.693
 1747SOL    HW1 6140   3.891   6.952   2.729
 1747SOL    HW2 6141   3.788   0.059   2.726
 1748SOL     OW 6142   6.921   2.457   4.707
 1748SOL    HW1 6143   6.833   2.493   4.677
 1748SOL    HW2 6144   6.960   2.400   4.635
 1749SOL     OW 6145   6.647   5.434   1.516
 1749SOL    HW1 6146   6.693   5.522   1.499
 1749SOL    HW2 6147   6.704   5.377   1.574
 1750SOL     OW 6148   3.258   0.919   0.332
 1750SOL    HW1 6149   3.248   0.823   0.308
 1750SOL    HW2 6150   3.167   0.958   0.350
 1751SOL     OW 6151   5.602   3.414   4.778
 1751SOL    HW1 6152   5.559   3.500   4.807
 1751SOL    HW2 6153   5.556   3.380   4.696
 1752SOL     OW 6154   0.443   0.715   2.407
 1752SOL    HW1 6155   0.346   0.690   2.418
 1752SOL    HW2 6156   0.489   0.706   2.496
 1753SOL     OW 6157   7.001   1.452   1.299
 1753SOL    HW1 6158   0.049   1.497   1.242
 1753SOL    HW2 6159   6.910   1.486   1.276
 1754SOL     OW 6160   2.894   5.175   3.289
 1754SOL    HW1 6161   2.979   5.175   3.237
 1754SOL    HW2 6162   2.816   5.186   3.227
 1755SOL     OW 6163   6.821   0.389   5.819
 1755SOL    HW1 6164   6.760   0.363   5.894
 1755SOL    HW2 6165   6.813   0.322   5.745
 1756SOL     OW 6166   4.583   5.745   0.729
 1756SOL    HW1 6167   4.537   5.800   0.659
 1756SOL    HW2 6168   4.521   5.729   0.805
 1757SOL     OW 6169   2.813   4.655   5.364
 1757SOL    HW1 6170   2.728   4.604   5.355
 1757SOL    HW2 6171   2.877   4.627   5.293
 1758SOL     OW 6172   1.359   6.345   4.069
 1758SOL    HW1 6173   1.360   6.301   4.158
 1758SOL    HW2 6174   1.314   6.434   4.077
 1759SOL     OW 6175   1.109   5.634   0.253
 1759SOL    HW1 6176   1.018   5.592   0.250
 1759SOL    HW2 6177   1.109   5.716   0.196
 1760SOL     OW 6178   6.912   1.748   4.542
 1760SOL    HW1 6179   6.852   1.824   4.566
 1760SOL    HW2 6180   6.942   1.702   4.626
 1761SOL     OW 6181   5.283   1.178   2.664
 1761SOL    HW1 6182   5.287   1.259   2.722
 1761SOL    HW2 6183   5.334   1.195   2.580
 1762SOL     OW 6184   0.554   1.866   5.869
 1762SOL    HW1 6185   0.558   1.822   5.959
 1762SOL    HW2 6186   0.460   1.863   5.835
 1763SOL     OW 6187   1.317   5.179   3.663
 1763SOL    HW1 6188   1.400   5.231   3.682
 1763SOL    HW2 6189   1.307   5.105   3.730
 1764SOL     OW 6190   0.558   6.168   3.559
 1764SOL    HW1 6191   0.560   6.193   3.462
 1764SOL    HW2 6192   0.612   6.086   3.574
 1765SOL     OW 6193   5.727   4.067   1.759
 1765SOL    HW1 6194   5.681   4.042   1.844
 1765SOL    HW2 6195   5.674   4.032   1.682
 1766SOL     OW 6196   4.579   4.417   4.006
 1766SOL    HW1 6197   4.516   4.461   4.070
 1766SOL    HW2 6198   4.528   4.363   3.940
 1767SOL     OW 6199   0.352   4.994   1.545
 1767SOL    HW1 6200   0.329   4.982   1.642
 1767SOL    HW2 6201   0.271   4.973   1.489
 1768SOL     OW 6202   5.037   4.404   2.444
 1768SOL    HW1 6203   4.980   4.414   2.363
 1768SOL    HW2 6204   5.008   4.323   2.495
 1769SOL     OW 6205   5.398   0.409   0.856
 1769SOL    HW1 6206   5.467   0.390   0.786
 1769SOL    HW2 6207   5.441   0.459   0.932
 1770SOL     OW 6208   1.818   4.917   0.402
 1770SOL    HW1 6209   1.866   4.990   0.451
 1770SOL    HW2 6210   1.785   4.849   0.468
 1771SOL     OW 6211   1.986   3.412   6.083
 1771SOL    HW1 6212   1.895   3.397   6.121
 1771SOL    HW2 6213   2.006   3.340   6.016
 1772SOL     OW 6214   2.139   3.803   2.629
 1772SOL    HW1 6215   2.075   3.768   2.560
 1772SOL    HW2 6216   2.129   3.903   2.636
 1773SOL     OW 6217   2.212   6.477   6.007
 1773SOL    HW1 6218   2.252   6.451   6.095
 1773SOL    HW2 6219   2.202   6.577   6.004
 1774SOL     OW 6220   5.872   5.746   1.205
 1774SOL    HW1 6221   5.892   5.786   1.295
 1774SOL    HW2 6222   5.774   5.752   1.187
 1775SOL     OW 6223   2.126   5.285   0.859
 1775SOL    HW1 6224   2.197   5.256   0.923
 1775SOL    HW2 6225   2.159   5.274   0.765
 1776SOL     OW 6226   4.701   2.967   6.129
 1776SOL    HW1 6227   4.620   2.962   6.187
 1776SOL    HW2 6228   4.676   3.006   6.041
 1777SOL     OW 6229   4.323   6.348   6.785
 1777SOL    HW1 6230   4.285   6.414   6.849
 1777SOL    HW2 6231   4.356   6.395   6.704
 1778SOL     OW 6232   5.914   0.250   4.266
 1778SOL    HW1 6233   6.011   0.265   4.250
 1778SOL    HW2 6234   5.878   0.188   4.197
 1779SOL     OW 6235   5.247   0.859   4.705
 1779SOL    HW1 6236   5.180   0.930   4.726
 1779SOL    HW2 6237   5.225   0.776   4.757
 1780SOL     OW 6238   2.311   5.818   5.860
 1780SOL    HW1 6239   2.409   5.808   5.875
 1780SOL    HW2 6240   2.267   5.729   5.868
 1781SOL     OW 6241   3.888   1.092   5.572
 1781SOL    HW1 6242   3.803   1.104   5.622
 1781SOL    HW2 6243   3.914   1.178   5.529
 1782SOL     OW 6244   4.853   1.297   2.488
 1782SOL    HW1 6245   4.895   1.319   2.576
 1782SOL    HW2 6246   4.886   1.208   2.457
 1783SOL     OW 6247   1.683   4.505   0.025
 1783SOL    HW1 6248   1.665   4.473   0.118
 1783SOL    HW2 6249   1.709   4.428   6.988
 1784SOL     OW 6250   2.758   6.636   1.599
 1784SOL    HW1 6251   2.736   6.561   1.661
 1784SOL    HW2 6252   2.763   6.602   1.506
 1785SOL     OW 6253   1.550   6.795   4.447
 1785SOL    HW1 6254   1.544   6.840   4.357
 1785SOL    HW2 6255   1.609   6.715   4.440
 1786SOL     OW 6256   0.826   6.088   1.423
 1786SOL    HW1 6257   0.786   6.033   1.349
 1786SOL    HW2 6258   0.829   6.033   1.507
 1787SOL     OW 6259   1.673   3.494   5.701
 1787SOL    HW1 6260   1.698   3.470   5.607
 1787SOL    HW2 6261   1.754   3.524   5.750
 1788SOL     OW 6262   4.171   3.397   0.730
 1788SOL    HW1 6263   4.172   3.298   0.722
 1788SOL    HW2 6264   4.218   3.438   0.652
 1789SOL     OW 6265   6.129   3.264   2.444
 1789SOL    HW1 6266   6.143   3.176   2.398
 1789SOL    HW2 6267   6.212   3.289   2.494
 1790SOL     OW 6268   1.468   2.363   4.983
 1790SOL    HW1 6269   1.421   2.306   5.051
 1790SOL    HW2 6270   1.467   2.317   4.895
 1791SOL     OW 6271   4.990   0.466   3.546
 1791SOL    HW1 6272   4.911   0.450   3.605
 1791SOL    HW2 6273   5.035   0.551   3.573
 1792SOL     OW 6274   6.828   2.506   6.639
 1792SOL    HW1 6275   6.811   2.569   6.563
 1792SOL    HW2 6276   6.749   2.446   6.649
 1793SOL     OW 6277   6.790   1.783   5.097
 1793SOL    HW1 6278   6.763   1.774   5.193
 1793SOL    HW2 6279   6.756   1.705   5.046
 1794SOL     OW 6280   0.256   1.472   6.428
 1794SOL    HW1 6281   0.318   1.463   6.506
 1794SOL    HW2 6282   0.308   1.473   6.343
 1795SOL     OW 6283   5.471   5.069   1.018
 1795SOL    HW1 6284   5.503   5.143   1.078
 1795SOL    HW2 6285   5.550   5.024   0.977
 1796SOL     OW 6286   6.612   0.155   0.791
 1796SOL    HW1 6287   6.643   0.062   0.771
 1796SOL    HW2 6288   6.680   0.221   0.759
 1797SOL     OW 6289   2.770   5.784   5.738
 1797SOL    HW1 6290   2.824   5.821   5.814
 1797SOL    HW2 6291   2.818   5.800   5.652
 1798SOL     OW 6292   2.287   4.046   5.654
 1798SOL    HW1 6293   2.286   4.064   5.555
 1798SOL    HW2 6294   2.381   4.045   5.687
 1799SOL     OW 6295   3.000   1.143   1.760
 1799SOL    HW1 6296   2.966   1.158   1.853
 1799SOL    HW2 6297   3.068   1.213   1.738
 1800SOL     OW 6298   6.140   3.233   5.550
 1800SOL    HW1 6299   6.135   3.290   5.631
 1800SOL    HW2 6300   6.231   3.193   5.542
 1801SOL     OW 6301   0.479   0.598   3.182
 1801SOL    HW1 6302   0.524   0.684   3.202
 1801SOL    HW2 6303   0.412   0.578   3.254
 1802SOL     OW 6304   6.189   4.793   3.830
 1802SOL    HW1 6305   6.261   4.811   3.763
 1802SOL    HW2 6306   6.199   4.857   3.907
 1803SOL     OW 6307   6.688   0.084   4.177
 1803SOL    HW1 6308   6.649   0.030   4.103
 1803SOL    HW2 6309   6.702   0.178   4.147
 1804SOL     OW 6310   2.002   2.286   6.135
 1804SOL    HW1 6311   2.066   2.309   6.062
 1804SOL    HW2 6312   1.950   2.367   6.161
 1805SOL     OW 6313   6.459   4.781   0.935
 1805SOL    HW1 6314   6.406   4.843   0.992
 1805SOL    HW2 6315   6.417   4.775   0.844
 1806SOL     OW 6316   0.619   1.585   0.842
 1806SOL    HW1 6317   0.559   1.616   0.769
 1806SOL    HW2 6318   0.574   1.598   0.930
 1807SOL     OW 6319   6.390   2.484   2.795
 1807SOL    HW1 6320   6.416   2.392   2.824
 1807SOL    HW2 6321   6.296   2.502   2.822
 1808SOL     OW 6322   5.415   0.986   6.303
 1808SOL    HW1 6323   5.460   0.898   6.290
 1808SOL    HW2 6324   5.345   0.998   6.233
 1809SOL     OW 6325   5.930   0.482   5.391
 1809SOL    HW1 6326   6.000   0.552   5.407
 1809SOL    HW2 6327   5.840   0.520   5.409
 1810SOL     OW 6328   1.128   0.817   4.264
 1810SOL    HW1 6329   1.100   0.727   4.230
 1810SOL    HW2 6330   1.121   0.885   4.191
 1811SOL     OW 6331   3.452   6.152   2.240
 1811SOL    HW1 6332   3.516   6.105   2.181
 1811SOL    HW2 6333   3.449   6.250   2.217
 1812SOL     OW 6334   3.707   6.583   6.899
 1812SOL    HW1 6335   3.801   6.568   6.869
 1812SOL    HW2 6336   3.655   6.499   6.886
 1813SOL     OW 6337   4.883   3.934   1.921
 1813SOL    HW1 6338   4.857   3.977   1.835
 1813SOL    HW2 6339   4.846   3.987   1.998
 1814SOL     OW 6340   6.555   5.949   0.479
 1814SOL    HW1 6341   6.575   5.878   0.547
 1814SOL    HW2 6342   6.465   5.988   0.496
 1815SOL     OW 6343   5.389   5.737   1.469
 1815SOL    HW1 6344   5.469   5.795   1.452
 1815SOL    HW2 6345   5.309   5.795   1.484
 1816SOL     OW 6346   4.368   4.979   5.131
 1816SOL    HW1 6347   4.451   5.034   5.127
 1816SOL    HW2 6348   4.393   4.882   5.140
 1817SOL     OW 6349   0.352   2.706   3.575
 1817SOL    HW1 6350   0.365   2.615   3.615
 1817SOL    HW2 6351   0.265   2.709   3.527
 1818SOL     OW 6352   2.472   0.923   0.482
 1818SOL    HW1 6353   2.512   0.986   0.415
 1818SOL    HW2 6354   2.504   0.947   0.573
 1819SOL     OW 6355   1.333   4.312   1.722
 1819SOL    HW1 6356   1.262   4.246   1.698
 1819SOL    HW2 6357   1.296   4.376   1.790
 1820SOL     OW 6358   3.465   0.247   4.540
 1820SOL    HW1 6359   3.395   0.249   4.611
 1820SOL    HW2 6360   3.554   0.228   4.582
 1821SOL     OW 6361   3.432   1.252   2.688
 1821SOL    HW1 6362   3.423   1.329   2.625
 1821SOL    HW2 6363   3.392   1.170   2.647
 1822SOL     OW 6364   1.302   3.554   3.793
 1822SOL    HW1 6365   1.302   3.514   3.884
 1822SOL    HW2 6366   1.219   3.608   3.780
 1823SOL     OW 6367   3.792   6.688   3.328
 1823SOL    HW1 6368   3.799   6.769   3.387
 1823SOL    HW2 6369   3.738   6.618   3.375
 1824SOL     OW 6370   4.337   3.083   1.727
 1824SOL    HW1 6371   4.330   3.148   1.651
 1824SOL    HW2 6372   4.429   3.089   1.767
 1825SOL     OW 6373   1.190   3.422   6.264
 1825SOL    HW1 6374   1.191   3.489   6.191
 1825SOL    HW2 6375   1.176   3.467   6.352
 1826SOL     OW 6376   3.838   2.409   1.099
 1826SOL    HW1 6377   3.844   2.465   1.182
 1826SOL    HW2 6378   3.811   2.467   1.022
 1827SOL     OW 6379   5.774   4.633   0.296
 1827SOL    HW1 6380   5.690   4.602   0.252
 1827SOL    HW2 6381   5.807   4.716   0.251
 1828SOL     OW 6382   1.626   4.352   4.640
 1828SOL    HW1 6383   1.575   4.438   4.646
 1828SOL    HW2 6384   1.562   4.275   4.644
 1829SOL     OW 6385   2.635   6.138   2.025
 1829SOL    HW1 6386   2.617   6.233   2.049
 1829SOL    HW2 6387   2.608   6.122   1.930
 1830SOL     OW 6388   4.320   1.255   6.128
 1830SOL    HW1 6389   4.409   1.248   6.172
 1830SOL    HW2 6390   4.332   1.270   6.029
 1831SOL     OW 6391   3.226   4.520   0.816
 1831SOL    HW1 6392   3.179   4.565   0.739
 1831SOL    HW2 6393   3.193   4.426   0.825
 1832SOL     OW 6394   2.014   3.263   5.835
 1832SOL    HW1 6395   2.084   3.253   5.764
 1832SOL    HW2 6396   1.954   3.183   5.835
 1833SOL     OW 6397   6.277   0.940   6.872
 1833SOL    HW1 6398   6.335   0.917   6.950
 1833SOL    HW2 6399   6.223   1.021   6.893
 1834SOL     OW 6400   0.846   3.485   6.119
 1834SOL    HW1 6401   0.884   3.511   6.208
 1834SOL    HW2 6402   0.920   3.454   6.059
 1835SOL     OW 6403   0.096   6.058   1.322
 1835SOL    HW1 6404   0.091   6.120   1.244
 1835SOL    HW2 6405   0.137   6.106   1.400
 1836SOL     OW 6406   5.347   1.473   2.747
 1836SOL    HW1 6407   5.414   1.542   2.773
 1836SOL    HW2 6408   5.267   1.518   2.707
 1837SOL     OW 6409   2.440   2.309   6.859
 1837SOL    HW1 6410   2.529   2.333   6.898
 1837SOL    HW2 6411   2.396   2.391   6.823
 1838SOL     OW 6412   4.958   0.769   0.507
 1838SOL    HW1 6413   4.997   0.817   0.428
 1838SOL    HW2 6414   4.884   0.824   0.546
 1839SOL     OW 6415   6.242   0.730   0.217
 1839SOL    HW1 6416   6.216   0.818   0.257
 1839SOL    HW2 6417   6.326   0.740   0.164
 1840SOL     OW 6418   4.030   6.990   4.113
 1840SOL    HW1 6419   4.059   0.019   4.031
 1840SOL    HW2 6420   4.025   0.033   4.190
 1841SOL     OW 6421   1.910   0.590   1.397
 1841SOL    HW1 6422   1.931   0.656   1.469
 1841SOL    HW2 6423   1.924   0.632   1.308
 1842SOL     OW 6424   0.122   5.050   1.153
 1842SOL    HW1 6425   0.202   5.110   1.163
 1842SOL    HW2 6426   0.109   4.999   1.238
 1843SOL     OW 6427   2.539   1.152   0.256
 1843SOL    HW1 6428   2.592   1.076   0.218
 1843SOL    HW2 6429   2.445   1.148   0.221
 1844SOL     OW 6430   5.575   2.567   6.320
 1844SOL    HW1 6431   5.658   2.516   6.296
 1844SOL    HW2 6432   5.597   2.663   6.331
 1845SOL     OW 6433   1.165   2.405   3.868
 1845SOL    HW1 6434   1.147   2.327   3.808
 1845SOL    HW2 6435   1.163   2.489   3.814
 1846SOL     OW 6436   2.872   0.883   1.574
 1846SOL    HW1 6437   2.966   0.917   1.575
 1846SOL    HW2 6438   2.844   0.863   1.668
 1847SOL     OW 6439   2.332   5.656   6.252
 1847SOL    HW1 6440   2.421   5.625   6.284
 1847SOL    HW2 6441   2.294   5.721   6.317
 1848SOL     OW 6442   4.108   6.589   3.546
 1848SOL    HW1 6443   4.150   6.666   3.594
 1848SOL    HW2 6444   4.080   6.520   3.612
 1849SOL     OW 6445   4.965   2.634   2.660
 1849SOL    HW1 6446   4.936   2.541   2.637
 1849SOL    HW2 6447   5.000   2.680   2.578
 1850SOL     OW 6448   4.103   1.798   0.991
 1850SOL    HW1 6449   4.104   1.787   0.891
 1850SOL    HW2 6450   4.120   1.893   1.015
 1851SOL     OW 6451   0.339   4.545   4.337
 1851SOL    HW1 6452   0.382   4.468   4.384
 1851SOL    HW2 6453   0.393   4.627   4.351
 1852SOL     OW 6454   0.665   0.062   3.721
 1852SOL    HW1 6455   0.712   0.049   3.634
 1852SOL    HW2 6456   0.727   0.107   3.786
 1853SOL     OW 6457   0.884   2.288   5.572
 1853SOL    HW1 6458   0.953   2.238   5.623
 1853SOL    HW2 6459   0.794   2.270   5.611
 1854SOL     OW 6460   6.991   0.462   4.057
 1854SOL    HW1 6461   6.914   0.516   4.021
 1854SOL    HW2 6462   6.974   0.442   4.154
 1855SOL     OW 6463   5.653   2.165   5.081
 1855SOL    HW1 6464   5.592   2.139   5.156
 1855SOL    HW2 6465   5.722   2.094   5.068
 1856SOL     OW 6466   4.704   3.414   0.522
 1856SOL    HW1 6467   4.748   3.393   0.610
 1856SOL    HW2 6468   4.607   3.392   0.527
 1857SOL     OW 6469   3.847   0.857   6.541
 1857SOL    HW1 6470   3.776   0.860   6.611
 1857SOL    HW2 6471   3.851   0.944   6.493
 1858SOL     OW 6472   5.648   1.838   4.882
 1858SOL    HW1 6473   5.644   1.834   4.982
 1858SOL    HW2 6474   5.743   1.823   4.853
 1859SOL     OW 6475   6.478   0.644   3.538
 1859SOL    HW1 6476   6.498   0.685   3.449
 1859SOL    HW2 6477   6.381   0.621   3.543
 1860SOL     OW 6478   2.637   1.444   6.367
 1860SOL    HW1 6479   2.557   1.417   6.421
 1860SOL    HW2 6480   2.716   1.456   6.427
 1861SOL     OW 6481   5.955   6.404   4.993
 1861SOL    HW1 6482   5.900   6.370   5.070
 1861SOL    HW2 6483   6.039   6.351   4.986
 1862SOL     OW 6484   3.277   5.484   5.626
 1862SOL    HW1 6485   3.223   5.400   5.633
 1862SOL    HW2 6486   3.340   5.488   5.704
 1863SOL     OW 6487   0.163   1.739   1.097
 1863SOL    HW1 6488   0.182   1.645   1.125
 1863SOL    HW2 6489   0.248   1.786   1.075
 1864SOL     OW 6490   2.573   6.494   2.097
 1864SOL    HW1 6491   2.672   6.491   2.085
 1864SOL    HW2 6492   2.548   6.449   2.182
 1865SOL     OW 6493   6.314   2.227   5.715
 1865SOL    HW1 6494   6.244   2.156   5.708
 1865SOL    HW2 6495   6.391   2.192   5.769
 1866SOL     OW 6496   0.574   5.474   3.578
 1866SOL    HW1 6497   0.595   5.390   3.627
 1866SOL    HW2 6498   0.475   5.484   3.568
 1867SOL     OW 6499   1.173   1.354   1.467
 1867SOL    HW1 6500   1.097   1.404   1.425
 1867SOL    HW2 6501   1.243   1.419   1.498
 1868SOL     OW 6502   5.359   3.326   6.201
 1868SOL    HW1 6503   5.269   3.286   6.187
 1868SOL    HW2 6504   5.376   3.396   6.132
 1869SOL     OW 6505   5.279   0.728   5.250
 1869SOL    HW1 6506   5.195   0.712   5.197
 1869SOL    HW2 6507   5.343   0.782   5.195
 1870SOL     OW 6508   5.905   0.295   6.028
 1870SOL    HW1 6509   5.970   0.303   5.952
 1870SOL    HW2 6510   5.894   0.199   6.051
 1871SOL     OW 6511   0.985   5.887   0.250
 1871SOL    HW1 6512   1.014   5.839   0.332
 1871SOL    HW2 6513   0.890   5.917   0.260
 1872SOL     OW 6514   2.494   2.931   1.343
 1872SOL    HW1 6515   2.476   2.958   1.438
 1872SOL    HW2 6516   2.469   3.006   1.282
 1873SOL     OW 6517   5.976   1.049   1.649
 1873SOL    HW1 6518   6.020   1.003   1.727
 1873SOL    HW2 6519   5.924   1.128   1.681
 1874SOL     OW 6520   1.427   5.943   6.822
 1874SOL    HW1 6521   1.436   5.909   6.916
 1874SOL    HW2 6522   1.435   5.866   6.759
 1875SOL     OW 6523   0.243   6.451   2.090
 1875SOL    HW1 6524   0.249   6.420   2.185
 1875SOL    HW2 6525   0.305   6.398   2.033
 1876SOL     OW 6526   0.385   4.505   0.645
 1876SOL    HW1 6527   0.409   4.586   0.698
 1876SOL    HW2 6528   0.391   4.527   0.547
 1877SOL     OW 6529   1.294   1.781   2.502
 1877SOL    HW1 6530   1.255   1.811   2.589
 1877SOL    HW2 6531   1.345   1.696   2.516
 1878SOL     OW 6532   4.855   3.608   4.333
 1878SOL    HW1 6533   4.785   3.673   4.364
 1878SOL    HW2 6534   4.939   3.658   4.312
 1879SOL     OW 6535   4.327   6.382   4.906
 1879SOL    HW1 6536   4.292   6.442   4.978
 1879SOL    HW2 6537   4.413   6.419   4.871
 1880SOL     OW 6538   0.984   2.195   4.193
 1880SOL    HW1 6539   1.002   2.108   4.238
 1880SOL    HW2 6540   0.982   2.182   4.093
 1881SOL     OW 6541   2.139   1.235   3.662
 1881SOL    HW1 6542   2.227   1.188   3.655
 1881SOL    HW2 6543   2.072   1.187   3.606
 1882SOL     OW 6544   2.909   5.301   0.537
 1882SOL    HW1 6545   2.852   5.240   0.482
 1882SOL    HW2 6546   2.875   5.395   0.529
 1883SOL     OW 6547   2.423   2.531   2.630
 1883SOL    HW1 6548   2.427   2.528   2.730
 1883SOL    HW2 6549   2.392   2.622   2.600
 1884SOL     OW 6550   4.927   0.517   0.421
 1884SOL    HW1 6551   4.923   0.433   0.475
 1884SOL    HW2 6552   4.954   0.593   0.480
 1885SOL     OW 6553   0.175   1.564   0.418
 1885SOL    HW1 6554   0.236   1.642   0.408
 1885SOL    HW2 6555   0.221   1.480   0.388
 1886SOL     OW 6556   3.909   2.682   5.691
 1886SOL    HW1 6557   4.007   2.693   5.706
 1886SOL    HW2 6558   3.867   2.642   5.773
 1887SOL     OW 6559   0.783   5.973   4.998
 1887SOL    HW1 6560   0.783   6.069   4.971
 1887SOL    HW2 6561   0.846   5.960   5.075
 1888SOL     OW 6562   1.695   2.084   6.288
 1888SOL    HW1 6563   1.710   2.102   6.191
 1888SOL    HW2 6564   1.661   2.167   6.332
 1889SOL     OW 6565   2.905   3.452   0.229
 1889SOL    HW1 6566   2.906   3.488   0.136
 1889SOL    HW2 6567   2.815   3.413   0.250
 1890SOL     OW 6568   5.921   6.048   6.597
 1890SOL    HW1 6569   5.833   6.092   6.581
 1890SOL    HW2 6570   5.983   6.113   6.640
 1891SOL     OW 6571   5.126   3.659   6.858
 1891SOL    HW1 6572   5.187   3.594   6.811
 1891SOL    HW2 6573   5.181   3.732   6.899
 1892SOL     OW 6574   3.866   0.155   3.065
 1892SOL    HW1 6575   3.854   0.065   3.105
 1892SOL    HW2 6576   3.932   0.208   3.119
 1893SOL     OW 6577   2.786   0.832   6.131
 1893SOL    HW1 6578   2.857   0.788   6.077
 1893SOL    HW2 6579   2.820   0.849   6.224
 1894SOL     OW 6580   4.807   3.473   1.298
 1894SOL    HW1 6581   4.882   3.511   1.244
 1894SOL    HW2 6582   4.844   3.411   1.368
 1895SOL     OW 6583   4.648   5.983   3.668
 1895SOL    HW1 6584   4.580   6.044   3.707
 1895SOL    HW2 6585   4.603   5.903   3.629
 1896SOL     OW 6586   6.198   2.218   5.150
 1896SOL    HW1 6587   6.260   2.296   5.143
 1896SOL    HW2 6588   6.146   2.223   5.235
 1897SOL     OW 6589   5.566   4.909   2.736
 1897SOL    HW1 6590   5.537   4.838   2.671
 1897SOL    HW2 6591   5.554   4.876   2.829
 1898SOL     OW 6592   5.624   6.786   6.949
 1898SOL    HW1 6593   5.712   6.830   6.930
 1898SOL    HW2 6594   5.632   6.728   0.010
 1899SOL     OW 6595   1.639   2.845   3.765
 1899SOL    HW1 6596   1.693   2.790   3.702
 1899SOL    HW2 6597   1.699   2.888   3.832
 1900SOL     OW 6598   2.388   5.891   1.580
 1900SOL    HW1 6599   2.448   5.843   1.516
 1900SOL    HW2 6600   2.326   5.825   1.623
 1901SOL     OW 6601   1.116   0.734   5.911
 1901SOL    HW1 6602   1.193   0.796   5.902
 1901SOL    HW2 6603   1.049   0.753   5.838
 1902SOL     OW 6604   1.374   2.758   5.195
 1902SOL    HW1 6605   1.352   2.681   5.254
 1902SOL    HW2 6606   1.447   2.732   5.132
 1903SOL     OW 6607   6.689   4.802   4.117
 1903SOL    HW1 6608   6.699   4.859   4.036
 1903SOL    HW2 6609   6.690   4.706   4.091
 1904SOL     OW 6610   0.235   0.333   4.172
 1904SOL    HW1 6611   0.197   0.400   4.236
 1904SOL    HW2 6612   0.202   0.351   4.080
 1905SOL     OW 6613   6.585   2.914   4.383
 1905SOL    HW1 6614   6.509   2.890   4.444
 1905SOL    HW2 6615   6.660   2.952   4.437
 1906SOL     OW 6616   2.840   6.290   5.505
 1906SOL    HW1 6617   2.899   6.344   5.566
 1906SOL    HW2 6618   2.748   6.329   5.507
 1907SOL     OW 6619   4.165   6.334   3.989
 1907SOL    HW1 6620   4.178   6.424   4.032
 1907SOL    HW2 6621   4.241   6.274   4.013
 1908SOL     OW 6622   5.115   5.891   0.847
 1908SOL    HW1 6623   5.048   5.960   0.820
 1908SOL    HW2 6624   5.137   5.834   0.768
 1909SOL     OW 6625   4.517   5.784   3.550
 1909SOL    HW1 6626   4.452   5.742   3.613
 1909SOL    HW2 6627   4.579   5.713   3.515
 1910SOL     OW 6628   4.886   3.327   5.144
 1910SOL    HW1 6629   4.841   3.409   5.109
 1910SOL    HW2 6630   4.895   3.259   5.071
 1911SOL     OW 6631   0.110   3.490   5.714
 1911SOL    HW1 6632   0.193   3.542   5.698
 1911SOL    HW2 6633   0.046   3.505   5.638
 1912SOL     OW 6634   2.840   5.906   3.190
 1912SOL    HW1 6635   2.818   6.003   3.179
 1912SOL    HW2 6636   2.939   5.895   3.196
 1913SOL     OW 6637   1.674   4.570   5.237
 1913SOL    HW1 6638   1.750   4.611   5.288
 1913SOL    HW2 6639   1.709   4.513   5.163
 1914SOL     OW 6640   4.133   1.425   5.512
 1914SOL    HW1 6641   4.130   1.340   5.459
 1914SOL    HW2 6642   4.153   1.501   5.450
 1915SOL     OW 6643   2.751   0.304   5.142
 1915SOL    HW1 6644   2.776   0.237   5.212
 1915SOL    HW2 6645   2.767   0.396   5.178
 1916SOL     OW 6646   3.986   6.231   2.944
 1916SOL    HW1 6647   4.071   6.280   2.962
 1916SOL    HW2 6648   3.915   6.295   2.914
 1917SOL     OW 6649   2.882   3.573   4.472
 1917SOL    HW1 6650   2.859   3.590   4.377
 1917SOL    HW2 6651   2.971   3.614   4.493
 1918SOL     OW 6652   6.494   6.789   5.723
 1918SOL    HW1 6653   6.543   6.778   5.637
 1918SOL    HW2 6654   6.532   6.727   5.792
 1919SOL     OW 6655   6.457   0.098   2.889
 1919SOL    HW1 6656   6.518   0.174   2.911
 1919SOL    HW2 6657   6.390   0.128   2.821
 1920SOL     OW 6658   6.672   6.053   4.981
 1920SOL    HW1 6659   6.616   5.977   5.013
 1920SOL    HW2 6660   6.678   6.050   4.881
 1921SOL     OW 6661   1.812   6.895   6.934
 1921SOL    HW1 6662   1.853   6.812   6.899
 1921SOL    HW2 6663   1.881   6.950   6.980
 1922SOL     OW 6664   4.247   4.004   0.812
 1922SOL    HW1 6665   4.323   4.036   0.869
 1922SOL    HW2 6666   4.178   3.960   0.869
 1923SOL     OW 6667   1.720   2.970   0.299
 1923SOL    HW1 6668   1.639   2.938   0.251
 1923SOL    HW2 6669   1.789   2.897   0.301
 1924SOL     OW 6670   0.391   4.319   1.194
 1924SOL    HW1 6671   0.383   4.418   1.187
 1924SOL    HW2 6672   0.352   4.288   1.281
 1925SOL     OW 6673   3.471   4.282   0.453
 1925SOL    HW1 6674   3.478   4.204   0.516
 1925SOL    HW2 6675   3.530   4.356   0.485
 1926SOL     OW 6676   0.461   0.518   3.703
 1926SOL    HW1 6677   0.366   0.545   3.721
 1926SOL    HW2 6678   0.464   0.452   3.629
 1927SOL     OW 6679   4.458   3.228   1.179
 1927SOL    HW1 6680   4.446   3.197   1.274
 1927SOL    HW2 6681   4.370   3.257   1.143
 1928SOL     OW 6682   0.055   5.771   5.009
 1928SOL    HW1 6683   0.060   5.769   4.909
 1928SOL    HW2 6684   6.987   5.734   5.038
 1929SOL     OW 6685   1.432   6.189   3.280
 1929SOL    HW1 6686   1.468   6.123   3.346
 1929SOL    HW2 6687   1.460   6.163   3.187
 1930SOL     OW 6688   6.755   4.988   6.644
 1930SOL    HW1 6689   6.762   4.888   6.651
 1930SOL    HW2 6690   6.776   5.016   6.550
 1931SOL     OW 6691   0.428   2.189   5.068
 1931SOL    HW1 6692   0.455   2.107   5.119
 1931SOL    HW2 6693   0.498   2.211   5.000
 1932SOL     OW 6694   6.106   2.948   2.806
 1932SOL    HW1 6695   6.175   2.955   2.735
 1932SOL    HW2 6696   6.082   3.040   2.839
 1933SOL     OW 6697   2.609   4.864   0.709
 1933SOL    HW1 6698   2.601   4.902   0.801
 1933SOL    HW2 6699   2.557   4.778   0.703
 1934SOL     OW 6700   6.857   6.482   3.778
 1934SOL    HW1 6701   6.801   6.467   3.860
 1934SOL    HW2 6702   6.815   6.554   3.722
 1935SOL     OW 6703   2.005   0.788   3.026
 1935SOL    HW1 6704   1.928   0.844   3.056
 1935SOL    HW2 6705   2.063   0.842   2.965
 1936SOL     OW 6706   6.940   6.274   5.278
 1936SOL    HW1 6707   6.913   6.350   5.220
 1936SOL    HW2 6708   6.931   6.188   5.227
 1937SOL     OW 6709   3.761   1.029   2.926
 1937SOL    HW1 6710   3.815   1.047   2.844
 1937SOL    HW2 6711   3.740   1.116   2.972
 1938SOL     OW 6712   5.342   1.159   4.443
 1938SOL    HW1 6713   5.313   1.247   4.405
 1938SOL    HW2 6714   5.409   1.175   4.515
 1939SOL     OW 6715   2.679   0.903   3.908
 1939SOL    HW1 6716   2.729   0.909   3.994
 1939SOL    HW2 6717   2.646   0.809   3.895
 1940SOL     OW 6718   6.205   5.161   6.345
 1940SOL    HW1 6719   6.277   5.105   6.304
 1940SOL    HW2 6720   6.136   5.102   6.386
 1941SOL     OW 6721   5.221   5.044   2.726
 1941SOL    HW1 6722   5.308   5.036   2.774
 1941SOL    HW2 6723   5.165   4.962   2.743
 1942SOL     OW 6724   6.837   4.474   3.325
 1942SOL    HW1 6725   6.738   4.468   3.314
 1942SOL    HW2 6726   6.859   4.526   3.407
 1943SOL     OW 6727   2.873   5.483   3.085
 1943SOL    HW1 6728   2.839   5.402   3.038
 1943SOL    HW2 6729   2.919   5.543   3.019
 1944SOL     OW 6730   0.194   0.040   2.096
 1944SOL    HW1 6731   0.246   0.092   2.164
 1944SOL    HW2 6732   0.142   0.104   2.039
 1945SOL     OW 6733   3.333   4.943   3.688
 1945SOL    HW1 6734   3.284   4.945   3.776
 1945SOL    HW2 6735   3.430   4.959   3.704
 1946SOL     OW 6736   1.739   6.356   0.164
 1946SOL    HW1 6737   1.648   6.318   0.148
 1946SOL    HW2 6738   1.729   6.446   0.206
 1947SOL     OW 6739   4.793   0.124   3.790
 1947SOL    HW1 6740   4.843   0.084   3.867
 1947SOL    HW2 6741   4.699   0.144   3.817
 1948SOL     OW 6742   6.806   3.649   5.170
 1948SOL    HW1 6743   6.900   3.650   5.204
 1948SOL    HW2 6744   6.800   3.704   5.086
 1949SOL     OW 6745   5.091   4.103   6.485
 1949SOL    HW1 6746   5.058   4.075   6.575
 1949SOL    HW2 6747   5.124   4.022   6.435
 1950SOL     OW 6748   3.223   5.320   1.248
 1950SOL    HW1 6749   3.237   5.395   1.313
 1950SOL    HW2 6750   3.267   5.343   1.161
 1951SOL     OW 6751   6.681   3.022   0.298
 1951SOL    HW1 6752   6.590   3.044   0.332
 1951SOL    HW2 6753   6.673   2.958   0.221
 1952SOL     OW 6754   3.647   3.241   5.115
 1952SOL    HW1 6755   3.660   3.258   5.017
 1952SOL    HW2 6756   3.697   3.158   5.141
 1953SOL     OW 6757   0.362   2.825   4.646
 1953SOL    HW1 6758   0.425   2.804   4.571
 1953SOL    HW2 6759   0.339   2.923   4.644
 1954SOL     OW 6760   2.748   2.071   3.402
 1954SOL    HW1 6761   2.747   1.981   3.447
 1954SOL    HW2 6762   2.683   2.132   3.449
 1955SOL     OW 6763   6.207   5.064   2.041
 1955SOL    HW1 6764   6.259   5.123   1.980
 1955SOL    HW2 6765   6.168   4.988   1.989
 1956SOL     OW 6766   5.227   5.991   2.028
 1956SOL    HW1 6767   5.184   6.081   2.037
 1956SOL    HW2 6768   5.312   6.000   1.976
 1957SOL     OW 6769   0.968   6.546   5.484
 1957SOL    HW1 6770   0.870   6.564   5.471
 1957SOL    HW2 6771   1.006   6.613   5.547
 1958SOL     OW 6772   4.470   3.233   5.730
 1958SOL    HW1 6773   4.537   3.178   5.780
 1958SOL    HW2 6774   4.446   3.187   5.645
 1959SOL     OW 6775   2.440   1.676   0.447
 1959SOL    HW1 6776   2.383   1.599   0.417
 1959SOL    HW2 6777   2.535   1.647   0.451
 1960SOL     OW 6778   5.489   6.041   2.556
 1960SOL    HW1 6779   5.532   5.963   2.602
 1960SOL    HW2 6780   5.434   6.009   2.479
 1961SOL     OW 6781   6.274   4.898   5.413
 1961SOL    HW1 6782   6.368   4.882   5.383
 1961SOL    HW2 6783   6.233   4.968   5.356
 1962SOL     OW 6784   6.697   6.650   3.607
 1962SOL    HW1 6785   6.609   6.666   3.563
 1962SOL    HW2 6786   6.748   6.736   3.613
 1963SOL     OW 6787   2.792   0.199   3.042
 1963SOL    HW1 6788   2.770   0.263   3.115
 1963SOL    HW2 6789   2.878   0.152   3.063
 1964SOL     OW 6790   5.916   3.968   1.976
 1964SOL    HW1 6791   5.908   3.988   2.074
 1964SOL    HW2 6792   5.837   4.006   1.928
 1965SOL     OW 6793   2.615   5.801   3.599
 1965SOL    HW1 6794   2.524   5.839   3.615
 1965SOL    HW2 6795   2.665   5.798   3.685
 1966SOL     OW 6796   6.094   6.340   6.555
 1966SOL    HW1 6797   6.122   6.301   6.643
 1966SOL    HW2 6798   6.056   6.432   6.569
 1967SOL     OW 6799   4.954   3.288   4.705
 1967SOL    HW1 6800   4.949   3.368   4.765
 1967SOL    HW2 6801   4.974   3.207   4.760
 1968SOL     OW 6802   3.714   5.483   4.958
 1968SOL    HW1 6803   3.736   5.488   5.056
 1968SOL    HW2 6804   3.789   5.436   4.910
 1969SOL     OW 6805   6.966   1.733   1.522
 1969SOL    HW1 6806   7.019   1.718   1.605
 1969SOL    HW2 6807   6.870   1.715   1.541
 1970SOL     OW 6808   1.658   0.176   3.749
 1970SOL    HW1 6809   1.603   0.193   3.667
 1970SOL    HW2 6810   1.600   0.179   3.830
 1971SOL     OW 6811   0.171   0.996   5.724
 1971SOL    HW1 6812   0.073   0.986   5.741
 1971SOL    HW2 6813   0.218   0.911   5.748
 1972SOL     OW 6814   1.500   6.275   3.624
 1972SOL    HW1 6815   1.533   6.191   3.581
 1972SOL    HW2 6816   1.439   6.253   3.700
 1973SOL     OW 6817   2.586   2.905   6.828
 1973SOL    HW1 6818   2.651   2.898   6.904
 1973SOL    HW2 6819   2.512   2.838   6.841
 1974SOL     OW 6820   5.592   6.852   4.360
 1974SOL    HW1 6821   5.688   6.835   4.383
 1974SOL    HW2 6822   5.585   6.938   4.308
 1975SOL     OW 6823   2.743   0.309   3.644
 1975SOL    HW1 6824   2.827   0.353   3.611
 1975SOL    HW2 6825   2.756   0.210   3.647
 1976SOL     OW 6826   6.826   4.218   6.756
 1976SOL    HW1 6827   6.816   4.176   6.847
 1976SOL    HW2 6828   6.770   4.169   6.690
 1977SOL     OW 6829   2.854   2.098   5.226
 1977SOL    HW1 6830   2.878   2.183   5.273
 1977SOL    HW2 6831   2.925   2.075   5.159
 1978SOL     OW 6832   6.592   2.133   5.216
 1978SOL    HW1 6833   6.647   2.199   5.165
 1978SOL    HW2 6834   6.564   2.058   5.155
 1979SOL     OW 6835   5.832   4.303   3.052
 1979SOL    HW1 6836   5.848   4.386   2.999
 1979SOL    HW2 6837   5.764   4.322   3.124
 1980SOL     OW 6838   3.351   1.127   1.311
 1980SOL    HW1 6839   3.338   1.029   1.298
 1980SOL    HW2 6840   3.448   1.149   1.309
 1981SOL     OW 6841   4.825   3.390   1.806
 1981SOL    HW1 6842   4.821   3.324   1.881
 1981SOL    HW2 6843   4.820   3.483   1.843
 1982SOL     OW 6844   6.430   6.951   5.332
 1982SOL    HW1 6845   6.368   6.916   5.262
 1982SOL    HW2 6846   6.381   6.959   5.419
 1983SOL     OW 6847   0.482   4.385   2.162
 1983SOL    HW1 6848   0.529   4.353   2.080
 1983SOL    HW2 6849   0.535   4.361   2.243
 1984SOL     OW 6850   4.370   0.717   5.454
 1984SOL    HW1 6851   4.280   0.675   5.446
 1984SOL    HW2 6852   4.410   0.696   5.543
 1985SOL     OW 6853   1.996   6.483   1.456
 1985SOL    HW1 6854   1.961   6.577   1.455
 1985SOL    HW2 6855   2.092   6.483   1.431
 1986SOL     OW 6856   0.196   1.933   6.856
 1986SOL    HW1 6857   0.279   1.986   6.875
 1986SOL    HW2 6858   0.142   1.980   6.786
 1987SOL     OW 6859   3.100   3.925   0.574
 1987SOL    HW1 6860   3.155   3.865   0.516
 1987SOL    HW2 6861   3.095   4.016   0.532
 1988SOL     OW 6862   4.828   3.235   0.719
 1988SOL    HW1 6863   4.849   3.159   0.780
 1988SOL    HW2 6864   4.913   3.273   0.684
 1989SOL     OW 6865   2.560   1.077   4.249
 1989SOL    HW1 6866   2.634   1.143   4.260
 1989SOL    HW2 6867   2.479   1.123   4.214
 1990SOL     OW 6868   2.168   1.112   2.677
 1990SOL    HW1 6869   2.231   1.122   2.754
 1990SOL    HW2 6870   2.219   1.118   2.591
 1991SOL     OW 6871   4.953   5.818   3.297
 1991SOL    HW1 6872   4.893   5.804   3.219
 1991SOL    HW2 6873   5.048   5.807   3.268
 1992SOL     OW 6874   2.225   6.457   5.442
 1992SOL    HW1 6875   2.265   6.524   5.505
 1992SOL    HW2 6876   2.297   6.420   5.384
 1993SOL     OW 6877   3.328   3.196   4.116
 1993SOL    HW1 6878   3.376   3.199   4.028
 1993SOL    HW2 6879   3.246   3.140   4.107
 1994SOL     OW 6880   5.771   2.483   1.975
 1994SOL    HW1 6881   5.740   2.551   1.908
 1994SOL    HW2 6882   5.767   2.522   2.067
 1995SOL     OW 6883   4.238   2.335   1.654
 1995SOL    HW1 6884   4.139   2.322   1.654
 1995SOL    HW2 6885   4.259   2.432   1.639
 1996SOL     OW 6886   2.922   4.017   5.168
 1996SOL    HW1 6887   2.933   3.929   5.121
 1996SOL    HW2 6888   2.825   4.037   5.179
 1997SOL     OW 6889   5.486   0.254   4.036
 1997SOL    HW1 6890   5.542   0.184   3.993
 1997SOL    HW2 6891   5.521   0.345   4.013
 1998SOL     OW 6892   3.106   4.779   5.145
 1998SOL    HW1 6893   3.134   4.800   5.238
 1998SOL    HW2 6894   3.042   4.702   5.146
 1999SOL     OW 6895   2.278   0.744   1.977
 1999SOL    HW1 6896   2.280   0.651   1.941
 1999SOL    HW2 6897   2.210   0.750   2.050
 2000SOL     OW 6898   3.552   1.577   4.648
 2000SOL    HW1 6899   3.646   1.560   4.619
 2000SOL    HW2 6900   3.498   1.494   4.634
 2001SOL     OW 6901   2.311   3.581   6.789
 2001SOL    HW1 6902   2.225   3.616   6.753
 2001SOL    HW2 6903   2.295   3.538   6.878
 2002SOL     OW 6904   1.664   5.528   5.067
 2002SOL    HW1 6905   1.621   5.555   5.153
 2002SOL    HW2 6906   1.594   5.493   5.004
 2003SOL     OW 6907   6.092   4.672   3.253
 2003SOL    HW1 6908   6.102   4.742   3.182
 2003SOL    HW2 6909   6.138   4.588   3.223
 2004SOL     OW 6910   3.220   0.567   6.814
 2004SOL    HW1 6911   3.311   0.542   6.781
 2004SOL    HW2 6912   3.176   0.486   6.853
 2005SOL     OW 6913   3.019   6.384   5.193
 2005SOL    HW1 6914   3.006   6.450   5.267
 2005SOL    HW2 6915   3.108   6.401   5.150
 2006SOL     OW 6916   4.418   5.987   3.411
 2006SOL    HW1 6917   4.400   6.057   3.480
 2006SOL    HW2 6918   4.461   5.908   3.454
 2007SOL     OW 6919   6.073   5.363   0.294
 2007SOL    HW1 6920   6.144   5.359   0.365
 2007SOL    HW2 6921   6.078   5.452   0.248
 2008SOL     OW 6922   6.956   6.510   4.337
 2008SOL    HW1 6923   0.017   6.454   4.356
 2008SOL    HW2 6924   6.971   6.564   4.255
 2009SOL     OW 6925   0.829   0.375   0.331
 2009SOL    HW1 6926   0.870   0.445   0.391
 2009SOL    HW2 6927   0.818   0.412   0.239
 2010SOL     OW 6928   1.280   0.055   1.165
 2010SOL    HW1 6929   1.313   0.090   1.253
 2010SOL    HW2 6930   1.355   0.009   1.117
 2011SOL     OW 6931   6.920   2.649   4.910
 2011SOL    HW1 6932   6.917   2.566   4.855
 2011SOL    HW2 6933   6.972   2.720   4.862
 2012SOL     OW 6934   6.981   3.606   0.865
 2012SOL    HW1 6935   7.008   3.697   0.834
 2012SOL    HW2 6936   6.883   3.606   0.887
 2013SOL     OW 6937   4.372   1.563   2.764
 2013SOL    HW1 6938   4.414   1.535   2.678
 2013SOL    HW2 6939   4.437   1.619   2.816
 2014SOL     OW 6940   2.405   5.626   3.353
 2014SOL    HW1 6941   2.401   5.567   3.272
 2014SOL    HW2 6942   2.474   5.697   3.340
 2015SOL     OW 6943   3.440   6.350   0.083
 2015SOL    HW1 6944   3.357   6.367   0.031
 2015SOL    HW2 6945   3.415   6.328   0.178
 2016SOL     OW 6946   6.165   5.192   3.623
 2016SOL    HW1 6947   6.086   5.250   3.641
 2016SOL    HW2 6948   6.177   5.182   3.524
 2017SOL     OW 6949   2.016   4.876   1.943
 2017SOL    HW1 6950   1.921   4.904   1.947
 2017SOL    HW2 6951   2.024   4.790   1.892
 2018SOL     OW 6952   0.342   4.233   6.279
 2018SOL    HW1 6953   0.391   4.166   6.335
 2018SOL    HW2 6954   0.385   4.241   6.190
 2019SOL     OW 6955   5.619   1.715   3.124
 2019SOL    HW1 6956   5.690   1.659   3.080
 2019SOL    HW2 6957   5.584   1.781   3.057
 2020SOL     OW 6958   1.517   5.374   3.657
 2020SOL    HW1 6959   1.482   5.467   3.671
 2020SOL    HW2 6960   1.540   5.361   3.560
 2021SOL     OW 6961   1.573   6.671   1.967
 2021SOL    HW1 6962   1.565   6.744   2.035
 2021SOL    HW2 6963   1.655   6.617   1.985
 2022SOL     OW 6964   2.661   4.672   1.307
 2022SOL    HW1 6965   2.732   4.637   1.368
 2022SOL    HW2 6966   2.703   4.719   1.230
 2023SOL     OW 6967   6.223   1.666   6.226
 2023SOL    HW1 6968   6.273   1.648   6.311
 2023SOL    HW2 6969   6.264   1.745   6.180
 2024SOL     OW 6970   6.222   0.409   2.913
 2024SOL    HW1 6971   6.245   0.361   2.828
 2024SOL    HW2 6972   6.177   0.346   2.976
 2025SOL     OW 6973   6.450   0.869   0.835
 2025SOL    HW1 6974   6.526   0.892   0.896
 2025SOL    HW2 6975   6.364   0.891   0.880
 2026SOL     OW 6976   1.481   2.175   5.394
 2026SOL    HW1 6977   1.521   2.227   5.319
 2026SOL    HW2 6978   1.467   2.235   5.473
 2027SOL     OW 6979   0.925   1.424   2.075
 2027SOL    HW1 6980   0.955   1.332   2.100
 2027SOL    HW2 6981   0.962   1.490   2.140
 2028SOL     OW 6982   3.406   3.939   6.028
 2028SOL    HW1 6983   3.495   3.900   6.002
 2028SOL    HW2 6984   3.363   3.882   6.098
 2029SOL     OW 6985   1.908   0.317   0.442
 2029SOL    HW1 6986   1.815   0.352   0.455
 2029SOL    HW2 6987   1.925   0.302   0.345
 2030SOL     OW 6988   1.535   1.761   2.702
 2030SOL    HW1 6989   1.546   1.789   2.607
 2030SOL    HW2 6990   1.623   1.769   2.749
 2031SOL     OW 6991   4.817   0.092   2.670
 2031SOL    HW1 6992   4.733   0.118   2.623
 2031SOL    HW2 6993   4.849   0.004   2.635
 2032SOL     OW 6994   5.614   6.453   1.220
 2032SOL    HW1 6995   5.619   6.513   1.300
 2032SOL    HW2 6996   5.569   6.367   1.245
 2033SOL     OW 6997   6.833   5.873   6.594
 2033SOL    HW1 6998   6.888   5.790   6.601
 2033SOL    HW2 6999   6.741   5.856   6.630
 2034SOL     OW 7000   2.632   6.953   3.437
 2034SOL    HW1 7001   2.576   7.017   3.385
 2034SOL    HW2 7002   2.665   6.999   3.520
 2035SOL     OW 7003   0.606   3.009   0.957
 2035SOL    HW1 7004   0.538   3.011   0.884
 2035SOL    HW2 7005   0.570   2.957   1.034
 2036SOL     OW 7006   1.060   4.383   0.621
 2036SOL    HW1 7007   1.062   4.441   0.539
 2036SOL    HW2 7008   1.096   4.434   0.699
 2037SOL     OW 7009   0.121   1.812   6.087
 2037SOL    HW1 7010   0.205   1.771   6.054
 2037SOL    HW2 7011   0.054   1.740   6.108
 2038SOL     OW 7012   0.962   7.014   5.482
 2038SOL    HW1 7013   1.037   0.032   5.428
 2038SOL    HW2 7014   0.903   6.960   5.422
 2039SOL     OW 7015   1.140   5.174   1.990
 2039SOL    HW1 7016   1.165   5.209   1.900
 2039SOL    HW2 7017   1.156   5.244   2.059
 2040SOL     OW 7018   3.141   3.812   4.204
 2040SOL    HW1 7019   3.090   3.898   4.200
 2040SOL    HW2 7020   3.211   3.818   4.275
 2041SOL     OW 7021   6.145   3.467   0.341
 2041SOL    HW1 7022   6.097   3.383   0.318
 2041SOL    HW2 7023   6.181   3.509   0.257
 2042SOL     OW 7024   3.274   5.504   0.507
 2042SOL    HW1 7025   3.239   5.521   0.599
 2042SOL    HW2 7026   3.311   5.589   0.469
 2043SOL     OW 7027   4.572   4.323   2.816
 2043SOL    HW1 7028   4.496   4.372   2.859
 2043SOL    HW2 7029   4.644   4.307   2.885
 2044SOL     OW 7030   6.209   0.306   1.890
 2044SOL    HW1 7031   6.263   0.227   1.922
 2044SOL    HW2 7032   6.230   0.386   1.947
 2045SOL     OW 7033   2.636   5.519   6.303
 2045SOL    HW1 7034   2.641   5.607   6.351
 2045SOL    HW2 7035   2.711   5.512   6.238
 2046SOL     OW 7036   5.960   0.138   5.089
 2046SOL    HW1 7037   5.980   0.151   5.186
 2046SOL    HW2 7038   5.997   0.214   5.036
 2047SOL     OW 7039   5.598   2.268   0.052
 2047SOL    HW1 7040   5.516   2.285   0.107
 2047SOL    HW2 7041   5.678   2.304   0.101
 2048SOL     OW 7042   3.957   6.715   5.277
 2048SOL    HW1 7043   4.000   6.626   5.288
 2048SOL    HW2 7044   3.932   6.729   5.181
 2049SOL     OW 7045   4.815   5.925   0.834
 2049SOL    HW1 7046   4.852   5.833   0.820
 2049SOL    HW2 7047   4.762   5.952   0.753
 2050SOL     OW 7048   5.462   1.026   4.099
 2050SOL    HW1 7049   5.554   1.039   4.064
 2050SOL    HW2 7050   5.412   1.113   4.094
 2051SOL     OW 7051   2.623   5.121   0.588
 2051SOL    HW1 7052   2.636   5.030   0.626
 2051SOL    HW2 7053   2.559   5.173   0.646
 2052SOL     OW 7054   1.400   2.392   0.907
 2052SOL    HW1 7055   1.458   2.351   0.836
 2052SOL    HW2 7056   1.315   2.424   0.867
 2053SOL     OW 7057   5.208   1.175   0.476
 2053SOL    HW1 7058   5.188   1.245   0.544
 2053SOL    HW2 7059   5.182   1.085   0.512
 2054SOL     OW 7060   0.007   3.728   1.729
 2054SOL    HW1 7061   0.085   3.710   1.789
 2054SOL    HW2 7062   6.966   3.649   1.730
 2055SOL     OW 7063   6.314   1.979   4.087
 2055SOL    HW1 7064   6.388   1.961   4.151
 2055SOL    HW2 7065   6.244   1.909   4.096
 2056SOL     OW 7066   1.090   0.078   1.970
 2056SOL    HW1 7067   1.011   0.017   1.963
 2056SOL    HW2 7068   1.075   0.143   2.045
 2057SOL     OW 7069   6.927   2.288   3.888
 2057SOL    HW1 7070   6.874   2.321   3.809
 2057SOL    HW2 7071   6.879   2.312   3.972
 2058SOL     OW 7072   0.453   1.869   1.747
 2058SOL    HW1 7073   0.550   1.856   1.727
 2058SOL    HW2 7074   0.440   1.957   1.793
 2059SOL     OW 7075   1.305   1.282   6.677
 2059SOL    HW1 7076   1.403   1.296   6.668
 2059SOL    HW2 7077   1.262   1.285   6.587
 2060SOL     OW 7078   0.474   5.558   1.835
 2060SOL    HW1 7079   0.522   5.487   1.886
 2060SOL    HW2 7080   0.444   5.522   1.746
 2061SOL     OW 7081   0.964   1.452   1.356
 2061SOL    HW1 7082   0.882   1.409   1.319
 2061SOL    HW2 7083   0.954   1.551   1.356
 2062SOL     OW 7084   4.150   0.279   3.142
 2062SOL    HW1 7085   4.219   0.291   3.071
 2062SOL    HW2 7086   4.127   0.368   3.182
 2063SOL     OW 7087   2.841   1.868   0.483
 2063SOL    HW1 7088   2.794   1.782   0.497
 2063SOL    HW2 7089   2.874   1.904   0.570
 2064SOL     OW 7090   0.994   2.240   0.192
 2064SOL    HW1 7091   1.065   2.290   0.143
 2064SOL    HW2 7092   0.927   2.304   0.229
 2065SOL     OW 7093   6.075   2.891   1.790
 2065SOL    HW1 7094   6.049   2.795   1.781
 2065SOL    HW2 7095   6.017   2.948   1.732
 2066SOL     OW 7096   1.930   6.781   3.420
 2066SOL    HW1 7097   2.015   6.809   3.376
 2066SOL    HW2 7098   1.923   6.823   3.510
 2067SOL     OW 7099   0.251   7.010   0.974
 2067SOL    HW1 7100   0.291   6.935   1.026
 2067SOL    HW2 7101   0.315   0.066   0.971
 2068SOL     OW 7102   2.054   1.042   5.232
 2068SOL    HW1 7103   2.138   1.017   5.281
 2068SOL    HW2 7104   2.031   1.137   5.252
 2069SOL     OW 7105   0.896   1.969   1.833
 2069SOL    HW1 7106   0.982   1.923   1.815
 2069SOL    HW2 7107   0.831   1.904   1.874
 2070SOL     OW 7108   0.896   1.500   3.095
 2070SOL    HW1 7109   0.905   1.441   3.015
 2070SOL    HW2 7110   0.981   1.497   3.148
 2071SOL     OW 7111   1.839   6.602   5.051
 2071SOL    HW1 7112   1.901   6.578   5.125
 2071SOL    HW2 7113   1.767   6.662   5.085
 2072SOL     OW 7114   4.712   4.709   2.500
 2072SOL    HW1 7115   4.744   4.715   2.406
 2072SOL    HW2 7116   4.775   4.759   2.560
 2073SOL     OW 7117   3.279   5.942   5.698
 2073SOL    HW1 7118   3.207   5.948   5.629
 2073SOL    HW2 7119   3.346   5.874   5.670
 2074SOL     OW 7120   6.376   1.877   1.836
 2074SOL    HW1 7121   6.424   1.917   1.758
 2074SOL    HW2 7122   6.392   1.933   1.918
 2075SOL     OW 7123   3.772   3.382   6.049
 2075SOL    HW1 7124   3.680   3.401   6.013
 2075SOL    HW2 7125   3.771   3.391   6.148
 2076SOL     OW 7126   4.888   0.937   0.967
 2076SOL    HW1 7127   4.874   0.845   1.003
 2076SOL    HW2 7128   4.973   0.975   1.004
 2077SOL     OW 7129   5.362   2.013   3.328
 2077SOL    HW1 7130   5.388   1.961   3.410
 2077SOL    HW2 7131   5.282   2.069   3.348
 2078SOL     OW 7132   4.530   5.885   5.289
 2078SOL    HW1 7133   4.601   5.908   5.221
 2078SOL    HW2 7134   4.536   5.948   5.366
 2079SOL     OW 7135   5.576   1.556   3.417
 2079SOL    HW1 7136   5.529   1.542   3.330
 2079SOL    HW2 7137   5.614   1.469   3.449
 2080SOL     OW 7138   3.142   1.998   4.573
 2080SOL    HW1 7139   3.143   2.033   4.667
 2080SOL    HW2 7140   3.222   1.940   4.558
 2081SOL     OW 7141   0.636   6.103   4.584
 2081SOL    HW1 7142   0.599   6.013   4.604
 2081SOL    HW2 7143   0.573   6.173   4.618
 2082SOL     OW 7144   4.940   0.604   2.286
 2082SOL    HW1 7145   4.934   0.519   2.338
 2082SOL    HW2 7146   5.021   0.655   2.313
 2083SOL     OW 7147   3.499   4.692   5.314
 2083SOL    HW1 7148   3.468   4.598   5.300
 2083SOL    HW2 7149   3.449   4.753   5.252
 2084SOL     OW 7150   0.030   3.057   2.923
 2084SOL    HW1 7151   6.980   3.093   2.862
 2084SOL    HW2 7152   0.046   2.960   2.901
 2085SOL     OW 7153   5.227   6.462   6.409
 2085SOL    HW1 7154   5.264   6.371   6.394
 2085SOL    HW2 7155   5.240   6.518   6.326
 2086SOL     OW 7156   2.853   4.896   0.597
 2086SOL    HW1 7157   2.772   4.881   0.653
 2086SOL    HW2 7158   2.836   4.866   0.503
 2087SOL     OW 7159   5.710   6.014   3.692
 2087SOL    HW1 7160   5.721   5.987   3.788
 2087SOL    HW2 7161   5.777   6.085   3.670
 2088SOL     OW 7162   2.373   0.213   0.772
 2088SOL    HW1 7163   2.276   0.198   0.756
 2088SOL    HW2 7164   2.425   0.138   0.731
 2089SOL     OW 7165   2.748   0.677   6.490
 2089SOL    HW1 7166   2.704   0.593   6.458
 2089SOL    HW2 7167   2.756   0.742   6.415
 2090SOL     OW 7168   3.596   2.917   3.597
 2090SOL    HW1 7169   3.512   2.876   3.560
 2090SOL    HW2 7170   3.580   2.944   3.691
 2091SOL     OW 7171   2.181   5.091   0.388
 2091SOL    HW1 7172   2.204   4.994   0.393
 2091SOL    HW2 7173   2.086   5.102   0.358
 2092SOL     OW 7174   6.523   6.323   0.824
 2092SOL    HW1 7175   6.428   6.352   0.836
 2092SOL    HW2 7176   6.545   6.254   0.893
 2093SOL     OW 7177   1.371   2.756   1.132
 2093SOL    HW1 7178   1.275   2.747   1.108
 2093SOL    HW2 7179   1.416   2.817   1.067
 2094SOL     OW 7180   5.887   0.382   2.061
 2094SOL    HW1 7181   5.926   0.336   1.981
 2094SOL    HW2 7182   5.831   0.317   2.113
 2095SOL     OW 7183   0.108   4.874   4.805
 2095SOL    HW1 7184   0.038   4.945   4.796
 2095SOL    HW2 7185   0.193   4.915   4.838
 2096SOL     OW 7186   4.882   3.868   3.209
 2096SOL    HW1 7187   4.869   3.812   3.127
 2096SOL    HW2 7188   4.886   3.810   3.290
 2097SOL     OW 7189   6.443   3.524   6.975
 2097SOL    HW1 7190   6.374   3.461   6.939
 2097SOL    HW2 7191   6.510   3.473   0.008
 2098SOL     OW 7192   4.818   0.363   4.206
 2098SOL    HW1 7193   4.819   0.406   4.115
 2098SOL    HW2 7194   4.912   0.359   4.241
 2099SOL     OW 7195   2.911   1.225   3.878
 2099SOL    HW1 7196   2.969   1.299   3.844
 2099SOL    HW2 7197   2.938   1.139   3.834
 2100SOL     OW 7198   3.734   3.985   6.588
 2100SOL    HW1 7199   3.654   3.945   6.544
 2100SOL    HW2 7200   3.744   3.948   6.680
 2101SOL     OW 7201   6.552   0.571   3.237
 2101SOL    HW1 7202   6.462   0.604   3.210
 2101SOL    HW2 7203   6.557   0.472   3.225
 2102SOL     OW 7204   0.281   5.149   1.966
 2102SOL    HW1 7205   0.248   5.079   1.902
 2102SOL    HW2 7206   0.372   5.124   1.999
 2103SOL     OW 7207   2.587   3.827   6.553
 2103SOL    HW1 7208   2.510   3.815   6.490
 2103SOL    HW2 7209   2.604   3.741   6.600
 2104SOL     OW 7210   1.329   3.657   5.195
 2104SOL    HW1 7211   1.286   3.718   5.261
 2104SOL    HW2 7212   1.425   3.644   5.221
 2105SOL     OW 7213   6.355   5.674   1.417
 2105SOL    HW1 7214   6.350   5.714   1.326
 2105SOL    HW2 7215   6.432   5.713   1.467
 2106SOL     OW 7216   5.062   5.875   6.768
 2106SOL    HW1 7217   4.978   5.914   6.804
 2106SOL    HW2 7218   5.045   5.781   6.737
 2107SOL     OW 7219   3.493   4.113   7.004
 2107SOL    HW1 7220   3.435   4.062   6.940
 2107SOL    HW2 7221   3.435   4.164   0.047
 2108SOL     OW 7222   5.547   4.850   5.514
 2108SOL    HW1 7223   5.636   4.814   5.540
 2108SOL    HW2 7224   5.548   4.875   5.417
 2109SOL     OW 7225   5.502   6.822   2.384
 2109SOL    HW1 7226   5.525   6.727   2.363
 2109SOL    HW2 7227   5.562   6.855   2.456
 2110SOL     OW 7228   2.017   4.623   4.991
 2110SOL    HW1 7229   2.012   4.538   5.043
 2110SOL    HW2 7230   2.086   4.683   5.031
 2111SOL     OW 7231   1.527   2.534   6.980
 2111SOL    HW1 7232   1.473   2.603   0.009
 2111SOL    HW2 7233   1.488   2.520   6.889
 2112SOL     OW 7234   5.088   3.323   1.092
 2112SOL    HW1 7235   5.022   3.252   1.064
 2112SOL    HW2 7236   5.162   3.327   1.025
 2113SOL     OW 7237   0.073   1.507   3.026
 2113SOL    HW1 7238   0.151   1.547   3.073
 2113SOL    HW2 7239   7.012   1.565   3.039
 2114SOL     OW 7240   1.554   3.917   6.552
 2114SOL    HW1 7241   1.574   3.923   6.454
 2114SOL    HW2 7242   1.479   3.979   6.575
 2115SOL     OW 7243   2.804   5.070   2.063
 2115SOL    HW1 7244   2.896   5.108   2.052
 2115SOL    HW2 7245   2.737   5.144   2.067
 2116SOL     OW 7246   0.054   4.118   3.133
 2116SOL    HW1 7247   0.036   4.028   3.173
 2116SOL    HW2 7248   0.087   4.106   3.040
 2117SOL     OW 7249   6.731   4.870   0.273
 2117SOL    HW1 7250   6.669   4.917   0.336
 2117SOL    HW2 7251   6.773   4.936   0.211
 2118SOL     OW 7252   6.851   4.195   2.144
 2118SOL    HW1 7253   6.935   4.142   2.148
 2118SOL    HW2 7254   6.862   4.273   2.083
 2119SOL     OW 7255   3.423   5.662   1.098
 2119SOL    HW1 7256   3.389   5.623   1.013
 2119SOL    HW2 7257   3.346   5.697   1.152
 2120SOL     OW 7258   0.162   5.708   2.169
 2120SOL    HW1 7259   0.075   5.697   2.122
 2120SOL    HW2 7260   0.156   5.668   2.261
 2121SOL     OW 7261   0.656   4.438   4.753
 2121SOL    HW1 7262   0.608   4.506   4.697
 2121SOL    HW2 7263   0.591   4.369   4.785
 2122SOL     OW 7264   4.553   4.560   5.366
 2122SOL    HW1 7265   4.588   4.480   5.318
 2122SOL    HW2 7266   4.463   4.585   5.329
 2123SOL     OW 7267   4.752   4.678   3.718
 2123SOL    HW1 7268   4.677   4.621   3.685
 2123SOL    HW2 7269   4.721   4.772   3.728
 2124SOL     OW 7270   2.748   1.443   1.426
 2124SOL    HW1 7271   2.795   1.360   1.456
 2124SOL    HW2 7272   2.714   1.493   1.506
 2125SOL     OW 7273   2.791   0.197   1.284
 2125SOL    HW1 7274   2.742   0.214   1.199
 2125SOL    HW2 7275   2.803   0.284   1.334
 2126SOL     OW 7276   2.881   0.788   2.167
 2126SOL    HW1 7277   2.790   0.791   2.207
 2126SOL    HW2 7278   2.948   0.769   2.239
 2127SOL     OW 7279   5.689   2.952   4.771
 2127SOL    HW1 7280   5.631   2.976   4.693
 2127SOL    HW2 7281   5.704   2.853   4.772
 2128SOL     OW 7282   0.733   4.589   4.229
 2128SOL    HW1 7283   0.810   4.652   4.223
 2128SOL    HW2 7284   0.724   4.539   4.142
 2129SOL     OW 7285   3.787   2.333   5.792
 2129SOL    HW1 7286   3.775   2.405   5.723
 2129SOL    HW2 7287   3.709   2.332   5.854
 2130SOL     OW 7288   4.262   6.815   3.645
 2130SOL    HW1 7289   4.216   6.874   3.710
 2130SOL    HW2 7290   4.354   6.851   3.626
 2131SOL     OW 7291   5.099   1.870   6.813
 2131SOL    HW1 7292   5.129   1.926   6.890
 2131SOL    HW2 7293   5.083   1.930   6.734
 2132SOL     OW 7294   2.340   3.375   0.389
 2132SOL    HW1 7295   2.367   3.279   0.382
 2132SOL    HW2 7296   2.302   3.405   0.302
 2133SOL     OW 7297   3.052   3.426   6.001
 2133SOL    HW1 7298   3.126   3.488   5.978
 2133SOL    HW2 7299   3.089   3.338   6.032
 2134SOL     OW 7300   1.043   6.957   1.125
 2134SOL    HW1 7301   0.992   7.006   1.055
 2134SOL    HW2 7302   1.134   6.997   1.134
 2135SOL     OW 7303   6.687   4.443   4.749
 2135SOL    HW1 7304   6.630   4.453   4.831
 2135SOL    HW2 7305   6.780   4.419   4.776
 2136SOL     OW 7306   1.080   5.170   1.169
 2136SOL    HW1 7307   1.008   5.208   1.228
 2136SOL    HW2 7308   1.164   5.159   1.222
 2137SOL     OW 7309   1.883   6.143   4.453
 2137SOL    HW1 7310   1.848   6.234   4.432
 2137SOL    HW2 7311   1.854   6.117   4.545
 2138SOL     OW 7312   5.261   1.369   1.365
 2138SOL    HW1 7313   5.301   1.375   1.456
 2138SOL    HW2 7314   5.171   1.413   1.365
 2139SOL     OW 7315   2.775   0.134   5.613
 2139SOL    HW1 7316   2.704   0.156   5.680
 2139SOL    HW2 7317   2.864   0.162   5.647
 2140SOL     OW 7318   2.499   1.942   4.605
 2140SOL    HW1 7319   2.416   1.913   4.651
 2140SOL    HW2 7320   2.567   1.869   4.611
 2141SOL     OW 7321   6.675   3.532   3.268
 2141SOL    HW1 7322   6.732   3.470   3.322
 2141SOL    HW2 7323   6.585   3.490   3.253
 2142SOL     OW 7324   1.692   2.606   3.120
 2142SOL    HW1 7325   1.744   2.690   3.106
 2142SOL    HW2 7326   1.658   2.572   3.032
 2143SOL     OW 7327   0.577   4.503   5.995
 2143SOL    HW1 7328   0.532   4.591   6.006
 2143SOL    HW2 7329   0.620   4.477   6.082
 2144SOL     OW 7330   6.147   4.472   3.549
 2144SOL    HW1 7331   6.180   4.566   3.537
 2144SOL    HW2 7332   6.217   4.408   3.517
 2145SOL     OW 7333   4.456   1.124   3.728
 2145SOL    HW1 7334   4.461   1.140   3.827
 2145SOL    HW2 7335   4.421   1.031   3.712
 2146SOL     OW 7336   2.406   3.051   0.372
 2146SOL    HW1 7337   2.435   3.030   0.466
 2146SOL    HW2 7338   2.306   3.055   0.369
 2147SOL     OW 7339   6.004   6.982   4.387
 2147SOL    HW1 7340   5.985   6.897   4.338
 2147SOL    HW2 7341   5.968   6.976   4.480
 2148SOL     OW 7342   0.524   3.604   5.930
 2148SOL    HW1 7343   0.520   3.547   6.012
 2148SOL    HW2 7344   0.436   3.601   5.883
 2149SOL     OW 7345   1.179   0.253   0.188
 2149SOL    HW1 7346   1.142   0.343   0.211
 2149SOL    HW2 7347   1.252   0.262   0.120
 2150SOL     OW 7348   1.821   2.630   1.363
 2150SOL    HW1 7349   1.754   2.633   1.438
 2150SOL    HW2 7350   1.852   2.723   1.343
 2151SOL     OW 7351   1.090   5.194   0.458
 2151SOL    HW1 7352   1.095   5.181   0.557
 2151SOL    HW2 7353   0.995   5.184   0.428
 2152SOL     OW 7354   5.455   5.994   4.350
 2152SOL    HW1 7355   5.411   6.001   4.261
 2152SOL    HW2 7356   5.456   5.899   4.380
 2153SOL     OW 7357   5.008   1.506   3.630
 2153SOL    HW1 7358   4.939   1.489   3.560
 2153SOL    HW2 7359   5.048   1.419   3.660
 2154SOL     OW 7360   3.196   0.375   3.085
 2154SOL    HW1 7361   3.113   0.386   3.030
 2154SOL    HW2 7362   3.261   0.446   3.062
 2155SOL     OW 7363   4.072   0.654   0.824
 2155SOL    HW1 7364   4.083   0.589   0.748
 2155SOL    HW2 7365   4.095   0.746   0.792
 2156SOL     OW 7366   5.286   1.869   4.947
 2156SOL    HW1 7367   5.332   1.944   4.898
 2156SOL    HW2 7368   5.266   1.795   4.882
 2157SOL     OW 7369   3.594   6.125   4.170
 2157SOL    HW1 7370   3.636   6.131   4.080
 2157SOL    HW2 7371   3.494   6.129   4.160
 2158SOL     OW 7372   3.883   6.719   0.652
 2158SOL    HW1 7373   3.857   6.809   0.616
 2158SOL    HW2 7374   3.982   6.714   0.660
 2159SOL     OW 7375   0.647   0.871   5.709
 2159SOL    HW1 7376   0.719   0.805   5.690
 2159SOL    HW2 7377   0.683   0.964   5.702
 2160SOL     OW 7378   5.530   0.539   0.520
 2160SOL    HW1 7379   5.433   0.516   0.520
 2160SOL    HW2 7380   5.582   0.464   0.560
 2161SOL     OW 7381   1.412   2.746   1.402
 2161SOL    HW1 7382   1.402   2.730   1.304
 2161SOL    HW2 7383   1.383   2.839   1.425
 2162SOL     OW 7384   1.652   6.570   1.615
 2162SOL    HW1 7385   1.728   6.567   1.680
 2162SOL    HW2 7386   1.649   6.485   1.563
 2163SOL     OW 7387   2.034   2.678   2.994
 2163SOL    HW1 7388   2.090   2.760   2.993
 2163SOL    HW2 7389   2.023   2.646   3.088
 2164SOL     OW 7390   2.340   2.786   2.595
 2164SOL    HW1 7391   2.382   2.839   2.522
 2164SOL    HW2 7392   2.328   2.845   2.676
 2165SOL     OW 7393   6.616   1.352   3.908
 2165SOL    HW1 7394   6.533   1.405   3.924
 2165SOL    HW2 7395   6.694   1.401   3.947
 2166SOL     OW 7396   0.072   4.135   2.456
 2166SOL    HW1 7397   7.020   4.091   2.509
 2166SOL    HW2 7398   0.091   4.081   2.374
 2167SOL     OW 7399   2.519   1.632   3.117
 2167SOL    HW1 7400   2.429   1.674   3.106
 2167SOL    HW2 7401   2.588   1.704   3.126
 2168SOL     OW 7402   1.611   1.938   3.075
 2168SOL    HW1 7403   1.641   2.028   3.106
 2168SOL    HW2 7404   1.615   1.874   3.152
 2169SOL     OW 7405   0.457   0.120   1.309
 2169SOL    HW1 7406   0.368   0.087   1.340
 2169SOL    HW2 7407   0.480   0.078   1.222
 2170SOL     OW 7408   1.412   4.125   5.762
 2170SOL    HW1 7409   1.448   4.109   5.670
 2170SOL    HW2 7410   1.331   4.069   5.777
 2171SOL     OW 7411   6.838   5.873   1.236
 2171SOL    HW1 7412   6.841   5.940   1.311
 2171SOL    HW2 7413   6.919   5.883   1.179
 2172SOL     OW 7414   1.751   1.610   5.358
 2172SOL    HW1 7415   1.833   1.661   5.383
 2172SOL    HW2 7416   1.722   1.554   5.436
 2173SOL     OW 7417   5.686   0.636   5.423
 2173SOL    HW1 7418   5.703   0.703   5.496
 2173SOL    HW2 7419   5.656   0.684   5.341
 2174SOL     OW 7420   5.552   0.464   5.819
 2174SOL    HW1 7421   5.457   0.494   5.827
 2174SOL    HW2 7422   5.566   0.421   5.730
 2175SOL     OW 7423   2.673   4.015   5.304
 2175SOL    HW1 7424   2.708   3.922   5.314
 2175SOL    HW2 7425   2.587   4.012   5.252
 2176SOL     OW 7426   5.419   2.245   2.474
 2176SOL    HW1 7427   5.397   2.232   2.570
 2176SOL    HW2 7428   5.341   2.215   2.418
 2177SOL     OW 7429   0.471   0.531   4.808
 2177SOL    HW1 7430   0.454   0.566   4.899
 2177SOL    HW2 7431   0.474   0.431   4.810
 2178SOL     OW 7432   0.872   2.132   3.045
 2178SOL    HW1 7433   0.888   2.062   3.114
 2178SOL    HW2 7434   0.809   2.201   3.080
 2179SOL     OW 7435   1.706   4.430   6.201
 2179SOL    HW1 7436   1.787   4.409   6.146
 2179SOL    HW2 7437   1.696   4.361   6.273
 2180SOL     OW 7438   0.646   6.128   2.902
 2180SOL    HW1 7439   0.740   6.113   2.871
 2180SOL    HW2 7440   0.613   6.046   2.949
 2181SOL     OW 7441   3.166   4.926   4.608
 2181SOL    HW1 7442   3.150   4.905   4.705
 2181SOL    HW2 7443   3.094   4.886   4.553
 2182SOL     OW 7444   6.893   6.703   2.753
 2182SOL    HW1 7445   6.922   6.790   2.792
 2182SOL    HW2 7446   6.963   6.634   2.773
 2183SOL     OW 7447   3.543   3.259   6.189
 2183SOL    HW1 7448   3.486   3.228   6.113
 2183SOL    HW2 7449   3.530   3.358   6.201
 2184SOL     OW 7450   6.796   1.441   0.155
 2184SOL    HW1 7451   6.719   1.500   0.176
 2184SOL    HW2 7452   6.766   1.345   0.156
 2185SOL     OW 7453   1.164   0.154   6.524
 2185SOL    HW1 7454   1.080   0.165   6.472
 2185SOL    HW2 7455   1.238   0.204   6.479
 2186SOL     OW 7456   0.040   5.428   5.573
 2186SOL    HW1 7457   0.031   5.513   5.625
 2186SOL    HW2 7458   0.009   5.443   5.479
 2187SOL     OW 7459   0.356   5.766   1.957
 2187SOL    HW1 7460   0.407   5.693   1.911
 2187SOL    HW2 7461   0.321   5.732   2.044
 2188SOL     OW 7462   2.834   0.803   1.130
 2188SOL    HW1 7463   2.746   0.759   1.145
 2188SOL    HW2 7464   2.855   0.803   1.032
 2189SOL     OW 7465   2.182   1.414   1.657
 2189SOL    HW1 7466   2.170   1.513   1.660
 2189SOL    HW2 7467   2.107   1.370   1.708
 2190SOL     OW 7468   6.572   4.102   1.899
 2190SOL    HW1 7469   6.496   4.042   1.872
 2190SOL    HW2 7470   6.545   4.154   1.980
 2191SOL     OW 7471   2.952   0.295   6.663
 2191SOL    HW1 7472   2.991   0.275   6.573
 2191SOL    HW2 7473   3.004   0.248   6.734
 2192SOL     OW 7474   5.051   1.967   1.867
 2192SOL    HW1 7475   5.149   1.966   1.847
 2192SOL    HW2 7476   5.023   2.060   1.892
 2193SOL     OW 7477   1.731   6.861   5.822
 2193SOL    HW1 7478   1.756   6.953   5.853
 2193SOL    HW2 7479   1.633   6.847   5.834
 2194SOL     OW 7480   0.777   4.212   6.382
 2194SOL    HW1 7481   0.789   4.116   6.359
 2194SOL    HW2 7482   0.866   4.259   6.377
 2195SOL     OW 7483   0.632   3.670   4.895
 2195SOL    HW1 7484   0.634   3.575   4.925
 2195SOL    HW2 7485   0.537   3.698   4.882
 2196SOL     OW 7486   2.630   0.211   6.928
 2196SOL    HW1 7487   2.569   0.159   6.988
 2196SOL    HW2 7488   2.718   0.225   6.973
 2197SOL     OW 7489   3.682   5.392   5.832
 2197SOL    HW1 7490   3.759   5.416   5.891
 2197SOL    HW2 7491   3.635   5.313   5.870
 2198SOL     OW 7492   0.799   0.769   6.987
 2198SOL    HW1 7493   0.869   0.698   6.990
 2198SOL    HW2 7494   0.778   0.792   6.892
 2199SOL     OW 7495   3.934   6.444   4.852
 2199SOL    HW1 7496   3.968   6.350   4.860
 2199SOL    HW2 7497   3.840   6.448   4.886
 2200SOL     OW 7498   2.585   2.179   3.953
 2200SOL    HW1 7499   2.610   2.158   3.858
 2200SOL    HW2 7500   2.551   2.097   3.998
 2201SOL     OW 7501   6.186   3.873   4.852
 2201SOL    HW1 7502   6.237   3.873   4.766
 2201SOL    HW2 7503   6.109   3.935   4.845
 2202SOL     OW 7504   3.279   0.254   2.068
 2202SOL    HW1 7505   3.348   0.320   2.041
 2202SOL    HW2 7506   3.189   0.298   2.068
 2203SOL     OW 7507   2.313   4.656   1.217
 2203SOL    HW1 7508   2.250   4.661   1.294
 2203SOL    HW2 7509   2.405   4.634   1.251
 2204SOL     OW 7510   6.043   3.274   0.631
 2204SOL    HW1 7511   5.982   3.264   0.553
 2204SOL    HW2 7512   6.062   3.184   0.670
 2205SOL     OW 7513   0.235   5.287   0.595
 2205SOL    HW1 7514   0.251   5.376   0.639
 2205SOL    HW2 7515   0.217   5.218   0.665
 2206SOL     OW 7516   4.057   2.320   5.817
 2206SOL    HW1 7517   4.102   2.320   5.728
 2206SOL    HW2 7518   3.958   2.310   5.804
 2207SOL     OW 7519   4.837   5.651   0.801
 2207SOL    HW1 7520   4.872   5.582   0.738
 2207SOL    HW2 7521   4.752   5.690   0.765
 2208SOL     OW 7522   6.469   6.466   3.922
 2208SOL    HW1 7523   6.474   6.422   3.832
 2208SOL    HW2 7524   6.540   6.428   3.981
 2209SOL     OW 7525   2.568   5.845   4.069
 2209SOL    HW1 7526   2.505   5.777   4.105
 2209SOL    HW2 7527   2.523   5.935   4.069
 2210SOL     OW 7528   4.357   0.386   1.356
 2210SOL    HW1 7529   4.327   0.321   1.286
 2210SOL    HW2 7530   4.388   0.335   1.437
 2211SOL     OW 7531   0.866   1.738   1.118
 2211SOL    HW1 7532   0.941   1.738   1.185
 2211SOL    HW2 7533   0.903   1.740   1.026
 2212SOL     OW 7534   3.079   5.683   6.974
 2212SOL    HW1 7535   3.126   5.709   6.889
 2212SOL    HW2 7536   2.981   5.682   6.958
 2213SOL     OW 7537   3.287   2.099   4.844
 2213SOL    HW1 7538   3.223   2.164   4.885
 2213SOL    HW2 7539   3.351   2.066   4.914
 2214SOL     OW 7540   4.179   3.996   6.896
 2214SOL    HW1 7541   4.235   4.022   6.975
 2214SOL    HW2 7542   4.092   3.958   6.928
 2215SOL     OW 7543   4.052   6.932   6.796
 2215SOL    HW1 7544   4.046   6.870   6.874
 2215SOL    HW2 7545   4.147   6.958   6.782
 2216SOL     OW 7546   0.767   6.630   6.520
 2216SOL    HW1 7547   0.790   6.718   6.562
 2216SOL    HW2 7548   0.677   6.600   6.553
 2217SOL     OW 7549   4.382   0.803   3.934
 2217SOL    HW1 7550   4.343   0.808   3.842
 2217SOL    HW2 7551   4.342   0.874   3.991
 2218SOL     OW 7552   0.441   6.096   5.583
 2218SOL    HW1 7553   0.363   6.041   5.613
 2218SOL    HW2 7554   0.509   6.036   5.540
 2219SOL     OW 7555   5.743   0.858   1.197
 2219SOL    HW1 7556   5.745   0.890   1.292
 2219SOL    HW2 7557   5.658   0.886   1.153
 2220SOL     OW 7558   0.391   6.124   4.857
 2220SOL    HW1 7559   0.311   6.146   4.912
 2220SOL    HW2 7560   0.428   6.208   4.817
 2221SOL     OW 7561   6.335   1.154   3.941
 2221SOL    HW1 7562   6.255   1.106   3.906
 2221SOL    HW2 7563   6.418   1.112   3.906
 2222SOL     OW 7564   5.082   0.359   2.481
 2222SOL    HW1 7565   4.995   0.316   2.505
 2222SOL    HW2 7566   5.155   0.290   2.485
 2223SOL     OW 7567   0.407   6.308   5.373
 2223SOL    HW1 7568   0.341   6.380   5.396
 2223SOL    HW2 7569   0.420   6.249   5.453
 2224SOL     OW 7570   6.048   3.929   0.580
 2224SOL    HW1 7571   6.076   3.848   0.528
 2224SOL    HW2 7572   6.049   3.908   0.678
 2225SOL     OW 7573   6.671   6.335   2.196
 2225SOL    HW1 7574   6.758   6.325   2.243
 2225SOL    HW2 7575   6.617   6.251   2.205
 2226SOL     OW 7576   2.575   5.009   0.170
 2226SOL    HW1 7577   2.661   5.058   0.156
 2226SOL    HW2 7578   2.498   5.071   0.154
 2227SOL     OW 7579   3.817   1.953   1.948
 2227SOL    HW1 7580   3.815   1.953   1.848
 2227SOL    HW2 7581   3.767   2.033   1.982
 2228SOL     OW 7582   5.551   5.491   6.950
 2228SOL    HW1 7583   5.541   5.577   6.999
 2228SOL    HW2 7584   5.496   5.420   6.994
 2229SOL     OW 7585   3.259   3.361   3.582
 2229SOL    HW1 7586   3.338   3.311   3.545
 2229SOL    HW2 7587   3.196   3.296   3.625
 2230SOL     OW 7588   5.835   0.249   6.889
 2230SOL    HW1 7589   5.883   0.330   6.923
 2230SOL    HW2 7590   5.741   0.272   6.867
 2231SOL     OW 7591   1.513   6.970   6.604
 2231SOL    HW1 7592   1.424   6.946   6.566
 2231SOL    HW2 7593   1.572   7.007   6.533
 2232SOL     OW 7594   1.332   0.824   5.205
 2232SOL    HW1 7595   1.324   0.769   5.122
 2232SOL    HW2 7596   1.245   0.825   5.253
 2233SOL     OW 7597   2.904   4.578   1.000
 2233SOL    HW1 7598   2.990   4.627   0.994
 2233SOL    HW2 7599   2.917   4.483   0.971
 2234SOL     OW 7600   4.906   1.688   1.526
 2234SOL    HW1 7601   4.994   1.658   1.561
 2234SOL    HW2 7602   4.898   1.787   1.535
 2235SOL     OW 7603   1.235   2.041   3.030
 2235SOL    HW1 7604   1.186   2.103   2.969
 2235SOL    HW2 7605   1.321   2.013   2.988
 2236SOL     OW 7606   1.956   4.938   5.384
 2236SOL    HW1 7607   2.016   4.936   5.464
 2236SOL    HW2 7608   1.959   5.028   5.342
 2237SOL     OW 7609   6.231   5.058   5.798
 2237SOL    HW1 7610   6.237   5.117   5.717
 2237SOL    HW2 7611   6.207   5.114   5.878
 2238SOL     OW 7612   6.049   3.909   1.724
 2238SOL    HW1 7613   6.097   3.822   1.733
 2238SOL    HW2 7614   5.972   3.912   1.788
 2239SOL     OW 7615   4.765   6.737   2.845
 2239SOL    HW1 7616   4.700   6.806   2.877
 2239SOL    HW2 7617   4.815   6.773   2.765
 2240SOL     OW 7618   4.986   5.174   2.736
 2240SOL    HW1 7619   5.072   5.130   2.762
 2240SOL    HW2 7620   4.960   5.240   2.807
 2241SOL     OW 7621   0.476   1.514   2.093
 2241SOL    HW1 7622   0.548   1.557   2.149
 2241SOL    HW2 7623   0.513   1.433   2.049
 2242SOL     OW 7624   5.394   2.658   3.341
 2242SOL    HW1 7625   5.395   2.574   3.394
 2242SOL    HW2 7626   5.487   2.682   3.314
 2243SOL     OW 7627   2.151   6.669   0.676
 2243SOL    HW1 7628   2.238   6.631   0.706
 2243SOL    HW2 7629   2.093   6.596   0.640
 2244SOL     OW 7630   2.599   0.902   0.740
 2244SOL    HW1 7631   2.674   0.837   0.729
 2244SOL    HW2 7632   2.512   0.853   0.740
 2245SOL     OW 7633   0.079   0.490   7.003
 2245SOL    HW1 7634   7.011   0.485   6.956
 2245SOL    HW2 7635   0.069   0.538   0.070
 2246SOL     OW 7636   2.822   1.409   5.180
 2246SOL    HW1 7637   2.829   1.497   5.135
 2246SOL    HW2 7638   2.745   1.357   5.143
 2247SOL     OW 7639   2.981   3.201   2.655
 2247SOL    HW1 7640   3.021   3.221   2.745
 2247SOL    HW2 7641   3.050   3.157   2.597
 2248SOL     OW 7642   4.652   4.004   5.326
 2248SOL    HW1 7643   4.707   4.043   5.252
 2248SOL    HW2 7644   4.686   3.912   5.347
 2249SOL     OW 7645   1.147   6.464   3.531
 2249SOL    HW1 7646   1.230   6.517   3.545
 2249SOL    HW2 7647   1.079   6.520   3.484
 2250SOL     OW 7648   4.509   5.465   6.281
 2250SOL    HW1 7649   4.522   5.419   6.369
 2250SOL    HW2 7650   4.565   5.420   6.211
 2251SOL     OW 7651   5.806   6.220   5.483
 2251SOL    HW1 7652   5.710   6.208   5.507
 2251SOL    HW2 7653   5.853   6.132   5.493
 2252SOL     OW 7654   4.145   1.899   2.399
 2252SOL    HW1 7655   4.128   1.874   2.495
 2252SOL    HW2 7656   4.232   1.946   2.391
 2253SOL     OW 7657   0.518   3.728   1.258
 2253SOL    HW1 7658   0.608   3.683   1.259
 2253SOL    HW2 7659   0.460   3.688   1.329
 2254SOL     OW 7660   3.917   3.749   2.487
 2254SOL    HW1 7661   3.866   3.813   2.544
 2254SOL    HW2 7662   3.863   3.665   2.473
 2255SOL     OW 7663   2.940   3.091   6.203
 2255SOL    HW1 7664   2.842   3.106   6.193
 2255SOL    HW2 7665   2.986   3.111   6.116
 2256SOL     OW 7666   5.339   0.326   1.273
 2256SOL    HW1 7667   5.249   0.369   1.281
 2256SOL    HW2 7668   5.379   0.316   1.364
 2257SOL     OW 7669   0.107   1.646   5.027
 2257SOL    HW1 7670   0.053   1.672   4.946
 2257SOL    HW2 7671   0.093   1.713   5.099
 2258SOL     OW 7672   2.499   5.529   4.188
 2258SOL    HW1 7673   2.420   5.475   4.219
 2258SOL    HW2 7674   2.542   5.483   4.110
 2259SOL     OW 7675   6.072   2.335   4.811
 2259SOL    HW1 7676   6.002   2.364   4.876
 2259SOL    HW2 7677   6.029   2.307   4.725
 2260SOL     OW 7678   0.849   4.188   1.333
 2260SOL    HW1 7679   0.760   4.188   1.287
 2260SOL    HW2 7680   0.834   4.181   1.432
 2261SOL     OW 7681   5.330   4.023   6.735
 2261SOL    HW1 7682   5.249   4.074   6.707
 2261SOL    HW2 7683   5.379   3.991   6.654
 2262SOL     OW 7684   6.477   0.203   4.876
 2262SOL    HW1 7685   6.549   0.187   4.809
 2262SOL    HW2 7686   6.503   0.278   4.937
 2263SOL     OW 7687   2.270   4.289   6.389
 2263SOL    HW1 7688   2.338   4.362   6.397
 2263SOL    HW2 7689   2.286   4.221   6.460
 2264SOL     OW 7690   2.641   6.942   5.550
 2264SOL    HW1 7691   2.647   6.859   5.606
 2264SOL    HW2 7692   2.693   7.015   5.593
 2265SOL     OW 7693   0.467   6.477   4.396
 2265SOL    HW1 7694   0.446   6.572   4.418
 2265SOL    HW2 7695   0.566   6.465   4.393
 2266SOL     OW 7696   3.762   2.845   6.805
 2266SOL    HW1 7697   3.765   2.933   6.853
 2266SOL    HW2 7698   3.675   2.837   6.757
 2267SOL     OW 7699   4.893   2.380   4.200
 2267SOL    HW1 7700   4.817   2.362   4.262
 2267SOL    HW2 7701   4.914   2.478   4.201
 2268SOL     OW 7702   1.057   5.518   4.882
 2268SOL    HW1 7703   1.122   5.582   4.923
 2268SOL    HW2 7704   1.069   5.428   4.923
 2269SOL     OW 7705   1.810   2.263   5.213
 2269SOL    HW1 7706   1.848   2.172   5.230
 2269SOL    HW2 7707   1.884   2.327   5.193
 2270SOL     OW 7708   5.016   1.947   5.825
 2270SOL    HW1 7709   4.968   1.913   5.743
 2270SOL    HW2 7710   5.012   2.046   5.827
 2271SOL     OW 7711   4.958   5.535   5.766
 2271SOL    HW1 7712   4.923   5.461   5.824
 2271SOL    HW2 7713   4.916   5.528   5.675
 2272SOL     OW 7714   5.465   1.253   6.204
 2272SOL    HW1 7715   5.491   1.179   6.267
 2272SOL    HW2 7716   5.366   1.267   6.208
 2273SOL     OW 7717   0.744   2.514   2.740
 2273SOL    HW1 7718   0.736   2.414   2.744
 2273SOL    HW2 7719   0.840   2.540   2.730
 2274SOL     OW 7720   0.360   1.689   6.931
 2274SOL    HW1 7721   0.315   1.768   6.888
 2274SOL    HW2 7722   0.449   1.674   6.888
 2275SOL     OW 7723   5.555   4.883   3.046
 2275SOL    HW1 7724   5.610   4.952   3.094
 2275SOL    HW2 7725   5.480   4.853   3.105
 2276SOL     OW 7726   1.341   2.255   1.155
 2276SOL    HW1 7727   1.391   2.303   1.083
 2276SOL    HW2 7728   1.246   2.289   1.158
 2277SOL     OW 7729   3.766   3.419   3.455
 2277SOL    HW1 7730   3.830   3.423   3.531
 2277SOL    HW2 7731   3.726   3.509   3.439
 2278SOL     OW 7732   0.702   2.742   4.192
 2278SOL    HW1 7733   0.744   2.832   4.183
 2278SOL    HW2 7734   0.733   2.683   4.118
 2279SOL     OW 7735   0.635   5.951   5.466
 2279SOL    HW1 7736   0.655   5.868   5.415
 2279SOL    HW2 7737   0.696   6.024   5.437
 2280SOL     OW 7738   5.043   1.619   5.655
 2280SOL    HW1 7739   5.101   1.628   5.735
 2280SOL    HW2 7740   4.996   1.706   5.639
 2281SOL     OW 7741   5.845   6.781   2.648
 2281SOL    HW1 7742   5.875   6.729   2.728
 2281SOL    HW2 7743   5.871   6.877   2.658
 2282SOL     OW 7744   4.080   6.469   5.300
 2282SOL    HW1 7745   4.010   6.413   5.257
 2282SOL    HW2 7746   4.128   6.415   5.370
 2283SOL     OW 7747   0.129   0.350   3.875
 2283SOL    HW1 7748   0.158   0.429   3.822
 2283SOL    HW2 7749   0.052   0.375   3.933
 2284SOL     OW 7750   1.119   2.438   0.019
 2284SOL    HW1 7751   1.081   2.425   6.948
 2284SOL    HW2 7752   1.080   2.520   0.060
 2285SOL     OW 7753   1.696   4.228   6.390
 2285SOL    HW1 7754   1.693   4.156   6.321
 2285SOL    HW2 7755   1.788   4.234   6.428
 2286SOL     OW 7756   4.753   5.622   3.578
 2286SOL    HW1 7757   4.851   5.639   3.592
 2286SOL    HW2 7758   4.707   5.616   3.666
 2287SOL     OW 7759   1.801   1.256   3.050
 2287SOL    HW1 7760   1.807   1.339   3.106
 2287SOL    HW2 7761   1.707   1.223   3.051
 2288SOL     OW 7762   0.029   6.511   3.017
 2288SOL    HW1 7763   0.055   6.482   2.925
 2288SOL    HW2 7764   0.111   6.532   3.070
 2289SOL     OW 7765   0.482   5.529   1.382
 2289SOL    HW1 7766   0.479   5.598   1.454
 2289SOL    HW2 7767   0.421   5.557   1.307
 2290SOL     OW 7768   0.467   5.914   0.318
 2290SOL    HW1 7769   0.452   5.989   0.254
 2290SOL    HW2 7770   0.385   5.857   0.322
 2291SOL     OW 7771   2.367   1.922   6.581
 2291SOL    HW1 7772   2.298   1.853   6.558
 2291SOL    HW2 7773   2.326   1.991   6.641
 2292SOL     OW 7774   1.105   1.414   4.997
 2292SOL    HW1 7775   1.039   1.420   5.072
 2292SOL    HW2 7776   1.056   1.424   4.910
 2293SOL     OW 7777   5.412   4.369   2.653
 2293SOL    HW1 7778   5.376   4.361   2.560
 2293SOL    HW2 7779   5.460   4.456   2.663
 2294SOL     OW 7780   3.547   6.610   6.642
 2294SOL    HW1 7781   3.608   6.677   6.684
 2294SOL    HW2 7782   3.565   6.606   6.543
 2295SOL     OW 7783   0.539   2.237   1.684
 2295SOL    HW1 7784   0.478   2.254   1.607
 2295SOL    HW2 7785   0.629   2.209   1.650
 2296SOL     OW 7786   2.982   6.500   0.041
 2296SOL    HW1 7787   2.984   6.438   0.120
 2296SOL    HW2 7788   2.982   6.595   0.073
 2297SOL     OW 7789   4.381   6.060   5.546
 2297SOL    HW1 7790   4.456   6.086   5.485
 2297SOL    HW2 7791   4.410   6.073   5.641
 2298SOL     OW 7792   3.926   3.081   6.920
 2298SOL    HW1 7793   3.942   3.027   7.003
 2298SOL    HW2 7794   4.014   3.118   6.888
 2299SOL     OW 7795   4.604   6.031   0.214
 2299SOL    HW1 7796   4.549   6.000   0.292
 2299SOL    HW2 7797   4.676   6.092   0.247
 2300SOL     OW 7798   1.509   4.897   1.326
 2300SOL    HW1 7799   1.584   4.963   1.324
 2300SOL    HW2 7800   1.507   4.852   1.416
 2301SOL     OW 7801   3.860   3.603   2.037
 2301SOL    HW1 7802   3.943   3.564   2.077
 2301SOL    HW2 7803   3.880   3.695   2.003
 2302SOL     OW 7804   2.686   5.685   2.692
 2302SOL    HW1 7805   2.776   5.643   2.683
 2302SOL    HW2 7806   2.660   5.687   2.789
 2303SOL     OW 7807   1.231   3.113   4.489
 2303SOL    HW1 7808   1.299   3.124   4.417
 2303SOL    HW2 7809   1.276   3.091   4.575
 2304SOL     OW 7810   2.399   0.993   3.697
 2304SOL    HW1 7811   2.372   1.023   3.788
 2304SOL    HW2 7812   2.452   1.066   3.653
 2305SOL     OW 7813   3.873   5.451   1.886
 2305SOL    HW1 7814   3.775   5.469   1.872
 2305SOL    HW2 7815   3.913   5.526   1.939
 2306SOL     OW 7816   0.874   3.294   0.898
 2306SOL    HW1 7817   0.967   3.261   0.884
 2306SOL    HW2 7818   0.854   3.367   0.833
 2307SOL     OW 7819   0.589   2.665   2.575
 2307SOL    HW1 7820   0.638   2.627   2.653
 2307SOL    HW2 7821   0.568   2.592   2.510
 2308SOL     OW 7822   0.379   0.003   0.420
 2308SOL    HW1 7823   0.289   0.047   0.412
 2308SOL    HW2 7824   0.396   6.968   0.338
 2309SOL     OW 7825   3.390   5.033   5.938
 2309SOL    HW1 7826   3.445   4.977   5.876
 2309SOL    HW2 7827   3.443   5.113   5.966
 2310SOL     OW 7828   5.539   1.029   2.061
 2310SOL    HW1 7829   5.443   1.008   2.046
 2310SOL    HW2 7830   5.579   0.960   2.122
 2311SOL     OW 7831   2.988   0.307   2.879
 2311SOL    HW1 7832   3.020   0.224   2.834
 2311SOL    HW2 7833   2.900   0.289   2.924
 2312SOL     OW 7834   3.365   1.305   3.009
 2312SOL    HW1 7835   3.313   1.378   2.963
 2312SOL    HW2 7836   3.461   1.312   2.982
 2313SOL     OW 7837   5.289   3.771   1.654
 2313SOL    HW1 7838   5.352   3.847   1.639
 2313SOL    HW2 7839   5.226   3.794   1.728
 2314SOL     OW 7840   6.282   0.158   3.169
 2314SOL    HW1 7841   6.215   0.149   3.095
 2314SOL    HW2 7842   6.319   0.068   3.192
 2315SOL     OW 7843   4.404   5.476   5.402
 2315SOL    HW1 7844   4.370   5.382   5.402
 2315SOL    HW2 7845   4.446   5.496   5.491
 2316SOL     OW 7846   3.249   1.696   6.086
 2316SOL    HW1 7847   3.294   1.609   6.106
 2316SOL    HW2 7848   3.294   1.769   6.138
 2317SOL     OW 7849   6.539   5.697   3.818
 2317SOL    HW1 7850   6.626   5.722   3.777
 2317SOL    HW2 7851   6.467   5.700   3.749
 2318SOL     OW 7852   1.824   4.828   4.970
 2318SOL    HW1 7853   1.895   4.764   4.998
 2318SOL    HW2 7854   1.845   4.863   4.879
 2319SOL     OW 7855   2.431   4.935   3.828
 2319SOL    HW1 7856   2.352   4.966   3.775
 2319SOL    HW2 7857   2.500   5.008   3.832
 2320SOL     OW 7858   1.704   3.271   5.234
 2320SOL    HW1 7859   1.752   3.266   5.146
 2320SOL    HW2 7860   1.631   3.203   5.237
 2321SOL     OW 7861   2.729   5.229   5.810
 2321SOL    HW1 7862   2.758   5.261   5.900
 2321SOL    HW2 7863   2.632   5.207   5.812
 2322SOL     OW 7864   0.834   3.834   2.003
 2322SOL    HW1 7865   0.913   3.772   1.997
 2322SOL    HW2 7866   0.793   3.844   1.913
 2323SOL     OW 7867   2.204   4.756   1.699
 2323SOL    HW1 7868   2.145   4.835   1.711
 2323SOL    HW2 7869   2.296   4.786   1.677
 2324SOL     OW 7870   6.902   5.721   1.824
 2324SOL    HW1 7871   6.915   5.732   1.725
 2324SOL    HW2 7872   6.856   5.802   1.861
 2325SOL     OW 7873   6.824   5.271   1.643
 2325SOL    HW1 7874   6.869   5.208   1.580
 2325SOL    HW2 7875   6.888   5.296   1.715
 2326SOL     OW 7876   0.944   0.835   6.450
 2326SOL    HW1 7877   0.999   0.758   6.481
 2326SOL    HW2 7878   0.951   0.910   6.516
 2327SOL     OW 7879   6.707   0.713   2.752
 2327SOL    HW1 7880   6.721   0.680   2.845
 2327SOL    HW2 7881   6.762   0.796   2.737
 2328SOL     OW 7882   1.919   2.232   2.514
 2328SOL    HW1 7883   1.858   2.311   2.517
 2328SOL    HW2 7884   2.006   2.255   2.558
 2329SOL     OW 7885   0.915   5.877   3.561
 2329SOL    HW1 7886   0.910   5.777   3.561
 2329SOL    HW2 7887   0.822   5.915   3.556
 2330SOL     OW 7888   6.328   2.499   0.315
 2330SOL    HW1 7889   6.253   2.491   0.380
 2330SOL    HW2 7890   6.414   2.476   0.360
 2331SOL     OW 7891   4.024   5.999   0.405
 2331SOL    HW1 7892   4.098   6.041   0.353
 2331SOL    HW2 7893   4.054   5.985   0.500
 2332SOL     OW 7894   5.301   6.172   6.356
 2332SOL    HW1 7895   5.257   6.108   6.293
 2332SOL    HW2 7896   5.377   6.126   6.403
 2333SOL     OW 7897   0.206   5.170   2.457
 2333SOL    HW1 7898   0.289   5.162   2.403
 2333SOL    HW2 7899   0.226   5.218   2.543
 2334SOL     OW 7900   2.713   0.912   5.841
 2334SOL    HW1 7901   2.785   0.973   5.874
 2334SOL    HW2 7902   2.678   0.858   5.917
 2335SOL     OW 7903   6.075   1.643   3.361
 2335SOL    HW1 7904   5.981   1.638   3.392
 2335SOL    HW2 7905   6.137   1.639   3.439
 2336SOL     OW 7906   1.952   1.517   2.404
 2336SOL    HW1 7907   2.033   1.545   2.351
 2336SOL    HW2 7908   1.887   1.471   2.344
 2337SOL     OW 7909   4.133   1.776   1.329
 2337SOL    HW1 7910   4.187   1.844   1.279
 2337SOL    HW2 7911   4.120   1.806   1.423
 2338SOL     OW 7912   0.218   4.237   4.119
 2338SOL    HW1 7913   0.281   4.197   4.052
 2338SOL    HW2 7914   0.227   4.337   4.117
 2339SOL     OW 7915   3.858   3.015   2.863
 2339SOL    HW1 7916   3.811   3.101   2.882
 2339SOL    HW2 7917   3.822   2.976   2.778
 2340SOL     OW 7918   1.368   5.815   6.375
 2340SOL    HW1 7919   1.464   5.790   6.370
 2340SOL    HW2 7920   1.340   5.822   6.471
 2341SOL     OW 7921   2.587   4.601   3.488
 2341SOL    HW1 7922   2.683   4.573   3.484
 2341SOL    HW2 7923   2.550   4.578   3.578
 2342SOL     OW 7924   3.102   6.896   4.063
 2342SOL    HW1 7925   3.117   6.919   4.159
 2342SOL    HW2 7926   3.177   6.932   4.008
 2343SOL     OW 7927   1.762   6.402   2.493
 2343SOL    HW1 7928   1.701   6.398   2.414
 2343SOL    HW2 7929   1.855   6.377   2.465
 2344SOL     OW 7930   5.844   4.400   0.962
 2344SOL    HW1 7931   5.878   4.465   0.894
 2344SOL    HW2 7932   5.745   4.390   0.951
 2345SOL     OW 7933   2.992   6.003   4.861
 2345SOL    HW1 7934   3.017   5.906   4.864
 2345SOL    HW2 7935   2.957   6.031   4.951
 2346SOL     OW 7936   3.757   3.799   6.323
 2346SOL    HW1 7937   3.711   3.887   6.317
 2346SOL    HW2 7938   3.793   3.773   6.234
 2347SOL     OW 7939   0.882   2.507   1.781
 2347SOL    HW1 7940   0.884   2.453   1.865
 2347SOL    HW2 7941   0.854   2.601   1.802
 2348SOL     OW 7942   0.892   5.289   3.026
 2348SOL    HW1 7943   0.839   5.286   3.111
 2348SOL    HW2 7944   0.899   5.384   2.995
 2349SOL     OW 7945   0.266   4.705   6.540
 2349SOL    HW1 7946   0.253   4.751   6.452
 2349SOL    HW2 7947   0.178   4.672   6.573
 2350SOL     OW 7948   6.383   4.278   6.294
 2350SOL    HW1 7949   6.446   4.300   6.368
 2350SOL    HW2 7950   6.402   4.186   6.260
 2351SOL     OW 7951   2.467   4.589   3.137
 2351SOL    HW1 7952   2.437   4.513   3.195
 2351SOL    HW2 7953   2.520   4.654   3.191
 2352SOL     OW 7954   0.411   3.287   3.457
 2352SOL    HW1 7955   0.404   3.359   3.526
 2352SOL    HW2 7956   0.371   3.203   3.493
 2353SOL     OW 7957   3.577   5.752   5.292
 2353SOL    HW1 7958   3.485   5.723   5.317
 2353SOL    HW2 7959   3.572   5.824   5.223
 2354SOL     OW 7960   2.793   1.707   4.133
 2354SOL    HW1 7961   2.770   1.714   4.231
 2354SOL    HW2 7962   2.709   1.698   4.080
 2355SOL     OW 7963   2.035   6.005   4.749
 2355SOL    HW1 7964   2.112   5.982   4.809
 2355SOL    HW2 7965   1.961   5.939   4.761
 2356SOL     OW 7966   0.119   3.281   6.840
 2356SOL    HW1 7967   0.041   3.280   6.778
 2356SOL    HW2 7968   0.098   3.335   6.921
 2357SOL     OW 7969   2.923   0.310   2.478
 2357SOL    HW1 7970   3.015   0.312   2.439
 2357SOL    HW2 7971   2.884   0.402   2.475
 2358SOL     OW 7972   3.820   4.384   6.460
 2358SOL    HW1 7973   3.839   4.294   6.421
 2358SOL    HW2 7974   3.727   4.387   6.496
 2359SOL     OW 7975   0.908   0.867   5.368
 2359SOL    HW1 7976   1.005   0.886   5.349
 2359SOL    HW2 7977   0.865   0.949   5.406
 2360SOL     OW 7978   6.591   3.373   0.426
 2360SOL    HW1 7979   6.530   3.434   0.475
 2360SOL    HW2 7980   6.624   3.302   0.489
 2361SOL     OW 7981   3.727   1.582   5.644
 2361SOL    HW1 7982   3.685   1.528   5.717
 2361SOL    HW2 7983   3.798   1.641   5.683
 2362SOL     OW 7984   3.478   5.185   3.484
 2362SOL    HW1 7985   3.470   5.166   3.581
 2362SOL    HW2 7986   3.464   5.100   3.432
 2363SOL     OW 7987   3.749   1.555   4.018
 2363SOL    HW1 7988   3.653   1.567   3.995
 2363SOL    HW2 7989   3.782   1.468   3.981
 2364SOL     OW 7990   1.080   2.062   1.175
 2364SOL    HW1 7991   1.006   2.024   1.230
 2364SOL    HW2 7992   1.054   2.152   1.141
 2365SOL     OW 7993   5.525   2.217   6.628
 2365SOL    HW1 7994   5.625   2.210   6.629
 2365SOL    HW2 7995   5.498   2.311   6.607
 2366SOL     OW 7996   3.790   5.167   1.298
 2366SOL    HW1 7997   3.752   5.101   1.233
 2366SOL    HW2 7998   3.757   5.259   1.273
 2367SOL     OW 7999   1.919   3.315   6.681
 2367SOL    HW1 8000   1.930   3.218   6.701
 2367SOL    HW2 8001   1.993   3.345   6.621
 2368SOL     OW 8002   6.024   6.701   3.880
 2368SOL    HW1 8003   5.963   6.739   3.950
 2368SOL    HW2 8004   5.997   6.734   3.790
 2369SOL     OW 8005   2.143   0.162   3.834
 2369SOL    HW1 8006   2.052   0.139   3.869
 2369SOL    HW2 8007   2.137   0.185   3.737
 2370SOL     OW 8008   5.515   2.554   6.766
 2370SOL    HW1 8009   5.607   2.517   6.774
 2370SOL    HW2 8010   5.486   2.551   6.670
 2371SOL     OW 8011   3.088   0.197   1.683
 2371SOL    HW1 8012   2.997   0.175   1.720
 2371SOL    HW2 8013   3.105   0.143   1.601
 2372SOL     OW 8014   6.693   3.090   2.068
 2372SOL    HW1 8015   6.641   3.153   2.010
 2372SOL    HW2 8016   6.709   3.004   2.020
 2373SOL     OW 8017   1.741   3.383   6.308
 2373SOL    HW1 8018   1.665   3.427   6.260
 2373SOL    HW2 8019   1.727   3.391   6.407
 2374SOL     OW 8020   6.292   2.547   4.746
 2374SOL    HW1 8021   6.343   2.489   4.683
 2374SOL    HW2 8022   6.199   2.512   4.756
 2375SOL     OW 8023   3.358   5.724   5.003
 2375SOL    HW1 8024   3.388   5.660   5.074
 2375SOL    HW2 8025   3.358   5.678   4.914
 2376SOL     OW 8026   6.197   3.087   4.039
 2376SOL    HW1 8027   6.112   3.083   4.091
 2376SOL    HW2 8028   6.274   3.077   4.102
 2377SOL     OW 8029   3.070   3.115   4.147
 2377SOL    HW1 8030   3.039   3.107   4.052
 2377SOL    HW2 8031   3.031   3.197   4.188
 2378SOL     OW 8032   5.427   2.464   6.520
 2378SOL    HW1 8033   5.343   2.417   6.496
 2378SOL    HW2 8034   5.464   2.511   6.440
 2379SOL     OW 8035   6.336   0.240   0.813
 2379SOL    HW1 8036   6.305   0.334   0.801
 2379SOL    HW2 8037   6.426   0.229   0.771
 2380SOL     OW 8038   5.836   2.478   1.427
 2380SOL    HW1 8039   5.883   2.420   1.361
 2380SOL    HW2 8040   5.889   2.562   1.442
 2381SOL     OW 8041   1.847   6.227   3.089
 2381SOL    HW1 8042   1.823   6.196   2.997
 2381SOL    HW2 8043   1.867   6.148   3.146
 2382SOL     OW 8044   2.207   3.197   5.191
 2382SOL    HW1 8045   2.240   3.270   5.252
 2382SOL    HW2 8046   2.284   3.143   5.158
 2383SOL     OW 8047   6.880   6.072   1.458
 2383SOL    HW1 8048   6.821   6.152   1.444
 2383SOL    HW2 8049   6.975   6.099   1.444
 2384SOL     OW 8050   4.614   1.765   1.934
 2384SOL    HW1 8051   4.651   1.858   1.926
 2384SOL    HW2 8052   4.584   1.750   2.028
 2385SOL     OW 8053   0.460   1.524   6.670
 2385SOL    HW1 8054   0.427   1.430   6.665
 2385SOL    HW2 8055   0.545   1.527   6.722
 2386SOL     OW 8056   5.446   5.739   4.454
 2386SOL    HW1 8057   5.402   5.655   4.420
 2386SOL    HW2 8058   5.537   5.717   4.489
 2387SOL     OW 8059   2.366   1.255   4.125
 2387SOL    HW1 8060   2.422   1.335   4.105
 2387SOL    HW2 8061   2.281   1.259   4.073
 2388SOL     OW 8062   6.652   2.488   3.910
 2388SOL    HW1 8063   6.630   2.574   3.958
 2388SOL    HW2 8064   6.688   2.422   3.976
 2389SOL     OW 8065   4.075   4.816   3.171
 2389SOL    HW1 8066   4.029   4.904   3.181
 2389SOL    HW2 8067   4.066   4.784   3.077
 2390SOL     OW 8068   3.477   3.795   2.463
 2390SOL    HW1 8069   3.410   3.779   2.390
 2390SOL    HW2 8070   3.493   3.893   2.473
 2391SOL     OW 8071   4.552   5.220   5.858
 2391SOL    HW1 8072   4.587   5.280   5.786
 2391SOL    HW2 8073   4.512   5.275   5.931
 2392SOL     OW 8074   3.110   0.344   6.947
 2392SOL    HW1 8075   3.026   0.296   6.972
 2392SOL    HW2 8076   3.189   0.285   6.964
 2393SOL     OW 8077   4.385   4.883   6.029
 2393SOL    HW1 8078   4.386   4.783   6.025
 2393SOL    HW2 8079   4.303   4.918   5.984
 2394SOL     OW 8080   0.551   4.147   4.784
 2394SOL    HW1 8081   0.455   4.127   4.806
 2394SOL    HW2 8082   0.579   4.091   4.706
 2395SOL     OW 8083   4.143   6.691   6.157
 2395SOL    HW1 8084   4.095   6.685   6.244
 2395SOL    HW2 8085   4.088   6.649   6.085
 2396SOL     OW 8086   4.174   4.752   0.185
 2396SOL    HW1 8087   4.206   4.726   0.276
 2396SOL    HW2 8088   4.111   4.829   0.192
 2397SOL     OW 8089   0.545   3.978   4.581
 2397SOL    HW1 8090   0.462   3.977   4.636
 2397SOL    HW2 8091   0.577   3.884   4.568
 2398SOL     OW 8092   4.465   4.610   5.655
 2398SOL    HW1 8093   4.525   4.587   5.578
 2398SOL    HW2 8094   4.396   4.539   5.665
 2399SOL     OW 8095   4.786   1.910   1.762
 2399SOL    HW1 8096   4.876   1.867   1.768
 2399SOL    HW2 8097   4.796   2.009   1.754
 2400SOL     OW 8098   2.529   4.940   0.964
 2400SOL    HW1 8099   2.561   5.009   1.028
 2400SOL    HW2 8100   2.443   4.970   0.923
 2401SOL     OW 8101   6.474   5.924   6.347
 2401SOL    HW1 8102   6.551   5.986   6.333
 2401SOL    HW2 8103   6.411   5.964   6.414
 2402SOL     OW 8104   0.231   0.062   4.459
 2402SOL    HW1 8105   0.191   0.138   4.408
 2402SOL    HW2 8106   0.244   7.004   4.399
 2403SOL     OW 8107   0.634   2.608   5.083
 2403SOL    HW1 8108   0.706   2.589   5.016
 2403SOL    HW2 8109   0.675   2.649   5.165
 2404SOL     OW 8110   1.672   0.501   0.467
 2404SOL    HW1 8111   1.669   0.537   0.560
 2404SOL    HW2 8112   1.739   0.553   0.413
 2405SOL     OW 8113   2.971   3.740   1.990
 2405SOL    HW1 8114   2.927   3.797   2.059
 2405SOL    HW2 8115   2.991   3.795   1.909
 2406SOL     OW 8116   4.748   1.715   0.337
 2406SOL    HW1 8117   4.704   1.804   0.327
 2406SOL    HW2 8118   4.846   1.727   0.347
 2407SOL     OW 8119   5.698   1.354   3.553
 2407SOL    HW1 8120   5.716   1.403   3.637
 2407SOL    HW2 8121   5.775   1.292   3.533
 2408SOL     OW 8122   4.735   4.441   2.014
 2408SOL    HW1 8123   4.695   4.532   2.012
 2408SOL    HW2 8124   4.662   4.373   2.007
 2409SOL     OW 8125   1.895   3.963   0.442
 2409SOL    HW1 8126   1.867   3.873   0.474
 2409SOL    HW2 8127   1.819   4.027   0.452
 2410SOL     OW 8128   3.613   3.152   2.987
 2410SOL    HW1 8129   3.559   3.169   3.070
 2410SOL    HW2 8130   3.686   3.221   2.981
 2411SOL     OW 8131   5.649   6.986   5.105
 2411SOL    HW1 8132   5.616   0.029   5.176
 2411SOL    HW2 8133   5.646   0.012   5.016
 2412SOL     OW 8134   4.913   3.605   0.990
 2412SOL    HW1 8135   4.986   3.538   0.978
 2412SOL    HW2 8136   4.825   3.558   0.996
 2413SOL     OW 8137   5.263   0.696   1.909
 2413SOL    HW1 8138   5.191   0.737   1.965
 2413SOL    HW2 8139   5.291   0.760   1.838
 2414SOL     OW 8140   5.252   3.247   3.718
 2414SOL    HW1 8141   5.161   3.284   3.737
 2414SOL    HW2 8142   5.266   3.243   3.619
 2415SOL     OW 8143   4.702   0.936   3.688
 2415SOL    HW1 8144   4.644   1.012   3.717
 2415SOL    HW2 8145   4.738   0.953   3.596
 2416SOL     OW 8146   4.815   1.419   5.736
 2416SOL    HW1 8147   4.812   1.345   5.803
 2416SOL    HW2 8148   4.906   1.460   5.736
 2417SOL     OW 8149   3.198   2.972   4.370
 2417SOL    HW1 8150   3.159   3.016   4.290
 2417SOL    HW2 8151   3.254   2.894   4.342
 2418SOL     OW 8152   4.106   3.211   3.115
 2418SOL    HW1 8153   4.042   3.153   3.165
 2418SOL    HW2 8154   4.113   3.180   3.020
 2419SOL     OW 8155   0.533   0.262   2.439
 2419SOL    HW1 8156   0.553   0.352   2.475
 2419SOL    HW2 8157   0.522   0.197   2.514
 2420SOL     OW 8158   2.118   6.917   1.615
 2420SOL    HW1 8159   2.047   6.982   1.591
 2420SOL    HW2 8160   2.192   6.964   1.664
 2421SOL     OW 8161   2.205   2.145   4.652
 2421SOL    HW1 8162   2.188   2.111   4.560
 2421SOL    HW2 8163   2.304   2.159   4.664
 2422SOL     OW 8164   4.819   1.615   0.830
 2422SOL    HW1 8165   4.891   1.674   0.868
 2422SOL    HW2 8166   4.859   1.528   0.802
 2423SOL     OW 8167   1.946   5.522   2.556
 2423SOL    HW1 8168   1.961   5.548   2.652
 2423SOL    HW2 8169   2.033   5.500   2.513
 2424SOL     OW 8170   5.269   0.427   0.434
 2424SOL    HW1 8171   5.236   0.515   0.399
 2424SOL    HW2 8172   5.321   0.379   0.363
 2425SOL     OW 8173   6.464   0.190   4.418
 2425SOL    HW1 8174   6.476   0.163   4.322
 2425SOL    HW2 8175   6.453   0.108   4.474
 2426SOL     OW 8176   2.496   4.790   4.094
 2426SOL    HW1 8177   2.458   4.846   4.021
 2426SOL    HW2 8178   2.564   4.843   4.145
 2427SOL     OW 8179   6.222   6.941   6.010
 2427SOL    HW1 8180   6.185   6.996   5.935
 2427SOL    HW2 8181   6.230   6.846   5.980
 2428SOL     OW 8182   0.202   0.819   0.394
 2428SOL    HW1 8183   0.125   0.772   0.437
 2428SOL    HW2 8184   0.276   0.829   0.461
 2429SOL     OW 8185   4.949   5.965   1.948
 2429SOL    HW1 8186   4.957   6.034   2.020
 2429SOL    HW2 8187   5.006   5.886   1.970
 2430SOL     OW 8188   5.711   0.915   2.820
 2430SOL    HW1 8189   5.748   1.005   2.797
 2430SOL    HW2 8190   5.787   0.850   2.830
 2431SOL     OW 8191   3.937   0.380   2.153
 2431SOL    HW1 8192   3.876   0.354   2.227
 2431SOL    HW2 8193   3.923   0.320   2.075
 2432SOL     OW 8194   2.506   6.372   2.320
 2432SOL    HW1 8195   2.441   6.320   2.375
 2432SOL    HW2 8196   2.584   6.398   2.376
 2433SOL     OW 8197   3.870   0.123   0.186
 2433SOL    HW1 8198   3.927   0.148   0.265
 2433SOL    HW2 8199   3.929   0.103   0.108
 2434SOL     OW 8200   4.351   2.765   6.130
 2434SOL    HW1 8201   4.273   2.718   6.090
 2434SOL    HW2 8202   4.435   2.715   6.110
 2435SOL     OW 8203   5.912   5.605   4.957
 2435SOL    HW1 8204   6.001   5.565   4.934
 2435SOL    HW2 8205   5.840   5.556   4.909
 2436SOL     OW 8206   2.908   6.024   0.329
 2436SOL    HW1 8207   2.968   5.945   0.315
 2436SOL    HW2 8208   2.938   6.100   0.272
 2437SOL     OW 8209   0.316   0.184   6.180
 2437SOL    HW1 8210   0.252   0.172   6.256
 2437SOL    HW2 8211   0.274   0.153   6.095
 2438SOL     OW 8212   2.763   2.851   1.359
 2438SOL    HW1 8213   2.663   2.845   1.367
 2438SOL    HW2 8214   2.806   2.806   1.437
 2439SOL     OW 8215   6.104   4.603   4.984
 2439SOL    HW1 8216   6.073   4.653   5.065
 2439SOL    HW2 8217   6.053   4.635   4.904
 2440SOL     OW 8218   6.019   4.978   6.481
 2440SOL    HW1 8219   5.960   4.978   6.562
 2440SOL    HW2 8220   6.007   4.891   6.432
 2441SOL     OW 8221   5.923   2.470   0.996
 2441SOL    HW1 8222   5.850   2.402   1.000
 2441SOL    HW2 8223   5.971   2.472   1.083
 2442SOL     OW 8224   6.797   3.738   4.728
 2442SOL    HW1 8225   6.894   3.719   4.716
 2442SOL    HW2 8226   6.747   3.652   4.734
 2443SOL     OW 8227   2.862   4.852   5.771
 2443SOL    HW1 8228   2.763   4.861   5.757
 2443SOL    HW2 8229   2.900   4.940   5.798
 2444SOL     OW 8230   2.860   3.401   5.125
 2444SOL    HW1 8231   2.775   3.423   5.172
 2444SOL    HW2 8232   2.879   3.303   5.133
 2445SOL     OW 8233   0.466   0.179   0.701
 2445SOL    HW1 8234   0.544   0.221   0.655
 2445SOL    HW2 8235   0.430   0.105   0.645
 2446SOL     OW 8236   5.439   3.551   6.061
 2446SOL    HW1 8237   5.530   3.567   6.099
 2446SOL    HW2 8238   5.445   3.543   5.962
 2447SOL     OW 8239   0.379   2.225   6.705
 2447SOL    HW1 8240   0.409   2.250   6.797
 2447SOL    HW2 8241   0.294   2.273   6.683
 2448SOL     OW 8242   0.581   0.271   4.485
 2448SOL    HW1 8243   0.565   0.181   4.525
 2448SOL    HW2 8244   0.539   0.276   4.395
 2449SOL     OW 8245   0.352   2.520   5.076
 2449SOL    HW1 8246   0.304   2.480   5.154
 2449SOL    HW2 8247   0.450   2.503   5.085
 2450SOL     OW 8248   2.068   3.287   2.091
 2450SOL    HW1 8249   2.108   3.237   2.167
 2450SOL    HW2 8250   2.130   3.361   2.063
 2451SOL     OW 8251   2.431   6.741   4.555
 2451SOL    HW1 8252   2.392   6.664   4.607
 2451SOL    HW2 8253   2.487   6.706   4.480
 2452SOL     OW 8254   1.732   2.408   4.477
 2452SOL    HW1 8255   1.747   2.326   4.533
 2452SOL    HW2 8256   1.781   2.485   4.517
 2453SOL     OW 8257   0.108   3.470   1.540
 2453SOL    HW1 8258   0.098   3.387   1.596
 2453SOL    HW2 8259   0.026   3.526   1.549
 2454SOL     OW 8260   2.103   0.654   2.557
 2454SOL    HW1 8261   2.004   0.645   2.562
 2454SOL    HW2 8262   2.137   0.704   2.636
 2455SOL     OW 8263   5.092   4.156   0.539
 2455SOL    HW1 8264   5.057   4.065   0.518
 2455SOL    HW2 8265   5.159   4.183   0.470
 2456SOL     OW 8266   2.938   6.357   1.138
 2456SOL    HW1 8267   2.876   6.382   1.063
 2456SOL    HW2 8268   3.013   6.422   1.142
 2457SOL     OW 8269   6.084   6.304   1.333
 2457SOL    HW1 8270   6.001   6.322   1.386
 2457SOL    HW2 8271   6.104   6.206   1.335
 2458SOL     OW 8272   0.496   5.916   3.012
 2458SOL    HW1 8273   0.504   5.922   3.111
 2458SOL    HW2 8274   0.400   5.929   2.985
 2459SOL     OW 8275   0.905   0.732   0.693
 2459SOL    HW1 8276   0.822   0.776   0.728
 2459SOL    HW2 8277   0.962   0.702   0.769
 2460SOL     OW 8278   3.852   5.269   1.553
 2460SOL    HW1 8279   3.851   5.224   1.464
 2460SOL    HW2 8280   3.815   5.207   1.622
 2461SOL     OW 8281   5.285   1.041   3.312
 2461SOL    HW1 8282   5.357   1.102   3.344
 2461SOL    HW2 8283   5.291   0.954   3.362
 2462SOL     OW 8284   2.729   4.567   6.258
 2462SOL    HW1 8285   2.789   4.630   6.308
 2462SOL    HW2 8286   2.736   4.585   6.160
 2463SOL     OW 8287   0.034   2.094   4.357
 2463SOL    HW1 8288   0.086   2.034   4.418
 2463SOL    HW2 8289   6.960   2.061   4.351
 2464SOL     OW 8290   1.454   3.563   1.357
 2464SOL    HW1 8291   1.467   3.597   1.450
 2464SOL    HW2 8292   1.501   3.624   1.292
 2465SOL     OW 8293   5.963   4.794   2.800
 2465SOL    HW1 8294   5.921   4.832   2.882
 2465SOL    HW2 8295   6.062   4.800   2.807
 2466SOL     OW 8296   3.718   1.487   2.068
 2466SOL    HW1 8297   3.772   1.505   2.150
 2466SOL    HW2 8298   3.691   1.391   2.065
 2467SOL     OW 8299   6.762   1.583   5.305
 2467SOL    HW1 8300   6.831   1.544   5.367
 2467SOL    HW2 8301   6.671   1.560   5.338
 2468SOL     OW 8302   6.883   4.004   0.556
 2468SOL    HW1 8303   6.787   4.001   0.527
 2468SOL    HW2 8304   6.941   4.000   0.475
 2469SOL     OW 8305   3.219   2.800   5.880
 2469SOL    HW1 8306   3.227   2.893   5.844
 2469SOL    HW2 8307   3.209   2.804   5.980
 2470SOL     OW 8308   5.785   2.951   0.752
 2470SOL    HW1 8309   5.837   2.890   0.811
 2470SOL    HW2 8310   5.805   3.046   0.775
 2471SOL     OW 8311   0.239   0.775   3.368
 2471SOL    HW1 8312   0.295   0.827   3.434
 2471SOL    HW2 8313   0.260   0.678   3.377
 2472SOL     OW 8314   5.710   1.914   3.804
 2472SOL    HW1 8315   5.617   1.883   3.786
 2472SOL    HW2 8316   5.775   1.848   3.765
 2473SOL     OW 8317   0.416   6.696   5.558
 2473SOL    HW1 8318   0.447   6.657   5.644
 2473SOL    HW2 8319   0.402   6.795   5.569
 2474SOL     OW 8320   6.112   5.884   4.654
 2474SOL    HW1 8321   6.015   5.874   4.679
 2474SOL    HW2 8322   6.137   5.981   4.657
 2475SOL     OW 8323   4.544   2.238   6.162
 2475SOL    HW1 8324   4.444   2.249   6.166
 2475SOL    HW2 8325   4.575   2.195   6.247
 2476SOL     OW 8326   0.802   1.553   3.433
 2476SOL    HW1 8327   0.883   1.552   3.492
 2476SOL    HW2 8328   0.778   1.648   3.413
 2477SOL     OW 8329   4.439   5.192   2.692
 2477SOL    HW1 8330   4.460   5.254   2.617
 2477SOL    HW2 8331   4.516   5.189   2.756
 2478SOL     OW 8332   6.511   6.957   3.517
 2478SOL    HW1 8333   6.490   0.032   3.498
 2478SOL    HW2 8334   6.596   6.952   3.571
 2479SOL     OW 8335   0.360   2.323   6.975
 2479SOL    HW1 8336   0.279   2.305   0.011
 2479SOL    HW2 8337   0.366   2.421   6.957
 2480SOL     OW 8338   0.584   5.141   2.088
 2480SOL    HW1 8339   0.673   5.097   2.098
 2480SOL    HW2 8340   0.589   5.208   2.014
 2481SOL     OW 8341   3.788   4.872   2.522
 2481SOL    HW1 8342   3.836   4.818   2.453
 2481SOL    HW2 8343   3.706   4.913   2.481
 2482SOL     OW 8344   4.590   2.530   4.099
 2482SOL    HW1 8345   4.506   2.507   4.149
 2482SOL    HW2 8346   4.611   2.627   4.113
 2483SOL     OW 8347   0.730   2.901   6.980
 2483SOL    HW1 8348   0.679   2.982   7.010
 2483SOL    HW2 8349   0.799   2.928   6.913
 2484SOL     OW 8350   3.837   3.366   6.352
 2484SOL    HW1 8351   3.915   3.318   6.311
 2484SOL    HW2 8352   3.846   3.365   6.452
 2485SOL     OW 8353   1.024   5.465   0.855
 2485SOL    HW1 8354   0.984   5.377   0.828
 2485SOL    HW2 8355   1.019   5.475   0.954
 2486SOL     OW 8356   0.716   5.225   3.220
 2486SOL    HW1 8357   0.713   5.256   3.315
 2486SOL    HW2 8358   0.733   5.126   3.218
 2487SOL     OW 8359   3.107   1.538   1.526
 2487SOL    HW1 8360   3.056   1.572   1.446
 2487SOL    HW2 8361   3.146   1.616   1.575
 2488SOL     OW 8362   3.329   6.444   6.393
 2488SOL    HW1 8363   3.276   6.431   6.309
 2488SOL    HW2 8364   3.275   6.414   6.471
 2489SOL     OW 8365   6.686   6.159   4.634
 2489SOL    HW1 8366   6.628   6.218   4.579
 2489SOL    HW2 8367   6.748   6.215   4.689
 2490SOL     OW 8368   5.387   3.011   1.827
 2490SOL    HW1 8369   5.361   2.978   1.736
 2490SOL    HW2 8370   5.394   3.111   1.825
 2491SOL     OW 8371   0.072   4.362   2.568
 2491SOL    HW1 8372   6.998   4.382   2.595
 2491SOL    HW2 8373   0.074   4.276   2.517
 2492SOL     OW 8374   4.328   1.688   5.716
 2492SOL    HW1 8375   4.340   1.699   5.617
 2492SOL    HW2 8376   4.287   1.771   5.754
 2493SOL     OW 8377   6.653   1.225   4.810
 2493SOL    HW1 8378   6.749   1.214   4.783
 2493SOL    HW2 8379   6.647   1.284   4.890
 2494SOL     OW 8380   4.566   4.241   1.345
 2494SOL    HW1 8381   4.565   4.256   1.444
 2494SOL    HW2 8382   4.615   4.317   1.301
 2495SOL     OW 8383   6.510   1.037   3.337
 2495SOL    HW1 8384   6.591   1.008   3.287
 2495SOL    HW2 8385   6.496   1.136   3.325
 2496SOL     OW 8386   1.621   5.491   6.534
 2496SOL    HW1 8387   1.576   5.445   6.458
 2496SOL    HW2 8388   1.713   5.455   6.545
 2497SOL     OW 8389   5.574   0.536   6.929
 2497SOL    HW1 8390   5.596   0.504   6.837
 2497SOL    HW2 8391   5.555   0.457   6.988
 2498SOL     OW 8392   0.525   3.072   5.026
 2498SOL    HW1 8393   0.560   2.984   4.992
 2498SOL    HW2 8394   0.512   3.067   5.125
 2499SOL     OW 8395   5.014   0.336   0.221
 2499SOL    HW1 8396   4.968   0.365   0.137
 2499SOL    HW2 8397   4.981   0.390   0.298
 2500SOL     OW 8398   4.315   3.704   6.639
 2500SOL    HW1 8399   4.394   3.740   6.687
 2500SOL    HW2 8400   4.300   3.756   6.555
 2501SOL     OW 8401   6.100   4.746   0.816
 2501SOL    HW1 8402   6.193   4.737   0.781
 2501SOL    HW2 8403   6.099   4.722   0.913
 2502SOL     OW 8404   0.724   6.872   2.872
 2502SOL    HW1 8405   0.732   6.846   2.775
 2502SOL    HW2 8406   0.811   6.855   2.918
 2503SOL     OW 8407   5.021   0.247   4.561
 2503SOL    HW1 8408   4.938   0.222   4.609
 2503SOL    HW2 8409   5.089   0.174   4.569
 2504SOL     OW 8410   1.974   4.139   2.837
 2504SOL    HW1 8411   1.948   4.232   2.812
 2504SOL    HW2 8412   1.958   4.078   2.760
 2505SOL     OW 8413   5.206   4.089   4.670
 2505SOL    HW1 8414   5.120   4.118   4.627
 2505SOL    HW2 8415   5.216   4.136   4.758
 2506SOL     OW 8416   1.136   1.652   0.877
 2506SOL    HW1 8417   1.159   1.555   0.870
 2506SOL    HW2 8418   1.041   1.665   0.849
 2507SOL     OW 8419   6.784   5.944   0.330
 2507SOL    HW1 8420   6.699   5.946   0.383
 2507SOL    HW2 8421   6.765   5.968   0.235
 2508SOL     OW 8422   2.436   2.447   1.627
 2508SOL    HW1 8423   2.428   2.545   1.608
 2508SOL    HW2 8424   2.477   2.435   1.718
 2509SOL     OW 8425   5.083   1.206   3.412
 2509SOL    HW1 8426   5.156   1.143   3.384
 2509SOL    HW2 8427   5.106   1.299   3.381
 2510SOL     OW 8428   4.318   6.072   2.320
 2510SOL    HW1 8429   4.364   6.143   2.373
 2510SOL    HW2 8430   4.227   6.104   2.292
 2511SOL     OW 8431   0.716   6.633   3.583
 2511SOL    HW1 8432   0.733   6.545   3.628
 2511SOL    HW2 8433   0.668   6.693   3.646
 2512SOL     OW 8434   6.027   2.834   3.788
 2512SOL    HW1 8435   6.077   2.820   3.702
 2512SOL    HW2 8436   5.946   2.889   3.770
 2513SOL     OW 8437   0.315   4.581   1.130
 2513SOL    HW1 8438   0.310   4.536   1.041
 2513SOL    HW2 8439   0.230   4.630   1.149
 2514SOL     OW 8440   0.406   2.687   3.190
 2514SOL    HW1 8441   0.434   2.640   3.106
 2514SOL    HW2 8442   0.419   2.786   3.179
 2515SOL     OW 8443   1.148   4.757   0.369
 2515SOL    HW1 8444   1.128   4.668   0.326
 2515SOL    HW2 8445   1.224   4.800   0.320
 2516SOL     OW 8446   5.082   6.391   4.289
 2516SOL    HW1 8447   5.084   6.458   4.214
 2516SOL    HW2 8448   4.987   6.369   4.310
 2517SOL     OW 8449   2.652   5.813   1.026
 2517SOL    HW1 8450   2.601   5.746   1.080
 2517SOL    HW2 8451   2.592   5.852   0.956
 2518SOL     OW 8452   1.950   3.056   6.771
 2518SOL    HW1 8453   1.949   3.025   6.866
 2518SOL    HW2 8454   2.044   3.073   6.742
 2519SOL     OW 8455   6.121   4.269   5.355
 2519SOL    HW1 8456   6.121   4.369   5.349
 2519SOL    HW2 8457   6.205   4.238   5.399
 2520SOL     OW 8458   3.242   5.808   1.905
 2520SOL    HW1 8459   3.190   5.831   1.988
 2520SOL    HW2 8460   3.338   5.793   1.929
 2521SOL     OW 8461   5.665   6.869   6.112
 2521SOL    HW1 8462   5.704   6.794   6.165
 2521SOL    HW2 8463   5.625   6.936   6.174
 2522SOL     OW 8464   2.520   4.533   4.324
 2522SOL    HW1 8465   2.508   4.472   4.246
 2522SOL    HW2 8466   2.561   4.619   4.294
 2523SOL     OW 8467   0.953   2.570   5.564
 2523SOL    HW1 8468   0.945   2.480   5.522
 2523SOL    HW2 8469   0.916   2.568   5.657
 2524SOL     OW 8470   1.356   6.949   4.797
 2524SOL    HW1 8471   1.299   0.010   4.788
 2524SOL    HW2 8472   1.450   6.977   4.816
 2525SOL     OW 8473   2.128   4.440   2.441
 2525SOL    HW1 8474   2.159   4.502   2.368
 2525SOL    HW2 8475   2.151   4.346   2.415
 2526SOL     OW 8476   1.544   2.629   4.987
 2526SOL    HW1 8477   1.530   2.530   4.980
 2526SOL    HW2 8478   1.509   2.673   4.905
 2527SOL     OW 8479   6.622   0.082   3.832
 2527SOL    HW1 8480   6.583   0.007   3.886
 2527SOL    HW2 8481   6.550   0.148   3.810
 2528SOL     OW 8482   5.881   5.204   0.157
 2528SOL    HW1 8483   5.918   5.114   0.176
 2528SOL    HW2 8484   5.937   5.274   0.200
 2529SOL     OW 8485   5.349   3.927   4.850
 2529SOL    HW1 8486   5.291   3.915   4.931
 2529SOL    HW2 8487   5.298   3.977   4.780
 2530SOL     OW 8488   0.877   6.441   3.823
 2530SOL    HW1 8489   0.789   6.396   3.806
 2530SOL    HW2 8490   0.883   6.466   3.920
 2531SOL     OW 8491   5.109   1.029   6.991
 2531SOL    HW1 8492   5.198   1.062   6.959
 2531SOL    HW2 8493   5.092   1.065   0.063
 2532SOL     OW 8494   0.472   4.708   6.220
 2532SOL    HW1 8495   0.483   4.622   6.269
 2532SOL    HW2 8496   0.560   4.736   6.182
 2533SOL     OW 8497   5.969   7.005   5.775
 2533SOL    HW1 8498   6.066   6.996   5.752
 2533SOL    HW2 8499   5.915   7.006   5.690
 2534SOL     OW 8500   0.131   1.881   2.968
 2534SOL    HW1 8501   0.061   1.867   3.038
 2534SOL    HW2 8502   0.212   1.827   2.989
 2535SOL     OW 8503   2.033   1.508   3.141
 2535SOL    HW1 8504   2.082   1.432   3.185
 2535SOL    HW2 8505   2.094   1.587   3.133
 2536SOL     OW 8506   0.692   0.519   3.878
 2536SOL    HW1 8507   0.597   0.521   3.846
 2536SOL    HW2 8508   0.725   0.612   3.892
 2537SOL     OW 8509   3.743   5.745   1.896
 2537SOL    HW1 8510   3.809   5.816   1.921
 2537SOL    HW2 8511   3.757   5.718   1.801
 2538SOL     OW 8512   0.663   4.715   4.958
 2538SOL    HW1 8513   0.722   4.720   4.878
 2538SOL    HW2 8514   0.699   4.646   5.022
 2539SOL     OW 8515   2.490   0.942   5.190
 2539SOL    HW1 8516   2.404   0.967   5.145
 2539SOL    HW2 8517   2.495   0.842   5.197
 2540SOL     OW 8518   5.324   2.019   2.309
 2540SOL    HW1 8519   5.408   1.971   2.334
 2540SOL    HW2 8520   5.257   2.011   2.383
 2541SOL     OW 8521   0.417   0.819   5.824
 2541SOL    HW1 8522   0.496   0.830   5.764
 2541SOL    HW2 8523   0.389   0.723   5.824
 2542SOL     OW 8524   3.718   2.096   3.571
 2542SOL    HW1 8525   3.742   2.127   3.663
 2542SOL    HW2 8526   3.800   2.095   3.514
 2543SOL     OW 8527   6.703   1.662   4.368
 2543SOL    HW1 8528   6.784   1.717   4.348
 2543SOL    HW2 8529   6.719   1.605   4.448
 2544SOL     OW 8530   6.938   6.282   1.898
 2544SOL    HW1 8531   6.914   6.273   1.801
 2544SOL    HW2 8532   6.987   6.368   1.912
 2545SOL     OW 8533   6.550   2.084   0.343
 2545SOL    HW1 8534   6.495   2.126   0.415
 2545SOL    HW2 8535   6.490   2.033   0.281
 2546SOL     OW 8536   6.326   2.993   1.870
 2546SOL    HW1 8537   6.240   2.944   1.855
 2546SOL    HW2 8538   6.306   3.088   1.895
 2547SOL     OW 8539   5.553   4.105   1.146
 2547SOL    HW1 8540   5.615   4.028   1.162
 2547SOL    HW2 8541   5.469   4.072   1.103
 2548SOL     OW 8542   6.157   0.820   5.762
 2548SOL    HW1 8543   6.119   0.775   5.843
 2548SOL    HW2 8544   6.256   0.806   5.761
 2549SOL     OW 8545   2.545   4.579   0.698
 2549SOL    HW1 8546   2.505   4.492   0.670
 2549SOL    HW2 8547   2.569   4.574   0.795
 2550SOL     OW 8548   3.758   6.139   0.743
 2550SOL    HW1 8549   3.761   6.146   0.644
 2550SOL    HW2 8550   3.708   6.057   0.769
 2551SOL     OW 8551   3.864   4.621   1.386
 2551SOL    HW1 8552   3.851   4.546   1.321
 2551SOL    HW2 8553   3.778   4.670   1.399
 2552SOL     OW 8554   2.351   4.258   1.913
 2552SOL    HW1 8555   2.349   4.358   1.901
 2552SOL    HW2 8556   2.379   4.215   1.827
 2553SOL     OW 8557   4.722   1.301   0.006
 2553SOL    HW1 8558   4.745   1.248   0.088
 2553SOL    HW2 8559   4.796   1.292   6.960
 2554SOL     OW 8560   1.700   5.331   0.848
 2554SOL    HW1 8561   1.712   5.379   0.935
 2554SOL    HW2 8562   1.611   5.354   0.809
 2555SOL     OW 8563   6.595   6.999   5.094
 2555SOL    HW1 8564   6.587   6.981   4.996
 2555SOL    HW2 8565   6.508   6.977   5.139
 2556SOL     OW 8566   4.326   0.074   0.856
 2556SOL    HW1 8567   4.418   0.089   0.893
 2556SOL    HW2 8568   4.318   7.000   0.823
 2557SOL     OW 8569   2.858   0.806   6.869
 2557SOL    HW1 8570   2.870   0.713   6.835
 2557SOL    HW2 8571   2.931   0.864   6.834
 2558SOL     OW 8572   5.515   1.516   1.398
 2558SOL    HW1 8573   5.468   1.452   1.458
 2558SOL    HW2 8574   5.456   1.595   1.381
 2559SOL     OW 8575   6.991   5.357   2.841
 2559SOL    HW1 8576   0.012   5.266   2.844
 2559SOL    HW2 8577   0.040   5.426   2.863
 2560SOL     OW 8578   5.126   2.233   2.419
 2560SOL    HW1 8579   5.159   2.226   2.325
 2560SOL    HW2 8580   5.095   2.326   2.437
 2561SOL     OW 8581   2.803   0.384   4.526
 2561SOL    HW1 8582   2.752   0.338   4.454
 2561SOL    HW2 8583   2.741   0.440   4.581
 2562SOL     OW 8584   1.362   6.820   5.250
 2562SOL    HW1 8585   1.460   6.805   5.235
 2562SOL    HW2 8586   1.327   6.748   5.311
 2563SOL     OW 8587   3.505   2.828   6.704
 2563SOL    HW1 8588   3.539   2.905   6.650
 2563SOL    HW2 8589   3.494   2.748   6.644
 2564SOL     OW 8590   1.511   2.148   0.121
 2564SOL    HW1 8591   1.488   2.079   0.189
 2564SOL    HW2 8592   1.608   2.141   0.099
 2565SOL     OW 8593   0.589   0.602   0.636
 2565SOL    HW1 8594   0.595   0.506   0.607
 2565SOL    HW2 8595   0.619   0.661   0.561
 2566SOL     OW 8596   3.130   1.089   1.075
 2566SOL    HW1 8597   3.159   1.029   1.149
 2566SOL    HW2 8598   3.088   1.172   1.113
 2567SOL     OW 8599   1.301   0.770   6.438
 2567SOL    HW1 8600   1.319   0.859   6.394
 2567SOL    HW2 8601   1.387   0.729   6.466
 2568SOL     OW 8602   2.235   5.418   1.407
 2568SOL    HW1 8603   2.192   5.334   1.441
 2568SOL    HW2 8604   2.256   5.478   1.484
 2569SOL     OW 8605   1.986   6.995   0.106
 2569SOL    HW1 8606   1.917   6.984   0.177
 2569SOL    HW2 8607   2.076   7.007   0.149
 2570SOL     OW 8608   0.641   6.081   4.295
 2570SOL    HW1 8609   0.715   6.141   4.265
 2570SOL    HW2 8610   0.621   6.097   4.391
 2571SOL     OW 8611   3.272   3.960   3.503
 2571SOL    HW1 8612   3.262   4.041   3.561
 2571SOL    HW2 8613   3.196   3.898   3.519
 2572SOL     OW 8614   2.413   4.900   2.406
 2572SOL    HW1 8615   2.473   4.831   2.365
 2572SOL    HW2 8616   2.361   4.859   2.481
 2573SOL     OW 8617   6.519   1.314   3.350
 2573SOL    HW1 8618   6.493   1.307   3.446
 2573SOL    HW2 8619   6.619   1.310   3.342
 2574SOL     OW 8620   1.084   3.467   1.935
 2574SOL    HW1 8621   1.117   3.517   1.856
 2574SOL    HW2 8622   1.157   3.460   2.003
 2575SOL     OW 8623   4.660   3.411   5.761
 2575SOL    HW1 8624   4.698   3.392   5.852
 2575SOL    HW2 8625   4.570   3.368   5.753
 2576SOL     OW 8626   1.162   0.038   3.370
 2576SOL    HW1 8627   1.199   0.091   3.294
 2576SOL    HW2 8628   1.122   0.100   3.437
 2577SOL     OW 8629   1.746   5.020   1.361
 2577SOL    HW1 8630   1.749   5.052   1.455
 2577SOL    HW2 8631   1.839   5.016   1.324
 2578SOL     OW 8632   4.521   2.021   4.601
 2578SOL    HW1 8633   4.433   2.054   4.568
 2578SOL    HW2 8634   4.574   1.984   4.524
 2579SOL     OW 8635   0.045   1.277   6.352
 2579SOL    HW1 8636   6.994   1.347   6.357
 2579SOL    HW2 8637   0.130   1.313   6.392
 2580SOL     OW 8638   1.601   1.558   5.670
 2580SOL    HW1 8639   1.608   1.642   5.616
 2580SOL    HW2 8640   1.688   1.540   5.716
 2581SOL     OW 8641   6.439   6.625   4.960
 2581SOL    HW1 8642   6.399   6.554   5.019
 2581SOL    HW2 8643   6.366   6.671   4.910
 2582SOL     OW 8644   0.332   5.282   2.682
 2582SOL    HW1 8645   0.389   5.240   2.753
 2582SOL    HW2 8646   0.291   5.366   2.718
 2583SOL     OW 8647   2.268   1.042   6.466
 2583SOL    HW1 8648   2.250   1.066   6.370
 2583SOL    HW2 8649   2.262   0.943   6.477
 2584SOL     OW 8650   4.912   0.580   2.593
 2584SOL    HW1 8651   5.001   0.536   2.590
 2584SOL    HW2 8652   4.846   0.527   2.539
 2585SOL     OW 8653   4.056   1.487   2.128
 2585SOL    HW1 8654   4.006   1.413   2.173
 2585SOL    HW2 8655   4.027   1.494   2.033
 2586SOL     OW 8656   7.006   1.500   4.206
 2586SOL    HW1 8657   6.976   1.438   4.278
 2586SOL    HW2 8658   7.005   1.594   4.240
 2587SOL     OW 8659   6.448   5.763   2.674
 2587SOL    HW1 8660   6.456   5.862   2.689
 2587SOL    HW2 8661   6.451   5.744   2.576
 2588SOL     OW 8662   4.627   0.050   2.057
 2588SOL    HW1 8663   4.578   0.136   2.042
 2588SOL    HW2 8664   4.577   6.995   2.015
 2589SOL     OW 8665   5.296   6.018   1.222
 2589SOL    HW1 8666   5.317   5.951   1.151
 2589SOL    HW2 8667   5.294   6.110   1.181
 2590SOL     OW 8668   3.081   6.585   3.089
 2590SOL    HW1 8669   3.024   6.652   3.138
 2590SOL    HW2 8670   3.028   6.501   3.076
 2591SOL     OW 8671   6.510   0.367   1.242
 2591SOL    HW1 8672   6.581   0.323   1.188
 2591SOL    HW2 8673   6.426   0.312   1.240
 2592SOL     OW 8674   3.269   4.750   1.613
 2592SOL    HW1 8675   3.240   4.831   1.562
 2592SOL    HW2 8676   3.212   4.740   1.694
 2593SOL     OW 8677   3.577   6.855   2.683
 2593SOL    HW1 8678   3.535   6.822   2.598
 2593SOL    HW2 8679   3.651   6.919   2.661
 2594SOL     OW 8680   1.121   5.947   6.840
 2594SOL    HW1 8681   1.123   6.036   6.796
 2594SOL    HW2 8682   1.111   5.875   6.771
 2595SOL     OW 8683   6.740   2.318   4.089
 2595SOL    HW1 8684   6.696   2.255   4.153
 2595SOL    HW2 8685   6.788   2.389   4.140
 2596SOL     OW 8686   4.018   2.317   1.333
 2596SOL    HW1 8687   3.984   2.324   1.240
 2596SOL    HW2 8688   4.017   2.407   1.377
 2597SOL     OW 8689   2.118   2.494   6.439
 2597SOL    HW1 8690   2.146   2.498   6.343
 2597SOL    HW2 8691   2.070   2.578   6.464
 2598SOL     OW 8692   6.290   1.143   2.850
 2598SOL    HW1 8693   6.223   1.110   2.916
 2598SOL    HW2 8694   6.315   1.069   2.787
 2599SOL     OW 8695   4.381   4.888   6.536
 2599SOL    HW1 8696   4.347   4.811   6.482
 2599SOL    HW2 8697   4.398   4.857   6.630
 2600SOL     OW 8698   6.894   2.511   4.209
 2600SOL    HW1 8699   6.981   2.529   4.255
 2600SOL    HW2 8700   6.857   2.596   4.173
 2601SOL     OW 8701   3.829   3.697   4.913
 2601SOL    HW1 8702   3.758   3.766   4.917
 2601SOL    HW2 8703   3.815   3.638   4.834
 2602SOL     OW 8704   6.313   5.695   5.928
 2602SOL    HW1 8705   6.294   5.745   6.013
 2602SOL    HW2 8706   6.229   5.652   5.895
 2603SOL     OW 8707   1.821   2.445   6.726
 2603SOL    HW1 8708   1.843   2.541   6.711
 2603SOL    HW2 8709   1.900   2.389   6.701
 2604SOL     OW 8710   5.923   1.391   0.381
 2604SOL    HW1 8711   5.875   1.324   0.438
 2604SOL    HW2 8712   5.995   1.435   0.436
 2605SOL     OW 8713   5.346   3.632   4.136
 2605SOL    HW1 8714   5.289   3.629   4.219
 2605SOL    HW2 8715   5.443   3.633   4.162
 2606SOL     OW 8716   6.819   4.369   1.246
 2606SOL    HW1 8717   6.909   4.354   1.206
 2606SOL    HW2 8718   6.794   4.291   1.303
 2607SOL     OW 8719   1.125   1.581   4.213
 2607SOL    HW1 8720   1.166   1.672   4.222
 2607SOL    HW2 8721   1.052   1.571   4.281
 2608SOL     OW 8722   5.038   0.052   0.550
 2608SOL    HW1 8723   5.136   0.067   0.565
 2608SOL    HW2 8724   5.004   7.006   0.618
 2609SOL     OW 8725   0.689   3.187   3.727
 2609SOL    HW1 8726   0.640   3.101   3.712
 2609SOL    HW2 8727   0.786   3.173   3.710
 2610SOL     OW 8728   5.695   5.698   4.588
 2610SOL    HW1 8729   5.752   5.730   4.664
 2610SOL    HW2 8730   5.637   5.622   4.620
 2611SOL     OW 8731   2.921   5.575   2.255
 2611SOL    HW1 8732   2.945   5.533   2.168
 2611SOL    HW2 8733   2.910   5.674   2.243
 2612SOL     OW 8734   0.048   6.990   5.391
 2612SOL    HW1 8735   7.019   6.940   5.462
 2612SOL    HW2 8736   0.115   6.929   5.348
 2613SOL     OW 8737   3.470   0.953   0.544
 2613SOL    HW1 8738   3.408   1.015   0.593
 2613SOL    HW2 8739   3.435   0.936   0.452
 2614SOL     OW 8740   6.107   6.195   6.801
 2614SOL    HW1 8741   6.139   6.100   6.800
 2614SOL    HW2 8742   6.156   6.247   6.871
 2615SOL     OW 8743   5.724   4.570   1.917
 2615SOL    HW1 8744   5.775   4.555   1.833
 2615SOL    HW2 8745   5.678   4.659   1.913
 2616SOL     OW 8746   4.098   3.530   2.108
 2616SOL    HW1 8747   4.143   3.614   2.140
 2616SOL    HW2 8748   4.135   3.505   2.019
 2617SOL     OW 8749   3.220   0.587   1.290
 2617SOL    HW1 8750   3.314   0.620   1.297
 2617SOL    HW2 8751   3.193   0.545   1.376
 2618SOL     OW 8752   1.217   6.785   0.287
 2618SOL    HW1 8753   1.173   6.774   0.198
 2618SOL    HW2 8754   1.303   6.734   0.289
 2619SOL     OW 8755   5.897   2.138   1.153
 2619SOL    HW1 8756   5.948   2.078   1.215
 2619SOL    HW2 8757   5.861   2.086   1.076
 2620SOL     OW 8758   1.397   5.619   3.691
 2620SOL    HW1 8759   1.309   5.601   3.647
 2620SOL    HW2 8760   1.396   5.581   3.784
 2621SOL     OW 8761   0.787   5.242   3.567
 2621SOL    HW1 8762   0.753   5.151   3.590
 2621SOL    HW2 8763   0.869   5.234   3.510
 2622SOL     OW 8764   2.214   2.667   5.903
 2622SOL    HW1 8765   2.190   2.616   5.821
 2622SOL    HW2 8766   2.204   2.765   5.886
 2623SOL     OW 8767   3.227   0.684   6.564
 2623SOL    HW1 8768   3.202   0.655   6.656
 2623SOL    HW2 8769   3.198   0.614   6.498
 2624SOL     OW 8770   6.476   1.904   3.852
 2624SOL    HW1 8771   6.549   1.971   3.839
 2624SOL    HW2 8772   6.402   1.946   3.905
 2625SOL     OW 8773   3.999   0.131   5.370
 2625SOL    HW1 8774   3.993   0.163   5.276
 2625SOL    HW2 8775   4.050   0.045   5.372
 2626SOL     OW 8776   2.355   0.183   2.713
 2626SOL    HW1 8777   2.370   0.133   2.628
 2626SOL    HW2 8778   2.383   0.278   2.701
 2627SOL     OW 8779   0.286   1.268   4.712
 2627SOL    HW1 8780   0.327   1.251   4.801
 2627SOL    HW2 8781   0.350   1.319   4.654
 2628SOL     OW 8782   3.757   5.782   6.487
 2628SOL    HW1 8783   3.736   5.870   6.529
 2628SOL    HW2 8784   3.832   5.738   6.536
 2629SOL     OW 8785   3.161   3.671   1.137
 2629SOL    HW1 8786   3.143   3.639   1.231
 2629SOL    HW2 8787   3.088   3.732   1.108
 2630SOL     OW 8788   2.642   2.374   2.119
 2630SOL    HW1 8789   2.741   2.364   2.117
 2630SOL    HW2 8790   2.605   2.353   2.028
 2631SOL     OW 8791   4.350   6.382   4.611
 2631SOL    HW1 8792   4.288   6.352   4.683
 2631SOL    HW2 8793   4.421   6.440   4.650
 2632SOL     OW 8794   5.292   1.185   0.799
 2632SOL    HW1 8795   5.215   1.206   0.860
 2632SOL    HW2 8796   5.307   1.262   0.738
 2633SOL     OW 8797   6.801   3.122   6.671
 2633SOL    HW1 8798   6.749   3.105   6.755
 2633SOL    HW2 8799   6.775   3.055   6.602
 2634SOL     OW 8800   3.290   5.351   1.696
 2634SOL    HW1 8801   3.328   5.420   1.634
 2634SOL    HW2 8802   3.213   5.390   1.747
 2635SOL     OW 8803   5.869   4.554   3.356
 2635SOL    HW1 8804   5.959   4.589   3.329
 2635SOL    HW2 8805   5.808   4.555   3.277
 2636SOL     OW 8806   5.979   6.864   4.675
 2636SOL    HW1 8807   6.023   6.947   4.708
 2636SOL    HW2 8808   5.990   6.791   4.743
 2637SOL     OW 8809   5.171   6.655   2.425
 2637SOL    HW1 8810   5.154   6.704   2.510
 2637SOL    HW2 8811   5.205   6.719   2.356
 2638SOL     OW 8812   5.360   5.632   0.760
 2638SOL    HW1 8813   5.293   5.679   0.703
 2638SOL    HW2 8814   5.377   5.686   0.843
 2639SOL     OW 8815   6.475   6.589   6.584
 2639SOL    HW1 8816   6.572   6.606   6.563
 2639SOL    HW2 8817   6.424   6.579   6.498
 2640SOL     OW 8818   5.838   6.983   6.404
 2640SOL    HW1 8819   5.856   0.035   6.470
 2640SOL    HW2 8820   5.806   6.901   6.451
 2641SOL     OW 8821   5.956   4.860   0.461
 2641SOL    HW1 8822   5.860   4.887   0.456
 2641SOL    HW2 8823   5.966   4.764   0.437
 2642SOL     OW 8824   6.711   0.362   4.175
 2642SOL    HW1 8825   6.637   0.429   4.176
 2642SOL    HW2 8826   6.791   0.400   4.222
 2643SOL     OW 8827   1.496   0.742   2.199
 2643SOL    HW1 8828   1.483   0.645   2.178
 2643SOL    HW2 8829   1.428   0.796   2.150
 2644SOL     OW 8830   0.094   5.571   5.835
 2644SOL    HW1 8831   0.081   5.572   5.934
 2644SOL    HW2 8832   0.111   5.477   5.804
 2645SOL     OW 8833   6.073   5.749   6.207
 2645SOL    HW1 8834   6.162   5.792   6.192
 2645SOL    HW2 8835   6.029   5.792   6.287
 2646SOL     OW 8836   6.247   6.354   6.960
 2646SOL    HW1 8837   6.298   6.421   6.905
 2646SOL    HW2 8838   6.311   6.294   7.008
 2647SOL     OW 8839   3.539   3.126   0.492
 2647SOL    HW1 8840   3.588   3.210   0.469
 2647SOL    HW2 8841   3.592   3.076   0.561
 2648SOL     OW 8842   4.043   0.780   3.860
 2648SOL    HW1 8843   4.022   0.822   3.948
 2648SOL    HW2 8844   4.047   0.852   3.790
 2649SOL     OW 8845   3.453   2.810   5.296
 2649SOL    HW1 8846   3.510   2.848   5.224
 2649SOL    HW2 8847   3.384   2.750   5.255
 2650SOL     OW 8848   6.741   6.652   2.547
 2650SOL    HW1 8849   6.680   6.725   2.519
 2650SOL    HW2 8850   6.801   6.684   2.620
 2651SOL     OW 8851   0.479   0.249   3.628
 2651SOL    HW1 8852   0.510   0.250   3.533
 2651SOL    HW2 8853   0.532   0.182   3.680
 2652SOL     OW 8854   3.372   2.867   2.692
 2652SOL    HW1 8855   3.402   2.806   2.618
 2652SOL    HW2 8856   3.445   2.875   2.760
 2653SOL     OW 8857   6.420   5.560   0.389
 2653SOL    HW1 8858   6.497   5.496   0.389
 2653SOL    HW2 8859   6.351   5.529   0.454
 2654SOL     OW 8860   6.004   1.360   5.897
 2654SOL    HW1 8861   6.078   1.328   5.839
 2654SOL    HW2 8862   6.036   1.368   5.992
 2655SOL     OW 8863   4.336   5.798   5.074
 2655SOL    HW1 8864   4.393   5.796   5.156
 2655SOL    HW2 8865   4.382   5.749   5.000
 2656SOL     OW 8866   5.358   3.606   4.457
 2656SOL    HW1 8867   5.411   3.525   4.430
 2656SOL    HW2 8868   5.416   3.687   4.450
 2657SOL     OW 8869   3.071   2.455   5.879
 2657SOL    HW1 8870   3.018   2.515   5.939
 2657SOL    HW2 8871   3.102   2.375   5.930
 2658SOL     OW 8872   6.115   4.584   5.340
 2658SOL    HW1 8873   6.081   4.657   5.281
 2658SOL    HW2 8874   6.046   4.560   5.407
 2659SOL     OW 8875   6.778   1.780   2.908
 2659SOL    HW1 8876   6.746   1.828   2.826
 2659SOL    HW2 8877   6.725   1.696   2.920
 2660SOL     OW 8878   6.653   2.088   2.509
 2660SOL    HW1 8879   6.616   2.180   2.520
 2660SOL    HW2 8880   6.634   2.034   2.592
 2661SOL     OW 8881   3.858   6.256   2.140
 2661SOL    HW1 8882   3.899   6.165   2.141
 2661SOL    HW2 8883   3.832   6.280   2.046
 2662SOL     OW 8884   3.758   0.336   3.423
 2662SOL    HW1 8885   3.676   0.347   3.479
 2662SOL    HW2 8886   3.733   0.338   3.326
 2663SOL     OW 8887   0.734   4.535   3.227
 2663SOL    HW1 8888   0.729   4.435   3.236
 2663SOL    HW2 8889   0.684   4.578   3.301
 2664SOL     OW 8890   4.176   3.930   1.846
 2664SOL    HW1 8891   4.275   3.926   1.853
 2664SOL    HW2 8892   4.149   3.972   1.759
 2665SOL     OW 8893   4.589   0.830   4.595
 2665SOL    HW1 8894   4.586   0.911   4.536
 2665SOL    HW2 8895   4.539   0.755   4.551
 2666SOL     OW 8896   4.478   6.039   1.805
 2666SOL    HW1 8897   4.559   6.021   1.861
 2666SOL    HW2 8898   4.445   5.954   1.765
 2667SOL     OW 8899   1.543   4.766   3.677
 2667SOL    HW1 8900   1.581   4.689   3.728
 2667SOL    HW2 8901   1.567   4.852   3.722
 2668SOL     OW 8902   6.280   2.533   5.930
 2668SOL    HW1 8903   6.361   2.511   5.875
 2668SOL    HW2 8904   6.261   2.631   5.923
 2669SOL     OW 8905   4.178   5.684   5.452
 2669SOL    HW1 8906   4.261   5.638   5.419
 2669SOL    HW2 8907   4.203   5.753   5.519
 2670SOL     OW 8908   2.153   6.997   5.631
 2670SOL    HW1 8909   2.185   0.055   5.576
 2670SOL    HW2 8910   2.083   0.008   5.695
 2671SOL     OW 8911   3.548   4.339   6.005
 2671SOL    HW1 8912   3.489   4.262   6.029
 2671SOL    HW2 8913   3.523   4.419   6.059
 2672SOL     OW 8914   1.190   4.156   0.516
 2672SOL    HW1 8915   1.206   4.083   0.582
 2672SOL    HW2 8916   1.122   4.220   0.552
 2673SOL     OW 8917   4.321   2.387   4.034
 2673SOL    HW1 8918   4.237   2.332   4.033
 2673SOL    HW2 8919   4.324   2.445   3.953
 2674SOL     OW 8920   5.984   5.371   5.400
 2674SOL    HW1 8921   6.046   5.341   5.328
 2674SOL    HW2 8922   5.907   5.421   5.360
 2675SOL     OW 8923   0.671   4.068   5.014
 2675SOL    HW1 8924   0.618   4.092   4.932
 2675SOL    HW2 8925   0.612   4.018   5.077
 2676SOL     OW 8926   4.812   0.836   2.399
 2676SOL    HW1 8927   4.762   0.856   2.484
 2676SOL    HW2 8928   4.846   0.742   2.403
 2677SOL     OW 8929   2.792   4.733   2.481
 2677SOL    HW1 8930   2.851   4.652   2.467
 2677SOL    HW2 8931   2.788   4.753   2.579
 2678SOL     OW 8932   6.968   6.499   6.290
 2678SOL    HW1 8933   6.991   6.405   6.315
 2678SOL    HW2 8934   6.869   6.510   6.287
 2679SOL     OW 8935   3.201   4.975   1.473
 2679SOL    HW1 8936   3.296   5.003   1.489
 2679SOL    HW2 8937   3.161   5.030   1.401
 2680SOL     OW 8938   1.601   2.250   1.798
 2680SOL    HW1 8939   1.630   2.173   1.741
 2680SOL    HW2 8940   1.522   2.223   1.853
 2681SOL     OW 8941   1.771   1.523   2.900
 2681SOL    HW1 8942   1.785   1.621   2.883
 2681SOL    HW2 8943   1.803   1.499   2.992
 2682SOL     OW 8944   6.493   2.371   3.729
 2682SOL    HW1 8945   6.549   2.410   3.802
 2682SOL    HW2 8946   6.404   2.417   3.727
 2683SOL     OW 8947   1.907   0.106   1.994
 2683SOL    HW1 8948   1.995   0.121   2.040
 2683SOL    HW2 8949   1.879   0.190   1.947
 2684SOL     OW 8950   2.623   5.686   2.957
 2684SOL    HW1 8951   2.635   5.779   2.989
 2684SOL    HW2 8952   2.624   5.623   3.035
 2685SOL     OW 8953   5.786   5.956   5.270
 2685SOL    HW1 8954   5.694   5.994   5.257
 2685SOL    HW2 8955   5.817   5.914   5.185
 2686SOL     OW 8956   1.165   2.824   4.706
 2686SOL    HW1 8957   1.165   2.911   4.656
 2686SOL    HW2 8958   1.163   2.842   4.804
 2687SOL     OW 8959   4.601   4.825   3.328
 2687SOL    HW1 8960   4.613   4.816   3.427
 2687SOL    HW2 8961   4.585   4.922   3.305
 2688SOL     OW 8962   4.035   5.255   5.769
 2688SOL    HW1 8963   4.007   5.347   5.740
 2688SOL    HW2 8964   4.124   5.260   5.816
 2689SOL     OW 8965   0.499   3.295   3.908
 2689SOL    HW1 8966   0.408   3.262   3.881
 2689SOL    HW2 8967   0.567   3.262   3.843
 2690SOL     OW 8968   3.322   3.092   2.918
 2690SOL    HW1 8969   3.345   3.009   2.869
 2690SOL    HW2 8970   3.396   3.116   2.981
 2691SOL     OW 8971   1.644   5.607   1.418
 2691SOL    HW1 8972   1.620   5.695   1.460
 2691SOL    HW2 8973   1.734   5.578   1.451
 2692SOL     OW 8974   0.115   5.449   3.256
 2692SOL    HW1 8975   0.171   5.502   3.192
 2692SOL    HW2 8976   0.120   5.352   3.233
 2693SOL     OW 8977   1.629   3.751   3.014
 2693SOL    HW1 8978   1.723   3.748   3.049
 2693SOL    HW2 8979   1.565   3.749   3.090
 2694SOL     OW 8980   2.240   0.952   2.952
 2694SOL    HW1 8981   2.327   0.938   2.999
 2694SOL    HW2 8982   2.203   1.041   2.978
 2695SOL     OW 8983   4.214   2.237   3.164
 2695SOL    HW1 8984   4.248   2.142   3.164
 2695SOL    HW2 8985   4.115   2.237   3.174
 2696SOL     OW 8986   4.200   3.600   5.165
 2696SOL    HW1 8987   4.273   3.664   5.186
 2696SOL    HW2 8988   4.134   3.598   5.240
 2697SOL     OW 8989   2.439   2.004   4.096
 2697SOL    HW1 8990   2.357   2.029   4.044
 2697SOL    HW2 8991   2.431   2.039   4.189
 2698SOL     OW 8992   2.166   3.374   6.525
 2698SOL    HW1 8993   2.236   3.309   6.496
 2698SOL    HW2 8994   2.190   3.466   6.492
 2699SOL     OW 8995   2.905   5.875   2.614
 2699SOL    HW1 8996   2.901   5.917   2.705
 2699SOL    HW2 8997   2.909   5.775   2.623
 2700SOL     OW 8998   1.206   4.284   2.869
 2700SOL    HW1 8999   1.186   4.341   2.789
 2700SOL    HW2 9000   1.264   4.208   2.842
 2701SOL     OW 9001   3.270   0.248   5.787
 2701SOL    HW1 9002   3.351   0.234   5.729
 2701SOL    HW2 9003   3.298   0.256   5.882
 2702SOL     OW 9004   6.949   6.972   2.978
 2702SOL    HW1 9005   6.903   0.040   2.966
 2702SOL    HW2 9006   6.996   6.947   2.894
 2703SOL     OW 9007   1.660   1.774   3.309
 2703SOL    HW1 9008   1.677   1.827   3.393
 2703SOL    HW2 9009   1.601   1.696   3.331
 2704SOL     OW 9010   1.927   6.191   0.164
 2704SOL    HW1 9011   1.861   6.265   0.175
 2704SOL    HW2 9012   1.894   6.108   0.209
 2705SOL     OW 9013   0.519   4.882   2.380
 2705SOL    HW1 9014   0.505   4.979   2.362
 2705SOL    HW2 9015   0.432   4.840   2.407
 2706SOL     OW 9016   6.755   2.314   2.034
 2706SOL    HW1 9017   6.690   2.257   2.084
 2706SOL    HW2 9018   6.761   2.283   1.939
 2707SOL     OW 9019   2.277   1.574   6.053
 2707SOL    HW1 9020   2.220   1.610   6.127
 2707SOL    HW2 9021   2.364   1.541   6.090
 2708SOL     OW 9022   2.124   3.951   0.280
 2708SOL    HW1 9023   2.191   4.005   0.332
 2708SOL    HW2 9024   2.046   3.931   0.339
 2709SOL     OW 9025   4.154   6.937   1.692
 2709SOL    HW1 9026   4.137   6.839   1.698
 2709SOL    HW2 9027   4.075   6.982   1.649
 2710SOL     OW 9028   6.015   4.343   2.405
 2710SOL    HW1 9029   6.045   4.281   2.333
 2710SOL    HW2 9030   5.916   4.354   2.400
 2711SOL     OW 9031   1.181   6.548   1.839
 2711SOL    HW1 9032   1.124   6.515   1.763
 2711SOL    HW2 9033   1.145   6.635   1.872
 2712SOL     OW 9034   3.103   5.404   2.382
 2712SOL    HW1 9035   3.201   5.420   2.390
 2712SOL    HW2 9036   3.061   5.478   2.329
 2713SOL     OW 9037   1.980   2.132   4.887
 2713SOL    HW1 9038   2.051   2.189   4.927
 2713SOL    HW2 9039   2.019   2.077   4.812
 2714SOL     OW 9040   5.520   6.782   5.735
 2714SOL    HW1 9041   5.430   6.769   5.777
 2714SOL    HW2 9042   5.590   6.787   5.806
 2715SOL     OW 9043   6.431   0.291   0.401
 2715SOL    HW1 9044   6.405   0.195   0.395
 2715SOL    HW2 9045   6.478   0.319   0.317
 2716SOL     OW 9046   0.102   6.912   2.788
 2716SOL    HW1 9047   0.070   6.943   2.699
 2716SOL    HW2 9048   0.153   6.826   2.778
 2717SOL     OW 9049   1.190   0.712   2.756
 2717SOL    HW1 9050   1.199   0.686   2.660
 2717SOL    HW2 9051   1.132   0.793   2.763
 2718SOL     OW 9052   1.018   4.584   3.261
 2718SOL    HW1 9053   0.923   4.570   3.233
 2718SOL    HW2 9054   1.075   4.595   3.180
 2719SOL     OW 9055   4.132   4.749   2.914
 2719SOL    HW1 9056   4.049   4.785   2.871
 2719SOL    HW2 9057   4.152   4.658   2.877
 2720SOL     OW 9058   0.345   5.982   4.036
 2720SOL    HW1 9059   0.272   6.050   4.044
 2720SOL    HW2 9060   0.374   5.976   3.940
 2721SOL     OW 9061   4.890   6.956   4.985
 2721SOL    HW1 9062   4.915   0.029   5.011
 2721SOL    HW2 9063   4.804   6.931   5.031
 2722SOL     OW 9064   1.515   5.566   1.173
 2722SOL    HW1 9065   1.559   5.582   1.262
 2722SOL    HW2 9066   1.547   5.480   1.134
 2723SOL     OW 9067   1.782   1.243   5.020
 2723SOL    HW1 9068   1.801   1.231   5.117
 2723SOL    HW2 9069   1.728   1.165   4.987
 2724SOL     OW 9070   3.475   5.767   6.569
 2724SOL    HW1 9071   3.573   5.790   6.567
 2724SOL    HW2 9072   3.464   5.679   6.615
 2725SOL     OW 9073   2.936   4.806   3.276
 2725SOL    HW1 9074   2.994   4.764   3.345
 2725SOL    HW2 9075   2.916   4.900   3.301
 2726SOL     OW 9076   4.752   6.287   2.346
 2726SOL    HW1 9077   4.790   6.379   2.329
 2726SOL    HW2 9078   4.745   6.238   2.259
 2727SOL     OW 9079   2.012   5.603   2.823
 2727SOL    HW1 9080   2.106   5.634   2.834
 2727SOL    HW2 9081   1.996   5.523   2.881
 2728SOL     OW 9082   3.496   6.936   5.285
 2728SOL    HW1 9083   3.475   6.908   5.378
 2728SOL    HW2 9084   3.411   6.946   5.233
 2729SOL     OW 9085   6.703   5.002   2.620
 2729SOL    HW1 9086   6.606   5.009   2.598
 2729SOL    HW2 9087   6.714   4.961   2.711
 2730SOL     OW 9088   1.056   4.421   1.399
 2730SOL    HW1 9089   1.024   4.434   1.305
 2730SOL    HW2 9090   1.099   4.505   1.432
 2731SOL     OW 9091   2.878   3.712   1.549
 2731SOL    HW1 9092   2.974   3.718   1.521
 2731SOL    HW2 9093   2.866   3.634   1.610
 2732SOL     OW 9094   5.434   2.619   3.952
 2732SOL    HW1 9095   5.386   2.650   4.034
 2732SOL    HW2 9096   5.497   2.545   3.976
 2733SOL     OW 9097   1.982   0.880   5.894
 2733SOL    HW1 9098   2.018   0.869   5.987
 2733SOL    HW2 9099   2.057   0.902   5.832
 2734SOL     OW 9100   2.116   6.740   3.828
 2734SOL    HW1 9101   2.033   6.786   3.797
 2734SOL    HW2 9102   2.092   6.653   3.872
 2735SOL     OW 9103   2.334   4.961   1.215
 2735SOL    HW1 9104   2.324   4.861   1.210
 2735SOL    HW2 9105   2.427   4.986   1.189
 2736SOL     OW 9106   3.691   6.841   6.659
 2736SOL    HW1 9107   3.719   6.917   6.718
 2736SOL    HW2 9108   3.767   6.815   6.599
 2737SOL     OW 9109   4.128   3.502   5.510
 2737SOL    HW1 9110   4.202   3.449   5.469
 2737SOL    HW2 9111   4.075   3.546   5.438
 2738SOL     OW 9112   5.885   4.401   4.446
 2738SOL    HW1 9113   5.910   4.411   4.350
 2738SOL    HW2 9114   5.967   4.405   4.503
 2739SOL     OW 9115   5.660   3.622   0.490
 2739SOL    HW1 9116   5.601   3.703   0.490
 2739SOL    HW2 9117   5.609   3.545   0.453
 2740SOL     OW 9118   6.707   2.778   3.161
 2740SOL    HW1 9119   6.654   2.827   3.092
 2740SOL    HW2 9120   6.697   2.679   3.146
 2741SOL     OW 9121   1.321   2.503   5.367
 2741SOL    HW1 9122   1.410   2.470   5.335
 2741SOL    HW2 9123   1.250   2.439   5.338
 2742SOL     OW 9124   2.688   6.515   5.368
 2742SOL    HW1 9125   2.682   6.527   5.467
 2742SOL    HW2 9126   2.781   6.537   5.338
 2743SOL     OW 9127   6.187   4.373   0.406
 2743SOL    HW1 9128   6.113   4.319   0.445
 2743SOL    HW2 9129   6.238   4.318   0.340
 2744SOL     OW 9130   4.516   0.127   6.892
 2744SOL    HW1 9131   4.567   0.203   6.933
 2744SOL    HW2 9132   4.520   0.047   6.953
 2745SOL     OW 9133   2.246   5.694   1.283
 2745SOL    HW1 9134   2.268   5.598   1.265
 2745SOL    HW2 9135   2.149   5.702   1.306
 2746SOL     OW 9136   1.143   2.151   6.553
 2746SOL    HW1 9137   1.082   2.172   6.629
 2746SOL    HW2 9138   1.235   2.131   6.587
 2747SOL     OW 9139   5.374   5.614   3.826
 2747SOL    HW1 9140   5.452   5.556   3.803
 2747SOL    HW2 9141   5.299   5.558   3.861
 2748SOL     OW 9142   3.961   1.119   4.825
 2748SOL    HW1 9143   3.989   1.028   4.855
 2748SOL    HW2 9144   4.036   1.184   4.840
 2749SOL     OW 9145   5.209   4.383   3.771
 2749SOL    HW1 9146   5.225   4.291   3.733
 2749SOL    HW2 9147   5.115   4.411   3.749
 2750SOL     OW 9148   0.338   6.247   1.211
 2750SOL    HW1 9149   0.388   6.214   1.292
 2750SOL    HW2 9150   0.376   6.335   1.183
 2751SOL     OW 9151   1.544   0.062   0.254
 2751SOL    HW1 9152   1.544   0.119   0.172
 2751SOL    HW2 9153   1.633   0.018   0.265
 2752SOL     OW 9154   6.708   6.403   5.817
 2752SOL    HW1 9155   6.698   6.389   5.719
 2752SOL    HW2 9156   6.757   6.488   5.834
 2753SOL     OW 9157   2.947   5.004   5.089
 2753SOL    HW1 9158   3.024   5.067   5.083
 2753SOL    HW2 9159   2.977   4.919   5.131
 2754SOL     OW 9160   1.019   5.831   4.090
 2754SOL    HW1 9161   1.080   5.836   4.011
 2754SOL    HW2 9162   1.001   5.735   4.113
 2755SOL     OW 9163   4.078   5.698   2.516
 2755SOL    HW1 9164   4.007   5.706   2.446
 2755SOL    HW2 9165   4.044   5.734   2.603
 2756SOL     OW 9166   0.028   3.329   5.431
 2756SOL    HW1 9167   0.125   3.312   5.450
 2756SOL    HW2 9168   0.004   3.289   5.343
 2757SOL     OW 9169   4.452   3.581   6.995
 2757SOL    HW1 9170   4.446   3.542   0.067
 2757SOL    HW2 9171   4.520   3.530   6.942
 2758SOL     OW 9172   0.367   6.833   1.663
 2758SOL    HW1 9173   0.464   6.856   1.650
 2758SOL    HW2 9174   0.351   6.810   1.759
 2759SOL     OW 9175   3.566   3.559   5.349
 2759SOL    HW1 9176   3.621   3.635   5.385
 2759SOL    HW2 9177   3.627   3.483   5.325
 2760SOL     OW 9178   5.935   6.011   2.199
 2760SOL    HW1 9179   5.950   5.912   2.198
 2760SOL    HW2 9180   6.023   6.058   2.186
 2761SOL     OW 9181   1.713   3.018   3.505
 2761SOL    HW1 9182   1.724   3.117   3.511
 2761SOL    HW2 9183   1.785   2.980   3.447
 2762SOL     OW 9184   3.380   1.851   0.611
 2762SOL    HW1 9185   3.334   1.762   0.610
 2762SOL    HW2 9186   3.471   1.840   0.651
 2763SOL     OW 9187   6.126   1.798   4.119
 2763SOL    HW1 9188   6.072   1.779   4.201
 2763SOL    HW2 9189   6.131   1.716   4.063
 2764SOL     OW 9190   0.479   2.943   2.941
 2764SOL    HW1 9191   0.390   2.984   2.959
 2764SOL    HW2 9192   0.545   3.014   2.920
 2765SOL     OW 9193   5.783   6.319   5.984
 2765SOL    HW1 9194   5.748   6.395   5.930
 2765SOL    HW2 9195   5.865   6.282   5.941
 2766SOL     OW 9196   4.502   6.916   0.064
 2766SOL    HW1 9197   4.469   6.975   0.137
 2766SOL    HW2 9198   4.602   6.913   0.065
 2767SOL     OW 9199   0.943   5.489   6.525
 2767SOL    HW1 9200   0.853   5.531   6.539
 2767SOL    HW2 9201   0.939   5.393   6.550
 2768SOL     OW 9202   4.061   0.055   1.310
 2768SOL    HW1 9203   3.981   0.037   1.253
 2768SOL    HW2 9204   4.033   0.065   1.405
 2769SOL     OW 9205   1.127   4.871   5.599
 2769SOL    HW1 9206   1.047   4.897   5.545
 2769SOL    HW2 9207   1.160   4.950   5.650
 2770SOL     OW 9208   2.260   6.898   0.830
 2770SOL    HW1 9209   2.239   6.989   0.796
 2770SOL    HW2 9210   2.217   6.829   0.772
 2771SOL     OW 9211   4.402   0.353   5.327
 2771SOL    HW1 9212   4.416   0.442   5.285
 2771SOL    HW2 9213   4.473   0.336   5.396
 2772SOL     OW 9214   4.597   1.456   4.001
 2772SOL    HW1 9215   4.541   1.390   3.952
 2772SOL    HW2 9216   4.671   1.488   3.942
 2773SOL     OW 9217   6.382   2.648   4.981
 2773SOL    HW1 9218   6.342   2.612   4.896
 2773SOL    HW2 9219   6.403   2.745   4.969
 2774SOL     OW 9220   6.036   1.616   3.934
 2774SOL    HW1 9221   6.095   1.540   3.908
 2774SOL    HW2 9222   6.002   1.661   3.851
 2775SOL     OW 9223   7.020   3.611   4.083
 2775SOL    HW1 9224   0.079   3.603   4.143
 2775SOL    HW2 9225   7.001   3.708   4.065
 2776SOL     OW 9226   4.638   4.625   5.884
 2776SOL    HW1 9227   4.586   4.664   5.808
 2776SOL    HW2 9228   4.666   4.532   5.862
 2777SOL     OW 9229   2.025   2.294   6.628
 2777SOL    HW1 9230   2.047   2.351   6.549
 2777SOL    HW2 9231   1.970   2.216   6.599
 2778SOL     OW 9232   2.699   0.476   5.980
 2778SOL    HW1 9233   2.689   0.400   6.044
 2778SOL    HW2 9234   2.738   0.555   6.027
 2779SOL     OW 9235   4.860   0.817   1.824
 2779SOL    HW1 9236   4.909   0.865   1.752
 2779SOL    HW2 9237   4.807   0.882   1.878
 2780SOL     OW 9238   6.937   1.263   4.788
 2780SOL    HW1 9239   6.979   1.341   4.742
 2780SOL    HW2 9240   7.007   1.212   4.839
 2781SOL     OW 9241   6.169   1.305   3.508
 2781SOL    HW1 9242   6.187   1.336   3.414
 2781SOL    HW2 9243   6.252   1.315   3.563
 2782SOL     OW 9244   5.365   0.816   5.911
 2782SOL    HW1 9245   5.452   0.860   5.930
 2782SOL    HW2 9246   5.291   0.868   5.952
 2783SOL     OW 9247   5.861   3.412   1.628
 2783SOL    HW1 9248   5.950   3.385   1.592
 2783SOL    HW2 9249   5.789   3.362   1.579
 2784SOL     OW 9250   0.355   3.362   1.364
 2784SOL    HW1 9251   0.282   3.395   1.305
 2784SOL    HW2 9252   0.423   3.314   1.310
 2785SOL     OW 9253   6.029   3.524   2.624
 2785SOL    HW1 9254   5.961   3.596   2.641
 2785SOL    HW2 9255   6.007   3.478   2.538
 2786SOL     OW 9256   1.496   6.296   0.219
 2786SOL    HW1 9257   1.503   6.317   0.316
 2786SOL    HW2 9258   1.405   6.260   0.199
 2787SOL     OW 9259   0.520   5.679   6.756
 2787SOL    HW1 9260   0.585   5.629   6.814
 2787SOL    HW2 9261   0.571   5.740   6.695
 2788SOL     OW 9262   2.424   6.905   6.726
 2788SOL    HW1 9263   2.449   6.903   6.823
 2788SOL    HW2 9264   2.470   6.831   6.678
 2789SOL     OW 9265   1.293   2.331   4.672
 2789SOL    HW1 9266   1.257   2.422   4.694
 2789SOL    HW2 9267   1.222   2.277   4.627
 2790SOL     OW 9268   0.687   5.742   1.544
 2790SOL    HW1 9269   0.704   5.767   1.639
 2790SOL    HW2 9270   0.612   5.798   1.508
 2791SOL     OW 9271   1.457   3.113   4.349
 2791SOL    HW1 9272   1.478   3.125   4.252
 2791SOL    HW2 9273   1.502   3.031   4.384
 2792SOL     OW 9274   3.116   1.206   5.937
 2792SOL    HW1 9275   3.213   1.227   5.944
 2792SOL    HW2 9276   3.071   1.229   6.024
 2793SOL     OW 9277   3.369   3.642   0.626
 2793SOL    HW1 9278   3.398   3.550   0.650
 2793SOL    HW2 9279   3.326   3.641   0.535
 2794SOL     OW 9280   1.904   2.237   0.236
 2794SOL    HW1 9281   1.929   2.309   0.300
 2794SOL    HW2 9282   1.986   2.183   0.214
 2795SOL     OW 9283   1.657   6.185   0.923
 2795SOL    HW1 9284   1.584   6.117   0.913
 2795SOL    HW2 9285   1.662   6.214   1.019
 2796SOL     OW 9286   1.699   5.993   6.615
 2796SOL    HW1 9287   1.688   6.054   6.693
 2796SOL    HW2 9288   1.704   6.047   6.531
 2797SOL     OW 9289   4.978   4.510   3.621
 2797SOL    HW1 9290   5.020   4.493   3.532
 2797SOL    HW2 9291   4.887   4.550   3.608
 2798SOL     OW 9292   5.401   1.362   1.616
 2798SOL    HW1 9293   5.442   1.270   1.619
 2798SOL    HW2 9294   5.347   1.377   1.699
 2799SOL     OW 9295   3.629   6.253   4.850
 2799SOL    HW1 9296   3.626   6.349   4.877
 2799SOL    HW2 9297   3.632   6.195   4.931
 2800SOL     OW 9298   4.737   0.539   6.278
 2800SOL    HW1 9299   4.778   0.526   6.188
 2800SOL    HW2 9300   4.808   0.561   6.344
 2801SOL     OW 9301   6.991   4.876   4.124
 2801SOL    HW1 9302   6.969   4.964   4.082
 2801SOL    HW2 9303   6.924   4.808   4.096
 2802SOL     OW 9304   1.383   5.068   4.592
 2802SOL    HW1 9305   1.438   5.126   4.532
 2802SOL    HW2 9306   1.436   5.045   4.673
 2803SOL     OW 9307   3.316   2.680   0.053
 2803SOL    HW1 9308   3.296   2.777   0.042
 2803SOL    HW2 9309   3.288   2.630   6.991
 2804SOL     OW 9310   6.879   3.111   3.559
 2804SOL    HW1 9311   6.826   3.047   3.504
 2804SOL    HW2 9312   6.953   3.063   3.605
 2805SOL     OW 9313   3.924   4.577   0.592
 2805SOL    HW1 9314   3.921   4.655   0.529
 2805SOL    HW2 9315   3.967   4.606   0.677
 2806SOL     OW 9316   0.247   3.163   5.559
 2806SOL    HW1 9317   0.256   3.069   5.592
 2806SOL    HW2 9318   0.335   3.194   5.523
 2807SOL     OW 9319   4.296   0.997   4.112
 2807SOL    HW1 9320   4.352   1.024   4.191
 2807SOL    HW2 9321   4.204   1.034   4.124
 2808SOL     OW 9322   0.805   5.617   5.745
 2808SOL    HW1 9323   0.750   5.538   5.718
 2808SOL    HW2 9324   0.784   5.641   5.840
 2809SOL     OW 9325   0.395   6.289   1.913
 2809SOL    HW1 9326   0.482   6.283   1.864
 2809SOL    HW2 9327   0.340   6.208   1.893
 2810SOL     OW 9328   1.482   6.439   2.871
 2810SOL    HW1 9329   1.484   6.342   2.894
 2810SOL    HW2 9330   1.570   6.481   2.892
 2811SOL     OW 9331   1.041   1.234   1.035
 2811SOL    HW1 9332   1.081   1.143   1.018
 2811SOL    HW2 9333   1.015   1.241   1.131
 2812SOL     OW 9334   1.252   1.762   0.505
 2812SOL    HW1 9335   1.213   1.739   0.415
 2812SOL    HW2 9336   1.344   1.799   0.492
 2813SOL     OW 9337   0.779   3.544   1.299
 2813SOL    HW1 9338   0.815   3.630   1.262
 2813SOL    HW2 9339   0.822   3.467   1.251
 2814SOL     OW 9340   2.587   4.508   6.967
 2814SOL    HW1 9341   2.621   4.563   0.023
 2814SOL    HW2 9342   2.589   4.411   6.992
 2815SOL     OW 9343   6.664   5.639   4.393
 2815SOL    HW1 9344   6.738   5.704   4.410
 2815SOL    HW2 9345   6.623   5.610   4.479
 2816SOL     OW 9346   0.947   5.244   4.656
 2816SOL    HW1 9347   0.856   5.208   4.638
 2816SOL    HW2 9348   1.016   5.178   4.626
 2817SOL     OW 9349   3.018   1.120   2.651
 2817SOL    HW1 9350   3.059   1.168   2.573
 2817SOL    HW2 9351   2.964   1.185   2.705
 2818SOL     OW 9352   1.351   0.491   0.057
 2818SOL    HW1 9353   1.365   0.495   0.156
 2818SOL    HW2 9354   1.314   0.578   0.025
 2819SOL     OW 9355   0.745   0.200   6.710
 2819SOL    HW1 9356   0.694   0.192   6.625
 2819SOL    HW2 9357   0.705   0.272   6.767
 2820SOL     OW 9358   1.756   1.843   6.939
 2820SOL    HW1 9359   1.760   1.797   0.007
 2820SOL    HW2 9360   1.776   1.941   6.951
 2821SOL     OW 9361   2.921   2.803   6.186
 2821SOL    HW1 9362   2.985   2.879   6.191
 2821SOL    HW2 9363   2.830   2.837   6.163
 2822SOL     OW 9364   4.615   3.051   0.581
 2822SOL    HW1 9365   4.687   3.073   0.647
 2822SOL    HW2 9366   4.601   3.129   0.520
 2823SOL     OW 9367   4.856   3.662   1.871
 2823SOL    HW1 9368   4.859   3.642   1.773
 2823SOL    HW2 9369   4.857   3.761   1.884
 2824SOL     OW 9370   0.776   4.498   5.283
 2824SOL    HW1 9371   0.846   4.486   5.212
 2824SOL    HW2 9372   0.701   4.434   5.267
 2825SOL     OW 9373   5.404   1.600   5.702
 2825SOL    HW1 9374   5.386   1.693   5.733
 2825SOL    HW2 9375   5.503   1.588   5.690
 2826SOL     OW 9376   2.801   3.123   6.995
 2826SOL    HW1 9377   2.814   3.135   6.897
 2826SOL    HW2 9378   2.745   3.198   0.010
 2827SOL     OW 9379   5.452   1.731   6.501
 2827SOL    HW1 9380   5.390   1.771   6.433
 2827SOL    HW2 9381   5.439   1.777   6.589
 2828SOL     OW 9382   1.746   3.930   0.763
 2828SOL    HW1 9383   1.764   3.942   0.861
 2828SOL    HW2 9384   1.664   3.982   0.738
 2829SOL     OW 9385   3.555   3.552   1.890
 2829SOL    HW1 9386   3.569   3.530   1.986
 2829SOL    HW2 9387   3.624   3.504   1.835
 2830SOL     OW 9388   3.341   5.580   4.708
 2830SOL    HW1 9389   3.330   5.668   4.663
 2830SOL    HW2 9390   3.271   5.517   4.675
 2831SOL     OW 9391   0.070   1.656   1.755
 2831SOL    HW1 9392   0.168   1.651   1.777
 2831SOL    HW2 9393   0.019   1.593   1.813
 2832SOL     OW 9394   0.800   3.705   2.496
 2832SOL    HW1 9395   0.748   3.771   2.442
 2832SOL    HW2 9396   0.759   3.614   2.487
 2833SOL     OW 9397   0.084   2.363   2.314
 2833SOL    HW1 9398   0.140   2.348   2.232
 2833SOL    HW2 9399   0.144   2.386   2.391
 2834SOL     OW 9400   3.511   0.099   4.193
 2834SOL    HW1 9401   3.546   0.006   4.197
 2834SOL    HW2 9402   3.524   0.135   4.101
 2835SOL     OW 9403   6.599   0.963   6.933
 2835SOL    HW1 9404   6.560   1.054   6.918
 2835SOL    HW2 9405   6.532   0.905   6.979
 2836SOL     OW 9406   3.276   5.701   2.879
 2836SOL    HW1 9407   3.328   5.633   2.932
 2836SOL    HW2 9408   3.287   5.682   2.782
 2837SOL     OW 9409   5.161   4.348   1.916
 2837SOL    HW1 9410   5.227   4.273   1.902
 2837SOL    HW2 9411   5.072   4.321   1.879
 2838SOL     OW 9412   6.788   4.164   6.160
 2838SOL    HW1 9413   6.755   4.258   6.164
 2838SOL    HW2 9414   6.795   4.135   6.064
 2839SOL     OW 9415   5.738   2.892   5.504
 2839SOL    HW1 9416   5.642   2.920   5.505
 2839SOL    HW2 9417   5.791   2.953   5.563
 2840SOL     OW 9418   6.141   6.511   4.478
 2840SOL    HW1 9419   6.197   6.501   4.396
 2840SOL    HW2 9420   6.052   6.467   4.463
 2841SOL     OW 9421   5.624   4.242   2.206
 2841SOL    HW1 9422   5.614   4.338   2.181
 2841SOL    HW2 9423   5.690   4.234   2.282
 2842SOL     OW 9424   0.643   6.810   3.781
 2842SOL    HW1 9425   0.602   6.897   3.755
 2842SOL    HW2 9426   0.674   6.814   3.876
 2843SOL     OW 9427   2.359   2.738   3.786
 2843SOL    HW1 9428   2.271   2.695   3.808
 2843SOL    HW2 9429   2.408   2.682   3.719
 2844SOL     OW 9430   5.294   3.375   0.895
 2844SOL    HW1 9431   5.339   3.295   0.935
 2844SOL    HW2 9432   5.361   3.448   0.882
 2845SOL     OW 9433   3.212   1.725   1.693
 2845SOL    HW1 9434   3.279   1.738   1.766
 2845SOL    HW2 9435   3.132   1.782   1.711
 2846SOL     OW 9436   5.869   6.993   6.955
 2846SOL    HW1 9437   5.906   6.946   6.874
 2846SOL    HW2 9438   5.852   0.069   6.933
 2847SOL     OW 9439   4.787   5.135   0.940
 2847SOL    HW1 9440   4.717   5.114   1.008
 2847SOL    HW2 9441   4.744   5.165   0.855
 2848SOL     OW 9442   0.807   4.365   5.944
 2848SOL    HW1 9443   0.897   4.406   5.962
 2848SOL    HW2 9444   0.737   4.436   5.950
 2849SOL     OW 9445   5.211   1.077   1.473
 2849SOL    HW1 9446   5.309   1.055   1.474
 2849SOL    HW2 9447   5.198   1.175   1.462
 2850SOL     OW 9448   1.127   0.547   2.035
 2850SOL    HW1 9449   1.098   0.637   2.066
 2850SOL    HW2 9450   1.162   0.553   1.941
 2851SOL     OW 9451   3.139   2.912   1.499
 2851SOL    HW1 9452   3.212   2.971   1.533
 2851SOL    HW2 9453   3.089   2.960   1.426
 2852SOL     OW 9454   0.318   5.533   5.617
 2852SOL    HW1 9455   0.245   5.468   5.596
 2852SOL    HW2 9456   0.306   5.616   5.561
 2853SOL     OW 9457   0.577   4.635   5.428
 2853SOL    HW1 9458   0.545   4.730   5.425
 2853SOL    HW2 9459   0.643   4.620   5.354
 2854SOL     OW 9460   2.650   0.602   5.690
 2854SOL    HW1 9461   2.576   0.609   5.756
 2854SOL    HW2 9462   2.735   0.576   5.738
 2855SOL     OW 9463   2.304   1.374   4.404
 2855SOL    HW1 9464   2.354   1.358   4.319
 2855SOL    HW2 9465   2.269   1.468   4.405
 2856SOL     OW 9466   0.411   5.543   4.407
 2856SOL    HW1 9467   0.510   5.547   4.393
 2856SOL    HW2 9468   0.390   5.475   4.477
 2857SOL     OW 9469   6.602   4.282   1.094
 2857SOL    HW1 9470   6.676   4.300   1.159
 2857SOL    HW2 9471   6.572   4.369   1.054
 2858SOL     OW 9472   5.029   4.187   2.643
 2858SOL    HW1 9473   5.062   4.099   2.609
 2858SOL    HW2 9474   4.932   4.179   2.665
 2859SOL     OW 9475   6.177   4.826   1.860
 2859SOL    HW1 9476   6.092   4.838   1.809
 2859SOL    HW2 9477   6.252   4.871   1.810
 2860SOL     OW 9478   1.071   0.342   3.042
 2860SOL    HW1 9479   1.034   0.254   3.010
 2860SOL    HW2 9480   1.086   0.402   2.965
 2861SOL     OW 9481   5.086   4.424   5.949
 2861SOL    HW1 9482   5.052   4.507   5.905
 2861SOL    HW2 9483   5.124   4.446   6.038
 2862SOL     OW 9484   4.536   1.244   0.607
 2862SOL    HW1 9485   4.532   1.343   0.620
 2862SOL    HW2 9486   4.606   1.205   0.667
 2863SOL     OW 9487   5.839   2.122   5.586
 2863SOL    HW1 9488   5.877   2.186   5.519
 2863SOL    HW2 9489   5.802   2.173   5.663
 2864SOL     OW 9490   3.798   4.147   0.905
 2864SOL    HW1 9491   3.734   4.070   0.906
 2864SOL    HW2 9492   3.882   4.122   0.954
 2865SOL     OW 9493   5.537   5.246   5.498
 2865SOL    HW1 9494   5.631   5.268   5.523
 2865SOL    HW2 9495   5.501   5.176   5.560
 2866SOL     OW 9496   3.514   4.939   0.824
 2866SOL    HW1 9497   3.433   4.923   0.768
 2866SOL    HW2 9498   3.589   4.883   0.791
 2867SOL     OW 9499   6.230   6.456   2.997
 2867SOL    HW1 9500   6.158   6.473   3.064
 2867SOL    HW2 9501   6.318   6.487   3.034
 2868SOL     OW 9502   0.253   0.090   5.932
 2868SOL    HW1 9503   0.347   0.062   5.913
 2868SOL    HW2 9504   0.206   0.113   5.847
 2869SOL     OW 9505   6.148   4.445   4.240
 2869SOL    HW1 9506   6.173   4.440   4.336
 2869SOL    HW2 9507   6.179   4.532   4.201
 2870SOL     OW 9508   0.345   1.630   1.819
 2870SOL    HW1 9509   0.375   1.573   1.895
 2870SOL    HW2 9510   0.398   1.715   1.818
 2871SOL     OW 9511   5.093   1.137   3.114
 2871SOL    HW1 9512   5.171   1.118   3.174
 2871SOL    HW2 9513   5.069   1.054   3.064
 2872SOL     OW 9514   2.559   1.972   2.538
 2872SOL    HW1 9515   2.545   2.007   2.631
 2872SOL    HW2 9516   2.484   2.002   2.479
 2873SOL     OW 9517   1.634   6.967   1.433
 2873SOL    HW1 9518   1.589   6.980   1.522
 2873SOL    HW2 9519   1.633   6.870   1.409
 2874SOL     OW 9520   2.128   1.246   3.342
 2874SOL    HW1 9521   2.128   1.333   3.391
 2874SOL    HW2 9522   2.069   1.180   3.389
 2875SOL     OW 9523   2.473   0.017   3.201
 2875SOL    HW1 9524   2.532   7.011   3.125
 2875SOL    HW2 9525   2.458   0.116   3.200
 2876SOL     OW 9526   1.380   6.076   0.886
 2876SOL    HW1 9527   1.349   6.121   0.970
 2876SOL    HW2 9528   1.383   6.143   0.811
 2877SOL     OW 9529   2.024   2.441   5.250
 2877SOL    HW1 9530   2.001   2.538   5.247
 2877SOL    HW2 9531   2.081   2.423   5.330
 2878SOL     OW 9532   3.967   3.121   4.633
 2878SOL    HW1 9533   3.984   3.195   4.568
 2878SOL    HW2 9534   3.985   3.153   4.726
 2879SOL     OW 9535   5.263   4.806   6.955
 2879SOL    HW1 9536   5.282   4.773   0.027
 2879SOL    HW2 9537   5.296   4.899   6.945
 2880SOL     OW 9538   1.773   1.596   3.619
 2880SOL    HW1 9539   1.857   1.583   3.566
 2880SOL    HW2 9540   1.741   1.690   3.610
 2881SOL     OW 9541   5.234   4.855   0.727
 2881SOL    HW1 9542   5.144   4.841   0.769
 2881SOL    HW2 9543   5.277   4.766   0.710
 2882SOL     OW 9544   4.652   6.436   0.068
 2882SOL    HW1 9545   4.751   6.443   0.056
 2882SOL    HW2 9546   4.617   6.363   0.009
 2883SOL     OW 9547   5.424   6.531   3.941
 2883SOL    HW1 9548   5.368   6.591   3.884
 2883SOL    HW2 9549   5.463   6.583   4.016
 2884SOL     OW 9550   6.340   5.685   3.647
 2884SOL    HW1 9551   6.312   5.742   3.570
 2884SOL    HW2 9552   6.309   5.591   3.632
 2885SOL     OW 9553   1.224   2.986   4.047
 2885SOL    HW1 9554   1.190   3.059   4.106
 2885SOL    HW2 9555   1.155   2.915   4.038
 2886SOL     OW 9556   2.152   4.841   5.553
 2886SOL    HW1 9557   2.171   4.796   5.640
 2886SOL    HW2 9558   2.194   4.789   5.479
 2887SOL     OW 9559   6.724   5.964   2.779
 2887SOL    HW1 9560   6.744   6.054   2.742
 2887SOL    HW2 9561   6.674   5.973   2.866
 2888SOL     OW 9562   4.936   6.620   6.597
 2888SOL    HW1 9563   5.023   6.661   6.571
 2888SOL    HW2 9564   4.942   6.521   6.591
 2889SOL     OW 9565   4.590   6.099   4.190
 2889SOL    HW1 9566   4.617   6.138   4.278
 2889SOL    HW2 9567   4.669   6.052   4.149
 2890SOL     OW 9568   1.340   2.475   0.452
 2890SOL    HW1 9569   1.355   2.395   0.509
 2890SOL    HW2 9570   1.335   2.447   0.356
 2891SOL     OW 9571   0.707   1.935   5.339
 2891SOL    HW1 9572   0.756   2.021   5.331
 2891SOL    HW2 9573   0.652   1.936   5.423
 2892SOL     OW 9574   5.442   4.583   1.710
 2892SOL    HW1 9575   5.470   4.490   1.736
 2892SOL    HW2 9576   5.344   4.594   1.727
 2893SOL     OW 9577   6.781   5.639   5.367
 2893SOL    HW1 9578   6.806   5.717   5.424
 2893SOL    HW2 9579   6.862   5.581   5.352
 2894SOL     OW 9580   2.486   5.362   1.290
 2894SOL    HW1 9581   2.401   5.373   1.343
 2894SOL    HW2 9582   2.497   5.439   1.228
 2895SOL     OW 9583   4.171   7.015   5.672
 2895SOL    HW1 9584   4.155   6.974   5.583
 2895SOL    HW2 9585   4.210   0.087   5.661
 2896SOL     OW 9586   5.972   0.409   4.867
 2896SOL    HW1 9587   5.937   0.429   4.958
 2896SOL    HW2 9588   6.042   0.337   4.873
 2897SOL     OW 9589   3.288   4.944   2.950
 2897SOL    HW1 9590   3.323   4.895   2.870
 2897SOL    HW2 9591   3.196   4.911   2.972
 2898SOL     OW 9592   5.193   2.359   2.807
 2898SOL    HW1 9593   5.267   2.305   2.767
 2898SOL    HW2 9594   5.172   2.436   2.747
 2899SOL     OW 9595   6.780   3.264   0.605
 2899SOL    HW1 9596   6.749   3.304   0.691
 2899SOL    HW2 9597   6.874   3.292   0.587
 2900SOL     OW 9598   2.409   2.519   6.450
 2900SOL    HW1 9599   2.427   2.554   6.358
 2900SOL    HW2 9600   2.315   2.486   6.455
 2901SOL     OW 9601   0.995   3.881   2.397
 2901SOL    HW1 9602   0.928   3.821   2.441
 2901SOL    HW2 9603   1.064   3.908   2.463
 2902SOL     OW 9604   5.971   5.381   3.682
 2902SOL    HW1 9605   5.940   5.416   3.594
 2902SOL    HW2 9606   5.994   5.458   3.742
 2903SOL     OW 9607   6.575   4.414   0.534
 2903SOL    HW1 9608   6.484   4.374   0.520
 2903SOL    HW2 9609   6.573   4.511   0.509
 2904SOL     OW 9610   2.485   4.683   4.776
 2904SOL    HW1 9611   2.576   4.717   4.800
 2904SOL    HW2 9612   2.479   4.670   4.677
 2905SOL     OW 9613   2.003   5.270   1.152
 2905SOL    HW1 9614   1.995   5.174   1.180
 2905SOL    HW2 9615   2.081   5.281   1.091
 2906SOL     OW 9616   6.303   6.343   5.469
 2906SOL    HW1 9617   6.204   6.336   5.454
 2906SOL    HW2 9618   6.336   6.258   5.509
 2907SOL     OW 9619   0.702   1.401   5.024
 2907SOL    HW1 9620   0.747   1.478   5.069
 2907SOL    HW2 9621   0.761   1.366   4.951
 2908SOL     OW 9622   3.913   0.145   3.524
 2908SOL    HW1 9623   3.990   0.131   3.462
 2908SOL    HW2 9624   3.863   0.227   3.497
 2909SOL     OW 9625   6.900   6.851   1.517
 2909SOL    HW1 9626   6.853   6.804   1.591
 2909SOL    HW2 9627   6.996   6.822   1.514
 2910SOL     OW 9628   0.666   1.332   4.341
 2910SOL    HW1 9629   0.739   1.265   4.358
 2910SOL    HW2 9630   0.599   1.292   4.279
 2911SOL     OW 9631   0.642   4.191   5.435
 2911SOL    HW1 9632   0.712   4.155   5.497
 2911SOL    HW2 9633   0.556   4.202   5.486
 2912SOL     OW 9634   0.651   0.917   1.938
 2912SOL    HW1 9635   0.743   0.890   1.908
 2912SOL    HW2 9636   0.583   0.856   1.896
 2913SOL     OW 9637   1.539   6.646   3.318
 2913SOL    HW1 9638   1.582   6.736   3.305
 2913SOL    HW2 9639   1.579   6.581   3.254
 2914SOL     OW 9640   4.067   4.768   1.328
 2914SOL    HW1 9641   4.027   4.726   1.409
 2914SOL    HW2 9642   4.001   4.768   1.254
 2915SOL     OW 9643   2.547   0.662   3.944
 2915SOL    HW1 9644   2.456   0.623   3.957
 2915SOL    HW2 9645   2.607   0.594   3.901
 2916SOL     OW 9646   1.353   5.544   0.187
 2916SOL    HW1 9647   1.261   5.581   0.200
 2916SOL    HW2 9648   1.418   5.619   0.176
 2917SOL     OW 9649   2.434   6.692   2.748
 2917SOL    HW1 9650   2.354   6.636   2.730
 2917SOL    HW2 9651   2.407   6.788   2.760
 2918SOL     OW 9652   5.357   2.669   1.817
 2918SOL    HW1 9653   5.364   2.668   1.718
 2918SOL    HW2 9654   5.334   2.577   1.850
 2919SOL     OW 9655   6.974   6.190   4.866
 2919SOL    HW1 9656   7.012   6.222   4.779
 2919SOL    HW2 9657   6.926   6.265   4.911
 2920SOL     OW 9658   2.853   2.146   1.444
 2920SOL    HW1 9659   2.830   2.213   1.373
 2920SOL    HW2 9660   2.897   2.193   1.520
 2921SOL     OW 9661   1.086   6.258   3.722
 2921SOL    HW1 9662   1.020   6.310   3.776
 2921SOL    HW2 9663   1.114   6.312   3.643
 2922SOL     OW 9664   3.909   5.069   3.749
 2922SOL    HW1 9665   3.893   5.016   3.666
 2922SOL    HW2 9666   3.972   5.019   3.809
 2923SOL     OW 9667   0.843   5.496   4.694
 2923SOL    HW1 9668   0.863   5.557   4.771
 2923SOL    HW2 9669   0.889   5.408   4.708
 2924SOL     OW 9670   5.380   2.029   6.154
 2924SOL    HW1 9671   5.441   2.107   6.166
 2924SOL    HW2 9672   5.432   1.950   6.123
 2925SOL     OW 9673   5.727   6.637   4.781
 2925SOL    HW1 9674   5.682   6.559   4.823
 2925SOL    HW2 9675   5.824   6.639   4.809
 2926SOL     OW 9676   6.567   2.164   4.263
 2926SOL    HW1 9677   6.531   2.082   4.219
 2926SOL    HW2 9678   6.491   2.224   4.290
 2927SOL     OW 9679   1.452   2.379   2.402
 2927SOL    HW1 9680   1.445   2.411   2.307
 2927SOL    HW2 9681   1.516   2.302   2.406
 2928SOL     OW 9682   5.809   2.707   0.048
 2928SOL    HW1 9683   5.845   2.800   0.056
 2928SOL    HW2 9684   5.731   2.707   7.005
 2929SOL     OW 9685   1.958   2.282   3.960
 2929SOL    HW1 9686   1.889   2.272   3.888
 2929SOL    HW2 9687   1.912   2.284   4.049
 2930SOL     OW 9688   0.308   3.862   4.297
 2930SOL    HW1 9689   0.402   3.833   4.318
 2930SOL    HW2 9690   0.304   3.962   4.296
 2931SOL     OW 9691   5.719   4.782   5.990
 2931SOL    HW1 9692   5.645   4.765   5.925
 2931SOL    HW2 9693   5.681   4.807   6.079
 2932SOL     OW 9694   6.132   5.154   1.270
 2932SOL    HW1 9695   6.207   5.220   1.261
 2932SOL    HW2 9696   6.065   5.188   1.336
 2933SOL     OW 9697   1.125   0.018   0.355
 2933SOL    HW1 9698   1.160   6.950   0.325
 2933SOL    HW2 9699   1.148   0.089   0.287
 2934SOL     OW 9700   4.607   5.067   2.037
 2934SOL    HW1 9701   4.664   4.986   2.024
 2934SOL    HW2 9702   4.547   5.052   2.116
 2935SOL     OW 9703   0.733   2.664   6.008
 2935SOL    HW1 9704   0.694   2.755   5.994
 2935SOL    HW2 9705   0.660   2.596   6.012
 2936SOL     OW 9706   4.884   0.021   2.318
 2936SOL    HW1 9707   4.931   0.068   2.243
 2936SOL    HW2 9708   4.823   6.971   2.280
 2937SOL     OW 9709   5.948   3.684   3.002
 2937SOL    HW1 9710   5.899   3.685   2.914
 2937SOL    HW2 9711   6.003   3.767   3.011
 2938SOL     OW 9712   0.569   5.320   6.884
 2938SOL    HW1 9713   0.535   5.389   6.948
 2938SOL    HW2 9714   0.514   5.237   6.894
 2939SOL     OW 9715   0.250   5.927   1.546
 2939SOL    HW1 9716   0.206   6.012   1.573
 2939SOL    HW2 9717   0.186   5.851   1.561
 2940SOL     OW 9718   4.697   6.466   4.006
 2940SOL    HW1 9719   4.689   6.534   3.933
 2940SOL    HW2 9720   4.720   6.377   3.967
 2941SOL     OW 9721   2.219   4.792   2.573
 2941SOL    HW1 9722   2.125   4.826   2.579
 2941SOL    HW2 9723   2.224   4.699   2.610
 2942SOL     OW 9724   3.736   2.089   1.719
 2942SOL    HW1 9725   3.730   2.166   1.783
 2942SOL    HW2 9726   3.794   2.114   1.642
 2943SOL     OW 9727   5.942   3.401   3.411
 2943SOL    HW1 9728   5.914   3.472   3.476
 2943SOL    HW2 9729   6.027   3.359   3.443
 2944SOL     OW 9730   1.654   5.801   2.241
 2944SOL    HW1 9731   1.687   5.734   2.175
 2944SOL    HW2 9732   1.581   5.855   2.200
 2945SOL     OW 9733   5.264   3.484   1.632
 2945SOL    HW1 9734   5.285   3.581   1.634
 2945SOL    HW2 9735   5.173   3.470   1.592
 2946SOL     OW 9736   3.708   2.969   4.108
 2946SOL    HW1 9737   3.766   2.993   4.030
 2946SOL    HW2 9738   3.760   2.978   4.192
 2947SOL     OW 9739   6.086   5.233   0.597
 2947SOL    HW1 9740   6.031   5.215   0.678
 2947SOL    HW2 9741   6.119   5.147   0.559
 2948SOL     OW 9742   0.267   3.696   1.770
 2948SOL    HW1 9743   0.320   3.704   1.854
 2948SOL    HW2 9744   0.304   3.759   1.701
 2949SOL     OW 9745   2.076   6.349   0.417
 2949SOL    HW1 9746   2.034   6.417   0.477
 2949SOL    HW2 9747   2.172   6.336   0.444
 2950SOL     OW 9748   6.293   5.898   2.305
 2950SOL    HW1 9749   6.303   5.968   2.377
 2950SOL    HW2 9750   6.281   5.943   2.217
 2951SOL     OW 9751   1.006   1.718   1.377
 2951SOL    HW1 9752   1.058   1.680   1.453
 2951SOL    HW2 9753   0.930   1.772   1.412
 2952SOL     OW 9754   0.250   2.283   5.263
 2952SOL    HW1 9755   0.316   2.343   5.308
 2952SOL    HW2 9756   0.285   2.256   5.174
 2953SOL     OW 9757   1.577   5.461   2.989
 2953SOL    HW1 9758   1.478   5.471   2.983
 2953SOL    HW2 9759   1.618   5.549   3.011
 2954SOL     OW 9760   0.690   4.452   6.249
 2954SOL    HW1 9761   0.736   4.365   6.268
 2954SOL    HW2 9762   0.619   4.468   6.319
 2955SOL     OW 9763   1.593   4.644   6.295
 2955SOL    HW1 9764   1.657   4.576   6.258
 2955SOL    HW2 9765   1.508   4.642   6.242
 2956SOL     OW 9766   5.433   4.454   4.439
 2956SOL    HW1 9767   5.381   4.410   4.366
 2956SOL    HW2 9768   5.418   4.552   4.436
 2957SOL     OW 9769   2.260   5.428   1.692
 2957SOL    HW1 9770   2.299   5.496   1.753
 2957SOL    HW2 9771   2.298   5.338   1.713
 2958SOL     OW 9772   1.763   4.001   1.945
 2958SOL    HW1 9773   1.726   3.908   1.949
 2958SOL    HW2 9774   1.696   4.062   1.904
 2959SOL     OW 9775   0.240   3.502   3.842
 2959SOL    HW1 9776   0.264   3.417   3.890
 2959SOL    HW2 9777   0.157   3.541   3.882
 2960SOL     OW 9778   4.833   6.455   1.322
 2960SOL    HW1 9779   4.851   6.522   1.250
 2960SOL    HW2 9780   4.881   6.370   1.301
 2961SOL     OW 9781   5.538   2.295   1.824
 2961SOL    HW1 9782   5.582   2.376   1.786
 2961SOL    HW2 9783   5.606   2.222   1.834
 2962SOL     OW 9784   6.887   0.144   3.748
 2962SOL    HW1 9785   6.796   0.106   3.729
 2962SOL    HW2 9786   6.898   0.231   3.700
 2963SOL     OW 9787   1.517   0.668   4.941
 2963SOL    HW1 9788   1.480   0.732   4.874
 2963SOL    HW2 9789   1.617   0.679   4.947
 2964SOL     OW 9790   1.564   0.696   6.553
 2964SOL    HW1 9791   1.562   0.637   6.634
 2964SOL    HW2 9792   1.660   0.714   6.527
 2965SOL     OW 9793   6.041   0.316   6.270
 2965SOL    HW1 9794   5.999   0.294   6.182
 2965SOL    HW2 9795   6.106   0.245   6.296
 2966SOL     OW 9796   3.028   5.281   2.823
 2966SOL    HW1 9797   3.028   5.188   2.786
 2966SOL    HW2 9798   3.081   5.341   2.762
 2967SOL     OW 9799   5.954   6.901   5.095
 2967SOL    HW1 9800   5.894   6.874   5.170
 2967SOL    HW2 9801   5.942   6.999   5.076
 2968SOL     OW 9802   1.022   3.725   0.769
 2968SOL    HW1 9803   1.038   3.668   0.850
 2968SOL    HW2 9804   0.964   3.803   0.794
 2969SOL     OW 9805   4.609   2.498   4.875
 2969SOL    HW1 9806   4.672   2.465   4.946
 2969SOL    HW2 9807   4.524   2.444   4.879
 2970SOL     OW 9808   2.828   2.655   5.700
 2970SOL    HW1 9809   2.740   2.680   5.657
 2970SOL    HW2 9810   2.852   2.561   5.675
 2971SOL     OW 9811   4.901   3.303   6.823
 2971SOL    HW1 9812   4.888   3.382   6.883
 2971SOL    HW2 9813   4.824   3.239   6.835
 2972SOL     OW 9814   0.061   5.546   6.105
 2972SOL    HW1 9815   0.146   5.595   6.125
 2972SOL    HW2 9816   7.005   5.594   6.148
 2973SOL     OW 9817   5.617   1.007   4.390
 2973SOL    HW1 9818   5.540   1.003   4.326
 2973SOL    HW2 9819   5.587   0.977   4.480
 2974SOL     OW 9820   4.886   6.684   2.056
 2974SOL    HW1 9821   4.837   6.607   2.015
 2974SOL    HW2 9822   4.905   6.752   1.986
 2975SOL     OW 9823   6.470   3.683   4.634
 2975SOL    HW1 9824   6.531   3.732   4.572
 2975SOL    HW2 9825   6.484   3.715   4.728
 2976SOL     OW 9826   3.629   1.212   1.362
 2976SOL    HW1 9827   3.650   1.177   1.453
 2976SOL    HW2 9828   3.687   1.291   1.343
 2977SOL     OW 9829   1.138   0.529   1.768
 2977SOL    HW1 9830   1.206   0.534   1.695
 2977SOL    HW2 9831   1.059   0.585   1.744
 2978SOL     OW 9832   3.564   5.250   6.853
 2978SOL    HW1 9833   3.541   5.281   6.761
 2978SOL    HW2 9834   3.523   5.160   6.869
 2979SOL     OW 9835   2.919   1.086   4.914
 2979SOL    HW1 9836   2.843   1.029   4.946
 2979SOL    HW2 9837   2.977   1.109   4.992
 2980SOL     OW 9838   3.439   3.338   4.324
 2980SOL    HW1 9839   3.390   3.275   4.264
 2980SOL    HW2 9840   3.390   3.425   4.328
 2981SOL     OW 9841   2.534   1.267   1.348
 2981SOL    HW1 9842   2.436   1.274   1.368
 2981SOL    HW2 9843   2.584   1.330   1.408
 2982SOL     OW 9844   1.864   1.009   1.233
 2982SOL    HW1 9845   1.932   1.071   1.272
 2982SOL    HW2 9846   1.842   1.036   1.140
 2983SOL     OW 9847   6.458   3.587   5.975
 2983SOL    HW1 9848   6.452   3.672   6.028
 2983SOL    HW2 9849   6.519   3.601   5.897
 2984SOL     OW 9850   0.443   6.167   1.466
 2984SOL    HW1 9851   0.525   6.222   1.481
 2984SOL    HW2 9852   0.466   6.070   1.463
 2985SOL     OW 9853   6.237   0.638   6.709
 2985SOL    HW1 9854   6.314   0.662   6.768
 2985SOL    HW2 9855   6.224   0.539   6.711
 2986SOL     OW 9856   3.546   3.268   2.071
 2986SOL    HW1 9857   3.542   3.200   2.145
 2986SOL    HW2 9858   3.641   3.296   2.057
 2987SOL     OW 9859   2.515   6.019   4.699
 2987SOL    HW1 9860   2.580   5.982   4.764
 2987SOL    HW2 9861   2.551   6.105   4.661
 2988SOL     OW 9862   6.863   1.974   5.638
 2988SOL    HW1 9863   6.764   1.980   5.645
 2988SOL    HW2 9864   6.900   1.930   5.720
 2989SOL     OW 9865   5.836   3.563   4.725
 2989SOL    HW1 9866   5.762   3.496   4.727
 2989SOL    HW2 9867   5.804   3.649   4.766
 2990SOL     OW 9868   5.628   1.816   5.267
 2990SOL    HW1 9869   5.541   1.865   5.275
 2990SOL    HW2 9870   5.694   1.855   5.332
 2991SOL     OW 9871   6.972   3.206   0.315
 2991SOL    HW1 9872   6.967   3.238   0.220
 2991SOL    HW2 9873   6.919   3.122   0.325
 2992SOL     OW 9874   0.844   3.808   4.958
 2992SOL    HW1 9875   0.766   3.748   4.942
 2992SOL    HW2 9876   0.812   3.894   4.998
 2993SOL     OW 9877   3.308   4.797   1.263
 2993SOL    HW1 9878   3.292   4.706   1.302
 2993SOL    HW2 9879   3.331   4.861   1.336
 2994SOL     OW 9880   3.055   5.164   4.512
 2994SOL    HW1 9881   2.986   5.151   4.441
 2994SOL    HW2 9882   3.089   5.075   4.542
 2995SOL     OW 9883   4.473   0.702   1.622
 2995SOL    HW1 9884   4.539   0.674   1.692
 2995SOL    HW2 9885   4.510   0.682   1.532
 2996SOL     OW 9886   6.870   1.151   4.277
 2996SOL    HW1 9887   6.785   1.168   4.227
 2996SOL    HW2 9888   6.897   1.055   4.265
 2997SOL     OW 9889   5.077   6.156   4.115
 2997SOL    HW1 9890   5.093   6.247   4.153
 2997SOL    HW2 9891   5.154   6.096   4.137
 2998SOL     OW 9892   2.752   0.926   1.809
 2998SOL    HW1 9893   2.718   0.985   1.736
 2998SOL    HW2 9894   2.687   0.852   1.824
 2999SOL     OW 9895   2.008   4.197   0.853
 2999SOL    HW1 9896   2.072   4.272   0.836
 2999SOL    HW2 9897   2.018   4.129   0.781
 3000SOL     OW 9898   2.026   4.183   5.369
 3000SOL    HW1 9899   1.999   4.263   5.314
 3000SOL    HW2 9900   2.118   4.154   5.343
 3001SOL     OW 9901   4.037   0.802   6.299
 3001SOL    HW1 9902   4.083   0.891   6.306
 3001SOL    HW2 9903   3.951   0.805   6.350
 3002SOL     OW 9904   1.593   1.844   1.950
 3002SOL    HW1 9905   1.639   1.771   2.001
 3002SOL    HW2 9906   1.528   1.891   2.010
 3003SOL     OW 9907   1.584   5.881   0.854
 3003SOL    HW1 9908   1.618   5.935   0.776
 3003SOL    HW2 9909   1.521   5.937   0.908
 3004SOL     OW 9910   2.858   6.704   3.784
 3004SOL    HW1 9911   2.833   6.645   3.707
 3004SOL    HW2 9912   2.888   6.793   3.750
 3005SOL     OW 9913   2.606   1.676   0.904
 3005SOL    HW1 9914   2.546   1.747   0.940
 3005SOL    HW2 9915   2.604   1.597   0.965
 3006SOL     OW 9916   5.644   1.435   5.786
 3006SOL    HW1 9917   5.606   1.367   5.849
 3006SOL    HW2 9918   5.716   1.392   5.731
 3007SOL     OW 9919   6.209   5.440   6.308
 3007SOL    HW1 9920   6.203   5.340   6.305
 3007SOL    HW2 9921   6.291   5.470   6.259
 3008SOL     OW 9922   4.792   4.131   5.590
 3008SOL    HW1 9923   4.868   4.065   5.586
 3008SOL    HW2 9924   4.736   4.122   5.508
 3009SOL     OW 9925   5.618   3.376   2.073
 3009SOL    HW1 9926   5.681   3.358   1.998
 3009SOL    HW2 9927   5.555   3.449   2.047
 3010SOL     OW 9928   4.779   4.851   1.949
 3010SOL    HW1 9929   4.746   4.777   2.008
 3010SOL    HW2 9930   4.850   4.816   1.888
 3011SOL     OW 9931   5.936   0.292   0.570
 3011SOL    HW1 9932   5.952   0.323   0.476
 3011SOL    HW2 9933   5.942   0.371   0.632
 3012SOL     OW 9934   1.716   1.704   4.559
 3012SOL    HW1 9935   1.804   1.691   4.605
 3012SOL    HW2 9936   1.650   1.743   4.623
 3013SOL     OW 9937   0.777   4.799   5.686
 3013SOL    HW1 9938   0.783   4.722   5.623
 3013SOL    HW2 9939   0.857   4.800   5.746
 3014SOL     OW 9940   4.983   0.052   6.617
 3014SOL    HW1 9941   4.936   6.984   6.623
 3014SOL    HW2 9942   4.932   0.121   6.669
 3015SOL     OW 9943   2.292   0.576   5.722
 3015SOL    HW1 9944   2.239   0.642   5.670
 3015SOL    HW2 9945   2.334   0.621   5.801
 3016SOL     OW 9946   2.106   0.535   4.023
 3016SOL    HW1 9947   2.100   0.511   4.120
 3016SOL    HW2 9948   2.165   0.615   4.013
 3017SOL     OW 9949   1.391   5.675   0.477
 3017SOL    HW1 9950   1.317   5.609   0.459
 3017SOL    HW2 9951   1.436   5.650   0.563
 3018SOL     OW 9952   3.281   1.766   1.991
 3018SOL    HW1 9953   3.190   1.770   1.950
 3018SOL    HW2 9954   3.288   1.835   2.062
 3019SOL     OW 9955   1.846   0.085   5.948
 3019SOL    HW1 9956   1.801   0.152   6.007
 3019SOL    HW2 9957   1.880   0.132   5.866
 3020SOL     OW 9958   5.165   4.675   6.726
 3020SOL    HW1 9959   5.218   4.694   6.643
 3020SOL    HW2 9960   5.209   4.717   6.805
 3021SOL     OW 9961   4.686   0.363   4.576
 3021SOL    HW1 9962   4.610   0.305   4.605
 3021SOL    HW2 9963   4.694   0.360   4.476
 3022SOL     OW 9964   3.994   6.143   3.976
 3022SOL    HW1 9965   4.052   6.224   3.984
 3022SOL    HW2 9966   4.028   6.070   4.036
 3023SOL     OW 9967   5.710   4.676   4.985
 3023SOL    HW1 9968   5.626   4.622   4.981
 3023SOL    HW2 9969   5.745   4.676   5.078
 3024SOL     OW 9970   0.369   1.018   0.124
 3024SOL    HW1 9971   0.372   1.111   0.086
 3024SOL    HW2 9972   0.362   1.023   0.224
 3025SOL     OW 9973   4.142   5.170   0.669
 3025SOL    HW1 9974   4.155   5.181   0.768
 3025SOL    HW2 9975   4.052   5.129   0.652
 3026SOL     OW 9976   0.420   0.555   2.141
 3026SOL    HW1 9977   0.448   0.595   2.228
 3026SOL    HW2 9978   0.356   0.616   2.095
 3027SOL     OW 9979   4.146   6.755   0.702
 3027SOL    HW1 9980   4.187   6.697   0.631
 3027SOL    HW2 9981   4.218   6.790   0.762
 3028SOL     OW 9982   3.733   3.467   4.477
 3028SOL    HW1 9983   3.709   3.384   4.428
 3028SOL    HW2 9984   3.738   3.544   4.413
 3029SOL     OW 9985   6.742   3.488   4.857
 3029SOL    HW1 9986   6.815   3.423   4.879
 3029SOL    HW2 9987   6.657   3.457   4.898
 3030SOL     OW 9988   1.368   2.858   6.567
 3030SOL    HW1 9989   1.376   2.892   6.661
 3030SOL    HW2 9990   1.459   2.833   6.533
 3031SOL     OW 9991   0.496   5.562   0.889
 3031SOL    HW1 9992   0.556   5.640   0.873
 3031SOL    HW2 9993   0.505   5.497   0.813
 3032SOL     OW 9994   2.454   6.776   3.701
 3032SOL    HW1 9995   2.388   6.849   3.718
 3032SOL    HW2 9996   2.524   6.808   3.637
 3033SOL     OW 9997   1.556   1.743   6.109
 3033SOL    HW1 9998   1.616   1.736   6.029
 3033SOL    HW2 9999   1.461   1.725   6.081
 3034SOL     OW10000   5.243   3.038   3.234
 3034SOL    HW110001   5.327   2.983   3.236
 3034SOL    HW210002   5.245   3.097   3.153
 3035SOL     OW10003   0.011   3.685   6.782
 3035SOL    HW110004   0.037   3.781   6.784
 3035SOL    HW210005   0.093   3.628   6.772
 3036SOL     OW10006   3.444   2.678   5.766
 3036SOL    HW110007   3.512   2.738   5.807
 3036SOL    HW210008   3.358   2.686   5.816
 3037SOL     OW10009   1.008   5.145   6.874
 3037SOL    HW110010   1.101   5.170   6.900
 3037SOL    HW210011   1.010   5.064   6.815
 3038SOL     OW10012   5.740   5.283   6.369
 3038SOL    HW110013   5.825   5.231   6.380
 3038SOL    HW210014   5.672   5.227   6.323
 3039SOL     OW10015   5.546   3.848   5.743
 3039SOL    HW110016   5.577   3.869   5.836
 3039SOL    HW210017   5.603   3.898   5.678
 3040SOL     OW10018   4.432   6.183   5.836
 3040SOL    HW110019   4.358   6.248   5.820
 3040SOL    HW210020   4.520   6.231   5.838
 3041SOL     OW10021   1.315   5.194   6.083
 3041SOL    HW110022   1.332   5.284   6.042
 3041SOL    HW210023   1.399   5.140   6.081
 3042SOL     OW10024   0.260   4.821   3.861
 3042SOL    HW110025   0.183   4.854   3.806
 3042SOL    HW210026   0.260   4.866   3.950
 3043SOL     OW10027   2.847   4.605   1.487
 3043SOL    HW110028   2.846   4.663   1.569
 3043SOL    HW210029   2.929   4.548   1.489
 3044SOL     OW10030   3.911   3.523   4.702
 3044SOL    HW110031   3.993   3.472   4.727
 3044SOL    HW210032   3.869   3.480   4.622
 3045SOL     OW10033   5.298   1.469   2.402
 3045SOL    HW110034   5.394   1.441   2.403
 3045SOL    HW210035   5.248   1.417   2.472
 3046SOL     OW10036   5.989   6.571   1.688
 3046SOL    HW110037   6.012   6.652   1.634
 3046SOL    HW210038   5.900   6.584   1.733
 3047SOL     OW10039   6.318   1.368   4.274
 3047SOL    HW110040   6.231   1.329   4.304
 3047SOL    HW210041   6.382   1.294   4.251
 3048SOL     OW10042   4.526   4.752   1.767
 3048SOL    HW110043   4.535   4.654   1.751
 3048SOL    HW210044   4.563   4.774   1.858
 3049SOL     OW10045   0.981   1.928   2.406
 3049SOL    HW110046   1.054   1.911   2.472
 3049SOL    HW210047   0.934   1.843   2.385
 3050SOL     OW10048   3.227   2.369   6.295
 3050SOL    HW110049   3.213   2.458   6.338
 3050SOL    HW210050   3.203   2.296   6.358
 3051SOL     OW10051   2.443   5.217   5.809
 3051SOL    HW110052   2.444   5.316   5.794
 3051SOL    HW210053   2.352   5.181   5.790
 3052SOL     OW10054   0.107   6.559   3.801
 3052SOL    HW110055   0.081   6.656   3.808
 3052SOL    HW210056   0.025   6.505   3.783
 3053SOL     OW10057   0.889   4.347   6.924
 3053SOL    HW110058   0.812   4.348   6.861
 3053SOL    HW210059   0.890   4.262   6.976
 3054SOL     OW10060   5.475   0.155   3.015
 3054SOL    HW110061   5.496   0.201   2.929
 3054SOL    HW210062   5.443   0.062   2.995
 3055SOL     OW10063   5.646   6.251   0.540
 3055SOL    HW110064   5.727   6.207   0.501
 3055SOL    HW210065   5.673   6.333   0.590
 3056SOL     OW10066   4.197   1.414   6.881
 3056SOL    HW110067   4.171   1.394   6.786
 3056SOL    HW210068   4.295   1.435   6.884
 3057SOL     OW10069   5.727   3.930   3.403
 3057SOL    HW110070   5.817   3.926   3.447
 3057SOL    HW210071   5.721   3.857   3.334
 3058SOL     OW10072   0.300   5.639   6.193
 3058SOL    HW110073   0.307   5.585   6.277
 3058SOL    HW210074   0.392   5.661   6.160
 3059SOL     OW10075   1.487   2.654   1.999
 3059SOL    HW110076   1.580   2.689   2.004
 3059SOL    HW210077   1.479   2.570   2.052
 3060SOL     OW10078   5.408   4.347   3.959
 3060SOL    HW110079   5.370   4.274   4.015
 3060SOL    HW210080   5.338   4.382   3.897
 3061SOL     OW10081   5.558   7.002   3.464
 3061SOL    HW110082   5.564   6.906   3.439
 3061SOL    HW210083   5.472   7.018   3.513
 3062SOL     OW10084   4.056   5.100   1.357
 3062SOL    HW110085   3.957   5.099   1.345
 3062SOL    HW210086   4.090   5.006   1.358
 3063SOL     OW10087   6.738   4.895   1.409
 3063SOL    HW110088   6.740   4.797   1.391
 3063SOL    HW210089   6.737   4.911   1.508
 3064SOL     OW10090   4.652   2.122   6.403
 3064SOL    HW110091   4.660   2.049   6.470
 3064SOL    HW210092   4.684   2.208   6.443
 3065SOL     OW10093   5.897   1.293   6.269
 3065SOL    HW110094   5.854   1.206   6.295
 3065SOL    HW210095   5.924   1.342   6.352
 3066SOL     OW10096   5.353   0.240   5.501
 3066SOL    HW110097   5.406   0.206   5.579
 3066SOL    HW210098   5.300   0.320   5.528
 3067SOL     OW10099   1.231   1.890   4.699
 3067SOL    HW110100   1.317   1.938   4.714
 3067SOL    HW210101   1.219   1.819   4.768
 3068SOL     OW10102   6.148   0.094   0.597
 3068SOL    HW110103   6.233   0.124   0.639
 3068SOL    HW210104   6.078   0.164   0.609
 3069SOL     OW10105   5.353   6.261   4.093
 3069SOL    HW110106   5.344   6.270   4.192
 3069SOL    HW210107   5.351   6.352   4.051
 3070SOL     OW10108   2.511   1.075   1.122
 3070SOL    HW110109   2.595   1.065   1.069
 3070SOL    HW210110   2.531   1.124   1.207
 3071SOL     OW10111   5.965   4.783   5.207
 3071SOL    HW110112   5.880   4.751   5.250
 3071SOL    HW210113   5.972   4.882   5.217
 3072SOL     OW10114   1.862   6.601   5.850
 3072SOL    HW110115   1.941   6.589   5.790
 3072SOL    HW210116   1.829   6.695   5.845
 3073SOL     OW10117   0.165   5.953   2.303
 3073SOL    HW110118   0.091   5.981   2.242
 3073SOL    HW210119   0.201   5.865   2.274
 3074SOL     OW10120   3.374   2.677   1.657
 3074SOL    HW110121   3.379   2.676   1.557
 3074SOL    HW210122   3.331   2.592   1.689
 3075SOL     OW10123   4.159   5.086   1.673
 3075SOL    HW110124   4.084   5.041   1.625
 3075SOL    HW210125   4.124   5.165   1.723
 3076SOL     OW10126   0.854   1.148   4.385
 3076SOL    HW110127   0.852   1.112   4.292
 3076SOL    HW210128   0.941   1.124   4.428
 3077SOL     OW10129   6.386   3.523   1.712
 3077SOL    HW110130   6.308   3.575   1.747
 3077SOL    HW210131   6.471   3.572   1.734
 3078SOL     OW10132   0.104   3.710   2.130
 3078SOL    HW110133   0.130   3.676   2.220
 3078SOL    HW210134   0.012   3.678   2.108
 3079SOL     OW10135   1.764   4.245   4.273
 3079SOL    HW110136   1.810   4.167   4.230
 3079SOL    HW210137   1.681   4.213   4.319
 3080SOL     OW10138   4.554   4.921   1.524
 3080SOL    HW110139   4.573   4.840   1.580
 3080SOL    HW210140   4.603   4.999   1.561
 3081SOL     OW10141   2.419   3.630   6.037
 3081SOL    HW110142   2.490   3.696   6.061
 3081SOL    HW210143   2.331   3.678   6.029
 3082SOL     OW10144   5.207   4.223   4.905
 3082SOL    HW110145   5.201   4.321   4.886
 3082SOL    HW210146   5.172   4.205   4.997
 3083SOL     OW10147   3.614   5.613   2.163
 3083SOL    HW110148   3.599   5.553   2.084
 3083SOL    HW210149   3.688   5.677   2.142
 3084SOL     OW10150   6.756   5.465   3.638
 3084SOL    HW110151   6.719   5.544   3.589
 3084SOL    HW210152   6.727   5.381   3.593
 3085SOL     OW10153   5.659   5.356   0.177
 3085SOL    HW110154   5.597   5.313   0.111
 3085SOL    HW210155   5.738   5.297   0.192
 3086SOL     OW10156   6.227   5.966   6.459
 3086SOL    HW110157   6.166   5.899   6.502
 3086SOL    HW210158   6.187   5.996   6.372
 3087SOL     OW10159   3.266   0.120   2.518
 3087SOL    HW110160   3.231   0.210   2.494
 3087SOL    HW210161   3.283   0.116   2.616
 3088SOL     OW10162   2.109   3.842   5.674
 3088SOL    HW110163   2.176   3.916   5.681
 3088SOL    HW210164   2.150   3.763   5.629
 3089SOL     OW10165   4.227   5.561   6.025
 3089SOL    HW110166   4.132   5.542   6.000
 3089SOL    HW210167   4.233   5.655   6.059
 3090SOL     OW10168   0.683   2.555   2.224
 3090SOL    HW110169   0.714   2.545   2.130
 3090SOL    HW210170   0.687   2.651   2.251
 3091SOL     OW10171   1.160   2.700   0.322
 3091SOL    HW110172   1.070   2.657   0.327
 3091SOL    HW210173   1.226   2.643   0.372
 3092SOL     OW10174   6.200   1.276   2.052
 3092SOL    HW110175   6.152   1.253   2.137
 3092SOL    HW210176   6.133   1.291   1.980
 3093SOL     OW10177   6.421   5.214   6.539
 3093SOL    HW110178   6.380   5.151   6.604
 3093SOL    HW210179   6.360   5.225   6.460
 3094SOL     OW10180   2.119   1.414   6.607
 3094SOL    HW110181   2.183   1.407   6.531
 3094SOL    HW210182   2.138   1.341   6.673
 3095SOL     OW10183   1.455   3.976   4.932
 3095SOL    HW110184   1.368   3.994   4.977
 3095SOL    HW210185   1.491   3.888   4.964
 3096SOL     OW10186   1.273   3.416   4.058
 3096SOL    HW110187   1.372   3.409   4.050
 3096SOL    HW210188   1.249   3.498   4.109
 3097SOL     OW10189   5.426   3.021   5.032
 3097SOL    HW110190   5.408   2.923   5.033
 3097SOL    HW210191   5.522   3.037   5.011
 3098SOL     OW10192   1.998   3.120   2.575
 3098SOL    HW110193   1.976   3.197   2.516
 3098SOL    HW210194   1.935   3.045   2.558
 3099SOL     OW10195   0.604   0.021   5.313
 3099SOL    HW110196   0.646   0.003   5.402
 3099SOL    HW210197   0.605   0.120   5.296
 3100SOL     OW10198   5.631   4.772   1.779
 3100SOL    HW110199   5.617   4.863   1.739
 3100SOL    HW210200   5.558   4.711   1.750
 3101SOL     OW10201   5.064   0.110   5.118
 3101SOL    HW110202   5.157   0.074   5.122
 3101SOL    HW210203   5.067   0.207   5.096
 3102SOL     OW10204   5.952   4.659   2.337
 3102SOL    HW110205   5.976   4.755   2.330
 3102SOL    HW210206   5.945   4.620   2.245
 3103SOL     OW10207   2.137   2.123   1.674
 3103SOL    HW110208   2.221   2.151   1.628
 3103SOL    HW210209   2.063   2.118   1.607
 3104SOL     OW10210   5.462   2.526   5.019
 3104SOL    HW110211   5.409   2.442   5.004
 3104SOL    HW210212   5.510   2.519   5.107
 3105SOL     OW10213   5.458   3.874   0.462
 3105SOL    HW110214   5.531   3.869   0.395
 3105SOL    HW210215   5.383   3.929   0.426
 3106SOL     OW10216   5.353   1.717   5.392
 3106SOL    HW110217   5.361   1.630   5.442
 3106SOL    HW210218   5.331   1.698   5.297
 3107SOL     OW10219   3.507   1.980   4.981
 3107SOL    HW110220   3.579   2.044   5.009
 3107SOL    HW210221   3.542   1.920   4.909
 3108SOL     OW10222   2.149   3.957   3.392
 3108SOL    HW110223   2.105   3.870   3.417
 3108SOL    HW210224   2.227   3.939   3.333
 3109SOL     OW10225   6.943   6.257   3.631
 3109SOL    HW110226   0.010   6.265   3.582
 3109SOL    HW210227   6.919   6.347   3.668
 3110SOL     OW10228   0.984   5.435   3.339
 3110SOL    HW110229   0.985   5.335   3.347
 3110SOL    HW210230   1.068   5.465   3.294
 3111SOL     OW10231   5.918   3.992   3.902
 3111SOL    HW110232   5.922   4.068   3.837
 3111SOL    HW210233   5.826   3.953   3.903
 3112SOL     OW10234   4.146   0.714   6.980
 3112SOL    HW110235   4.067   0.663   6.948
 3112SOL    HW210236   4.136   0.811   6.957
 3113SOL     OW10237   1.527   6.933   3.669
 3113SOL    HW110238   1.429   6.922   3.681
 3113SOL    HW210239   1.545   7.019   3.620
 3114SOL     OW10240   4.660   0.067   5.798
 3114SOL    HW110241   4.602   0.020   5.731
 3114SOL    HW210242   4.606   0.136   5.846
 3115SOL     OW10243   5.034   5.522   5.030
 3115SOL    HW110244   5.095   5.600   5.035
 3115SOL    HW210245   5.057   5.466   4.951
 3116SOL     OW10246   0.831   1.132   6.040
 3116SOL    HW110247   0.864   1.045   6.076
 3116SOL    HW210248   0.887   1.207   6.076
 3117SOL     OW10249   4.243   0.221   1.159
 3117SOL    HW110250   4.219   0.263   1.071
 3117SOL    HW210251   4.178   0.149   1.181
 3118SOL     OW10252   1.679   1.850   3.564
 3118SOL    HW110253   1.616   1.844   3.641
 3118SOL    HW210254   1.722   1.940   3.563
 3119SOL     OW10255   5.066   5.735   4.526
 3119SOL    HW110256   5.070   5.682   4.441
 3119SOL    HW210257   5.069   5.833   4.505
 3120SOL     OW10258   2.341   5.078   6.499
 3120SOL    HW110259   2.394   4.997   6.472
 3120SOL    HW210260   2.403   5.157   6.506
 3121SOL     OW10261   4.394   2.368   4.322
 3121SOL    HW110262   4.330   2.309   4.372
 3121SOL    HW210263   4.363   2.379   4.228
 3122SOL     OW10264   5.629   5.083   6.200
 3122SOL    HW110265   5.549   5.134   6.169
 3122SOL    HW210266   5.709   5.112   6.147
 3123SOL     OW10267   1.775   1.784   2.831
 3123SOL    HW110268   1.755   1.858   2.895
 3123SOL    HW210269   1.837   1.817   2.760
 3124SOL     OW10270   4.336   0.143   4.925
 3124SOL    HW110271   4.415   0.198   4.951
 3124SOL    HW210272   4.357   0.046   4.939
 3125SOL     OW10273   1.886   1.426   5.991
 3125SOL    HW110274   1.794   1.439   5.956
 3125SOL    HW210275   1.941   1.507   5.971
 3126SOL     OW10276   4.874   4.710   5.708
 3126SOL    HW110277   4.944   4.726   5.777
 3126SOL    HW210278   4.789   4.682   5.752
 3127SOL     OW10279   0.076   1.794   5.256
 3127SOL    HW110280   7.006   1.758   5.280
 3127SOL    HW210281   0.069   1.892   5.237
 3128SOL     OW10282   3.466   0.056   0.329
 3128SOL    HW110283   3.514   0.047   0.416
 3128SOL    HW210284   3.421   6.990   0.306
 3129SOL     OW10285   4.260   4.036   0.165
 3129SOL    HW110286   4.340   4.090   0.140
 3129SOL    HW210287   4.289   3.944   0.191
 3130SOL     OW10288   0.472   5.807   2.291
 3130SOL    HW110289   0.556   5.767   2.256
 3130SOL    HW210290   0.491   5.898   2.328
 3131SOL     OW10291   6.676   4.245   3.126
 3131SOL    HW110292   6.726   4.159   3.120
 3131SOL    HW210293   6.619   4.245   3.209
 3132SOL     OW10294   5.214   3.881   0.314
 3132SOL    HW110295   5.182   3.942   0.241
 3132SOL    HW210296   5.253   3.798   0.274
 3133SOL     OW10297   5.225   0.029   4.613
 3133SOL    HW110298   5.254   6.990   4.688
 3133SOL    HW210299   5.185   6.993   4.541
 3134SOL     OW10300   5.791   4.875   2.581
 3134SOL    HW110301   5.724   4.907   2.648
 3134SOL    HW210302   5.875   4.849   2.628
 3135SOL     OW10303   3.715   5.761   6.882
 3135SOL    HW110304   3.624   5.802   6.886
 3135SOL    HW210305   3.707   5.662   6.894
 3136SOL     OW10306   6.146   0.544   3.273
 3136SOL    HW110307   6.071   0.610   3.282
 3136SOL    HW210308   6.208   0.572   3.200
 3137SOL     OW10309   4.409   5.549   0.127
 3137SOL    HW110310   4.347   5.621   0.159
 3137SOL    HW210311   4.502   5.585   0.119
 3138SOL     OW10312   6.522   6.429   5.303
 3138SOL    HW110313   6.550   6.523   5.282
 3138SOL    HW210314   6.443   6.431   5.364
 3139SOL     OW10315   2.231   5.065   1.476
 3139SOL    HW110316   2.289   5.040   1.398
 3139SOL    HW210317   2.290   5.094   1.552
 3140SOL     OW10318   6.341   5.920   0.090
 3140SOL    HW110319   6.250   5.942   0.124
 3140SOL    HW210320   6.366   5.828   0.119
 3141SOL     OW10321   5.843   1.916   6.460
 3141SOL    HW110322   5.827   1.822   6.431
 3141SOL    HW210323   5.857   1.918   6.559
 3142SOL     OW10324   4.635   0.745   3.874
 3142SOL    HW110325   4.537   0.758   3.888
 3142SOL    HW210326   4.667   0.807   3.802
 3143SOL     OW10327   6.766   1.494   1.121
 3143SOL    HW110328   6.699   1.559   1.158
 3143SOL    HW210329   6.818   1.538   1.049
 3144SOL     OW10330   3.357   4.229   0.202
 3144SOL    HW110331   3.403   4.235   0.291
 3144SOL    HW210332   3.311   4.316   0.183
 3145SOL     OW10333   0.502   5.764   0.070
 3145SOL    HW110334   0.599   5.783   0.054
 3145SOL    HW210335   0.452   5.850   0.070
 3146SOL     OW10336   6.709   1.905   4.657
 3146SOL    HW110337   6.717   1.867   4.749
 3146SOL    HW210338   6.619   1.882   4.619
 3147SOL     OW10339   4.193   6.921   0.159
 3147SOL    HW110340   4.203   7.015   0.127
 3147SOL    HW210341   4.166   6.921   0.256
 3148SOL     OW10342   7.014   4.799   1.631
 3148SOL    HW110343   6.925   4.845   1.640
 3148SOL    HW210344   7.002   4.701   1.652
 3149SOL     OW10345   3.685   2.899   0.077
 3149SOL    HW110346   3.628   2.981   0.065
 3149SOL    HW210347   3.626   2.821   0.097
 3150SOL     OW10348   6.750   6.979   6.030
 3150SOL    HW110349   6.712   0.050   6.019
 3150SOL    HW210350   6.677   6.911   6.021
 3151SOL     OW10351   7.003   0.832   5.356
 3151SOL    HW110352   6.931   0.901   5.346
 3151SOL    HW210353   0.070   0.870   5.326
 3152SOL     OW10354   2.025   2.363   5.721
 3152SOL    HW110355   2.056   2.316   5.804
 3152SOL    HW210356   2.003   2.458   5.744
 3153SOL     OW10357   5.248   5.290   1.994
 3153SOL    HW110358   5.208   5.349   2.063
 3153SOL    HW210359   5.348   5.301   1.994
 3154SOL     OW10360   3.993   1.577   0.507
 3154SOL    HW110361   4.063   1.638   0.470
 3154SOL    HW210362   4.024   1.539   0.594
 3155SOL     OW10363   0.640   5.029   6.962
 3155SOL    HW110364   0.543   5.055   6.964
 3155SOL    HW210365   0.685   5.072   6.883
 3156SOL     OW10366   4.495   4.539   0.834
 3156SOL    HW110367   4.411   4.583   0.804
 3156SOL    HW210368   4.570   4.605   0.832
 3157SOL     OW10369   1.166   1.015   4.872
 3157SOL    HW110370   1.121   1.067   4.944
 3157SOL    HW210371   1.107   0.940   4.843
 3158SOL     OW10372   2.268   0.871   5.764
 3158SOL    HW110373   2.266   0.944   5.832
 3158SOL    HW210374   2.355   0.873   5.715
 3159SOL     OW10375   4.912   0.189   1.307
 3159SOL    HW110376   4.922   0.090   1.303
 3159SOL    HW210377   4.859   0.220   1.228
 3160SOL     OW10378   1.849   0.897   5.356
 3160SOL    HW110379   1.874   0.970   5.292
 3160SOL    HW210380   1.770   0.847   5.320
 3161SOL     OW10381   1.810   3.073   1.998
 3161SOL    HW110382   1.811   3.172   2.008
 3161SOL    HW210383   1.724   3.044   1.957
 3162SOL     OW10384   1.252   5.526   1.612
 3162SOL    HW110385   1.231   5.607   1.557
 3162SOL    HW210386   1.210   5.535   1.703
 3163SOL     OW10387   4.470   4.267   0.476
 3163SOL    HW110388   4.384   4.276   0.526
 3163SOL    HW210389   4.476   4.338   0.405
 3164SOL     OW10390   2.401   6.877   4.277
 3164SOL    HW110391   2.458   6.798   4.298
 3164SOL    HW210392   2.372   6.921   4.362
 3165SOL     OW10393   1.301   6.072   6.002
 3165SOL    HW110394   1.273   6.097   5.910
 3165SOL    HW210395   1.264   6.139   6.067
 3166SOL     OW10396   4.322   1.347   5.168
 3166SOL    HW110397   4.259   1.330   5.244
 3166SOL    HW210398   4.326   1.445   5.149
 3167SOL     OW10399   5.771   3.042   1.138
 3167SOL    HW110400   5.723   3.103   1.075
 3167SOL    HW210401   5.854   3.086   1.171
 3168SOL     OW10402   4.812   1.297   0.429
 3168SOL    HW110403   4.717   1.293   0.398
 3168SOL    HW210404   4.866   1.227   0.382
 3169SOL     OW10405   1.482   3.910   1.820
 3169SOL    HW110406   1.456   3.829   1.873
 3169SOL    HW210407   1.409   3.932   1.756
 3170SOL     OW10408   2.268   4.046   3.757
 3170SOL    HW110409   2.307   3.979   3.693
 3170SOL    HW210410   2.213   3.999   3.826
 3171SOL     OW10411   5.415   1.657   4.134
 3171SOL    HW110412   5.433   1.734   4.195
 3171SOL    HW210413   5.322   1.663   4.099
 3172SOL     OW10414   5.521   4.503   1.458
 3172SOL    HW110415   5.589   4.564   1.419
 3172SOL    HW210416   5.483   4.543   1.541
 3173SOL     OW10417   4.995   2.100   0.478
 3173SOL    HW110418   4.986   2.019   0.536
 3173SOL    HW210419   4.934   2.172   0.512
 3174SOL     OW10420   3.467   2.611   6.483
 3174SOL    HW110421   3.555   2.601   6.437
 3174SOL    HW210422   3.411   2.677   6.432
 3175SOL     OW10423   5.485   0.066   5.675
 3175SOL    HW110424   5.491   6.986   5.672
 3175SOL    HW210425   5.561   0.102   5.730
 3176SOL     OW10426   0.078   4.948   3.503
 3176SOL    HW110427   0.177   4.940   3.507
 3176SOL    HW210428   0.048   5.028   3.556
 3177SOL     OW10429   5.291   2.987   3.783
 3177SOL    HW110430   5.258   3.082   3.786
 3177SOL    HW210431   5.335   2.970   3.695
 3178SOL     OW10432   0.661   0.843   2.213
 3178SOL    HW110433   0.667   0.857   2.114
 3178SOL    HW210434   0.565   0.837   2.240
 3179SOL     OW10435   0.839   2.425   2.404
 3179SOL    HW110436   0.804   2.498   2.346
 3179SOL    HW210437   0.879   2.463   2.487
 3180SOL     OW10438   0.187   6.461   6.721
 3180SOL    HW110439   0.137   6.416   6.795
 3180SOL    HW210440   0.220   6.550   6.752
 3181SOL     OW10441   1.049   6.287   5.546
 3181SOL    HW110442   0.963   6.269   5.594
 3181SOL    HW210443   1.047   6.379   5.506
 3182SOL     OW10444   2.025   0.276   1.062
 3182SOL    HW110445   1.966   0.346   1.102
 3182SOL    HW210446   1.998   0.186   1.097
 3183SOL     OW10447   4.210   3.222   1.088
 3183SOL    HW110448   4.190   3.283   1.010
 3183SOL    HW210449   4.126   3.181   1.120
 3184SOL     OW10450   6.458   1.596   4.221
 3184SOL    HW110451   6.402   1.520   4.255
 3184SOL    HW210452   6.530   1.616   4.287
 3185SOL     OW10453   0.794   5.967   6.736
 3185SOL    HW110454   0.847   6.046   6.706
 3185SOL    HW210455   0.818   5.945   6.831
 3186SOL     OW10456   0.102   2.618   6.505
 3186SOL    HW110457   0.004   2.641   6.497
 3186SOL    HW210458   0.136   2.649   6.594
 3187SOL     OW10459   5.179   6.908   2.606
 3187SOL    HW110460   5.183   7.008   2.602
 3187SOL    HW210461   5.254   6.874   2.662
 3188SOL     OW10462   1.925   6.503   0.601
 3188SOL    HW110463   1.849   6.544   0.550
 3188SOL    HW210464   1.889   6.446   0.674
 3189SOL     OW10465   2.923   1.729   5.697
 3189SOL    HW110466   3.015   1.766   5.686
 3189SOL    HW210467   2.927   1.649   5.757
 3190SOL     OW10468   5.984   6.209   4.285
 3190SOL    HW110469   5.942   6.118   4.276
 3190SOL    HW210470   5.919   6.271   4.330
 3191SOL     OW10471   3.665   5.484   1.568
 3191SOL    HW110472   3.662   5.501   1.469
 3191SOL    HW210473   3.738   5.418   1.588
 3192SOL     OW10474   5.465   0.797   2.807
 3192SOL    HW110475   5.563   0.817   2.820
 3192SOL    HW210476   5.413   0.834   2.884
 3193SOL     OW10477   3.266   6.435   5.051
 3193SOL    HW110478   3.208   6.429   4.970
 3193SOL    HW210479   3.336   6.363   5.047
 3194SOL     OW10480   1.775   0.203   6.494
 3194SOL    HW110481   1.809   0.161   6.578
 3194SOL    HW210482   1.756   0.132   6.427
 3195SOL     OW10483   1.022   0.774   1.097
 3195SOL    HW110484   1.046   0.825   1.179
 3195SOL    HW210485   1.007   0.838   1.021
 3196SOL     OW10486   5.713   0.003   2.895
 3196SOL    HW110487   5.644   7.004   2.965
 3196SOL    HW210488   5.804   7.010   2.934
 3197SOL     OW10489   2.238   0.372   5.981
 3197SOL    HW110490   2.283   0.420   5.905
 3197SOL    HW210491   2.301   0.305   6.020
 3198SOL     OW10492   5.873   2.483   3.713
 3198SOL    HW110493   5.877   2.583   3.705
 3198SOL    HW210494   5.954   2.450   3.761
 3199SOL     OW10495   4.932   3.577   3.024
 3199SOL    HW110496   4.891   3.534   3.104
 3199SOL    HW210497   5.027   3.547   3.014
 3200SOL     OW10498   5.598   3.537   4.202
 3200SOL    HW110499   5.616   3.567   4.296
 3200SOL    HW210500   5.588   3.437   4.200
 3201SOL     OW10501   5.903   3.999   2.244
 3201SOL    HW110502   5.874   4.061   2.316
 3201SOL    HW210503   5.980   3.944   2.276
 3202SOL     OW10504   2.711   3.361   6.824
 3202SOL    HW110505   2.706   3.404   6.733
 3202SOL    HW210506   2.806   3.365   6.857
 3203SOL     OW10507   3.380   6.486   1.886
 3203SOL    HW110508   3.285   6.469   1.859
 3203SOL    HW210509   3.399   6.584   1.880
 3204SOL     OW10510   3.849   1.162   4.274
 3204SOL    HW110511   3.755   1.173   4.306
 3204SOL    HW210512   3.907   1.132   4.351
 3205SOL     OW10513   4.978   3.176   5.910
 3205SOL    HW110514   4.924   3.151   5.830
 3205SOL    HW210515   4.918   3.208   5.983
 3206SOL     OW10516   2.394   4.238   1.373
 3206SOL    HW110517   2.460   4.309   1.348
 3206SOL    HW210518   2.440   4.168   1.428
 3207SOL     OW10519   2.176   5.402   4.756
 3207SOL    HW110520   2.262   5.385   4.708
 3207SOL    HW210521   2.180   5.362   4.848
 3208SOL     OW10522   6.331   4.812   6.455
 3208SOL    HW110523   6.385   4.800   6.372
 3208SOL    HW210524   6.356   4.899   6.499
 3209SOL     OW10525   5.169   6.738   6.490
 3209SOL    HW110526   5.169   6.638   6.489
 3209SOL    HW210527   5.262   6.772   6.471
 3210SOL     OW10528   5.145   5.743   1.917
 3210SOL    HW110529   5.200   5.825   1.931
 3210SOL    HW210530   5.198   5.676   1.865
 3211SOL     OW10531   2.000   6.400   6.451
 3211SOL    HW110532   1.924   6.407   6.386
 3211SOL    HW210533   2.037   6.307   6.449
 3212SOL     OW10534   2.814   6.568   3.571
 3212SOL    HW110535   2.746   6.584   3.499
 3212SOL    HW210536   2.903   6.600   3.541
 3213SOL     OW10537   1.266   6.659   6.234
 3213SOL    HW110538   1.207   6.737   6.212
 3213SOL    HW210539   1.341   6.690   6.292
 3214SOL     OW10540   4.074   0.730   2.864
 3214SOL    HW110541   4.073   0.716   2.765
 3214SOL    HW210542   4.130   0.810   2.886
 3215SOL     OW10543   2.035   3.104   1.611
 3215SOL    HW110544   2.121   3.053   1.613
 3215SOL    HW210545   2.041   3.182   1.674
 3216SOL     OW10546   5.830   4.698   1.096
 3216SOL    HW110547   5.886   4.620   1.069
 3216SOL    HW210548   5.889   4.773   1.127
 3217SOL     OW10549   0.106   5.900   2.575
 3217SOL    HW110550   0.010   5.890   2.550
 3217SOL    HW210551   0.161   5.908   2.492
 3218SOL     OW10552   5.675   1.392   2.713
 3218SOL    HW110553   5.756   1.418   2.661
 3218SOL    HW210554   5.596   1.389   2.651
 3219SOL     OW10555   6.463   1.761   4.879
 3219SOL    HW110556   6.537   1.695   4.896
 3219SOL    HW210557   6.377   1.712   4.869
 3220SOL     OW10558   0.072   4.187   5.852
 3220SOL    HW110559   0.079   4.268   5.911
 3220SOL    HW210560   6.996   4.162   5.841
 3221SOL     OW10561   3.598   1.760   1.997
 3221SOL    HW110562   3.639   1.676   2.032
 3221SOL    HW210563   3.668   1.813   1.949
 3222SOL     OW10564   3.173   1.121   3.262
 3222SOL    HW110565   3.247   1.078   3.209
 3222SOL    HW210566   3.086   1.106   3.216
 3223SOL     OW10567   1.580   5.216   0.414
 3223SOL    HW110568   1.487   5.252   0.420
 3223SOL    HW210569   1.579   5.118   0.434
 3224SOL     OW10570   4.445   1.915   4.200
 3224SOL    HW110571   4.476   1.856   4.125
 3224SOL    HW210572   4.352   1.888   4.227
 3225SOL     OW10573   4.504   1.250   4.927
 3225SOL    HW110574   4.594   1.217   4.956
 3225SOL    HW210575   4.439   1.173   4.926
 3226SOL     OW10576   6.034   0.729   0.745
 3226SOL    HW110577   5.955   0.785   0.771
 3226SOL    HW210578   6.006   0.663   0.675
 3227SOL     OW10579   5.750   4.631   5.285
 3227SOL    HW110580   5.653   4.607   5.280
 3227SOL    HW210581   5.771   4.664   5.377
 3228SOL     OW10582   2.727   4.386   0.411
 3228SOL    HW110583   2.687   4.299   0.440
 3228SOL    HW210584   2.756   4.438   0.491
 3229SOL     OW10585   1.844   1.912   0.730
 3229SOL    HW110586   1.936   1.947   0.743
 3229SOL    HW210587   1.839   1.817   0.762
 3230SOL     OW10588   3.199   5.902   5.370
 3230SOL    HW110589   3.189   5.910   5.271
 3230SOL    HW210590   3.154   5.980   5.414
 3231SOL     OW10591   2.080   2.242   3.096
 3231SOL    HW110592   2.094   2.212   3.190
 3231SOL    HW210593   1.994   2.292   3.089
 3232SOL     OW10594   3.820   5.042   4.215
 3232SOL    HW110595   3.808   5.035   4.116
 3232SOL    HW210596   3.788   5.131   4.246
 3233SOL     OW10597   1.423   0.219   0.055
 3233SOL    HW110598   1.404   0.163   6.994
 3233SOL    HW210599   1.414   0.316   0.031
 3234SOL     OW10600   2.937   3.272   0.675
 3234SOL    HW110601   2.934   3.345   0.606
 3234SOL    HW210602   3.000   3.201   0.644
 3235SOL     OW10603   0.839   0.620   3.342
 3235SOL    HW110604   0.790   0.589   3.424
 3235SOL    HW210605   0.928   0.576   3.338
 3236SOL     OW10606   4.605   0.882   0.157
 3236SOL    HW110607   4.668   0.806   0.172
 3236SOL    HW210608   4.511   0.852   0.173
 3237SOL     OW10609   5.808   1.617   5.462
 3237SOL    HW110610   5.713   1.588   5.451
 3237SOL    HW210611   5.811   1.707   5.504
 3238SOL     OW10612   6.399   4.652   1.692
 3238SOL    HW110613   6.300   4.648   1.676
 3238SOL    HW210614   6.446   4.673   1.606
 3239SOL     OW10615   6.956   0.265   4.931
 3239SOL    HW110616   0.023   0.218   4.944
 3239SOL    HW210617   6.971   0.364   4.937
 3240SOL     OW10618   0.076   0.814   0.143
 3240SOL    HW110619   0.128   0.825   0.228
 3240SOL    HW210620   7.007   0.858   0.153
 3241SOL     OW10621   6.567   3.048   5.555
 3241SOL    HW110622   6.651   3.096   5.531
 3241SOL    HW210623   6.541   3.071   5.649
 3242SOL     OW10624   6.613   3.840   4.479
 3242SOL    HW110625   6.632   3.872   4.387
 3242SOL    HW210626   6.687   3.868   4.541
 3243SOL     OW10627   5.829   4.449   4.016
 3243SOL    HW110628   5.868   4.524   4.070
 3243SOL    HW210629   5.877   4.443   3.928
 3244SOL     OW10630   5.072   6.734   0.642
 3244SOL    HW110631   5.103   6.656   0.588
 3244SOL    HW210632   5.152   6.781   0.681
 3245SOL     OW10633   3.601   6.746   5.075
 3245SOL    HW110634   3.521   6.751   5.017
 3245SOL    HW210635   3.604   6.825   5.136
 3246SOL     OW10636   6.916   0.211   2.838
 3246SOL    HW110637   7.005   0.250   2.817
 3246SOL    HW210638   6.864   0.200   2.753
 3247SOL     OW10639   1.158   4.426   3.455
 3247SOL    HW110640   1.109   4.346   3.490
 3247SOL    HW210641   1.107   4.466   3.379
 3248SOL     OW10642   5.388   2.410   3.468
 3248SOL    HW110643   5.341   2.334   3.513
 3248SOL    HW210644   5.486   2.401   3.482
 3249SOL     OW10645   3.137   3.123   3.543
 3249SOL    HW110646   3.178   3.122   3.452
 3249SOL    HW210647   3.181   3.054   3.600
 3250SOL     OW10648   4.579   5.813   2.893
 3250SOL    HW110649   4.584   5.782   2.799
 3250SOL    HW210650   4.486   5.803   2.927
 3251SOL     OW10651   2.997   2.186   2.701
 3251SOL    HW110652   2.958   2.192   2.793
 3251SOL    HW210653   2.946   2.118   2.647
 3252SOL     OW10654   1.791   1.510   3.186
 3252SOL    HW110655   1.890   1.503   3.178
 3252SOL    HW210656   1.768   1.593   3.237
 3253SOL     OW10657   6.370   3.088   0.074
 3253SOL    HW110658   6.288   3.032   0.071
 3253SOL    HW210659   6.430   3.063   7.018
 3254SOL     OW10660   6.511   6.620   1.434
 3254SOL    HW110661   6.510   6.537   1.490
 3254SOL    HW210662   6.436   6.680   1.462
 3255SOL     OW10663   4.189   6.085   1.785
 3255SOL    HW110664   4.226   6.003   1.829
 3255SOL    HW210665   4.177   6.068   1.687
 3256SOL     OW10666   4.829   2.445   1.134
 3256SOL    HW110667   4.793   2.391   1.057
 3256SOL    HW210668   4.770   2.431   1.214
 3257SOL     OW10669   3.042   1.636   3.172
 3257SOL    HW110670   3.002   1.724   3.198
 3257SOL    HW210671   2.980   1.562   3.197
 3258SOL     OW10672   1.494   5.315   4.450
 3258SOL    HW110673   1.580   5.366   4.442
 3258SOL    HW210674   1.464   5.286   4.359
 3259SOL     OW10675   5.454   3.919   4.076
 3259SOL    HW110676   5.422   3.826   4.060
 3259SOL    HW210677   5.471   3.932   4.173
 3260SOL     OW10678   1.563   4.706   3.368
 3260SOL    HW110679   1.564   4.617   3.323
 3260SOL    HW210680   1.587   4.696   3.464
 3261SOL     OW10681   5.533   0.079   4.267
 3261SOL    HW110682   5.506   0.118   4.179
 3261SOL    HW210683   5.499   0.137   4.341
 3262SOL     OW10684   3.106   1.605   3.477
 3262SOL    HW110685   3.122   1.579   3.573
 3262SOL    HW210686   3.064   1.529   3.429
 3263SOL     OW10687   6.854   0.928   1.824
 3263SOL    HW110688   6.867   0.888   1.733
 3263SOL    HW210689   6.939   0.970   1.855
 3264SOL     OW10690   1.663   4.843   6.777
 3264SOL    HW110691   1.657   4.912   6.849
 3264SOL    HW210692   1.582   4.784   6.780
 3265SOL     OW10693   6.969   5.618   6.674
 3265SOL    HW110694   6.958   5.519   6.689
 3265SOL    HW210695   0.015   5.654   6.739
 3266SOL     OW10696   3.521   4.955   5.723
 3266SOL    HW110697   3.580   4.878   5.697
 3266SOL    HW210698   3.570   5.041   5.708
 3267SOL     OW10699   3.892   6.450   0.601
 3267SOL    HW110700   3.855   6.537   0.631
 3267SOL    HW210701   3.970   6.425   0.658
 3268SOL     OW10702   5.775   5.173   1.797
 3268SOL    HW110703   5.806   5.078   1.794
 3268SOL    HW210704   5.797   5.212   1.886
 3269SOL     OW10705   1.516   4.975   1.858
 3269SOL    HW110706   1.436   4.915   1.863
 3269SOL    HW210707   1.494   5.054   1.801
 3270SOL     OW10708   0.960   2.802   5.803
 3270SOL    HW110709   1.051   2.826   5.838
 3270SOL    HW210710   0.951   2.703   5.798
 3271SOL     OW10711   0.899   3.751   1.182
 3271SOL    HW110712   0.954   3.695   1.120
 3271SOL    HW210713   0.957   3.784   1.256
 3272SOL     OW10714   4.424   5.930   0.403
 3272SOL    HW110715   4.363   6.009   0.399
 3272SOL    HW210716   4.372   5.849   0.429
 3273SOL     OW10717   3.962   3.830   6.706
 3273SOL    HW110718   3.948   3.756   6.772
 3273SOL    HW210719   3.941   3.796   6.614
 3274SOL     OW10720   5.328   0.052   1.919
 3274SOL    HW110721   5.368   0.138   1.950
 3274SOL    HW210722   5.392   6.997   1.935
 3275SOL     OW10723   5.020   0.633   1.566
 3275SOL    HW110724   4.959   0.604   1.492
 3275SOL    HW210725   5.020   0.563   1.638
 3276SOL     OW10726   5.738   6.308   6.987
 3276SOL    HW110727   5.742   6.282   0.063
 3276SOL    HW210728   5.808   6.259   6.936
 3277SOL     OW10729   3.155   1.697   2.357
 3277SOL    HW110730   3.253   1.715   2.368
 3277SOL    HW210731   3.116   1.767   2.297
 3278SOL     OW10732   5.667   0.819   6.428
 3278SOL    HW110733   5.735   0.750   6.453
 3278SOL    HW210734   5.581   0.801   6.475
 3279SOL     OW10735   3.676   0.260   1.331
 3279SOL    HW110736   3.673   0.162   1.347
 3279SOL    HW210737   3.614   0.307   1.394
 3280SOL     OW10738   6.485   3.595   4.253
 3280SOL    HW110739   6.417   3.664   4.279
 3280SOL    HW210740   6.573   3.618   4.295
 3281SOL     OW10741   6.171   2.555   1.523
 3281SOL    HW110742   6.252   2.613   1.530
 3281SOL    HW210743   6.177   2.499   1.440
 3282SOL     OW10744   0.343   5.208   5.146
 3282SOL    HW110745   0.370   5.185   5.239
 3282SOL    HW210746   0.269   5.148   5.116
 3283SOL     OW10747   3.207   2.305   6.978
 3283SOL    HW110748   3.300   2.268   6.984
 3283SOL    HW210749   3.141   2.232   6.994
 3284SOL     OW10750   2.143   6.847   4.569
 3284SOL    HW110751   2.094   6.770   4.528
 3284SOL    HW210752   2.233   6.856   4.525
 3285SOL     OW10753   3.618   2.051   4.349
 3285SOL    HW110754   3.535   2.047   4.293
 3285SOL    HW210755   3.617   2.135   4.403
 3286SOL     OW10756   1.574   2.519   2.883
 3286SOL    HW110757   1.630   2.462   2.823
 3286SOL    HW210758   1.531   2.592   2.830
 3287SOL     OW10759   2.468   0.453   0.803
 3287SOL    HW110760   2.421   0.365   0.794
 3287SOL    HW210761   2.420   0.522   0.747
 3288SOL     OW10762   2.300   5.680   1.797
 3288SOL    HW110763   2.210   5.722   1.786
 3288SOL    HW210764   2.367   5.751   1.822
 3289SOL     OW10765   4.536   0.493   6.621
 3289SOL    HW110766   4.549   0.509   6.523
 3289SOL    HW210767   4.441   0.463   6.637
 3290SOL     OW10768   0.540   5.676   0.619
 3290SOL    HW110769   0.460   5.718   0.661
 3290SOL    HW210770   0.533   5.577   0.624
 3291SOL     OW10771   5.207   6.724   5.244
 3291SOL    HW110772   5.295   6.705   5.201
 3291SOL    HW210773   5.217   6.795   5.313
 3292SOL     OW10774   0.126   2.196   0.402
 3292SOL    HW110775   0.032   2.218   0.375
 3292SOL    HW210776   0.169   2.139   0.332
 3293SOL     OW10777   6.235   5.066   3.332
 3293SOL    HW110778   6.213   5.155   3.291
 3293SOL    HW210779   6.213   4.994   3.267
 3294SOL     OW10780   5.094   2.761   5.030
 3294SOL    HW110781   5.058   2.723   4.944
 3294SOL    HW210782   5.193   2.771   5.022
 3295SOL     OW10783   0.992   2.205   2.570
 3295SOL    HW110784   0.948   2.260   2.499
 3295SOL    HW210785   1.091   2.213   2.561
 3296SOL     OW10786   1.758   1.022   5.811
 3296SOL    HW110787   1.844   0.979   5.838
 3296SOL    HW210788   1.695   1.022   5.888
 3297SOL     OW10789   3.984   0.865   5.464
 3297SOL    HW110790   3.968   0.943   5.525
 3297SOL    HW210791   3.969   0.893   5.370
 3298SOL     OW10792   4.243   3.767   5.900
 3298SOL    HW110793   4.200   3.723   5.821
 3298SOL    HW210794   4.200   3.733   5.984
 3299SOL     OW10795   2.323   5.729   3.931
 3299SOL    HW110796   2.288   5.764   4.018
 3299SOL    HW210797   2.389   5.657   3.948
 3300SOL     OW10798   2.326   0.556   3.619
 3300SOL    HW110799   2.251   0.510   3.572
 3300SOL    HW210800   2.310   0.556   3.717
 3301SOL     OW10801   1.074   1.241   3.153
 3301SOL    HW110802   0.978   1.260   3.176
 3301SOL    HW210803   1.134   1.302   3.206
 3302SOL     OW10804   1.420   4.910   5.223
 3302SOL    HW110805   1.487   4.942   5.157
 3302SOL    HW210806   1.467   4.854   5.293
 3303SOL     OW10807   3.265   3.564   0.087
 3303SOL    HW110808   3.306   3.489   0.034
 3303SOL    HW210809   3.307   3.650   0.062
 3304SOL     OW10810   2.027   4.240   0.122
 3304SOL    HW110811   1.978   4.180   0.185
 3304SOL    HW210812   2.126   4.228   0.133
 3305SOL     OW10813   3.364   2.630   0.477
 3305SOL    HW110814   3.395   2.706   0.420
 3305SOL    HW210815   3.297   2.575   0.427
 3306SOL     OW10816   2.327   0.587   6.934
 3306SOL    HW110817   2.277   0.674   6.940
 3306SOL    HW210818   2.425   0.604   6.950
 3307SOL     OW10819   1.689   6.084   4.884
 3307SOL    HW110820   1.732   6.033   4.809
 3307SOL    HW210821   1.653   6.019   4.951
 3308SOL     OW10822   4.263   4.572   1.373
 3308SOL    HW110823   4.332   4.544   1.307
 3308SOL    HW210824   4.179   4.599   1.325
 3309SOL     OW10825   5.230   3.217   3.034
 3309SOL    HW110826   5.295   3.238   2.961
 3309SOL    HW210827   5.185   3.300   3.064
 3310SOL     OW10828   6.268   4.773   6.036
 3310SOL    HW110829   6.255   4.696   6.099
 3310SOL    HW210830   6.180   4.813   6.014
 3311SOL     OW10831   2.365   4.067   6.897
 3311SOL    HW110832   2.460   4.036   6.899
 3311SOL    HW210833   2.311   4.014   6.962
 3312SOL     OW10834   4.776   2.794   6.476
 3312SOL    HW110835   4.699   2.735   6.450
 3312SOL    HW210836   4.861   2.751   6.446
 3313SOL     OW10837   6.907   0.457   4.327
 3313SOL    HW110838   6.978   0.420   4.386
 3313SOL    HW210839   6.859   0.531   4.374
 3314SOL     OW10840   3.977   5.776   2.764
 3314SOL    HW110841   3.900   5.735   2.812
 3314SOL    HW210842   4.031   5.831   2.828
 3315SOL     OW10843   0.693   5.547   4.454
 3315SOL    HW110844   0.751   5.627   4.436
 3315SOL    HW210845   0.748   5.475   4.495
 3316SOL     OW10846   4.602   2.156   6.883
 3316SOL    HW110847   4.697   2.134   6.906
 3316SOL    HW210848   4.591   2.256   6.880
 3317SOL     OW10849   5.069   2.757   2.083
 3317SOL    HW110850   5.093   2.660   2.087
 3317SOL    HW210851   4.972   2.766   2.061
 3318SOL     OW10852   3.052   3.047   0.571
 3318SOL    HW110853   2.958   3.013   0.573
 3318SOL    HW210854   3.116   2.970   0.569
 3319SOL     OW10855   6.741   5.859   3.711
 3319SOL    HW110856   6.799   5.849   3.630
 3319SOL    HW210857   6.687   5.943   3.705
 3320SOL     OW10858   6.022   6.269   1.887
 3320SOL    HW110859   5.989   6.214   1.810
 3320SOL    HW210860   6.121   6.276   1.883
 3321SOL     OW10861   4.801   2.062   0.272
 3321SOL    HW110862   4.847   1.995   0.214
 3321SOL    HW210863   4.849   2.069   0.359
 3322SOL     OW10864   6.171   3.041   0.709
 3322SOL    HW110865   6.240   3.024   0.638
 3322SOL    HW210866   6.167   2.962   0.771
 3323SOL     OW10867   1.850   1.947   1.473
 3323SOL    HW110868   1.783   1.995   1.417
 3323SOL    HW210869   1.816   1.939   1.567
 3324SOL     OW10870   5.294   5.601   5.386
 3324SOL    HW110871   5.327   5.522   5.333
 3324SOL    HW210872   5.302   5.581   5.483
 3325SOL     OW10873   2.562   4.529   5.300
 3325SOL    HW110874   2.517   4.448   5.337
 3325SOL    HW210875   2.560   4.525   5.200
 3326SOL     OW10876   3.534   2.080   2.663
 3326SOL    HW110877   3.455   2.120   2.617
 3326SOL    HW210878   3.591   2.032   2.596
 3327SOL     OW10879   0.787   5.518   6.252
 3327SOL    HW110880   0.833   5.451   6.310
 3327SOL    HW210881   0.854   5.563   6.194
 3328SOL     OW10882   4.788   2.582   5.344
 3328SOL    HW110883   4.723   2.572   5.268
 3328SOL    HW210884   4.742   2.557   5.429
 3329SOL     OW10885   6.456   5.910   5.790
 3329SOL    HW110886   6.538   5.924   5.846
 3329SOL    HW210887   6.392   5.852   5.839
 3330SOL     OW10888   0.067   3.727   2.947
 3330SOL    HW110889   0.160   3.702   2.918
 3330SOL    HW210890   0.018   3.644   2.976
 3331SOL     OW10891   2.206   3.442   0.168
 3331SOL    HW110892   2.134   3.502   0.133
 3331SOL    HW210893   2.184   3.347   0.146
 3332SOL     OW10894   6.558   4.060   1.606
 3332SOL    HW110895   6.588   4.105   1.691
 3332SOL    HW210896   6.511   4.127   1.548
 3333SOL     OW10897   3.532   5.182   6.572
 3333SOL    HW110898   3.437   5.206   6.592
 3333SOL    HW210899   3.537   5.133   6.485
 3334SOL     OW10900   1.918   3.473   1.875
 3334SOL    HW110901   1.977   3.550   1.900
 3334SOL    HW210902   1.974   3.392   1.861
 3335SOL     OW10903   5.917   4.395   4.744
 3335SOL    HW110904   5.933   4.493   4.744
 3335SOL    HW210905   5.986   4.349   4.801
 3336SOL     OW10906   3.010   5.642   6.202
 3336SOL    HW110907   3.078   5.610   6.136
 3336SOL    HW210908   2.920   5.645   6.159
 3337SOL     OW10909   3.700   1.868   0.787
 3337SOL    HW110910   3.787   1.884   0.741
 3337SOL    HW210911   3.657   1.955   0.810
 3338SOL     OW10912   6.786   4.436   0.735
 3338SOL    HW110913   6.859   4.426   0.667
 3338SOL    HW210914   6.698   4.439   0.689
 3339SOL     OW10915   0.647   5.877   6.514
 3339SOL    HW110916   0.690   5.930   6.587
 3339SOL    HW210917   0.581   5.934   6.466
 3340SOL     OW10918   3.936   0.178   1.994
 3340SOL    HW110919   3.949   0.134   2.083
 3340SOL    HW210920   4.015   0.159   1.935
 3341SOL     OW10921   0.757   6.962   1.699
 3341SOL    HW110922   0.711   6.872   1.698
 3341SOL    HW210923   0.696   0.010   1.658
 3342SOL     OW10924   2.610   0.438   4.897
 3342SOL    HW110925   2.692   0.386   4.923
 3342SOL    HW210926   2.621   0.470   4.803
 3343SOL     OW10927   6.642   2.349   1.394
 3343SOL    HW110928   6.658   2.345   1.295
 3343SOL    HW210929   6.728   2.369   1.441
 3344SOL     OW10930   6.883   3.348   5.940
 3344SOL    HW110931   6.835   3.419   5.889
 3344SOL    HW210932   6.895   3.268   5.882
 3345SOL     OW10933   2.839   3.216   5.936
 3345SOL    HW110934   2.869   3.180   5.848
 3345SOL    HW210935   2.871   3.311   5.946
 3346SOL     OW10936   1.688   5.644   2.465
 3346SOL    HW110937   1.760   5.577   2.479
 3346SOL    HW210938   1.715   5.708   2.393
 3347SOL     OW10939   6.108   4.026   4.581
 3347SOL    HW110940   6.129   3.933   4.552
 3347SOL    HW210941   6.012   4.046   4.561
 3348SOL     OW10942   3.898   3.969   2.933
 3348SOL    HW110943   3.836   3.995   2.859
 3348SOL    HW210944   3.977   3.922   2.895
 3349SOL     OW10945   6.075   4.146   6.067
 3349SOL    HW110946   6.019   4.085   6.124
 3349SOL    HW210947   6.168   4.109   6.061
 3350SOL     OW10948   1.671   2.121   0.668
 3350SOL    HW110949   1.730   2.042   0.679
 3350SOL    HW210950   1.724   2.205   0.682
 3351SOL     OW10951   5.631   2.348   0.384
 3351SOL    HW110952   5.627   2.357   0.484
 3351SOL    HW210953   5.712   2.294   0.359
 3352SOL     OW10954   0.513   3.220   0.259
 3352SOL    HW110955   0.438   3.200   0.323
 3352SOL    HW210956   0.561   3.302   0.290
 3353SOL     OW10957   1.936   6.519   6.133
 3353SOL    HW110958   1.982   6.500   6.046
 3353SOL    HW210959   1.891   6.608   6.128
 3354SOL     OW10960   1.250   1.140   2.171
 3354SOL    HW110961   1.267   1.232   2.205
 3354SOL    HW210962   1.227   1.079   2.247
 3355SOL     OW10963   6.695   1.482   2.835
 3355SOL    HW110964   6.688   1.400   2.892
 3355SOL    HW210965   6.687   1.457   2.739
 3356SOL     OW10966   2.133   3.669   6.055
 3356SOL    HW110967   2.090   3.584   6.085
 3356SOL    HW210968   2.073   3.715   5.989
 3357SOL     OW10969   1.938   5.230   2.173
 3357SOL    HW110970   2.017   5.254   2.116
 3357SOL    HW210971   1.964   5.158   2.237
 3358SOL     OW10972   6.846   4.343   2.937
 3358SOL    HW110973   6.930   4.310   2.978
 3358SOL    HW210974   6.768   4.310   2.990
 3359SOL     OW10975   1.260   1.081   1.871
 3359SOL    HW110976   1.230   1.082   1.776
 3359SOL    HW210977   1.351   1.123   1.877
 3360SOL     OW10978   1.600   0.517   6.215
 3360SOL    HW110979   1.608   0.607   6.171
 3360SOL    HW210980   1.505   0.501   6.241
 3361SOL     OW10981   4.818   0.551   2.843
 3361SOL    HW110982   4.816   0.453   2.863
 3361SOL    HW210983   4.856   0.565   2.751
 3362SOL     OW10984   2.239   1.273   5.712
 3362SOL    HW110985   2.234   1.185   5.759
 3362SOL    HW210986   2.264   1.344   5.777
 3363SOL     OW10987   0.180   1.743   6.468
 3363SOL    HW110988   0.087   1.756   6.434
 3363SOL    HW210989   0.204   1.646   6.463
 3364SOL     OW10990   2.003   4.589   6.275
 3364SOL    HW110991   2.020   4.551   6.184
 3364SOL    HW210992   1.950   4.673   6.266
 3365SOL     OW10993   6.015   1.980   5.360
 3365SOL    HW110994   6.052   1.929   5.438
 3365SOL    HW210995   5.970   2.062   5.393
 3366SOL     OW10996   5.199   1.338   6.291
 3366SOL    HW110997   5.196   1.423   6.239
 3366SOL    HW210998   5.213   1.360   6.388
 3367SOL     OW10999   1.623   0.425   2.324
 3367SOL    HW111000   1.717   0.457   2.339
 3367SOL    HW211001   1.575   0.419   2.411
 3368SOL     OW11002   6.287   0.613   6.012
 3368SOL    HW111003   6.190   0.633   6.004
 3368SOL    HW211004   6.340   0.682   5.962
 3369SOL     OW11005   3.715   6.268   5.780
 3369SOL    HW111006   3.783   6.305   5.717
 3369SOL    HW211007   3.709   6.327   5.861
 3370SOL     OW11008   4.773   0.151   4.782
 3370SOL    HW111009   4.697   0.126   4.722
 3370SOL    HW211010   4.834   0.072   4.793
 3371SOL     OW11011   6.942   5.101   1.453
 3371SOL    HW111012   6.887   5.022   1.426
 3371SOL    HW211013   0.018   5.078   1.447
 3372SOL     OW11014   0.589   2.072   2.764
 3372SOL    HW111015   0.666   2.136   2.773
 3372SOL    HW211016   0.599   1.998   2.831
 3373SOL     OW11017   0.615   2.300   6.037
 3373SOL    HW111018   0.518   2.278   6.041
 3373SOL    HW211019   0.652   2.305   6.130
 3374SOL     OW11020   3.401   5.136   5.205
 3374SOL    HW111021   3.489   5.089   5.208
 3374SOL    HW211022   3.387   5.186   5.291
 3375SOL     OW11023   4.017   3.867   5.167
 3375SOL    HW111024   3.974   3.954   5.191
 3375SOL    HW211025   4.043   3.869   5.071
 3376SOL     OW11026   3.011   3.488   2.114
 3376SOL    HW111027   3.010   3.574   2.062
 3376SOL    HW211028   2.954   3.498   2.196
 3377SOL     OW11029   2.886   5.773   5.468
 3377SOL    HW111030   2.883   5.766   5.368
 3377SOL    HW211031   2.893   5.682   5.508
 3378SOL     OW11032   0.733   1.091   1.186
 3378SOL    HW111033   0.750   1.073   1.283
 3378SOL    HW211034   0.727   1.005   1.136
 3379SOL     OW11035   1.030   4.932   6.644
 3379SOL    HW111036   0.954   4.874   6.673
 3379SOL    HW211037   1.031   4.939   6.544
 3380SOL     OW11038   0.906   3.950   6.024
 3380SOL    HW111039   0.854   3.871   6.057
 3380SOL    HW211040   0.897   3.956   5.924
 3381SOL     OW11041   3.312   3.216   0.742
 3381SOL    HW111042   3.278   3.226   0.648
 3381SOL    HW211043   3.238   3.239   0.806
 3382SOL     OW11044   6.532   6.569   0.003
 3382SOL    HW111045   6.462   6.567   6.952
 3382SOL    HW211046   6.558   6.664   0.022
 3383SOL     OW11047   0.280   4.422   2.729
 3383SOL    HW111048   0.365   4.430   2.677
 3383SOL    HW211049   0.206   4.395   2.668
 3384SOL     OW11050   3.527   2.907   4.749
 3384SOL    HW111051   3.514   3.002   4.720
 3384SOL    HW211052   3.437   2.865   4.765
 3385SOL     OW11053   6.490   3.956   3.423
 3385SOL    HW111054   6.552   3.897   3.372
 3385SOL    HW211055   6.401   3.911   3.431
 3386SOL     OW11056   6.198   4.068   5.083
 3386SOL    HW111057   6.110   4.021   5.075
 3386SOL    HW211058   6.258   4.017   5.144
 3387SOL     OW11059   2.945   1.902   3.220
 3387SOL    HW111060   3.011   1.976   3.203
 3387SOL    HW211061   2.868   1.910   3.157
 3388SOL     OW11062   5.250   2.897   2.311
 3388SOL    HW111063   5.256   2.997   2.320
 3388SOL    HW211064   5.187   2.874   2.237
 3389SOL     OW11065   5.109   4.644   3.169
 3389SOL    HW111066   5.092   4.564   3.111
 3389SOL    HW211067   5.022   4.690   3.189
 3390SOL     OW11068   4.918   2.860   5.913
 3390SOL    HW111069   4.914   2.960   5.918
 3390SOL    HW211070   4.892   2.821   6.002
 3391SOL     OW11071   3.842   1.897   4.345
 3391SOL    HW111072   3.762   1.951   4.369
 3391SOL    HW211073   3.838   1.872   4.248
 3392SOL     OW11074   4.755   6.255   3.833
 3392SOL    HW111075   4.850   6.265   3.803
 3392SOL    HW211076   4.728   6.159   3.828
 3393SOL     OW11077   6.656   0.751   0.270
 3393SOL    HW111078   6.631   0.804   0.350
 3393SOL    HW211079   6.742   0.786   0.233
 3394SOL     OW11080   5.780   1.567   1.105
 3394SOL    HW111081   5.732   1.482   1.081
 3394SOL    HW211082   5.789   1.572   1.204
 3395SOL     OW11083   1.202   3.674   4.886
 3395SOL    HW111084   1.198   3.604   4.815
 3395SOL    HW211085   1.250   3.638   4.967
 3396SOL     OW11086   6.968   3.986   4.282
 3396SOL    HW111087   6.993   4.083   4.288
 3396SOL    HW211088   7.014   3.944   4.204
 3397SOL     OW11089   3.031   6.317   5.830
 3397SOL    HW111090   2.946   6.267   5.846
 3397SOL    HW211091   3.096   6.296   5.903
 3398SOL     OW11092   6.930   0.111   4.323
 3398SOL    HW111093   6.846   0.114   4.268
 3398SOL    HW211094   6.911   0.145   4.415
 3399SOL     OW11095   4.444   5.238   4.650
 3399SOL    HW111096   4.399   5.282   4.728
 3399SOL    HW211097   4.379   5.178   4.604
 3400SOL     OW11098   4.379   2.227   6.423
 3400SOL    HW111099   4.472   2.197   6.445
 3400SOL    HW211100   4.332   2.256   6.507
 3401SOL     OW11101   6.259   4.812   0.051
 3401SOL    HW111102   6.249   4.724   0.097
 3401SOL    HW211103   6.227   4.803   6.976
 3402SOL     OW11104   4.862   5.610   2.506
 3402SOL    HW111105   4.781   5.574   2.459
 3402SOL    HW211106   4.930   5.537   2.516
 3403SOL     OW11107   2.839   1.672   5.084
 3403SOL    HW111108   2.791   1.756   5.110
 3403SOL    HW211109   2.890   1.689   4.999
 3404SOL     OW11110   4.471   0.726   1.011
 3404SOL    HW111111   4.504   0.682   1.094
 3404SOL    HW211112   4.371   0.734   1.013
 3405SOL     OW11113   6.069   3.807   0.828
 3405SOL    HW111114   6.064   3.852   0.917
 3405SOL    HW211115   6.048   3.709   0.840
 3406SOL     OW11116   1.359   4.500   1.969
 3406SOL    HW111117   1.450   4.463   1.987
 3406SOL    HW211118   1.292   4.456   2.030
 3407SOL     OW11119   1.184   5.257   2.264
 3407SOL    HW111120   1.219   5.343   2.301
 3407SOL    HW211121   1.231   5.180   2.307
 3408SOL     OW11122   5.204   3.514   2.976
 3408SOL    HW111123   5.235   3.456   2.900
 3408SOL    HW211124   5.245   3.605   2.967
 3409SOL     OW11125   3.024   0.655   5.480
 3409SOL    HW111126   3.103   0.598   5.457
 3409SOL    HW211127   3.056   0.740   5.522
 3410SOL     OW11128   6.623   0.452   6.965
 3410SOL    HW111129   6.570   0.371   6.939
 3410SOL    HW211130   6.625   0.460   0.044
 3411SOL     OW11131   5.066   2.476   2.021
 3411SOL    HW111132   5.095   2.421   2.099
 3411SOL    HW211133   4.971   2.454   1.998
 3412SOL     OW11134   3.905   4.552   6.792
 3412SOL    HW111135   3.968   4.516   6.723
 3412SOL    HW211136   3.952   4.622   6.846
 3413SOL     OW11137   4.051   2.206   2.559
 3413SOL    HW111138   3.962   2.179   2.598
 3413SOL    HW211139   4.039   2.230   2.463
 3414SOL     OW11140   3.576   1.978   5.724
 3414SOL    HW111141   3.645   2.049   5.711
 3414SOL    HW211142   3.568   1.923   5.641
 3415SOL     OW11143   0.509   5.293   3.878
 3415SOL    HW111144   0.455   5.269   3.797
 3415SOL    HW211145   0.593   5.339   3.850
 3416SOL     OW11146   1.840   4.681   5.417
 3416SOL    HW111147   1.895   4.765   5.416
 3416SOL    HW211148   1.866   4.625   5.495
 3417SOL     OW11149   5.665   0.189   2.060
 3417SOL    HW111150   5.628   0.106   2.103
 3417SOL    HW211151   5.589   0.247   2.030
 3418SOL     OW11152   3.096   1.295   6.397
 3418SOL    HW111153   3.088   1.232   6.475
 3418SOL    HW211154   3.148   1.375   6.425
 3419SOL     OW11155   4.543   3.805   0.273
 3419SOL    HW111156   4.564   3.885   0.330
 3419SOL    HW211157   4.444   3.790   0.271
 3420SOL     OW11158   4.119   2.263   4.317
 3420SOL    HW111159   4.039   2.253   4.377
 3420SOL    HW211160   4.093   2.244   4.223
 3421SOL     OW11161   0.393   6.240   4.276
 3421SOL    HW111162   0.473   6.182   4.257
 3421SOL    HW211163   0.424   6.332   4.301
 3422SOL     OW11164   3.288   1.231   1.998
 3422SOL    HW111165   3.233   1.256   2.078
 3422SOL    HW211166   3.332   1.313   1.961
 3423SOL     OW11167   2.898   0.695   1.392
 3423SOL    HW111168   2.915   0.774   1.449
 3423SOL    HW211169   2.865   0.724   1.302
 3424SOL     OW11170   4.103   1.276   2.713
 3424SOL    HW111171   4.037   1.346   2.687
 3424SOL    HW211172   4.115   1.278   2.813
 3425SOL     OW11173   4.425   4.498   1.870
 3425SOL    HW111174   4.359   4.454   1.809
 3425SOL    HW211175   4.482   4.429   1.914
 3426SOL     OW11176   4.452   3.352   0.481
 3426SOL    HW111177   4.393   3.281   0.520
 3426SOL    HW211178   4.405   3.440   0.485
 3427SOL     OW11179   0.254   2.032   0.231
 3427SOL    HW111180   0.353   2.025   0.234
 3427SOL    HW211181   0.216   1.948   0.192
 3428SOL     OW11182   4.611   4.346   3.273
 3428SOL    HW111183   4.638   4.287   3.197
 3428SOL    HW211184   4.692   4.386   3.315
 3429SOL     OW11185   0.442   3.307   6.799
 3429SOL    HW111186   0.486   3.261   6.722
 3429SOL    HW211187   0.354   3.263   6.818
 3430SOL     OW11188   1.220   6.234   0.226
 3430SOL    HW111189   1.150   6.305   0.213
 3430SOL    HW211190   1.194   6.152   0.175
 3431SOL     OW11191   0.777   6.153   0.447
 3431SOL    HW111192   0.766   6.212   0.367
 3431SOL    HW211193   0.761   6.058   0.420
 3432SOL     OW11194   3.200   1.773   6.610
 3432SOL    HW111195   3.157   1.742   6.525
 3432SOL    HW211196   3.294   1.801   6.591
 3433SOL     OW11197   3.959   0.686   5.081
 3433SOL    HW111198   3.979   0.594   5.114
 3433SOL    HW211199   3.862   0.705   5.094
 3434SOL     OW11200   4.354   1.918   2.916
 3434SOL    HW111201   4.423   1.845   2.924
 3434SOL    HW211202   4.389   1.990   2.857
 3435SOL     OW11203   0.676   0.983   0.095
 3435SOL    HW111204   0.733   0.901   0.084
 3435SOL    HW211205   0.581   0.955   0.112
 3436SOL     OW11206   4.184   6.859   3.367
 3436SOL    HW111207   4.091   6.828   3.349
 3436SOL    HW211208   4.203   6.855   3.465
 3437SOL     OW11209   3.820   0.100   6.204
 3437SOL    HW111210   3.901   0.131   6.155
 3437SOL    HW211211   3.739   0.144   6.165
 3438SOL     OW11212   1.530   3.717   6.744
 3438SOL    HW111213   1.491   3.634   6.704
 3438SOL    HW211214   1.533   3.789   6.674
 3439SOL     OW11215   2.901   5.646   3.498
 3439SOL    HW111216   2.806   5.654   3.468
 3439SOL    HW211217   2.913   5.690   3.586
 3440SOL     OW11218   4.586   1.788   0.777
 3440SOL    HW111219   4.669   1.737   0.801
 3440SOL    HW211220   4.510   1.757   0.836
 3441SOL     OW11221   3.107   0.379   4.187
 3441SOL    HW111222   3.094   0.320   4.267
 3441SOL    HW211223   3.195   0.358   4.145
 3442SOL     OW11224   1.969   4.751   3.286
 3442SOL    HW111225   2.021   4.836   3.279
 3442SOL    HW211226   1.895   4.752   3.219
 3443SOL     OW11227   5.995   0.773   3.818
 3443SOL    HW111228   5.932   0.770   3.740
 3443SOL    HW211229   6.087   0.746   3.787
 3444SOL     OW11230   4.349   5.245   0.486
 3444SOL    HW111231   4.288   5.209   0.556
 3444SOL    HW211232   4.296   5.298   0.420
 3445SOL     OW11233   6.126   4.510   4.540
 3445SOL    HW111234   6.182   4.495   4.621
 3445SOL    HW211235   6.168   4.582   4.483
 3446SOL     OW11236   3.350   6.528   2.763
 3446SOL    HW111237   3.284   6.542   2.689
 3446SOL    HW211238   3.346   6.606   2.825
 3447SOL     OW11239   5.534   4.970   6.453
 3447SOL    HW111240   5.570   4.995   6.364
 3447SOL    HW211241   5.436   4.951   6.446
 3448SOL     OW11242   3.589   2.119   0.846
 3448SOL    HW111243   3.586   2.184   0.770
 3448SOL    HW211244   3.614   2.167   0.930
 3449SOL     OW11245   5.889   6.250   3.710
 3449SOL    HW111246   5.838   6.320   3.761
 3449SOL    HW211247   5.923   6.290   3.625
 3450SOL     OW11248   1.193   1.681   1.627
 3450SOL    HW111249   1.231   1.771   1.607
 3450SOL    HW211250   1.256   1.611   1.594
 3451SOL     OW11251   0.998   5.244   4.360
 3451SOL    HW111252   0.992   5.306   4.439
 3451SOL    HW211253   0.910   5.240   4.314
 3452SOL     OW11254   6.046   1.707   6.771
 3452SOL    HW111255   6.124   1.756   6.811
 3452SOL    HW211256   5.968   1.769   6.765
 3453SOL     OW11257   5.880   5.729   5.684
 3453SOL    HW111258   5.916   5.817   5.716
 3453SOL    HW211259   5.791   5.713   5.727
 3454SOL     OW11260   0.719   0.721   0.398
 3454SOL    HW111261   0.778   0.802   0.394
 3454SOL    HW211262   0.741   0.661   0.321
 3455SOL     OW11263   1.773   2.769   4.878
 3455SOL    HW111264   1.711   2.695   4.904
 3455SOL    HW211265   1.867   2.741   4.897
 3456SOL     OW11266   6.357   0.118   1.546
 3456SOL    HW111267   6.372   0.191   1.612
 3456SOL    HW211268   6.426   0.123   1.474
 3457SOL     OW11269   2.237   5.243   3.348
 3457SOL    HW111270   2.288   5.298   3.281
 3457SOL    HW211271   2.295   5.168   3.380
 3458SOL     OW11272   5.101   5.678   1.241
 3458SOL    HW111273   5.123   5.593   1.289
 3458SOL    HW211274   5.092   5.659   1.144
 3459SOL     OW11275   6.208   6.723   3.594
 3459SOL    HW111276   6.208   6.796   3.662
 3459SOL    HW211277   6.139   6.655   3.618
 3460SOL     OW11278   4.223   3.460   6.575
 3460SOL    HW111279   4.141   3.438   6.629
 3460SOL    HW211280   4.259   3.549   6.603
 3461SOL     OW11281   3.321   5.657   2.597
 3461SOL    HW111282   3.298   5.748   2.562
 3461SOL    HW211283   3.364   5.603   2.524
 3462SOL     OW11284   4.986   3.137   3.291
 3462SOL    HW111285   5.065   3.082   3.263
 3462SOL    HW211286   4.902   3.087   3.273
 3463SOL     OW11287   2.184   2.822   1.161
 3463SOL    HW111288   2.200   2.879   1.080
 3463SOL    HW211289   2.170   2.880   1.241
 3464SOL     OW11290   4.629   2.443   6.769
 3464SOL    HW111291   4.552   2.490   6.724
 3464SOL    HW211292   4.704   2.508   6.780
 3465SOL     OW11293   1.819   3.610   2.161
 3465SOL    HW111294   1.917   3.609   2.181
 3465SOL    HW211295   1.790   3.521   2.128
 3466SOL     OW11296   5.977   4.681   3.940
 3466SOL    HW111297   5.933   4.735   4.012
 3466SOL    HW211298   6.059   4.728   3.908
 3467SOL     OW11299   2.895   2.675   1.177
 3467SOL    HW111300   2.819   2.734   1.206
 3467SOL    HW211301   2.891   2.589   1.228
 3468SOL     OW11302   3.645   1.601   0.885
 3468SOL    HW111303   3.646   1.597   0.984
 3468SOL    HW211304   3.664   1.695   0.854
 3469SOL     OW11305   4.006   5.735   5.240
 3469SOL    HW111306   4.041   5.798   5.170
 3469SOL    HW211307   4.071   5.730   5.315
 3470SOL     OW11308   0.964   3.098   1.490
 3470SOL    HW111309   1.054   3.130   1.520
 3470SOL    HW211310   0.961   3.096   1.390
 3471SOL     OW11311   5.163   3.098   4.185
 3471SOL    HW111312   5.231   3.082   4.113
 3471SOL    HW211313   5.090   3.157   4.150
 3472SOL     OW11314   4.175   1.687   3.448
 3472SOL    HW111315   4.099   1.748   3.466
 3472SOL    HW211316   4.156   1.631   3.367
 3473SOL     OW11317   6.956   4.362   1.971
 3473SOL    HW111318   0.022   4.351   1.923
 3473SOL    HW211319   6.967   4.428   2.045
 3474SOL     OW11320   5.755   5.096   3.890
 3474SOL    HW111321   5.732   5.173   3.948
 3474SOL    HW211322   5.836   5.050   3.926
 3475SOL     OW11323   0.048   4.143   3.931
 3475SOL    HW111324   0.097   4.146   4.019
 3475SOL    HW211325   0.007   4.232   3.913
 3476SOL     OW11326   1.486   1.208   3.292
 3476SOL    HW111327   1.484   1.185   3.194
 3476SOL    HW211328   1.393   1.205   3.329
 3477SOL     OW11329   0.585   4.057   2.125
 3477SOL    HW111330   0.662   4.112   2.094
 3477SOL    HW211331   0.618   3.968   2.157
 3478SOL     OW11332   2.045   1.081   0.822
 3478SOL    HW111333   2.113   1.073   0.894
 3478SOL    HW211334   1.959   1.114   0.860
 3479SOL     OW11335   1.598   4.571   4.388
 3479SOL    HW111336   1.684   4.519   4.390
 3479SOL    HW211337   1.552   4.561   4.476
 3480SOL     OW11338   1.325   4.854   0.171
 3480SOL    HW111339   1.253   4.909   0.128
 3480SOL    HW211340   1.343   4.773   0.115
 3481SOL     OW11341   5.888   0.979   4.806
 3481SOL    HW111342   5.840   1.035   4.739
 3481SOL    HW211343   5.985   0.972   4.780
 3482SOL     OW11344   6.007   3.858   5.316
 3482SOL    HW111345   5.999   3.810   5.228
 3482SOL    HW211346   6.102   3.855   5.347
 3483SOL     OW11347   5.285   3.045   4.634
 3483SOL    HW111348   5.212   3.033   4.566
 3483SOL    HW211349   5.344   2.965   4.634
 3484SOL     OW11350   1.962   3.581   5.341
 3484SOL    HW111351   2.038   3.604   5.403
 3484SOL    HW211352   1.999   3.539   5.258
 3485SOL     OW11353   6.837   2.730   6.457
 3485SOL    HW111354   6.756   2.775   6.495
 3485SOL    HW211355   6.886   2.794   6.398
 3486SOL     OW11356   1.971   6.855   4.894
 3486SOL    HW111357   1.978   6.916   4.815
 3486SOL    HW211358   1.952   6.762   4.862
 3487SOL     OW11359   4.876   1.578   6.674
 3487SOL    HW111360   4.812   1.573   6.598
 3487SOL    HW211361   4.932   1.495   6.676
 3488SOL     OW11362   5.382   0.517   4.714
 3488SOL    HW111363   5.362   0.423   4.687
 3488SOL    HW211364   5.456   0.517   4.782
 3489SOL     OW11365   3.208   6.405   0.352
 3489SOL    HW111366   3.150   6.483   0.375
 3489SOL    HW211367   3.285   6.401   0.415
 3490SOL     OW11368   3.507   5.916   0.078
 3490SOL    HW111369   3.480   5.904   7.003
 3490SOL    HW211370   3.445   5.981   0.122
 3491SOL     OW11371   4.897   4.833   6.217
 3491SOL    HW111372   4.805   4.835   6.176
 3491SOL    HW211373   4.920   4.739   6.243
 3492SOL     OW11374   5.832   4.573   2.873
 3492SOL    HW111375   5.865   4.663   2.846
 3492SOL    HW211376   5.871   4.504   2.813
 3493SOL     OW11377   6.194   3.076   5.068
 3493SOL    HW111378   6.102   3.115   5.077
 3493SOL    HW211379   6.208   3.007   5.140
 3494SOL     OW11380   4.086   1.658   1.816
 3494SOL    HW111381   4.184   1.667   1.833
 3494SOL    HW211382   4.071   1.614   1.728
 3495SOL     OW11383   1.021   2.687   2.336
 3495SOL    HW111384   0.946   2.717   2.395
 3495SOL    HW211385   1.108   2.720   2.372
 3496SOL     OW11386   5.593   5.426   1.344
 3496SOL    HW111387   5.506   5.472   1.331
 3496SOL    HW211388   5.608   5.408   1.441
 3497SOL     OW11389   3.367   6.760   2.507
 3497SOL    HW111390   3.374   6.666   2.474
 3497SOL    HW211391   3.270   6.787   2.512
 3498SOL     OW11392   2.165   2.401   1.620
 3498SOL    HW111393   2.127   2.396   1.713
 3498SOL    HW211394   2.261   2.426   1.624
 3499SOL     OW11395   6.230   5.247   5.607
 3499SOL    HW111396   6.303   5.314   5.621
 3499SOL    HW211397   6.152   5.292   5.563
 3500SOL     OW11398   1.709   1.997   4.188
 3500SOL    HW111399   1.757   2.082   4.210
 3500SOL    HW211400   1.720   1.977   4.090
 3501SOL     OW11401   1.358   0.569   5.745
 3501SOL    HW111402   1.270   0.523   5.756
 3501SOL    HW211403   1.429   0.500   5.732
 3502SOL     OW11404   4.760   2.843   2.253
 3502SOL    HW111405   4.754   2.901   2.172
 3502SOL    HW211406   4.856   2.830   2.278
 3503SOL     OW11407   6.248   5.923   6.856
 3503SOL    HW111408   6.258   5.827   6.829
 3503SOL    HW211409   6.270   5.932   6.953
 3504SOL     OW11410   1.407   0.970   0.844
 3504SOL    HW111411   1.409   1.023   0.759
 3504SOL    HW211412   1.329   0.907   0.841
 3505SOL     OW11413   5.535   4.680   6.542
 3505SOL    HW111414   5.571   4.599   6.497
 3505SOL    HW211415   5.576   4.762   6.502
 3506SOL     OW11416   5.059   4.503   5.011
 3506SOL    HW111417   4.968   4.482   4.975
 3506SOL    HW211418   5.105   4.568   4.950
 3507SOL     OW11419   3.128   6.670   0.395
 3507SOL    HW111420   3.101   6.718   0.479
 3507SOL    HW211421   3.209   6.715   0.356
 3508SOL     OW11422   3.032   2.266   5.350
 3508SOL    HW111423   3.065   2.322   5.426
 3508SOL    HW211424   3.087   2.286   5.269
 3509SOL     OW11425   3.966   5.441   6.535
 3509SOL    HW111426   3.995   5.438   6.439
 3509SOL    HW211427   3.869   5.463   6.540
 3510SOL     OW11428   3.002   1.055   0.833
 3510SOL    HW111429   3.064   1.054   0.911
 3510SOL    HW211430   2.949   1.140   0.833
 3511SOL     OW11431   2.639   4.529   1.688
 3511SOL    HW111432   2.688   4.573   1.763
 3511SOL    HW211433   2.704   4.495   1.621
 3512SOL     OW11434   0.203   4.988   6.412
 3512SOL    HW111435   0.135   5.011   6.482
 3512SOL    HW211436   0.294   5.009   6.447
 3513SOL     OW11437   6.257   2.128   0.322
 3513SOL    HW111438   6.294   2.188   0.392
 3513SOL    HW211439   6.273   2.168   0.232
 3514SOL     OW11440   4.172   1.620   2.363
 3514SOL    HW111441   4.119   1.571   2.293
 3514SOL    HW211442   4.152   1.718   2.357
 3515SOL     OW11443   6.111   5.859   4.117
 3515SOL    HW111444   6.043   5.931   4.108
 3515SOL    HW211445   6.134   5.823   4.026
 3516SOL     OW11446   4.701   0.339   1.546
 3516SOL    HW111447   4.690   0.277   1.624
 3516SOL    HW211448   4.732   0.287   1.467
 3517SOL     OW11449   6.224   0.888   1.001
 3517SOL    HW111450   6.169   0.875   0.918
 3517SOL    HW211451   6.171   0.856   1.080
 3518SOL     OW11452   5.072   1.197   5.277
 3518SOL    HW111453   4.983   1.234   5.250
 3518SOL    HW211454   5.088   1.216   5.373
 3519SOL     OW11455   3.453   0.706   0.703
 3519SOL    HW111456   3.453   0.632   0.635
 3519SOL    HW211457   3.443   0.794   0.656
 3520SOL     OW11458   2.570   6.479   4.836
 3520SOL    HW111459   2.634   6.440   4.902
 3520SOL    HW211460   2.497   6.414   4.816
 3521SOL     OW11461   2.410   3.105   0.882
 3521SOL    HW111462   2.432   3.203   0.888
 3521SOL    HW211463   2.421   3.063   0.972
 3522SOL     OW11464   0.160   6.024   6.609
 3522SOL    HW111465   0.178   6.109   6.560
 3522SOL    HW211466   0.221   5.952   6.576
 3523SOL     OW11467   1.652   5.068   6.583
 3523SOL    HW111468   1.596   5.072   6.501
 3523SOL    HW211469   1.640   4.978   6.627
 3524SOL     OW11470   5.415   1.332   2.982
 3524SOL    HW111471   5.429   1.239   3.016
 3524SOL    HW211472   5.455   1.340   2.890
 3525SOL     OW11473   5.984   4.082   3.484
 3525SOL    HW111474   5.972   4.152   3.412
 3525SOL    HW211475   5.945   4.116   3.569
 3526SOL     OW11476   0.709   6.503   2.975
 3526SOL    HW111477   0.617   6.505   3.013
 3526SOL    HW211478   0.704   6.503   2.875
 3527SOL     OW11479   6.629   2.622   5.743
 3527SOL    HW111480   6.554   2.578   5.693
 3527SOL    HW211481   6.609   2.720   5.753
 3528SOL     OW11482   2.380   6.286   4.866
 3528SOL    HW111483   2.455   6.250   4.922
 3528SOL    HW211484   2.344   6.213   4.807
 3529SOL     OW11485   3.898   5.073   0.944
 3529SOL    HW111486   3.848   5.026   1.016
 3529SOL    HW211487   3.880   5.172   0.951
 3530SOL     OW11488   6.909   0.406   1.539
 3530SOL    HW111489   6.978   0.434   1.472
 3530SOL    HW211490   6.917   0.462   1.621
 3531SOL     OW11491   5.549   1.940   0.149
 3531SOL    HW111492   5.571   1.936   0.247
 3531SOL    HW211493   5.549   2.036   0.119
 3532SOL     OW11494   2.141   1.676   1.635
 3532SOL    HW111495   2.050   1.677   1.676
 3532SOL    HW211496   2.136   1.715   1.543
 3533SOL     OW11497   0.572   1.052   2.723
 3533SOL    HW111498   0.566   1.107   2.807
 3533SOL    HW211499   0.603   1.110   2.648
 3534SOL     OW11500   0.272   1.030   1.395
 3534SOL    HW111501   0.249   0.991   1.306
 3534SOL    HW211502   0.231   0.974   1.467
 3535SOL     OW11503   2.889   5.749   4.496
 3535SOL    HW111504   2.865   5.776   4.403
 3535SOL    HW211505   2.852   5.815   4.561
 3536SOL     OW11506   3.703   2.104   2.871
 3536SOL    HW111507   3.645   2.104   2.789
 3536SOL    HW211508   3.784   2.159   2.853
 3537SOL     OW11509   1.661   5.936   2.951
 3537SOL    HW111510   1.612   5.905   2.870
 3537SOL    HW211511   1.753   5.898   2.952
 3538SOL     OW11512   3.215   5.662   3.741
 3538SOL    HW111513   3.116   5.658   3.733
 3538SOL    HW211514   3.246   5.603   3.815
 3539SOL     OW11515   3.351   3.805   4.380
 3539SOL    HW111516   3.309   3.720   4.413
 3539SOL    HW211517   3.390   3.855   4.458
 3540SOL     OW11518   1.825   2.006   3.904
 3540SOL    HW111519   1.919   1.977   3.922
 3540SOL    HW211520   1.823   2.072   3.829
 3541SOL     OW11521   3.247   4.025   4.848
 3541SOL    HW111522   3.206   4.076   4.923
 3541SOL    HW211523   3.315   3.961   4.885
 3542SOL     OW11524   0.440   5.324   1.671
 3542SOL    HW111525   0.456   5.228   1.694
 3542SOL    HW211526   0.431   5.334   1.572
 3543SOL     OW11527   6.039   2.695   4.807
 3543SOL    HW111528   6.046   2.795   4.808
 3543SOL    HW211529   6.106   2.657   4.871
 3544SOL     OW11530   2.126   5.432   6.291
 3544SOL    HW111531   2.119   5.398   6.385
 3544SOL    HW211532   2.194   5.505   6.286
 3545SOL     OW11533   3.976   5.374   6.865
 3545SOL    HW111534   3.923   5.305   6.817
 3545SOL    HW211535   4.055   5.331   6.909
 3546SOL     OW11536   6.148   4.900   3.108
 3546SOL    HW111537   6.055   4.929   3.086
 3546SOL    HW211538   6.210   4.931   3.037
 3547SOL     OW11539   5.248   4.986   4.074
 3547SOL    HW111540   5.187   4.912   4.103
 3547SOL    HW211541   5.193   5.062   4.040
 3548SOL     OW11542   4.753   2.999   5.322
 3548SOL    HW111543   4.845   2.962   5.309
 3548SOL    HW211544   4.689   2.952   5.260
 3549SOL     OW11545   5.838   4.311   2.748
 3549SOL    HW111546   5.930   4.281   2.722
 3549SOL    HW211547   5.784   4.232   2.777
 3550SOL     OW11548   5.894   2.277   2.215
 3550SOL    HW111549   5.913   2.229   2.129
 3550SOL    HW211550   5.980   2.304   2.258
 3551SOL     OW11551   2.586   6.697   3.349
 3551SOL    HW111552   2.500   6.685   3.299
 3551SOL    HW211553   2.605   6.794   3.358
 3552SOL     OW11554   6.486   4.752   3.062
 3552SOL    HW111555   6.439   4.827   3.015
 3552SOL    HW211556   6.475   4.763   3.161
 3553SOL     OW11557   5.981   1.738   2.784
 3553SOL    HW111558   5.984   1.736   2.684
 3553SOL    HW211559   6.071   1.715   2.821
 3554SOL     OW11560   3.779   5.217   6.653
 3554SOL    HW111561   3.841   5.151   6.610
 3554SOL    HW211562   3.685   5.196   6.627
 3555SOL     OW11563   1.200   2.931   3.529
 3555SOL    HW111564   1.194   2.970   3.620
 3555SOL    HW211565   1.296   2.913   3.506
 3556SOL     OW11566   3.922   0.376   6.583
 3556SOL    HW111567   4.016   0.352   6.559
 3556SOL    HW211568   3.862   0.299   6.563
 3557SOL     OW11569   1.151   0.466   5.133
 3557SOL    HW111570   1.225   0.476   5.200
 3557SOL    HW211571   1.066   0.501   5.172
 3558SOL     OW11572   0.168   5.787   1.263
 3558SOL    HW111573   0.175   5.855   1.336
 3558SOL    HW211574   0.104   5.820   1.194
 3559SOL     OW11575   0.549   1.124   5.415
 3559SOL    HW111576   0.577   1.144   5.509
 3559SOL    HW211577   0.546   1.025   5.402
 3560SOL     OW11578   6.838   6.383   1.591
 3560SOL    HW111579   6.816   6.393   1.494
 3560SOL    HW211580   6.935   6.401   1.605
 3561SOL     OW11581   4.657   5.090   4.796
 3561SOL    HW111582   4.638   5.000   4.835
 3561SOL    HW211583   4.607   5.100   4.710
 3562SOL     OW11584   4.491   1.677   3.170
 3562SOL    HW111585   4.531   1.670   3.079
 3562SOL    HW211586   4.430   1.599   3.187
 3563SOL     OW11587   4.777   1.183   1.195
 3563SOL    HW111588   4.770   1.125   1.114
 3563SOL    HW211589   4.861   1.238   1.189
 3564SOL     OW11590   0.160   4.302   3.325
 3564SOL    HW111591   0.089   4.238   3.295
 3564SOL    HW211592   0.241   4.291   3.268
 3565SOL     OW11593   1.867   0.569   5.163
 3565SOL    HW111594   1.954   0.528   5.139
 3565SOL    HW211595   1.806   0.500   5.201
 3566SOL     OW11596   0.723   3.764   5.551
 3566SOL    HW111597   0.736   3.667   5.572
 3566SOL    HW211598   0.794   3.794   5.488
 3567SOL     OW11599   0.245   2.826   1.020
 3567SOL    HW111600   0.208   2.830   1.113
 3567SOL    HW211601   0.180   2.778   0.960
 3568SOL     OW11602   5.489   3.567   3.656
 3568SOL    HW111603   5.431   3.550   3.736
 3568SOL    HW211604   5.565   3.502   3.655
 3569SOL     OW11605   3.678   3.292   3.882
 3569SOL    HW111606   3.727   3.347   3.813
 3569SOL    HW211607   3.738   3.220   3.916
 3570SOL     OW11608   0.132   2.778   6.090
 3570SOL    HW111609   0.103   2.688   6.123
 3570SOL    HW211610   0.152   2.837   6.168
 3571SOL     OW11611   2.164   6.706   5.101
 3571SOL    HW111612   2.131   6.776   5.038
 3571SOL    HW211613   2.179   6.621   5.051
 3572SOL     OW11614   4.800   4.766   2.240
 3572SOL    HW111615   4.818   4.828   2.164
 3572SOL    HW211616   4.854   4.683   2.230
 3573SOL     OW11617   0.331   3.964   3.101
 3573SOL    HW111618   0.324   3.904   3.021
 3573SOL    HW211619   0.319   3.909   3.184
 3574SOL     OW11620   2.532   1.820   5.543
 3574SOL    HW111621   2.444   1.856   5.574
 3574SOL    HW211622   2.592   1.804   5.621
 3575SOL     OW11623   5.437   6.954   0.227
 3575SOL    HW111624   5.348   6.932   0.186
 3575SOL    HW211625   5.505   6.888   0.196
 3576SOL     OW11626   1.141   2.833   1.015
 3576SOL    HW111627   1.115   2.843   0.918
 3576SOL    HW211628   1.184   2.918   1.046
 3577SOL     OW11629   2.222   3.128   5.667
 3577SOL    HW111630   2.195   3.067   5.594
 3577SOL    HW211631   2.312   3.166   5.648
 3578SOL     OW11632   3.333   3.062   6.413
 3578SOL    HW111633   3.430   3.039   6.410
 3578SOL    HW211634   3.282   2.990   6.460
 3579SOL     OW11635   0.779   3.088   1.699
 3579SOL    HW111636   0.744   3.182   1.704
 3579SOL    HW211637   0.857   3.084   1.637
 3580SOL     OW11638   0.551   4.276   1.789
 3580SOL    HW111639   0.552   4.273   1.689
 3580SOL    HW211640   0.494   4.202   1.824
 3581SOL     OW11641   1.516   0.171   2.675
 3581SOL    HW111642   1.609   0.193   2.704
 3581SOL    HW211643   1.517   0.084   2.624
 3582SOL     OW11644   3.686   4.724   6.017
 3582SOL    HW111645   3.737   4.682   6.091
 3582SOL    HW211646   3.723   4.815   5.997
 3583SOL     OW11647   0.763   4.876   0.947
 3583SOL    HW111648   0.854   4.853   0.912
 3583SOL    HW211649   0.734   4.806   1.012
 3584SOL     OW11650   6.125   4.916   4.878
 3584SOL    HW111651   6.208   4.861   4.893
 3584SOL    HW211652   6.128   4.955   4.786
 3585SOL     OW11653   3.208   1.514   2.911
 3585SOL    HW111654   3.158   1.545   2.992
 3585SOL    HW211655   3.224   1.591   2.849
 3586SOL     OW11656   6.786   2.647   5.163
 3586SOL    HW111657   6.797   2.671   5.067
 3586SOL    HW211658   6.866   2.678   5.214
 3587SOL     OW11659   2.943   6.850   6.623
 3587SOL    HW111660   2.893   6.936   6.627
 3587SOL    HW211661   2.909   6.795   6.547
 3588SOL     OW11662   6.209   5.067   4.617
 3588SOL    HW111663   6.306   5.049   4.602
 3588SOL    HW211664   6.192   5.166   4.613
 3589SOL     OW11665   0.495   0.359   5.829
 3589SOL    HW111666   0.528   0.329   5.919
 3589SOL    HW211667   0.431   0.435   5.841
 3590SOL     OW11668   6.874   4.848   0.001
 3590SOL    HW111669   6.783   4.867   6.984
 3590SOL    HW211670   6.898   4.918   0.068
 3591SOL     OW11671   6.118   1.349   6.467
 3591SOL    HW111672   6.151   1.360   6.560
 3591SOL    HW211673   6.190   1.374   6.402
 3592SOL     OW11674   1.916   5.986   1.341
 3592SOL    HW111675   1.919   6.071   1.394
 3592SOL    HW211676   1.821   5.963   1.320
 3593SOL     OW11677   4.232   2.848   5.332
 3593SOL    HW111678   4.280   2.782   5.276
 3593SOL    HW211679   4.141   2.813   5.356
 3594SOL     OW11680   4.490   4.734   5.112
 3594SOL    HW111681   4.424   4.660   5.100
 3594SOL    HW211682   4.536   4.752   5.025
 3595SOL     OW11683   5.047   6.181   4.642
 3595SOL    HW111684   5.034   6.279   4.623
 3595SOL    HW211685   4.989   6.154   4.718
 3596SOL     OW11686   4.107   2.244   3.691
 3596SOL    HW111687   4.173   2.309   3.730
 3596SOL    HW211688   4.137   2.151   3.708
 3597SOL     OW11689   2.859   3.417   5.599
 3597SOL    HW111690   2.802   3.473   5.660
 3597SOL    HW211691   2.915   3.477   5.542
 3598SOL     OW11692   1.433   5.933   5.266
 3598SOL    HW111693   1.334   5.921   5.270
 3598SOL    HW211694   1.454   6.031   5.267
 3599SOL     OW11695   3.357   1.239   5.280
 3599SOL    HW111696   3.290   1.200   5.344
 3599SOL    HW211697   3.405   1.164   5.234
 3600SOL     OW11698   3.318   3.268   0.134
 3600SOL    HW111699   3.333   3.347   0.193
 3600SOL    HW211700   3.222   3.241   0.139
 3601SOL     OW11701   4.404   0.992   4.918
 3601SOL    HW111702   4.463   0.913   4.906
 3601SOL    HW211703   4.350   1.007   4.835
 3602SOL     OW11704   2.218   1.894   1.207
 3602SOL    HW111705   2.148   1.844   1.258
 3602SOL    HW211706   2.210   1.991   1.226
 3603SOL     OW11707   2.715   1.044   5.322
 3603SOL    HW111708   2.630   1.010   5.283
 3603SOL    HW211709   2.751   0.978   5.388
 3604SOL     OW11710   6.896   0.537   3.480
 3604SOL    HW111711   6.940   0.492   3.402
 3604SOL    HW211712   6.823   0.478   3.515
 3605SOL     OW11713   1.279   6.609   4.079
 3605SOL    HW111714   1.278   6.640   4.175
 3605SOL    HW211715   1.333   6.674   4.025
 3606SOL     OW11716   2.483   0.042   2.359
 3606SOL    HW111717   2.396   0.022   2.404
 3606SOL    HW211718   2.534   0.108   2.413
 3607SOL     OW11719   6.018   1.984   3.211
 3607SOL    HW111720   6.100   1.972   3.266
 3607SOL    HW211721   5.939   1.949   3.261
 3608SOL     OW11722   2.609   2.169   6.129
 3608SOL    HW111723   2.695   2.121   6.111
 3608SOL    HW211724   2.557   2.178   6.044
 3609SOL     OW11725   3.184   0.836   4.750
 3609SOL    HW111726   3.280   0.856   4.730
 3609SOL    HW211727   3.134   0.921   4.767
 3610SOL     OW11728   1.656   0.413   5.257
 3610SOL    HW111729   1.618   0.494   5.301
 3610SOL    HW211730   1.607   0.395   5.171
 3611SOL     OW11731   5.307   4.830   3.174
 3611SOL    HW111732   5.310   4.897   3.248
 3611SOL    HW211733   5.235   4.763   3.192
 3612SOL     OW11734   6.157   1.129   0.014
 3612SOL    HW111735   6.100   1.059   0.058
 3612SOL    HW211736   6.108   1.216   0.012
 3613SOL     OW11737   4.495   6.297   1.943
 3613SOL    HW111738   4.488   6.211   1.892
 3613SOL    HW211739   4.466   6.282   2.037
 3614SOL     OW11740   3.740   5.507   6.949
 3614SOL    HW111741   3.836   5.478   6.947
 3614SOL    HW211742   3.682   5.430   6.921
 3615SOL     OW11743   5.533   2.193   5.740
 3615SOL    HW111744   5.588   2.161   5.663
 3615SOL    HW211745   5.578   2.269   5.785
 3616SOL     OW11746   1.180   2.005   0.285
 3616SOL    HW111747   1.119   2.083   0.279
 3616SOL    HW211748   1.259   2.029   0.341
 3617SOL     OW11749   3.814   5.871   5.469
 3617SOL    HW111750   3.739   5.844   5.408
 3617SOL    HW211751   3.900   5.835   5.435
 3618SOL     OW11752   0.992   5.181   3.888
 3618SOL    HW111753   1.057   5.159   3.961
 3618SOL    HW211754   1.022   5.139   3.803
 3619SOL     OW11755   6.041   3.564   2.213
 3619SOL    HW111756   6.028   3.469   2.242
 3619SOL    HW211757   5.952   3.607   2.198
 3620SOL     OW11758   5.832   5.902   4.789
 3620SOL    HW111759   5.855   5.910   4.886
 3620SOL    HW211760   5.732   5.897   4.779
 3621SOL     OW11761   3.796   3.170   3.346
 3621SOL    HW111762   3.717   3.109   3.332
 3621SOL    HW211763   3.764   3.260   3.376
 3622SOL     OW11764   1.470   6.353   5.835
 3622SOL    HW111765   1.419   6.415   5.895
 3622SOL    HW211766   1.419   6.267   5.825
 3623SOL     OW11767   0.993   5.637   6.116
 3623SOL    HW111768   0.943   5.702   6.058
 3623SOL    HW211769   1.088   5.665   6.124
 3624SOL     OW11770   2.705   2.553   1.471
 3624SOL    HW111771   2.769   2.493   1.422
 3624SOL    HW211772   2.740   2.570   1.563
 3625SOL     OW11773   7.011   2.398   0.709
 3625SOL    HW111774   0.038   2.438   0.631
 3625SOL    HW211775   7.001   2.299   0.694
 3626SOL     OW11776   1.738   2.915   5.200
 3626SOL    HW111777   1.645   2.941   5.173
 3626SOL    HW211778   1.804   2.956   5.137
 3627SOL     OW11779   3.528   1.983   2.124
 3627SOL    HW111780   3.582   2.056   2.081
 3627SOL    HW211781   3.563   1.894   2.094
 3628SOL     OW11782   6.517   1.886   1.588
 3628SOL    HW111783   6.465   1.828   1.526
 3628SOL    HW211784   6.584   1.940   1.537
 3629SOL     OW11785   1.110   1.422   4.500
 3629SOL    HW111786   1.200   1.425   4.545
 3629SOL    HW211787   1.106   1.343   4.439
 3630SOL     OW11788   6.962   2.050   1.548
 3630SOL    HW111789   6.981   1.959   1.511
 3630SOL    HW211790   0.024   2.086   1.592
 3631SOL     OW11791   2.008   6.839   2.282
 3631SOL    HW111792   1.949   6.899   2.228
 3631SOL    HW211793   2.004   6.866   2.378
 3632SOL     OW11794   4.684   3.891   1.581
 3632SOL    HW111795   4.701   3.793   1.588
 3632SOL    HW211796   4.586   3.908   1.589
 3633SOL     OW11797   3.716   4.079   0.150
 3633SOL    HW111798   3.772   4.161   0.139
 3633SOL    HW211799   3.631   4.089   0.099
 3634SOL     OW11800   3.263   5.260   6.610
 3634SOL    HW111801   3.176   5.304   6.633
 3634SOL    HW211802   3.276   5.259   6.511
 3635SOL     OW11803   1.311   5.799   2.066
 3635SOL    HW111804   1.256   5.864   2.118
 3635SOL    HW211805   1.377   5.849   2.009
 3636SOL     OW11806   0.471   5.087   6.545
 3636SOL    HW111807   0.504   5.181   6.541
 3636SOL    HW211808   0.527   5.036   6.611
 3637SOL     OW11809   6.055   3.103   0.294
 3637SOL    HW111810   6.131   3.102   0.359
 3637SOL    HW211811   5.973   3.138   0.339
 3638SOL     OW11812   6.919   3.525   3.076
 3638SOL    HW111813   6.885   3.433   3.055
 3638SOL    HW211814   6.842   3.587   3.089
 3639SOL     OW11815   4.075   3.167   3.663
 3639SOL    HW111816   4.087   3.209   3.573
 3639SOL    HW211817   4.000   3.100   3.658
 3640SOL     OW11818   4.512   2.048   2.120
 3640SOL    HW111819   4.507   2.104   2.037
 3640SOL    HW211820   4.448   1.972   2.113
 3641SOL     OW11821   6.069   4.146   2.604
 3641SOL    HW111822   6.107   4.158   2.696
 3641SOL    HW211823   6.058   4.235   2.561
 3642SOL     OW11824   5.311   3.227   5.822
 3642SOL    HW111825   5.397   3.271   5.848
 3642SOL    HW211826   5.266   3.190   5.904
 3643SOL     OW11827   4.046   5.641   4.679
 3643SOL    HW111828   4.043   5.563   4.616
 3643SOL    HW211829   3.967   5.700   4.663
 3644SOL     OW11830   2.902   0.520   1.911
 3644SOL    HW111831   2.928   0.616   1.904
 3644SOL    HW211832   2.977   0.467   1.950
 3645SOL     OW11833   1.228   4.020   3.479
 3645SOL    HW111834   1.175   4.105   3.476
 3645SOL    HW211835   1.324   4.039   3.462
 3646SOL     OW11836   1.524   4.595   5.625
 3646SOL    HW111837   1.606   4.539   5.615
 3646SOL    HW211838   1.521   4.663   5.552
 3647SOL     OW11839   2.406   0.147   6.608
 3647SOL    HW111840   2.418   0.062   6.659
 3647SOL    HW211841   2.488   0.204   6.619
 3648SOL     OW11842   4.753   5.495   3.293
 3648SOL    HW111843   4.658   5.526   3.297
 3648SOL    HW211844   4.794   5.503   3.384
 3649SOL     OW11845   6.045   2.534   0.300
 3649SOL    HW111846   6.052   2.533   0.200
 3649SOL    HW211847   6.010   2.623   0.330
 3650SOL     OW11848   5.542   5.835   6.674
 3650SOL    HW111849   5.615   5.863   6.737
 3650SOL    HW211850   5.462   5.894   6.688
 3651SOL     OW11851   1.019   2.116   5.708
 3651SOL    HW111852   1.052   2.023   5.721
 3651SOL    HW211853   1.001   2.159   5.797
 3652SOL     OW11854   4.304   1.535   1.619
 3652SOL    HW111855   4.212   1.549   1.582
 3652SOL    HW211856   4.321   1.605   1.690
 3653SOL     OW11857   1.558   1.656   1.101
 3653SOL    HW111858   1.502   1.691   1.025
 3653SOL    HW211859   1.573   1.729   1.167
 3654SOL     OW11860   4.512   6.270   1.635
 3654SOL    HW111861   4.568   6.257   1.553
 3654SOL    HW211862   4.500   6.182   1.681
 3655SOL     OW11863   1.191   1.020   4.094
 3655SOL    HW111864   1.238   1.100   4.132
 3655SOL    HW211865   1.141   1.047   4.012
 3656SOL     OW11866   0.231   0.144   1.462
 3656SOL    HW111867   0.255   0.147   1.559
 3656SOL    HW211868   0.191   0.055   1.440
 3657SOL     OW11869   5.985   5.373   6.140
 3657SOL    HW111870   5.932   5.458   6.144
 3657SOL    HW211871   6.073   5.386   6.186
 3658SOL     OW11872   1.824   4.793   5.712
 3658SOL    HW111873   1.902   4.850   5.738
 3658SOL    HW211874   1.754   4.797   5.784
 3659SOL     OW11875   0.318   2.517   6.389
 3659SOL    HW111876   0.229   2.552   6.416
 3659SOL    HW211877   0.364   2.585   6.331
 3660SOL     OW11878   4.910   5.409   6.159
 3660SOL    HW111879   4.933   5.504   6.139
 3660SOL    HW211880   4.970   5.348   6.107
 3661SOL     OW11881   0.235   1.661   4.586
 3661SOL    HW111882   0.294   1.716   4.645
 3661SOL    HW211883   0.268   1.665   4.492
 3662SOL     OW11884   3.157   1.817   5.651
 3662SOL    HW111885   3.174   1.872   5.569
 3662SOL    HW211886   3.243   1.802   5.699
 3663SOL     OW11887   2.538   2.620   6.810
 3663SOL    HW111888   2.440   2.625   6.788
 3663SOL    HW211889   2.589   2.593   6.728
 3664SOL     OW11890   3.406   1.965   0.966
 3664SOL    HW111891   3.321   2.017   0.974
 3664SOL    HW211892   3.475   2.020   0.918
 3665SOL     OW11893   0.567   5.624   6.119
 3665SOL    HW111894   0.532   5.545   6.069
 3665SOL    HW211895   0.660   5.605   6.151
 3666SOL     OW11896   2.089   3.199   4.602
 3666SOL    HW111897   2.066   3.286   4.646
 3666SOL    HW211898   2.131   3.138   4.668
 3667SOL     OW11899   1.713   6.516   1.109
 3667SOL    HW111900   1.787   6.583   1.101
 3667SOL    HW211901   1.625   6.563   1.112
 3668SOL     OW11902   6.233   1.165   0.659
 3668SOL    HW111903   6.224   1.066   0.657
 3668SOL    HW211904   6.227   1.197   0.754
 3669SOL     OW11905   0.976   1.050   3.526
 3669SOL    HW111906   0.937   0.963   3.558
 3669SOL    HW211907   0.915   1.125   3.550
 3670SOL     OW11908   2.820   0.394   1.674
 3670SOL    HW111909   2.816   0.296   1.691
 3670SOL    HW211910   2.854   0.440   1.756
 3671SOL     OW11911   6.886   0.716   4.452
 3671SOL    HW111912   6.981   0.748   4.460
 3671SOL    HW211913   6.843   0.717   4.542
 3672SOL     OW11914   3.552   0.081   3.778
 3672SOL    HW111915   3.584   0.126   3.862
 3672SOL    HW211916   3.556   0.145   3.702
 3673SOL     OW11917   3.324   0.157   1.161
 3673SOL    HW111918   3.231   0.120   1.155
 3673SOL    HW211919   3.374   0.136   1.077
 3674SOL     OW11920   0.551   4.746   6.797
 3674SOL    HW111921   0.501   4.833   6.800
 3674SOL    HW211922   0.488   4.670   6.812
 3675SOL     OW11923   0.774   0.771   3.970
 3675SOL    HW111924   0.792   0.717   4.052
 3675SOL    HW211925   0.859   0.785   3.920
 3676SOL     OW11926   3.503   1.319   4.867
 3676SOL    HW111927   3.591   1.321   4.914
 3676SOL    HW211928   3.518   1.326   4.768
 3677SOL     OW11929   1.331   1.114   4.484
 3677SOL    HW111930   1.347   1.061   4.401
 3677SOL    HW211931   1.369   1.206   4.474
 3678SOL     OW11932   1.325   0.892   3.608
 3678SOL    HW111933   1.250   0.845   3.560
 3678SOL    HW211934   1.336   0.852   3.699
 3679SOL     OW11935   3.766   0.235   2.380
 3679SOL    HW111936   3.808   0.276   2.461
 3679SOL    HW211937   3.783   0.137   2.379
 3680SOL     OW11938   3.079   1.793   4.831
 3680SOL    HW111939   3.149   1.853   4.870
 3680SOL    HW211940   3.097   1.699   4.860
 3681SOL     OW11941   0.957   6.509   4.152
 3681SOL    HW111942   0.967   6.562   4.068
 3681SOL    HW211943   0.979   6.567   4.231
 3682SOL     OW11944   5.558   2.075   0.642
 3682SOL    HW111945   5.538   2.031   0.729
 3682SOL    HW211946   5.545   2.173   0.649
 3683SOL     OW11947   6.572   1.581   0.196
 3683SOL    HW111948   6.595   1.654   0.260
 3683SOL    HW211949   6.527   1.507   0.246
 3684SOL     OW11950   2.455   6.370   5.286
 3684SOL    HW111951   2.544   6.410   5.307
 3684SOL    HW211952   2.456   6.331   5.194
 3685SOL     OW11953   1.741   5.926   4.604
 3685SOL    HW111954   1.651   5.906   4.566
 3685SOL    HW211955   1.801   5.848   4.590
 3686SOL     OW11956   0.264   3.684   1.078
 3686SOL    HW111957   0.254   3.677   0.979
 3686SOL    HW211958   0.361   3.688   1.102
 3687SOL     OW11959   5.959   4.106   4.847
 3687SOL    HW111960   5.876   4.062   4.882
 3687SOL    HW211961   5.995   4.168   4.916
 3688SOL     OW11962   6.394   2.443   1.351
 3688SOL    HW111963   6.491   2.436   1.371
 3688SOL    HW211964   6.356   2.352   1.334
 3689SOL     OW11965   0.919   0.276   6.360
 3689SOL    HW111966   0.963   0.255   6.273
 3689SOL    HW211967   0.890   0.190   6.404
 3690SOL     OW11968   5.266   5.490   1.783
 3690SOL    HW111969   5.272   5.412   1.846
 3690SOL    HW211970   5.358   5.519   1.758
 3691SOL     OW11971   1.739   3.011   0.595
 3691SOL    HW111972   1.776   3.005   0.502
 3691SOL    HW211973   1.711   2.921   0.626
 3692SOL     OW11974   1.019   2.937   5.193
 3692SOL    HW111975   0.947   2.993   5.234
 3692SOL    HW211976   1.063   2.882   5.264
 3693SOL     OW11977   0.706   1.382   2.630
 3693SOL    HW111978   0.640   1.424   2.693
 3693SOL    HW211979   0.656   1.335   2.557
 3694SOL     OW11980   6.511   0.293   3.207
 3694SOL    HW111981   6.584   0.288   3.139
 3694SOL    HW211982   6.426   0.257   3.168
 3695SOL     OW11983   5.746   3.670   3.368
 3695SOL    HW111984   5.791   3.662   3.457
 3695SOL    HW211985   5.652   3.636   3.375
 3696SOL     OW11986   4.063   0.800   4.515
 3696SOL    HW111987   4.080   0.774   4.610
 3696SOL    HW211988   4.046   0.718   4.461
 3697SOL     OW11989   6.566   6.217   3.196
 3697SOL    HW111990   6.484   6.274   3.188
 3697SOL    HW211991   6.633   6.263   3.255
 3698SOL     OW11992   1.817   0.417   2.890
 3698SOL    HW111993   1.797   0.321   2.873
 3698SOL    HW211994   1.909   0.426   2.928
 3699SOL     OW11995   2.638   2.308   3.189
 3699SOL    HW111996   2.542   2.314   3.161
 3699SOL    HW211997   2.696   2.312   3.108
 3700SOL     OW11998   0.823   5.100   5.001
 3700SOL    HW111999   0.754   5.160   4.960
 3700SOL    HW212000   0.890   5.155   5.052
 3701SOL     OW12001   0.369   0.985   2.455
 3701SOL    HW112002   0.369   0.886   2.445
 3701SOL    HW212003   0.318   1.027   2.380
 3702SOL     OW12004   6.003   3.815   3.637
 3702SOL    HW112005   6.054   3.894   3.606
 3702SOL    HW212006   6.009   3.808   3.737
 3703SOL     OW12007   1.484   1.555   3.299
 3703SOL    HW112008   1.524   1.531   3.210
 3703SOL    HW212009   1.395   1.597   3.285
 3704SOL     OW12010   6.241   0.894   0.632
 3704SOL    HW112011   6.332   0.873   0.669
 3704SOL    HW212012   6.172   0.846   0.685
 3705SOL     OW12013   5.594   4.277   3.759
 3705SOL    HW112014   5.614   4.372   3.735
 3705SOL    HW212015   5.537   4.275   3.842
 3706SOL     OW12016   1.344   4.687   6.149
 3706SOL    HW112017   1.358   4.670   6.052
 3706SOL    HW212018   1.281   4.763   6.162
 3707SOL     OW12019   1.242   4.752   3.301
 3707SOL    HW112020   1.190   4.674   3.337
 3707SOL    HW212021   1.294   4.795   3.375
 3708SOL     OW12022   2.281   6.175   1.055
 3708SOL    HW112023   2.237   6.194   0.967
 3708SOL    HW212024   2.303   6.078   1.062
 3709SOL     OW12025   1.189   1.119   1.610
 3709SOL    HW112026   1.195   1.208   1.564
 3709SOL    HW212027   1.220   1.048   1.547
 3710SOL     OW12028   1.174   4.257   4.978
 3710SOL    HW112029   1.136   4.332   5.031
 3710SOL    HW212030   1.141   4.263   4.883
 3711SOL     OW12031   1.248   5.569   4.540
 3711SOL    HW112032   1.339   5.529   4.526
 3711SOL    HW212033   1.212   5.540   4.628
 3712SOL     OW12034   2.610   5.574   4.471
 3712SOL    HW112035   2.599   5.579   4.372
 3712SOL    HW212036   2.669   5.648   4.502
 3713SOL     OW12037   5.886   0.755   4.564
 3713SOL    HW112038   5.894   0.658   4.585
 3713SOL    HW212039   5.795   0.787   4.590
 3714SOL     OW12040   0.473   4.021   0.500
 3714SOL    HW112041   0.397   4.046   0.560
 3714SOL    HW212042   0.450   4.047   0.406
 3715SOL     OW12043   5.844   4.721   3.559
 3715SOL    HW112044   5.925   4.775   3.584
 3715SOL    HW212045   5.869   4.654   3.489
 3716SOL     OW12046   5.553   5.865   4.865
 3716SOL    HW112047   5.549   5.962   4.885
 3716SOL    HW212048   5.481   5.842   4.799
 3717SOL     OW12049   4.673   0.562   0.569
 3717SOL    HW112050   4.762   0.555   0.524
 3717SOL    HW212051   4.682   0.613   0.654
 3718SOL     OW12052   6.058   6.595   6.625
 3718SOL    HW112053   6.099   6.674   6.579
 3718SOL    HW212054   5.967   6.620   6.659
 3719SOL     OW12055   3.225   3.970   0.196
 3719SOL    HW112056   3.269   4.057   0.215
 3719SOL    HW212057   3.128   3.985   0.178
 3720SOL     OW12058   0.312   3.091   1.013
 3720SOL    HW112059   0.278   2.997   1.006
 3720SOL    HW212060   0.236   3.153   1.034
 3721SOL     OW12061   6.506   0.034   5.807
 3721SOL    HW112062   6.488   6.958   5.789
 3721SOL    HW212063   6.512   0.048   5.906
 3722SOL     OW12064   5.538   6.790   2.054
 3722SOL    HW112065   5.551   6.826   1.962
 3722SOL    HW212066   5.609   6.827   2.114
 3723SOL     OW12067   4.629   3.335   6.498
 3723SOL    HW112068   4.535   3.312   6.520
 3723SOL    HW212069   4.633   3.376   6.407
 3724SOL     OW12070   0.600   3.951   4.111
 3724SOL    HW112071   0.517   4.006   4.102
 3724SOL    HW212072   0.648   3.976   4.195
 3725SOL     OW12073   1.631   6.207   0.473
 3725SOL    HW112074   1.543   6.164   0.452
 3725SOL    HW212075   1.623   6.260   0.558
 3726SOL     OW12076   6.092   4.263   5.691
 3726SOL    HW112077   6.157   4.229   5.623
 3726SOL    HW212078   6.141   4.314   5.761
 3727SOL     OW12079   6.750   2.732   4.131
 3727SOL    HW112080   6.654   2.738   4.102
 3727SOL    HW212081   6.778   2.819   4.171
 3728SOL     OW12082   2.707   4.125   0.732
 3728SOL    HW112083   2.667   4.058   0.796
 3728SOL    HW212084   2.715   4.084   0.641
 3729SOL     OW12085   0.191   0.666   5.536
 3729SOL    HW112086   0.135   0.729   5.482
 3729SOL    HW212087   0.227   0.595   5.477
 3730SOL     OW12088   5.061   5.372   4.738
 3730SOL    HW112089   5.015   5.336   4.657
 3730SOL    HW212090   5.095   5.296   4.794
 3731SOL     OW12091   0.093   1.897   0.532
 3731SOL    HW112092   0.047   1.979   0.498
 3731SOL    HW212093   0.190   1.918   0.548
 3732SOL     OW12094   3.749   3.256   0.024
 3732SOL    HW112095   3.798   3.183   6.996
 3732SOL    HW212096   3.810   3.299   0.090
 3733SOL     OW12097   1.508   0.184   3.977
 3733SOL    HW112098   1.520   0.220   4.069
 3733SOL    HW212099   1.419   0.213   3.941
 3734SOL     OW12100   3.881   0.418   1.259
 3734SOL    HW112101   3.916   0.373   1.177
 3734SOL    HW212102   3.795   0.376   1.287
 3735SOL     OW12103   4.741   0.062   2.939
 3735SOL    HW112104   4.783   0.066   2.848
 3735SOL    HW212105   4.643   0.081   2.930
 3736SOL     OW12106   0.107   1.342   6.763
 3736SOL    HW112107   0.027   1.391   6.727
 3736SOL    HW212108   0.129   1.377   6.854
 3737SOL     OW12109   6.090   1.838   2.530
 3737SOL    HW112110   5.999   1.880   2.518
 3737SOL    HW212111   6.160   1.909   2.524
 3738SOL     OW12112   0.188   0.364   1.303
 3738SOL    HW112113   0.089   0.366   1.298
 3738SOL    HW212114   0.217   0.287   1.360
 3739SOL     OW12115   3.330   3.803   6.620
 3739SOL    HW112116   3.322   3.705   6.639
 3739SOL    HW212117   3.257   3.831   6.558
 3740SOL     OW12118   4.642   5.655   0.048
 3740SOL    HW112119   4.586   5.728   0.009
 3740SOL    HW212120   4.711   5.695   0.109
 3741SOL     OW12121   5.499   3.433   0.356
 3741SOL    HW112122   5.534   3.376   0.281
 3741SOL    HW212123   5.493   3.377   0.439
 3742SOL     OW12124   4.419   5.707   1.197
 3742SOL    HW112125   4.328   5.699   1.237
 3742SOL    HW212126   4.412   5.740   1.103
 3743SOL     OW12127   3.599   4.219   1.080
 3743SOL    HW112128   3.680   4.197   1.026
 3743SOL    HW212129   3.542   4.137   1.090
 3744SOL     OW12130   6.469   6.573   2.642
 3744SOL    HW112131   6.551   6.542   2.595
 3744SOL    HW212132   6.492   6.599   2.736
 3745SOL     OW12133   4.735   2.837   2.542
 3745SOL    HW112134   4.702   2.839   2.448
 3745SOL    HW212135   4.835   2.844   2.543
 3746SOL     OW12136   6.299   0.715   4.543
 3746SOL    HW112137   6.355   0.787   4.503
 3746SOL    HW212138   6.353   0.631   4.552
 3747SOL     OW12139   3.335   5.669   5.403
 3747SOL    HW112140   3.289   5.757   5.389
 3747SOL    HW212141   3.339   5.648   5.500
 3748SOL     OW12142   5.075   2.327   3.738
 3748SOL    HW112143   5.134   2.404   3.763
 3748SOL    HW212144   5.002   2.318   3.806
 3749SOL     OW12145   6.560   6.232   2.536
 3749SOL    HW112146   6.630   6.161   2.527
 3749SOL    HW212147   6.561   6.269   2.629
 3750SOL     OW12148   5.398   3.929   0.947
 3750SOL    HW112149   5.348   3.878   1.018
 3750SOL    HW212150   5.399   3.876   0.863
 3751SOL     OW12151   1.119   4.237   1.957
 3751SOL    HW112152   1.098   4.321   2.006
 3751SOL    HW212153   1.148   4.166   2.021
 3752SOL     OW12154   0.552   6.187   6.039
 3752SOL    HW112155   0.542   6.088   6.047
 3752SOL    HW212156   0.527   6.216   5.947
 3753SOL     OW12157   0.002   0.936   4.734
 3753SOL    HW112158   0.072   0.940   4.663
 3753SOL    HW212159   0.029   0.993   4.812
 3754SOL     OW12160   6.637   6.100   1.866
 3754SOL    HW112161   6.569   6.153   1.916
 3754SOL    HW212162   6.720   6.091   1.921
 3755SOL     OW12163   5.240   2.832   2.773
 3755SOL    HW112164   5.182   2.904   2.811
 3755SOL    HW212165   5.236   2.751   2.832
 3756SOL     OW12166   3.325   0.024   6.807
 3756SOL    HW112167   3.237   0.055   6.843
 3756SOL    HW212168   3.375   6.996   6.879
 3757SOL     OW12169   3.589   4.679   6.932
 3757SOL    HW112170   3.603   4.593   6.882
 3757SOL    HW212171   3.647   4.680   7.014
 3758SOL     OW12172   0.057   0.540   3.144
 3758SOL    HW112173   0.122   0.467   3.122
 3758SOL    HW212174   0.081   0.623   3.094
 3759SOL     OW12175   4.927   4.949   0.574
 3759SOL    HW112176   5.007   4.929   0.631
 3759SOL    HW212177   4.892   5.040   0.597
 3760SOL     OW12178   2.378   2.077   5.578
 3760SOL    HW112179   2.405   2.121   5.492
 3760SOL    HW212180   2.412   2.131   5.654
 3761SOL     OW12181   0.286   6.839   4.290
 3761SOL    HW112182   0.336   6.811   4.209
 3761SOL    HW212183   0.310   6.779   4.367
 3762SOL     OW12184   0.537   3.840   6.768
 3762SOL    HW112185   0.545   3.750   6.810
 3762SOL    HW212186   0.446   3.851   6.729
 3763SOL     OW12187   6.643   3.807   6.075
 3763SOL    HW112188   6.708   3.768   6.140
 3763SOL    HW212189   6.555   3.819   6.120
 3764SOL     OW12190   2.597   0.060   4.082
 3764SOL    HW112191   2.541   0.010   4.148
 3764SOL    HW212192   2.687   0.017   4.076
 3765SOL     OW12193   6.347   1.641   3.198
 3765SOL    HW112194   6.440   1.613   3.173
 3765SOL    HW212195   6.351   1.728   3.247
 3766SOL     OW12196   1.571   0.394   5.006
 3766SOL    HW112197   1.590   0.343   4.922
 3766SOL    HW212198   1.532   0.483   4.983
 3767SOL     OW12199   1.530   4.089   0.798
 3767SOL    HW112200   1.534   4.162   0.730
 3767SOL    HW212201   1.523   4.129   0.889
 3768SOL     OW12202   4.542   6.680   0.983
 3768SOL    HW112203   4.604   6.729   1.044
 3768SOL    HW212204   4.469   6.637   1.036
 3769SOL     OW12205   4.560   6.614   5.013
 3769SOL    HW112206   4.652   6.619   5.051
 3769SOL    HW212207   4.500   6.567   5.078
 3770SOL     OW12208   2.316   1.251   0.556
 3770SOL    HW112209   2.226   1.213   0.576
 3770SOL    HW212210   2.359   1.282   0.641
 3771SOL     OW12211   4.826   1.456   5.249
 3771SOL    HW112212   4.789   1.543   5.216
 3771SOL    HW212213   4.755   1.405   5.297
 3772SOL     OW12214   4.786   1.118   2.789
 3772SOL    HW112215   4.834   1.032   2.774
 3772SOL    HW212216   4.842   1.194   2.754
 3773SOL     OW12217   6.645   2.320   0.148
 3773SOL    HW112218   6.657   2.277   0.058
 3773SOL    HW212219   6.670   2.254   0.220
 3774SOL     OW12220   1.103   2.118   2.107
 3774SOL    HW112221   1.051   2.117   2.192
 3774SOL    HW212222   1.044   2.145   2.031
 3775SOL     OW12223   5.835   2.975   3.566
 3775SOL    HW112224   5.909   3.026   3.610
 3775SOL    HW212225   5.857   2.962   3.469
 3776SOL     OW12226   3.167   2.811   6.874
 3776SOL    HW112227   3.201   2.723   6.842
 3776SOL    HW212228   3.077   2.799   6.915
 3777SOL     OW12229   1.525   3.943   3.457
 3777SOL    HW112230   1.486   3.908   3.542
 3777SOL    HW212231   1.582   4.023   3.478
 3778SOL     OW12232   2.197   6.586   1.991
 3778SOL    HW112233   2.146   6.669   2.011
 3778SOL    HW212234   2.294   6.608   1.979
 3779SOL     OW12235   3.075   5.202   6.946
 3779SOL    HW112236   3.169   5.169   6.937
 3779SOL    HW212237   3.048   5.199   0.021
 3780SOL     OW12238   2.520   0.106   4.789
 3780SOL    HW112239   2.558   0.136   4.701
 3780SOL    HW212240   2.467   0.181   4.830
 3781SOL     OW12241   2.704   5.200   4.693
 3781SOL    HW112242   2.623   5.177   4.747
 3781SOL    HW212243   2.786   5.165   4.740
 3782SOL     OW12244   2.522   1.380   3.024
 3782SOL    HW112245   2.533   1.470   3.065
 3782SOL    HW212246   2.435   1.376   2.975
 3783SOL     OW12247   5.073   5.764   5.873
 3783SOL    HW112248   5.033   5.684   5.827
 3783SOL    HW212249   5.141   5.807   5.813
 3784SOL     OW12250   4.829   1.575   3.861
 3784SOL    HW112251   4.860   1.668   3.882
 3784SOL    HW212252   4.890   1.535   3.793
 3785SOL     OW12253   1.472   1.644   1.804
 3785SOL    HW112254   1.527   1.634   1.721
 3785SOL    HW212255   1.510   1.718   1.859
 3786SOL     OW12256   3.559   5.592   3.031
 3786SOL    HW112257   3.507   5.518   2.987
 3786SOL    HW212258   3.576   5.568   3.126
 3787SOL     OW12259   4.171   1.255   4.485
 3787SOL    HW112260   4.200   1.263   4.580
 3787SOL    HW212261   4.185   1.343   4.438
 3788SOL     OW12262   5.819   3.685   2.061
 3788SOL    HW112263   5.720   3.670   2.052
 3788SOL    HW212264   5.844   3.768   2.011
 3789SOL     OW12265   1.094   5.254   2.720
 3789SOL    HW112266   1.090   5.184   2.649
 3789SOL    HW212267   1.097   5.210   2.810
 3790SOL     OW12268   2.253   2.996   3.690
 3790SOL    HW112269   2.280   2.903   3.716
 3790SOL    HW212270   2.202   3.037   3.765
 3791SOL     OW12271   5.656   0.171   2.433
 3791SOL    HW112272   5.630   0.110   2.507
 3791SOL    HW212273   5.748   0.149   2.402
 3792SOL     OW12274   6.963   6.872   6.476
 3792SOL    HW112275   7.018   6.952   6.500
 3792SOL    HW212276   0.003   6.795   6.455
 3793SOL     OW12277   2.043   6.456   2.989
 3793SOL    HW112278   2.090   6.420   3.069
 3793SOL    HW212279   1.947   6.427   2.991
 3794SOL     OW12280   4.051   6.168   2.506
 3794SOL    HW112281   4.005   6.237   2.450
 3794SOL    HW212282   4.121   6.212   2.563
 3795SOL     OW12283   4.892   0.395   0.957
 3795SOL    HW112284   4.838   0.390   0.872
 3795SOL    HW212285   4.974   0.338   0.948
 3796SOL     OW12286   1.686   2.846   1.127
 3796SOL    HW112287   1.633   2.761   1.136
 3796SOL    HW212288   1.676   2.900   1.210
 3797SOL     OW12289   0.373   5.622   2.455
 3797SOL    HW112290   0.277   5.597   2.441
 3797SOL    HW212291   0.406   5.675   2.377
 3798SOL     OW12292   0.874   4.315   1.588
 3798SOL    HW112293   0.781   4.353   1.593
 3798SOL    HW212294   0.927   4.366   1.520
 3799SOL     OW12295   1.285   0.534   5.356
 3799SOL    HW112296   1.313   0.621   5.395
 3799SOL    HW212297   1.194   0.509   5.392
 3800SOL     OW12298   5.271   2.241   5.094
 3800SOL    HW112299   5.211   2.288   5.159
 3800SOL    HW212300   5.222   2.163   5.054
 3801SOL     OW12301   6.913   0.165   6.767
 3801SOL    HW112302   7.001   0.132   6.731
 3801SOL    HW212303   6.922   0.260   6.795
 3802SOL     OW12304   1.340   2.334   5.775
 3802SOL    HW112305   1.422   2.327   5.718
 3802SOL    HW212306   1.366   2.363   5.867
 3803SOL     OW12307   3.709   1.609   1.144
 3803SOL    HW112308   3.734   1.530   1.201
 3803SOL    HW212309   3.753   1.691   1.180
 3804SOL     OW12310   4.598   2.891   5.131
 3804SOL    HW112311   4.586   2.872   5.033
 3804SOL    HW212312   4.557   2.817   5.184
 3805SOL     OW12313   2.121   3.828   1.393
 3805SOL    HW112314   2.200   3.888   1.403
 3805SOL    HW212315   2.119   3.763   1.469
 3806SOL     OW12316   3.200   1.631   0.574
 3806SOL    HW112317   3.145   1.682   0.507
 3806SOL    HW212318   3.140   1.568   0.623
 3807SOL     OW12319   1.393   6.877   3.116
 3807SOL    HW112320   1.489   6.849   3.114
 3807SOL    HW212321   1.383   6.965   3.070
 3808SOL     OW12322   3.330   0.321   0.260
 3808SOL    HW112323   3.348   0.237   0.312
 3808SOL    HW212324   3.235   0.348   0.272
 3809SOL     OW12325   4.720   0.242   6.437
 3809SOL    HW112326   4.788   0.199   6.377
 3809SOL    HW212327   4.756   0.328   6.471
 3810SOL     OW12328   2.674   2.992   5.630
 3810SOL    HW112329   2.597   2.953   5.679
 3810SOL    HW212330   2.753   3.001   5.691
 3811SOL     OW12331   0.173   0.462   6.283
 3811SOL    HW112332   0.249   0.516   6.245
 3811SOL    HW212333   0.197   0.365   6.280
 3812SOL     OW12334   5.281   1.417   5.529
 3812SOL    HW112335   5.278   1.473   5.612
 3812SOL    HW212336   5.190   1.411   5.489
 3813SOL     OW12337   3.895   4.763   1.853
 3813SOL    HW112338   3.932   4.675   1.824
 3813SOL    HW212339   3.796   4.754   1.869
 3814SOL     OW12340   1.560   6.479   2.318
 3814SOL    HW112341   1.483   6.415   2.310
 3814SOL    HW212342   1.593   6.503   2.227
 3815SOL     OW12343   5.659   1.955   1.603
 3815SOL    HW112344   5.616   1.883   1.658
 3815SOL    HW212345   5.653   1.931   1.506
 3816SOL     OW12346   0.447   6.573   1.329
 3816SOL    HW112347   0.409   6.530   1.247
 3816SOL    HW212348   0.544   6.595   1.314
 3817SOL     OW12349   5.033   1.430   5.451
 3817SOL    HW112350   5.030   1.506   5.516
 3817SOL    HW212351   4.960   1.441   5.383
 3818SOL     OW12352   4.800   5.431   2.781
 3818SOL    HW112353   4.877   5.475   2.828
 3818SOL    HW212354   4.773   5.487   2.703
 3819SOL     OW12355   5.698   4.446   6.087
 3819SOL    HW112356   5.782   4.424   6.038
 3819SOL    HW212357   5.641   4.365   6.096
 3820SOL     OW12358   5.128   5.984   4.466
 3820SOL    HW112359   5.091   6.051   4.530
 3820SOL    HW212360   5.222   6.008   4.443
 3821SOL     OW12361   0.856   3.929   0.848
 3821SOL    HW112362   0.809   4.016   0.834
 3821SOL    HW212363   0.801   3.871   0.908
 3822SOL     OW12364   1.303   4.755   1.863
 3822SOL    HW112365   1.300   4.740   1.765
 3822SOL    HW212366   1.317   4.668   1.910
 3823SOL     OW12367   2.508   2.783   5.462
 3823SOL    HW112368   2.470   2.872   5.439
 3823SOL    HW212369   2.597   2.771   5.417
 3824SOL     OW12370   6.596   2.338   6.678
 3824SOL    HW112371   6.525   2.401   6.707
 3824SOL    HW212372   6.558   2.271   6.614
 3825SOL     OW12373   6.181   6.504   6.122
 3825SOL    HW112374   6.212   6.573   6.187
 3825SOL    HW212375   6.133   6.431   6.171
 3826SOL     OW12376   6.553   2.093   0.873
 3826SOL    HW112377   6.557   2.058   0.780
 3826SOL    HW212378   6.462   2.130   0.891
 3827SOL     OW12379   4.928   2.698   1.093
 3827SOL    HW112380   4.915   2.753   1.175
 3827SOL    HW212381   4.899   2.604   1.110
 3828SOL     OW12382   4.088   1.237   1.581
 3828SOL    HW112383   4.066   1.163   1.643
 3828SOL    HW212384   4.179   1.221   1.541
 3829SOL     OW12385   0.998   5.577   3.869
 3829SOL    HW112386   1.044   5.539   3.949
 3829SOL    HW212387   0.900   5.585   3.888
 3830SOL     OW12388   3.236   0.842   5.061
 3830SOL    HW112389   3.298   0.919   5.045
 3830SOL    HW212390   3.178   0.829   4.981
 3831SOL     OW12391   4.379   2.061   2.384
 3831SOL    HW112392   4.397   2.055   2.286
 3831SOL    HW212393   4.346   2.153   2.407
 3832SOL     OW12394   5.303   0.187   2.356
 3832SOL    HW112395   5.230   0.165   2.291
 3832SOL    HW212396   5.386   0.138   2.330
 3833SOL     OW12397   1.883   6.126   0.449
 3833SOL    HW112398   1.937   6.210   0.445
 3833SOL    HW212399   1.786   6.148   0.441
 3834SOL     OW12400   2.738   2.308   0.836
 3834SOL    HW112401   2.747   2.405   0.859
 3834SOL    HW212402   2.656   2.295   0.780
 3835SOL     OW12403   3.553   5.769   4.150
 3835SOL    HW112404   3.637   5.790   4.100
 3835SOL    HW212405   3.552   5.672   4.175
 3836SOL     OW12406   1.748   3.456   5.438
 3836SOL    HW112407   1.818   3.521   5.410
 3836SOL    HW212408   1.737   3.386   5.367
 3837SOL     OW12409   2.960   3.704   0.352
 3837SOL    HW112410   2.904   3.621   0.346
 3837SOL    HW212411   2.925   3.773   0.289
 3838SOL     OW12412   5.838   3.293   5.340
 3838SOL    HW112413   5.739   3.301   5.324
 3838SOL    HW212414   5.876   3.382   5.365
 3839SOL     OW12415   6.448   6.356   6.325
 3839SOL    HW112416   6.379   6.428   6.331
 3839SOL    HW212417   6.446   6.316   6.234
 3840SOL     OW12418   2.512   0.779   3.596
 3840SOL    HW112419   2.455   0.702   3.626
 3840SOL    HW212420   2.478   0.864   3.637
 3841SOL     OW12421   0.861   4.101   4.759
 3841SOL    HW112422   0.893   4.078   4.851
 3841SOL    HW212423   0.779   4.158   4.766
 3842SOL     OW12424   1.502   4.935   6.368
 3842SOL    HW112425   1.403   4.930   6.382
 3842SOL    HW212426   1.538   4.844   6.353
 3843SOL     OW12427   5.692   3.882   0.294
 3843SOL    HW112428   5.785   3.851   0.315
 3843SOL    HW212429   5.685   3.981   0.308
 3844SOL     OW12430   2.745   3.998   6.127
 3844SOL    HW112431   2.733   4.060   6.205
 3844SOL    HW212432   2.789   3.914   6.157
 3845SOL     OW12433   2.924   3.349   3.593
 3845SOL    HW112434   2.870   3.375   3.513
 3845SOL    HW212435   2.998   3.289   3.565
 3846SOL     OW12436   0.024   3.879   4.038
 3846SOL    HW112437   6.963   3.901   3.984
 3846SOL    HW212438   0.103   3.874   3.977
 3847SOL     OW12439   0.835   7.018   0.684
 3847SOL    HW112440   0.781   0.016   0.601
 3847SOL    HW212441   0.930   7.004   0.659
 3848SOL     OW12442   3.076   5.103   1.291
 3848SOL    HW112443   3.119   5.187   1.258
 3848SOL    HW212444   3.009   5.072   1.224
 3849SOL     OW12445   2.114   1.714   6.259
 3849SOL    HW112446   2.178   1.783   6.226
 3849SOL    HW212447   2.022   1.753   6.262
 3850SOL     OW12448   2.434   4.039   0.934
 3850SOL    HW112449   2.489   3.980   0.993
 3850SOL    HW212450   2.386   4.106   0.991
 3851SOL     OW12451   2.151   3.007   1.355
 3851SOL    HW112452   2.176   2.990   1.451
 3851SOL    HW212453   2.173   3.102   1.332
 3852SOL     OW12454   4.695   0.793   5.686
 3852SOL    HW112455   4.596   0.792   5.701
 3852SOL    HW212456   4.718   0.724   5.617
 3853SOL     OW12457   1.561   2.980   1.961
 3853SOL    HW112458   1.587   2.886   1.939
 3853SOL    HW212459   1.588   3.001   2.055
 3854SOL     OW12460   1.834   3.307   4.924
 3854SOL    HW112461   1.835   3.406   4.917
 3854SOL    HW212462   1.888   3.278   5.003
 3855SOL     OW12463   6.953   2.009   5.025
 3855SOL    HW112464   6.895   1.932   5.053
 3855SOL    HW212465   6.902   2.067   4.962
 3856SOL     OW12466   0.710   6.753   5.701
 3856SOL    HW112467   0.806   6.776   5.714
 3856SOL    HW212468   0.668   6.731   5.789
 3857SOL     OW12469   1.125   6.909   6.733
 3857SOL    HW112470   1.176   6.841   6.786
 3857SOL    HW212471   1.145   6.898   6.636
 3858SOL     OW12472   2.663   5.152   6.784
 3858SOL    HW112473   2.744   5.094   6.787
 3858SOL    HW212474   2.685   5.238   6.737
 3859SOL     OW12475   6.608   2.689   1.357
 3859SOL    HW112476   6.685   2.633   1.328
 3859SOL    HW212477   6.529   2.670   1.299
 3860SOL     OW12478   2.004   6.562   5.262
 3860SOL    HW112479   2.020   6.463   5.257
 3860SOL    HW212480   2.071   6.610   5.206
 3861SOL     OW12481   4.197   4.404   0.000
 3861SOL    HW112482   4.191   4.382   0.097
 3861SOL    HW212483   4.133   4.477   6.999
 3862SOL     OW12484   0.841   5.221   5.668
 3862SOL    HW112485   0.748   5.185   5.674
 3862SOL    HW212486   0.897   5.180   5.740
 3863SOL     OW12487   2.887   3.500   0.521
 3863SOL    HW112488   2.801   3.463   0.484
 3863SOL    HW212489   2.890   3.599   0.503
 3864SOL     OW12490   2.863   1.377   0.039
 3864SOL    HW112491   2.811   1.446   7.008
 3864SOL    HW212492   2.935   1.340   7.001
 3865SOL     OW12493   4.324   0.836   2.443
 3865SOL    HW112494   4.260   0.906   2.409
 3865SOL    HW212495   4.394   0.880   2.499
 3866SOL     OW12496   3.713   6.367   6.450
 3866SOL    HW112497   3.621   6.393   6.481
 3866SOL    HW212498   3.767   6.449   6.433
 3867SOL     OW12499   1.778   4.274   3.232
 3867SOL    HW112500   1.871   4.311   3.235
 3867SOL    HW212501   1.763   4.229   3.144
 3868SOL     OW12502   2.663   5.275   2.500
 3868SOL    HW112503   2.751   5.239   2.469
 3868SOL    HW212504   2.676   5.330   2.583
 3869SOL     OW12505   1.036   1.530   3.545
 3869SOL    HW112506   1.061   1.627   3.549
 3869SOL    HW212507   1.117   1.474   3.562
 3870SOL     OW12508   4.221   4.246   0.711
 3870SOL    HW112509   4.144   4.246   0.647
 3870SOL    HW212510   4.234   4.153   0.747
 3871SOL     OW12511   3.089   1.359   4.623
 3871SOL    HW112512   3.018   1.289   4.625
 3871SOL    HW212513   3.053   1.442   4.581
 3872SOL     OW12514   4.244   3.765   0.245
 3872SOL    HW112515   4.163   3.770   0.303
 3872SOL    HW212516   4.229   3.698   0.172
 3873SOL     OW12517   5.209   4.731   1.931
 3873SOL    HW112518   5.223   4.654   1.993
 3873SOL    HW212519   5.190   4.814   1.984
 3874SOL     OW12520   4.992   6.196   6.216
 3874SOL    HW112521   5.012   6.113   6.269
 3874SOL    HW212522   4.901   6.188   6.175
 3875SOL     OW12523   2.309   4.453   0.351
 3875SOL    HW112524   2.260   4.398   0.420
 3875SOL    HW212525   2.249   4.467   0.272
 3876SOL     OW12526   5.642   4.044   2.021
 3876SOL    HW112527   5.646   4.130   2.072
 3876SOL    HW212528   5.609   3.971   2.081
 3877SOL     OW12529   5.134   1.587   1.669
 3877SOL    HW112530   5.164   1.527   1.744
 3877SOL    HW212531   5.206   1.653   1.648
 3878SOL     OW12532   4.748   5.984   4.605
 3878SOL    HW112533   4.670   5.923   4.607
 3878SOL    HW212534   4.828   5.937   4.567
 3879SOL     OW12535   2.808   5.664   1.264
 3879SOL    HW112536   2.896   5.686   1.221
 3879SOL    HW212537   2.793   5.565   1.261
 3880SOL     OW12538   5.660   1.999   4.306
 3880SOL    HW112539   5.660   1.958   4.215
 3880SOL    HW212540   5.669   2.098   4.298
 3881SOL     OW12541   1.088   5.122   0.737
 3881SOL    HW112542   1.060   5.041   0.789
 3881SOL    HW212543   1.187   5.132   0.743
 3882SOL     OW12544   0.788   5.887   7.003
 3882SOL    HW112545   0.848   5.884   0.063
 3882SOL    HW212546   0.790   5.798   6.957
 3883SOL     OW12547   3.032   1.997   6.371
 3883SOL    HW112548   3.077   2.037   6.450
 3883SOL    HW212549   3.097   1.941   6.320
 3884SOL     OW12550   2.011   5.180   5.629
 3884SOL    HW112551   2.106   5.150   5.627
 3884SOL    HW212552   1.993   5.240   5.551
 3885SOL     OW12553   0.130   1.958   4.838
 3885SOL    HW112554   0.153   2.051   4.808
 3885SOL    HW212555   0.055   1.962   4.904
 3886SOL     OW12556   0.060   6.560   5.256
 3886SOL    HW112557   0.083   6.470   5.219
 3886SOL    HW212558   0.122   6.582   5.331
 3887SOL     OW12559   5.977   3.025   4.576
 3887SOL    HW112560   5.877   3.024   4.564
 3887SOL    HW212561   5.999   2.999   4.670
 3888SOL     OW12562   6.070   2.099   2.038
 3888SOL    HW112563   6.014   2.023   2.007
 3888SOL    HW212564   6.124   2.071   2.117
 3889SOL     OW12565   6.593   5.812   6.691
 3889SOL    HW112566   6.584   5.906   6.724
 3889SOL    HW212567   6.513   5.759   6.718
 3890SOL     OW12568   6.770   3.269   2.931
 3890SOL    HW112569   6.745   3.309   2.843
 3890SOL    HW212570   6.756   3.170   2.929
 3891SOL     OW12571   5.175   5.195   6.012
 3891SOL    HW112572   5.205   5.273   5.958
 3891SOL    HW212573   5.219   5.112   5.977
 3892SOL     OW12574   5.732   5.717   4.282
 3892SOL    HW112575   5.718   5.750   4.376
 3892SOL    HW212576   5.658   5.653   4.258
 3893SOL     OW12577   2.857   6.289   4.395
 3893SOL    HW112578   2.852   6.351   4.317
 3893SOL    HW212579   2.927   6.219   4.378
 3894SOL     OW12580   5.088   5.446   6.784
 3894SOL    HW112581   5.044   5.528   6.748
 3894SOL    HW212582   5.079   5.371   6.719
 3895SOL     OW12583   2.084   2.002   5.897
 3895SOL    HW112584   2.109   1.914   5.857
 3895SOL    HW212585   1.987   2.001   5.922
 3896SOL     OW12586   6.275   3.312   6.948
 3896SOL    HW112587   6.201   3.379   6.942
 3896SOL    HW212588   6.260   3.253   0.007
 3897SOL     OW12589   3.621   6.520   3.431
 3897SOL    HW112590   3.572   6.462   3.366
 3897SOL    HW212591   3.567   6.528   3.515
 3898SOL     OW12592   3.194   3.273   4.525
 3898SOL    HW112593   3.267   3.323   4.478
 3898SOL    HW212594   3.181   3.185   4.480
 3899SOL     OW12595   3.937   1.667   5.793
 3899SOL    HW112596   3.927   1.695   5.889
 3899SOL    HW212597   4.002   1.591   5.787
 3900SOL     OW12598   0.244   2.896   4.191
 3900SOL    HW112599   0.149   2.919   4.209
 3900SOL    HW212600   0.299   2.979   4.188
 3901SOL     OW12601   2.676   5.393   5.507
 3901SOL    HW112602   2.692   5.295   5.500
 3901SOL    HW212603   2.583   5.414   5.476
 3902SOL     OW12604   4.354   4.730   3.126
 3902SOL    HW112605   4.263   4.760   3.153
 3902SOL    HW212606   4.422   4.772   3.187
 3903SOL     OW12607   4.009   3.528   5.999
 3903SOL    HW112608   4.070   3.491   5.928
 3903SOL    HW212609   3.927   3.471   6.005
 3904SOL     OW12610   2.230   0.008   0.242
 3904SOL    HW112611   2.249   6.951   0.303
 3904SOL    HW212612   2.222   0.092   0.295
 3905SOL     OW12613   5.525   0.113   6.219
 3905SOL    HW112614   5.573   0.198   6.197
 3905SOL    HW212615   5.493   0.116   6.314
 3906SOL     OW12616   6.801   6.416   4.705
 3906SOL    HW112617   6.746   6.496   4.730
 3906SOL    HW212618   6.896   6.445   4.691
 3907SOL     OW12619   0.364   1.883   4.736
 3907SOL    HW112620   0.277   1.906   4.781
 3907SOL    HW212621   0.426   1.960   4.743
 3908SOL     OW12622   2.092   1.224   4.360
 3908SOL    HW112623   2.168   1.282   4.388
 3908SOL    HW212624   2.088   1.220   4.261
 3909SOL     OW12625   4.993   3.423   1.598
 3909SOL    HW112626   4.970   3.351   1.532
 3909SOL    HW212627   4.956   3.400   1.687
 3910SOL     OW12628   2.498   2.892   1.043
 3910SOL    HW112629   2.493   2.864   1.139
 3910SOL    HW212630   2.588   2.929   1.023
 3911SOL     OW12631   0.296   1.199   1.603
 3911SOL    HW112632   0.227   1.269   1.589
 3911SOL    HW212633   0.298   1.138   1.524
 3912SOL     OW12634   4.546   3.842   6.989
 3912SOL    HW112635   4.571   3.881   0.057
 3912SOL    HW212636   4.526   3.745   7.001
 3913SOL     OW12637   4.142   5.386   1.531
 3913SOL    HW112638   4.145   5.460   1.464
 3913SOL    HW212639   4.054   5.338   1.524
 3914SOL     OW12640   0.028   1.566   0.198
 3914SOL    HW112641   0.073   1.549   0.286
 3914SOL    HW212642   6.955   1.529   0.201
 3915SOL     OW12643   5.368   0.601   5.496
 3915SOL    HW112644   5.332   0.648   5.416
 3915SOL    HW212645   5.297   0.543   5.536
 3916SOL     OW12646   1.828   2.200   2.868
 3916SOL    HW112647   1.921   2.181   2.836
 3916SOL    HW212648   1.804   2.294   2.845
 3917SOL     OW12649   4.065   4.780   2.280
 3917SOL    HW112650   4.063   4.865   2.229
 3917SOL    HW212651   3.991   4.720   2.249
 3918SOL     OW12652   4.743   6.982   0.713
 3918SOL    HW112653   4.780   6.903   0.666
 3918SOL    HW212654   4.664   7.018   0.663
 3919SOL     OW12655   4.899   5.978   3.520
 3919SOL    HW112656   4.803   5.968   3.546
 3919SOL    HW212657   4.918   5.919   3.441
 3920SOL     OW12658   3.378   1.608   5.577
 3920SOL    HW112659   3.429   1.693   5.570
 3920SOL    HW212660   3.370   1.565   5.487
 3921SOL     OW12661   1.559   3.627   6.382
 3921SOL    HW112662   1.513   3.588   6.302
 3921SOL    HW212663   1.565   3.726   6.372
 3922SOL     OW12664   5.028   2.587   4.023
 3922SOL    HW112665   5.034   2.669   4.080
 3922SOL    HW212666   4.933   2.556   4.020
 3923SOL     OW12667   5.771   1.343   1.718
 3923SOL    HW112668   5.746   1.437   1.743
 3923SOL    HW212669   5.688   1.289   1.703
 3924SOL     OW12670   4.870   4.533   4.653
 3924SOL    HW112671   4.933   4.458   4.671
 3924SOL    HW212672   4.800   4.503   4.587
 3925SOL     OW12673   3.796   5.722   1.616
 3925SOL    HW112674   3.761   5.630   1.599
 3925SOL    HW212675   3.747   5.788   1.561
 3926SOL     OW12676   0.965   5.767   5.074
 3926SOL    HW112677   1.021   5.776   4.991
 3926SOL    HW212678   0.937   5.672   5.086
 3927SOL     OW12679   5.778   0.724   4.929
 3927SOL    HW112680   5.857   0.667   4.907
 3927SOL    HW212681   5.794   0.817   4.897
 3928SOL     OW12682   4.560   5.825   2.300
 3928SOL    HW112683   4.605   5.736   2.297
 3928SOL    HW212684   4.466   5.814   2.331
 3929SOL     OW12685   1.177   1.283   5.878
 3929SOL    HW112686   1.101   1.321   5.930
 3929SOL    HW212687   1.263   1.324   5.910
 3930SOL     OW12688   2.121   5.561   4.178
 3930SOL    HW112689   2.171   5.645   4.199
 3930SOL    HW212690   2.117   5.503   4.259
 3931SOL     OW12691   0.458   2.254   0.276
 3931SOL    HW112692   0.454   2.315   0.356
 3931SOL    HW212693   0.366   2.246   0.237
 3932SOL     OW12694   2.353   4.295   2.631
 3932SOL    HW112695   2.358   4.334   2.723
 3932SOL    HW212696   2.281   4.226   2.628
 3933SOL     OW12697   2.032   5.793   0.780
 3933SOL    HW112698   2.001   5.698   0.792
 3933SOL    HW212699   2.015   5.844   0.863
 3934SOL     OW12700   2.453   6.475   1.410
 3934SOL    HW112701   2.478   6.429   1.495
 3934SOL    HW212702   2.398   6.556   1.431
 3935SOL     OW12703   0.269   3.081   4.900
 3935SOL    HW112704   0.362   3.096   4.935
 3935SOL    HW212705   0.203   3.107   4.970
 3936SOL     OW12706   6.994   4.520   4.109
 3936SOL    HW112707   6.953   4.550   4.023
 3936SOL    HW212708   0.071   4.503   4.095
 3937SOL     OW12709   1.047   6.467   0.414
 3937SOL    HW112710   1.054   6.547   0.473
 3937SOL    HW212711   1.066   6.384   0.466
 3938SOL     OW12712   0.741   3.407   0.355
 3938SOL    HW112713   0.776   3.497   0.326
 3938SOL    HW212714   0.810   3.363   0.413
 3939SOL     OW12715   1.788   6.668   4.026
 3939SOL    HW112716   1.718   6.608   4.063
 3939SOL    HW212717   1.746   6.735   3.965
 3940SOL     OW12718   2.426   6.026   6.375
 3940SOL    HW112719   2.453   6.115   6.413
 3940SOL    HW212720   2.418   6.034   6.275
 3941SOL     OW12721   5.366   5.707   2.422
 3941SOL    HW112722   5.351   5.668   2.513
 3941SOL    HW212723   5.378   5.633   2.356
 3942SOL     OW12724   6.490   6.052   6.786
 3942SOL    HW112725   6.402   6.011   6.761
 3942SOL    HW212726   6.488   6.079   6.882
 3943SOL     OW12727   1.682   3.582   6.935
 3943SOL    HW112728   1.621   3.636   6.876
 3943SOL    HW212729   1.770   3.570   6.890
 3944SOL     OW12730   4.892   3.255   6.548
 3944SOL    HW112731   4.803   3.277   6.508
 3944SOL    HW212732   4.905   3.307   6.633
 3945SOL     OW12733   5.852   0.573   3.394
 3945SOL    HW112734   5.776   0.511   3.375
 3945SOL    HW212735   5.877   0.621   3.310
 3946SOL     OW12736   6.779   2.977   0.693
 3946SOL    HW112737   6.765   3.061   0.642
 3946SOL    HW212738   6.832   2.996   0.776
 3947SOL     OW12739   5.470   6.259   2.272
 3947SOL    HW112740   5.483   6.167   2.309
 3947SOL    HW212741   5.383   6.296   2.305
 3948SOL     OW12742   2.270   1.279   5.449
 3948SOL    HW112743   2.327   1.353   5.411
 3948SOL    HW212744   2.294   1.264   5.545
 3949SOL     OW12745   5.895   0.103   2.348
 3949SOL    HW112746   5.914   0.087   2.251
 3949SOL    HW212747   5.956   0.175   2.382
 3950SOL     OW12748   3.107   4.727   1.827
 3950SOL    HW112749   3.132   4.761   1.918
 3950SOL    HW212750   3.054   4.642   1.836
 3951SOL     OW12751   0.512   2.993   3.656
 3951SOL    HW112752   0.454   2.945   3.590
 3951SOL    HW212753   0.504   2.949   3.746
 3952SOL     OW12754   5.511   4.217   6.857
 3952SOL    HW112755   5.458   4.141   6.821
 3952SOL    HW212756   5.449   4.288   6.892
 3953SOL     OW12757   3.239   3.701   5.587
 3953SOL    HW112758   3.240   3.793   5.625
 3953SOL    HW212759   3.148   3.679   5.553
 3954SOL     OW12760   0.669   3.343   4.970
 3954SOL    HW112761   0.614   3.262   4.989
 3954SOL    HW212762   0.709   3.335   4.879
 3955SOL     OW12763   6.315   3.381   0.536
 3955SOL    HW112764   6.272   3.439   0.467
 3955SOL    HW212765   6.245   3.328   0.584
 3956SOL     OW12766   6.403   2.830   5.427
 3956SOL    HW112767   6.457   2.771   5.366
 3956SOL    HW212768   6.462   2.899   5.467
 3957SOL     OW12769   1.163   2.223   1.811
 3957SOL    HW112770   1.198   2.282   1.738
 3957SOL    HW212771   1.076   2.259   1.844
 3958SOL     OW12772   5.607   5.898   1.433
 3958SOL    HW112773   5.646   5.921   1.344
 3958SOL    HW212774   5.628   5.970   1.499
 3959SOL     OW12775   2.456   4.885   1.721
 3959SOL    HW112776   2.527   4.898   1.791
 3959SOL    HW212777   2.494   4.905   1.631
 3960SOL     OW12778   5.428   2.981   0.889
 3960SOL    HW112779   5.390   3.037   0.816
 3960SOL    HW212780   5.386   2.890   0.885
 3961SOL     OW12781   6.692   0.770   1.435
 3961SOL    HW112782   6.614   0.732   1.485
 3961SOL    HW212783   6.771   0.777   1.496
 3962SOL     OW12784   6.943   0.342   6.148
 3962SOL    HW112785   6.976   0.342   6.054
 3962SOL    HW212786   7.015   0.309   6.209
 3963SOL     OW12787   5.004   4.388   4.079
 3963SOL    HW112788   4.991   4.296   4.043
 3963SOL    HW212789   4.939   4.451   4.037
 3964SOL     OW12790   5.831   4.869   0.175
 3964SOL    HW112791   5.772   4.924   0.116
 3964SOL    HW212792   5.917   4.916   0.190
 3965SOL     OW12793   3.708   3.770   1.118
 3965SOL    HW112794   3.774   3.731   1.183
 3965SOL    HW212795   3.632   3.811   1.169
 3966SOL     OW12796   6.922   3.976   5.987
 3966SOL    HW112797   7.014   3.996   6.021
 3966SOL    HW212798   6.909   3.876   5.984
 3967SOL     OW12799   2.115   6.545   0.222
 3967SOL    HW112800   2.121   6.466   0.283
 3967SOL    HW212801   2.126   6.515   0.127
 3968SOL     OW12802   4.599   1.897   1.098
 3968SOL    HW112803   4.549   1.895   1.185
 3968SOL    HW212804   4.551   1.841   1.031
 3969SOL     OW12805   6.967   6.386   0.979
 3969SOL    HW112806   6.955   6.287   0.984
 3969SOL    HW212807   6.914   6.423   0.902
 3970SOL     OW12808   5.316   4.653   3.790
 3970SOL    HW112809   5.298   4.563   3.750
 3970SOL    HW212810   5.414   4.674   3.783
 3971SOL     OW12811   6.906   6.167   3.892
 3971SOL    HW112812   6.991   6.198   3.936
 3971SOL    HW212813   6.911   6.186   3.794
 3972SOL     OW12814   1.191   6.932   6.191
 3972SOL    HW112815   1.241   6.935   6.105
 3972SOL    HW212816   1.166   0.005   6.219
 3973SOL     OW12817   4.059   3.197   2.847
 3973SOL    HW112818   4.113   3.207   2.764
 3973SOL    HW212819   4.042   3.100   2.865
 3974SOL     OW12820   4.802   1.156   6.582
 3974SOL    HW112821   4.789   1.098   6.662
 3974SOL    HW212822   4.799   1.099   6.499
 3975SOL     OW12823   0.407   6.682   4.869
 3975SOL    HW112824   0.355   6.739   4.805
 3975SOL    HW212825   0.505   6.696   4.854
 3976SOL     OW12826   0.577   3.471   6.157
 3976SOL    HW112827   0.567   3.516   6.246
 3976SOL    HW212828   0.675   3.465   6.134
 3977SOL     OW12829   3.200   5.161   5.053
 3977SOL    HW112830   3.280   5.154   5.113
 3977SOL    HW212831   3.200   5.251   5.009
 3978SOL     OW12832   6.047   3.812   6.663
 3978SOL    HW112833   6.009   3.724   6.635
 3978SOL    HW212834   6.033   3.878   6.589
 3979SOL     OW12835   0.954   6.179   3.244
 3979SOL    HW112836   1.024   6.203   3.312
 3979SOL    HW212837   0.942   6.255   3.180
 3980SOL     OW12838   5.089   4.074   3.898
 3980SOL    HW112839   5.000   4.065   3.854
 3980SOL    HW212840   5.155   4.014   3.853
 3981SOL     OW12841   6.843   1.513   6.348
 3981SOL    HW112842   6.898   1.582   6.396
 3981SOL    HW212843   6.871   1.510   6.251
 3982SOL     OW12844   2.182   2.870   4.375
 3982SOL    HW112845   2.103   2.811   4.394
 3982SOL    HW212846   2.262   2.835   4.425
 3983SOL     OW12847   3.146   0.134   3.517
 3983SOL    HW112848   3.126   0.149   3.614
 3983SOL    HW212849   3.170   0.038   3.502
 3984SOL     OW12850   1.796   5.618   2.113
 3984SOL    HW112851   1.722   5.551   2.120
 3984SOL    HW212852   1.881   5.577   2.145
 3985SOL     OW12853   1.712   2.184   1.346
 3985SOL    HW112854   1.787   2.215   1.404
 3985SOL    HW212855   1.747   2.162   1.255
 3986SOL     OW12856   0.852   2.163   2.262
 3986SOL    HW112857   0.862   2.258   2.292
 3986SOL    HW212858   0.888   2.102   2.332
 3987SOL     OW12859   1.670   4.432   4.971
 3987SOL    HW112860   1.743   4.369   4.942
 3987SOL    HW212861   1.583   4.384   4.969
 3988SOL     OW12862   4.878   0.139   1.739
 3988SOL    HW112863   4.791   0.095   1.716
 3988SOL    HW212864   4.953   0.076   1.721
 3989SOL     OW12865   4.130   0.634   5.448
 3989SOL    HW112866   4.095   0.576   5.521
 3989SOL    HW212867   4.098   0.728   5.463
 3990SOL     OW12868   6.690   1.887   3.580
 3990SOL    HW112869   6.705   1.962   3.644
 3990SOL    HW212870   6.720   1.801   3.622
 3991SOL     OW12871   0.351   2.039   3.524
 3991SOL    HW112872   0.310   1.948   3.516
 3991SOL    HW212873   0.444   2.037   3.489
 3992SOL     OW12874   5.417   3.309   6.471
 3992SOL    HW112875   5.379   3.223   6.505
 3992SOL    HW212876   5.389   3.323   6.377
 3993SOL     OW12877   1.482   0.988   4.031
 3993SOL    HW112878   1.452   1.083   4.031
 3993SOL    HW212879   1.569   0.981   3.982
 3994SOL     OW12880   3.261   2.115   3.484
 3994SOL    HW112881   3.349   2.129   3.440
 3994SOL    HW212882   3.248   2.018   3.504
 3995SOL     OW12883   1.289   3.439   2.119
 3995SOL    HW112884   1.383   3.428   2.090
 3995SOL    HW212885   1.279   3.405   2.213
 3996SOL     OW12886   5.936   6.620   5.363
 3996SOL    HW112887   5.890   6.708   5.352
 3996SOL    HW212888   6.022   6.620   5.312
 3997SOL     OW12889   5.236   3.866   3.779
 3997SOL    HW112890   5.231   3.774   3.818
 3997SOL    HW212891   5.328   3.882   3.745
 3998SOL     OW12892   4.946   2.292   3.466
 3998SOL    HW112893   5.018   2.303   3.535
 3998SOL    HW212894   4.986   2.305   3.375
 3999SOL     OW12895   4.676   3.441   1.047
 3999SOL    HW112896   4.616   3.369   1.012
 3999SOL    HW212897   4.718   3.411   1.132
 4000SOL     OW12898   2.167   4.996   3.046
 4000SOL    HW112899   2.221   4.912   3.055
 4000SOL    HW212900   2.110   5.008   3.127
 4001SOL     OW12901   0.032   5.793   4.740
 4001SOL    HW112902   6.958   5.822   4.724
 4001SOL    HW212903   0.094   5.850   4.687
 4002SOL     OW12904   4.050   3.748   4.602
 4002SOL    HW112905   4.105   3.708   4.529
 4002SOL    HW212906   4.003   3.675   4.652
 4003SOL     OW12907   1.850   1.165   4.488
 4003SOL    HW112908   1.779   1.234   4.505
 4003SOL    HW212909   1.924   1.206   4.436
 4004SOL     OW12910   1.484   4.572   4.653
 4004SOL    HW112911   1.549   4.628   4.705
 4004SOL    HW212912   1.400   4.624   4.638
 4005SOL     OW12913   4.955   3.090   0.127
 4005SOL    HW112914   4.856   3.089   0.140
 4005SOL    HW212915   4.977   3.146   0.047
 4006SOL     OW12916   6.792   5.366   2.225
 4006SOL    HW112917   6.856   5.320   2.288
 4006SOL    HW212918   6.839   5.384   2.138
 4007SOL     OW12919   0.321   0.647   1.828
 4007SOL    HW112920   0.390   0.691   1.771
 4007SOL    HW212921   0.312   0.551   1.802
 4008SOL     OW12922   2.923   1.287   1.224
 4008SOL    HW112923   2.857   1.220   1.189
 4008SOL    HW212924   2.914   1.296   1.323
 4009SOL     OW12925   4.308   2.257   0.548
 4009SOL    HW112926   4.241   2.325   0.577
 4009SOL    HW212927   4.349   2.286   0.462
 4010SOL     OW12928   1.774   4.334   1.058
 4010SOL    HW112929   1.768   4.298   1.151
 4010SOL    HW212930   1.871   4.341   1.032
 4011SOL     OW12931   5.944   6.267   5.766
 4011SOL    HW112932   5.940   6.342   5.700
 4011SOL    HW212933   6.032   6.221   5.760
 4012SOL     OW12934   5.976   6.329   2.809
 4012SOL    HW112935   5.916   6.386   2.753
 4012SOL    HW212936   6.067   6.327   2.769
 4013SOL     OW12937   6.800   1.657   6.938
 4013SOL    HW112938   6.874   1.723   6.952
 4013SOL    HW212939   6.818   1.574   6.991
 4014SOL     OW12940   3.379   5.473   2.373
 4014SOL    HW112941   3.470   5.507   2.349
 4014SOL    HW212942   3.385   5.375   2.393
 4015SOL     OW12943   4.300   5.301   5.956
 4015SOL    HW112944   4.281   5.360   6.034
 4015SOL    HW212945   4.272   5.207   5.978
 4016SOL     OW12946   5.175   4.609   4.781
 4016SOL    HW112947   5.239   4.684   4.771
 4016SOL    HW212948   5.223   4.522   4.771
 4017SOL     OW12949   1.653   5.638   5.438
 4017SOL    HW112950   1.653   5.574   5.515
 4017SOL    HW212951   1.702   5.722   5.464
 4018SOL     OW12952   4.043   5.700   1.005
 4018SOL    HW112953   3.947   5.675   0.994
 4018SOL    HW212954   4.099   5.643   0.945
 4019SOL     OW12955   6.866   3.835   2.368
 4019SOL    HW112956   6.818   3.919   2.395
 4019SOL    HW212957   6.811   3.785   2.301
 4020SOL     OW12958   6.841   5.955   4.722
 4020SOL    HW112959   6.794   6.009   4.653
 4020SOL    HW212960   6.893   6.015   4.783
 4021SOL     OW12961   4.359   5.103   6.204
 4021SOL    HW112962   4.440   5.123   6.259
 4021SOL    HW212963   4.383   5.040   6.130
 4022SOL     OW12964   2.940   6.103   1.244
 4022SOL    HW112965   2.845   6.073   1.235
 4022SOL    HW212966   2.950   6.193   1.201
 4023SOL     OW12967   0.386   1.669   4.317
 4023SOL    HW112968   0.404   1.768   4.320
 4023SOL    HW212969   0.439   1.628   4.243
 4024SOL     OW12970   0.714   6.291   4.963
 4024SOL    HW112971   0.753   6.383   4.961
 4024SOL    HW212972   0.648   6.283   5.037
 4025SOL     OW12973   6.895   4.990   3.817
 4025SOL    HW112974   6.801   4.955   3.818
 4025SOL    HW212975   6.918   5.025   3.908
 4026SOL     OW12976   0.442   6.667   4.116
 4026SOL    HW112977   0.421   6.739   4.050
 4026SOL    HW212978   0.373   6.595   4.110
 4027SOL     OW12979   3.385   4.857   5.108
 4027SOL    HW112980   3.352   4.815   5.024
 4027SOL    HW212981   3.354   4.952   5.112
 4028SOL     OW12982   5.076   1.252   3.677
 4028SOL    HW112983   5.056   1.165   3.722
 4028SOL    HW212984   5.071   1.240   3.578
 4029SOL     OW12985   1.620   6.342   0.702
 4029SOL    HW112986   1.623   6.296   0.791
 4029SOL    HW212987   1.612   6.441   0.716
 4030SOL     OW12988   0.669   1.622   2.255
 4030SOL    HW112989   0.740   1.611   2.324
 4030SOL    HW212990   0.581   1.637   2.301
 4031SOL     OW12991   5.936   6.325   0.787
 4031SOL    HW112992   5.968   6.256   0.722
 4031SOL    HW212993   5.841   6.306   0.813
 4032SOL     OW12994   5.014   1.060   2.435
 4032SOL    HW112995   5.037   1.035   2.528
 4032SOL    HW212996   5.011   0.978   2.378
 4033SOL     OW12997   2.525   2.010   2.806
 4033SOL    HW112998   2.550   2.105   2.825
 4033SOL    HW212999   2.442   1.987   2.857
 4034SOL     OW13000   1.458   2.711   4.738
 4034SOL    HW113001   1.468   2.659   4.653
 4034SOL    HW213002   1.387   2.780   4.726
 4035SOL     OW13003   4.777   2.397   2.003
 4035SOL    HW113004   4.737   2.323   2.057
 4035SOL    HW213005   4.707   2.466   1.984
 4036SOL     OW13006   3.078   6.034   3.319
 4036SOL    HW113007   3.059   6.092   3.398
 4036SOL    HW213008   3.134   6.083   3.253
 4037SOL     OW13009   2.286   1.416   6.339
 4037SOL    HW113010   2.320   1.510   6.334
 4037SOL    HW213011   2.360   1.356   6.369
 4038SOL     OW13012   3.475   4.542   5.641
 4038SOL    HW113013   3.528   4.497   5.713
 4038SOL    HW213014   3.385   4.499   5.634
 4039SOL     OW13015   5.664   4.971   1.449
 4039SOL    HW113016   5.737   5.037   1.431
 4039SOL    HW213017   5.606   5.005   1.524
 4040SOL     OW13018   3.201   0.206   5.328
 4040SOL    HW113019   3.298   0.227   5.315
 4040SOL    HW213020   3.159   0.188   5.239
 4041SOL     OW13021   1.518   5.782   1.590
 4041SOL    HW113022   1.521   5.697   1.643
 4041SOL    HW213023   1.433   5.830   1.610
 4042SOL     OW13024   0.522   1.507   2.809
 4042SOL    HW113025   0.540   1.542   2.901
 4042SOL    HW213026   0.446   1.557   2.768
 4043SOL     OW13027   5.371   2.812   6.323
 4043SOL    HW113028   5.382   2.775   6.416
 4043SOL    HW213029   5.291   2.873   6.321
 4044SOL     OW13030   4.828   4.283   3.046
 4044SOL    HW113031   4.857   4.213   2.981
 4044SOL    HW213032   4.897   4.354   3.053
 4045SOL     OW13033   4.815   0.741   5.325
 4045SOL    HW113034   4.810   0.757   5.226
 4045SOL    HW213035   4.763   0.812   5.373
 4046SOL     OW13036   5.176   1.880   3.146
 4046SOL    HW113037   5.236   1.902   3.224
 4046SOL    HW213038   5.101   1.822   3.177
 4047SOL     OW13039   3.143   2.860   6.573
 4047SOL    HW113040   3.181   2.885   6.662
 4047SOL    HW213041   3.046   2.837   6.583
 4048SOL     OW13042   5.304   1.894   2.623
 4048SOL    HW113043   5.231   1.836   2.586
 4048SOL    HW213044   5.286   1.913   2.719
 4049SOL     OW13045   4.304   3.839   0.573
 4049SOL    HW113046   4.285   3.894   0.655
 4049SOL    HW213047   4.383   3.877   0.525
 4050SOL     OW13048   0.505   5.389   2.446
 4050SOL    HW113049   0.505   5.349   2.538
 4050SOL    HW213050   0.463   5.479   2.449
 4051SOL     OW13051   5.444   0.817   5.040
 4051SOL    HW113052   5.394   0.901   5.063
 4051SOL    HW213053   5.432   0.797   4.942
 4052SOL     OW13054   5.558   2.096   3.171
 4052SOL    HW113055   5.576   2.195   3.167
 4052SOL    HW213056   5.484   2.079   3.235
 4053SOL     OW13057   0.783   4.966   4.003
 4053SOL    HW113058   0.853   5.030   3.971
 4053SOL    HW213059   0.703   5.018   4.034
 4054SOL     OW13060   4.110   3.837   0.963
 4054SOL    HW113061   4.173   3.814   1.037
 4054SOL    HW213062   4.086   3.753   0.913
 4055SOL     OW13063   0.503   3.771   0.387
 4055SOL    HW113064   0.566   3.814   0.322
 4055SOL    HW213065   0.471   3.840   0.452
 4056SOL     OW13066   4.829   3.395   0.048
 4056SOL    HW113067   4.800   3.482   0.087
 4056SOL    HW213068   4.781   3.320   0.094
 4057SOL     OW13069   7.018   3.389   0.693
 4057SOL    HW113070   6.989   3.453   0.765
 4057SOL    HW213071   0.018   3.441   0.610
 4058SOL     OW13072   2.504   0.659   5.063
 4058SOL    HW113073   2.556   0.587   5.017
 4058SOL    HW213074   2.436   0.697   5.000
 4059SOL     OW13075   0.308   1.261   3.197
 4059SOL    HW113076   0.348   1.169   3.196
 4059SOL    HW213077   0.326   1.304   3.286
 4060SOL     OW13078   0.046   6.328   4.646
 4060SOL    HW113079   0.073   6.296   4.556
 4060SOL    HW213080   0.120   6.382   4.686
 4061SOL     OW13081   0.781   4.880   1.533
 4061SOL    HW113082   0.712   4.951   1.528
 4061SOL    HW213083   0.743   4.798   1.575
 4062SOL     OW13084   2.168   3.496   0.763
 4062SOL    HW113085   2.146   3.401   0.784
 4062SOL    HW213086   2.141   3.516   0.669
 4063SOL     OW13087   4.594   0.499   0.241
 4063SOL    HW113088   4.522   0.558   0.279
 4063SOL    HW213089   4.677   0.553   0.227
 4064SOL     OW13090   1.591   1.046   6.029
 4064SOL    HW113091   1.509   1.017   6.078
 4064SOL    HW213092   1.655   1.089   6.094
 4065SOL     OW13093   2.651   0.089   1.012
 4065SOL    HW113094   2.709   0.008   1.020
 4065SOL    HW213095   2.575   0.082   1.076
 4066SOL     OW13096   0.731   3.824   3.497
 4066SOL    HW113097   0.695   3.804   3.405
 4066SOL    HW213098   0.804   3.759   3.519
 4067SOL     OW13099   5.432   5.109   0.546
 4067SOL    HW113100   5.483   5.195   0.537
 4067SOL    HW213101   5.381   5.109   0.632
 4068SOL     OW13102   2.197   2.812   5.162
 4068SOL    HW113103   2.262   2.877   5.123
 4068SOL    HW213104   2.245   2.750   5.224
 4069SOL     OW13105   4.806   6.859   6.698
 4069SOL    HW113106   4.722   6.906   6.674
 4069SOL    HW213107   4.817   6.778   6.640
 4070SOL     OW13108   1.577   3.533   3.724
 4070SOL    HW113109   1.481   3.546   3.746
 4070SOL    HW213110   1.596   3.569   3.633
 4071SOL     OW13111   1.693   0.580   4.643
 4071SOL    HW113112   1.720   0.613   4.733
 4071SOL    HW213113   1.626   0.506   4.653
 4072SOL     OW13114   2.617   5.807   3.324
 4072SOL    HW113115   2.701   5.838   3.279
 4072SOL    HW213116   2.626   5.817   3.423
 4073SOL     OW13117   4.367   4.622   6.695
 4073SOL    HW113118   4.424   4.559   6.748
 4073SOL    HW213119   4.388   4.716   6.722
 4074SOL     OW13120   1.615   5.826   2.663
 4074SOL    HW113121   1.551   5.887   2.615
 4074SOL    HW213122   1.634   5.746   2.605
 4075SOL     OW13123   6.633   0.894   1.065
 4075SOL    HW113124   6.715   0.838   1.074
 4075SOL    HW213125   6.658   0.991   1.065
 4076SOL     OW13126   2.306   4.667   4.443
 4076SOL    HW113127   2.385   4.629   4.396
 4076SOL    HW213128   2.240   4.594   4.461
 4077SOL     OW13129   3.230   0.775   1.905
 4077SOL    HW113130   3.133   0.770   1.928
 4077SOL    HW213131   3.251   0.865   1.868
 4078SOL     OW13132   3.463   4.929   2.439
 4078SOL    HW113133   3.534   4.895   2.377
 4078SOL    HW213134   3.374   4.893   2.410
 4079SOL     OW13135   0.698   1.931   3.731
 4079SOL    HW113136   0.648   2.002   3.780
 4079SOL    HW213137   0.785   1.913   3.778
 4080SOL     OW13138   6.706   2.382   5.121
 4080SOL    HW113139   6.786   2.441   5.127
 4080SOL    HW213140   6.686   2.363   5.025
 4081SOL     OW13141   1.905   3.181   3.721
 4081SOL    HW113142   1.815   3.219   3.697
 4081SOL    HW213143   1.926   3.203   3.816
 4082SOL     OW13144   0.524   3.585   0.953
 4082SOL    HW113145   0.527   3.488   0.974
 4082SOL    HW213146   0.511   3.598   0.855
 4083SOL     OW13147   6.227   3.145   4.646
 4083SOL    HW113148   6.197   3.191   4.729
 4083SOL    HW213149   6.157   3.080   4.617
 4084SOL     OW13150   6.997   1.700   3.908
 4084SOL    HW113151   0.027   1.724   3.825
 4084SOL    HW213152   0.042   1.682   3.982
 4085SOL     OW13153   2.686   6.357   0.363
 4085SOL    HW113154   2.690   6.258   0.374
 4085SOL    HW213155   2.674   6.400   0.453
 4086SOL     OW13156   1.082   4.537   0.848
 4086SOL    HW113157   1.012   4.602   0.818
 4086SOL    HW213158   1.064   4.509   0.942
 4087SOL     OW13159   2.255   1.692   3.093
 4087SOL    HW113160   2.237   1.682   2.995
 4087SOL    HW213161   2.207   1.773   3.127
 4088SOL     OW13162   6.616   1.924   0.648
 4088SOL    HW113163   6.538   1.916   0.586
 4088SOL    HW213164   6.624   1.840   0.702
 4089SOL     OW13165   1.141   1.493   5.687
 4089SOL    HW113166   1.172   1.410   5.733
 4089SOL    HW213167   1.202   1.513   5.610
 4090SOL     OW13168   2.027   4.954   5.826
 4090SOL    HW113169   2.075   5.034   5.862
 4090SOL    HW213170   2.087   4.874   5.828
 4091SOL     OW13171   4.311   6.456   0.177
 4091SOL    HW113172   4.229   6.435   0.229
 4091SOL    HW213173   4.339   6.375   0.124
 4092SOL     OW13174   0.208   2.497   4.739
 4092SOL    HW113175   0.109   2.481   4.738
 4092SOL    HW213176   0.245   2.485   4.647
 4093SOL     OW13177   5.546   0.562   4.952
 4093SOL    HW113178   5.632   0.609   4.933
 4093SOL    HW213179   5.503   0.603   5.033
 4094SOL     OW13180   2.839   4.197   5.423
 4094SOL    HW113181   2.913   4.228   5.363
 4094SOL    HW213182   2.787   4.125   5.377
 4095SOL     OW13183   1.677   4.043   6.065
 4095SOL    HW113184   1.695   4.080   5.974
 4095SOL    HW213185   1.760   4.047   6.121
 4096SOL     OW13186   4.289   4.680   2.132
 4096SOL    HW113187   4.321   4.595   2.173
 4096SOL    HW213188   4.253   4.739   2.205
 4097SOL     OW13189   3.011   3.347   4.257
 4097SOL    HW113190   3.068   3.329   4.337
 4097SOL    HW213191   2.973   3.439   4.263
 4098SOL     OW13192   0.504   2.463   2.436
 4098SOL    HW113193   0.486   2.366   2.453
 4098SOL    HW213194   0.561   2.472   2.355
 4099SOL     OW13195   3.602   6.314   1.942
 4099SOL    HW113196   3.514   6.344   1.905
 4099SOL    HW213197   3.659   6.279   1.868
 4100SOL     OW13198   3.635   6.394   3.128
 4100SOL    HW113199   3.697   6.369   3.053
 4100SOL    HW213200   3.542   6.404   3.093
 4101SOL     OW13201   4.359   0.895   6.535
 4101SOL    HW113202   4.380   0.821   6.471
 4101SOL    HW213203   4.266   0.882   6.571
 4102SOL     OW13204   5.630   1.381   0.501
 4102SOL    HW113205   5.590   1.471   0.480
 4102SOL    HW213206   5.630   1.325   0.419
 4103SOL     OW13207   0.266   0.382   2.495
 4103SOL    HW113208   0.253   0.295   2.542
 4103SOL    HW213209   0.313   0.366   2.408
 4104SOL     OW13210   1.465   4.799   2.480
 4104SOL    HW113211   1.506   4.883   2.515
 4104SOL    HW213212   1.480   4.793   2.381
 4105SOL     OW13213   5.455   5.461   0.352
 4105SOL    HW113214   5.495   5.424   0.268
 4105SOL    HW213215   5.503   5.422   0.431
 4106SOL     OW13216   0.056   3.893   4.939
 4106SOL    HW113217   0.067   3.811   4.882
 4106SOL    HW213218   6.982   3.899   4.971
 4107SOL     OW13219   0.004   1.144   1.322
 4107SOL    HW113220   0.095   1.151   1.364
 4107SOL    HW213221   7.009   1.223   1.263
 4108SOL     OW13222   6.970   3.027   5.495
 4108SOL    HW113223   0.031   3.068   5.536
 4108SOL    HW213224   6.916   3.098   5.449
 4109SOL     OW13225   3.269   6.445   3.303
 4109SOL    HW113226   3.342   6.513   3.296
 4109SOL    HW213227   3.199   6.464   3.235
 4110SOL     OW13228   4.801   3.258   5.458
 4110SOL    HW113229   4.851   3.286   5.375
 4110SOL    HW213230   4.772   3.163   5.448
 4111SOL     OW13231   4.452   3.232   6.862
 4111SOL    HW113232   4.526   3.188   6.914
 4111SOL    HW213233   4.481   3.324   6.835
 4112SOL     OW13234   3.373   0.724   4.526
 4112SOL    HW113235   3.334   0.795   4.468
 4112SOL    HW213236   3.336   0.635   4.500
 4113SOL     OW13237   3.790   5.312   4.343
 4113SOL    HW113238   3.739   5.340   4.425
 4113SOL    HW213239   3.848   5.388   4.312
 4114SOL     OW13240   2.833   1.958   2.602
 4114SOL    HW113241   2.815   1.890   2.673
 4114SOL    HW213242   2.753   1.968   2.543
 4115SOL     OW13243   5.390   4.932   2.050
 4115SOL    HW113244   5.291   4.936   2.064
 4115SOL    HW213245   5.409   4.915   1.953
 4116SOL     OW13246   3.178   1.095   2.274
 4116SOL    HW113247   3.173   1.170   2.340
 4116SOL    HW213248   3.096   1.038   2.282
 4117SOL     OW13249   0.979   5.487   2.195
 4117SOL    HW113250   0.991   5.532   2.106
 4117SOL    HW213251   0.888   5.444   2.199
 4118SOL     OW13252   2.527   6.689   0.225
 4118SOL    HW113253   2.436   6.665   0.258
 4118SOL    HW213254   2.581   6.728   0.300
 4119SOL     OW13255   4.469   0.964   3.445
 4119SOL    HW113256   4.452   0.914   3.360
 4119SOL    HW213257   4.537   1.036   3.430
 4120SOL     OW13258   3.419   1.041   2.172
 4120SOL    HW113259   3.395   1.074   2.081
 4120SOL    HW213260   3.339   1.049   2.233
 4121SOL     OW13261   6.926   3.289   4.947
 4121SOL    HW113262   6.974   3.256   5.028
 4121SOL    HW213263   6.840   3.239   4.936
 4122SOL     OW13264   1.833   5.258   6.553
 4122SOL    HW113265   1.760   5.194   6.576
 4122SOL    HW213266   1.889   5.275   6.634
 4123SOL     OW13267   4.818   3.851   6.033
 4123SOL    HW113268   4.754   3.871   5.958
 4123SOL    HW213269   4.767   3.828   6.115
 4124SOL     OW13270   4.758   6.749   3.462
 4124SOL    HW113271   4.858   6.745   3.465
 4124SOL    HW213272   4.727   6.731   3.369
 4125SOL     OW13273   5.137   1.375   0.651
 4125SOL    HW113274   5.174   1.463   0.680
 4125SOL    HW213275   5.042   1.367   0.681
 4126SOL     OW13276   1.830   5.120   4.112
 4126SOL    HW113277   1.917   5.080   4.085
 4126SOL    HW213278   1.755   5.064   4.075
 4127SOL     OW13279   6.516   3.916   5.843
 4127SOL    HW113280   6.581   3.896   5.916
 4127SOL    HW213281   6.430   3.868   5.860
 4128SOL     OW13282   1.255   2.271   2.573
 4128SOL    HW113283   1.285   2.178   2.596
 4128SOL    HW213284   1.311   2.306   2.498
 4129SOL     OW13285   5.697   1.667   5.953
 4129SOL    HW113286   5.700   1.635   6.047
 4129SOL    HW213287   5.681   1.590   5.891
 4130SOL     OW13288   5.919   3.640   1.169
 4130SOL    HW113289   5.892   3.670   1.261
 4130SOL    HW213290   6.004   3.587   1.175
 4131SOL     OW13291   6.608   4.212   3.432
 4131SOL    HW113292   6.549   4.131   3.434
 4131SOL    HW213293   6.699   4.186   3.399
 4132SOL     OW13294   5.123   2.192   4.192
 4132SOL    HW113295   5.040   2.233   4.230
 4132SOL    HW213296   5.100   2.137   4.112
 4133SOL     OW13297   2.916   2.138   1.003
 4133SOL    HW113298   2.871   2.065   1.053
 4133SOL    HW213299   2.847   2.196   0.958
 4134SOL     OW13300   1.248   1.857   6.956
 4134SOL    HW113301   1.178   1.919   6.920
 4134SOL    HW213302   1.332   1.866   6.902
 4135SOL     OW13303   1.273   0.625   1.097
 4135SOL    HW113304   1.191   0.682   1.106
 4135SOL    HW213305   1.350   0.671   1.140
 4136SOL     OW13306   1.236   1.681   3.154
 4136SOL    HW113307   1.264   1.703   3.060
 4136SOL    HW213308   1.282   1.743   3.218
 4137SOL     OW13309   3.337   3.952   5.728
 4137SOL    HW113310   3.325   4.036   5.674
 4137SOL    HW213311   3.381   3.974   5.815
 4138SOL     OW13312   4.318   5.321   2.931
 4138SOL    HW113313   4.243   5.387   2.924
 4138SOL    HW213314   4.312   5.255   2.855
 4139SOL     OW13315   1.888   0.911   0.101
 4139SOL    HW113316   1.879   0.997   0.153
 4139SOL    HW213317   1.980   0.873   0.116
 4140SOL     OW13318   4.549   1.609   5.358
 4140SOL    HW113319   4.583   1.517   5.376
 4140SOL    HW213320   4.595   1.646   5.277
 4141SOL     OW13321   5.628   5.579   0.739
 4141SOL    HW113322   5.646   5.502   0.800
 4141SOL    HW213323   5.529   5.595   0.734
 4142SOL     OW13324   6.059   3.268   1.513
 4142SOL    HW113325   6.123   3.216   1.570
 4142SOL    HW213326   6.109   3.341   1.466
 4143SOL     OW13327   0.330   2.227   1.485
 4143SOL    HW113328   0.395   2.224   1.409
 4143SOL    HW213329   0.300   2.135   1.507
 4144SOL     OW13330   4.591   1.265   2.439
 4144SOL    HW113331   4.677   1.286   2.485
 4144SOL    HW213332   4.608   1.246   2.342
 4145SOL     OW13333   2.708   6.725   2.983
 4145SOL    HW113334   2.641   6.651   2.981
 4145SOL    HW213335   2.737   6.741   3.078
 4146SOL     OW13336   4.857   5.464   0.570
 4146SOL    HW113337   4.904   5.390   0.618
 4146SOL    HW213338   4.782   5.426   0.516
 4147SOL     OW13339   3.212   2.416   5.548
 4147SOL    HW113340   3.290   2.353   5.557
 4147SOL    HW213341   3.175   2.436   5.638
 4148SOL     OW13342   5.858   6.936   3.188
 4148SOL    HW113343   5.765   6.974   3.193
 4148SOL    HW213344   5.894   6.924   3.280
 4149SOL     OW13345   5.312   4.186   1.570
 4149SOL    HW113346   5.363   4.221   1.492
 4149SOL    HW213347   5.217   4.216   1.563
 4150SOL     OW13348   4.792   0.367   5.616
 4150SOL    HW113349   4.844   0.282   5.625
 4150SOL    HW213350   4.796   0.418   5.702
 4151SOL     OW13351   6.862   5.125   0.423
 4151SOL    HW113352   6.899   5.217   0.432
 4151SOL    HW213353   6.858   5.081   0.513
 4152SOL     OW13354   4.126   4.303   1.176
 4152SOL    HW113355   4.099   4.219   1.129
 4152SOL    HW213356   4.057   4.325   1.245
 4153SOL     OW13357   6.427   5.515   6.204
 4153SOL    HW113358   6.488   5.585   6.167
 4153SOL    HW213359   6.472   5.425   6.199
 4154SOL     OW13360   4.711   2.893   5.593
 4154SOL    HW113361   4.752   2.803   5.602
 4154SOL    HW213362   4.723   2.927   5.500
 4155SOL     OW13363   1.341   2.986   1.508
 4155SOL    HW113364   1.375   3.079   1.493
 4155SOL    HW213365   1.283   2.984   1.590
 4156SOL     OW13366   6.252   7.005   5.727
 4156SOL    HW113367   6.334   0.016   5.775
 4156SOL    HW213368   6.276   6.926   5.670
 4157SOL     OW13369   3.116   0.482   5.104
 4157SOL    HW113370   3.151   0.470   5.197
 4157SOL    HW213371   3.081   0.575   5.093
 4158SOL     OW13372   1.099   0.045   4.431
 4158SOL    HW113373   1.018   0.004   4.473
 4158SOL    HW213374   1.180   0.022   4.486
 4159SOL     OW13375   0.951   3.322   5.229
 4159SOL    HW113376   1.005   3.319   5.144
 4159SOL    HW213377   0.902   3.235   5.239
 4160SOL     OW13378   1.532   1.158   0.994
 4160SOL    HW113379   1.476   1.235   1.023
 4160SOL    HW213380   1.474   1.086   0.957
 4161SOL     OW13381   6.203   1.920   0.646
 4161SOL    HW113382   6.136   1.986   0.612
 4161SOL    HW213383   6.158   1.857   0.710
 4162SOL     OW13384   6.745   0.195   5.146
 4162SOL    HW113385   6.690   0.111   5.140
 4162SOL    HW213386   6.816   0.193   5.076
 4163SOL     OW13387   6.069   1.051   3.867
 4163SOL    HW113388   6.034   0.966   3.827
 4163SOL    HW213389   6.042   1.055   3.963
 4164SOL     OW13390   2.412   0.172   6.077
 4164SOL    HW113391   2.402   0.104   6.150
 4164SOL    HW213392   2.399   0.128   5.988
 4165SOL     OW13393   3.241   6.255   2.536
 4165SOL    HW113394   3.201   6.239   2.626
 4165SOL    HW213395   3.332   6.216   2.533
 4166SOL     OW13396   6.136   2.871   0.919
 4166SOL    HW113397   6.054   2.822   0.950
 4166SOL    HW213398   6.217   2.825   0.954
 4167SOL     OW13399   2.212   3.249   1.152
 4167SOL    HW113400   2.162   3.324   1.197
 4167SOL    HW213401   2.183   3.243   1.056
 4168SOL     OW13402   1.309   4.476   1.132
 4168SOL    HW113403   1.256   4.505   1.053
 4168SOL    HW213404   1.372   4.403   1.104
 4169SOL     OW13405   6.197   3.755   4.568
 4169SOL    HW113406   6.294   3.736   4.579
 4169SOL    HW213407   6.145   3.671   4.581
 4170SOL     OW13408   4.358   2.416   5.332
 4170SOL    HW113409   4.305   2.456   5.257
 4170SOL    HW213410   4.346   2.317   5.332
 4171SOL     OW13411   5.656   3.577   1.612
 4171SOL    HW113412   5.591   3.520   1.562
 4171SOL    HW213413   5.742   3.527   1.623
 4172SOL     OW13414   2.226   1.665   6.999
 4172SOL    HW113415   2.206   1.698   0.071
 4172SOL    HW213416   2.283   1.733   6.951
 4173SOL     OW13417   5.709   3.788   5.317
 4173SOL    HW113418   5.765   3.838   5.250
 4173SOL    HW213419   5.615   3.823   5.314
 4174SOL     OW13420   4.892   0.676   4.258
 4174SOL    HW113421   4.882   0.644   4.352
 4174SOL    HW213422   4.988   0.672   4.231
 4175SOL     OW13423   3.304   1.617   3.712
 4175SOL    HW113424   3.302   1.701   3.766
 4175SOL    HW213425   3.387   1.615   3.656
 4176SOL     OW13426   6.108   5.858   2.574
 4176SOL    HW113427   6.181   5.926   2.568
 4176SOL    HW213428   6.040   5.876   2.503
 4177SOL     OW13429   6.790   5.388   2.644
 4177SOL    HW113430   6.841   5.406   2.728
 4177SOL    HW213431   6.839   5.323   2.588
 4178SOL     OW13432   4.243   2.393   5.991
 4178SOL    HW113433   4.218   2.490   5.996
 4178SOL    HW213434   4.192   2.349   5.917
 4179SOL     OW13435   6.272   3.140   6.061
 4179SOL    HW113436   6.195   3.120   6.000
 4179SOL    HW213437   6.245   3.121   6.156
 4180SOL     OW13438   4.315   3.875   1.166
 4180SOL    HW113439   4.415   3.878   1.176
 4180SOL    HW213440   4.274   3.838   1.249
 4181SOL     OW13441   0.361   1.267   0.061
 4181SOL    HW113442   0.449   1.284   0.016
 4181SOL    HW213443   0.305   1.350   0.058
 4182SOL     OW13444   5.736   1.421   3.844
 4182SOL    HW113445   5.829   1.388   3.829
 4182SOL    HW213446   5.728   1.453   3.939
 4183SOL     OW13447   1.587   1.879   1.260
 4183SOL    HW113448   1.502   1.930   1.274
 4183SOL    HW213449   1.651   1.936   1.208
 4184SOL     OW13450   3.699   5.047   0.562
 4184SOL    HW113451   3.629   4.981   0.535
 4184SOL    HW213452   3.656   5.129   0.598
 4185SOL     OW13453   0.054   6.950   4.180
 4185SOL    HW113454   0.131   6.902   4.223
 4185SOL    HW213455   0.021   0.002   4.241
 4186SOL     OW13456   3.671   4.303   1.728
 4186SOL    HW113457   3.719   4.389   1.743
 4186SOL    HW213458   3.613   4.283   1.807
 4187SOL     OW13459   4.076   4.423   6.587
 4187SOL    HW113460   4.120   4.421   6.498
 4187SOL    HW213461   3.978   4.409   6.577
 4188SOL     OW13462   5.053   6.462   4.607
 4188SOL    HW113463   5.041   6.533   4.537
 4188SOL    HW213464   5.093   6.502   4.689
 4189SOL     OW13465   1.915   2.916   3.340
 4189SOL    HW113466   1.984   2.959   3.282
 4189SOL    HW213467   1.939   2.931   3.436
 4190SOL     OW13468   3.371   0.167   1.467
 4190SOL    HW113469   3.310   0.091   1.491
 4190SOL    HW213470   3.374   0.177   1.367
 4191SOL     OW13471   0.110   2.657   1.982
 4191SOL    HW113472   0.033   2.649   2.045
 4191SOL    HW213473   0.080   2.698   1.896
 4192SOL     OW13474   5.780   1.177   2.824
 4192SOL    HW113475   5.723   1.259   2.816
 4192SOL    HW213476   5.786   1.149   2.919
 4193SOL     OW13477   2.118   6.584   2.495
 4193SOL    HW113478   2.082   6.506   2.444
 4193SOL    HW213479   2.084   6.669   2.454
 4194SOL     OW13480   0.178   0.951   3.701
 4194SOL    HW113481   0.112   0.888   3.662
 4194SOL    HW213482   0.240   0.984   3.629
 4195SOL     OW13483   5.204   0.785   2.662
 4195SOL    HW113484   5.219   0.688   2.681
 4195SOL    HW213485   5.277   0.839   2.704
 4196SOL     OW13486   4.584   2.454   3.106
 4196SOL    HW113487   4.560   2.445   3.203
 4196SOL    HW213488   4.500   2.449   3.051
 4197SOL     OW13489   4.801   4.017   4.094
 4197SOL    HW113490   4.764   4.066   4.015
 4197SOL    HW213491   4.858   3.941   4.063
 4198SOL     OW13492   5.629   4.074   5.455
 4198SOL    HW113493   5.686   4.123   5.390
 4198SOL    HW213494   5.546   4.042   5.409
 4199SOL     OW13495   3.266   3.871   5.145
 4199SOL    HW113496   3.346   3.824   5.181
 4199SOL    HW213497   3.193   3.805   5.127
 4200SOL     OW13498   2.399   0.135   5.782
 4200SOL    HW113499   2.375   0.197   5.708
 4200SOL    HW213500   2.494   0.150   5.809
 4201SOL     OW13501   6.247   6.770   4.838
 4201SOL    HW113502   6.259   6.767   4.739
 4201SOL    HW213503   6.172   6.710   4.865
 4202SOL     OW13504   5.736   3.751   4.916
 4202SOL    HW113505   5.704   3.677   4.976
 4202SOL    HW213506   5.662   3.818   4.904
 4203SOL     OW13507   4.984   5.341   3.768
 4203SOL    HW113508   5.036   5.301   3.692
 4203SOL    HW213509   4.909   5.395   3.731
 4204SOL     OW13510   2.770   3.919   0.537
 4204SOL    HW113511   2.869   3.905   0.549
 4204SOL    HW213512   2.729   3.836   0.500
 4205SOL     OW13513   2.626   5.504   3.193
 4205SOL    HW113514   2.717   5.514   3.153
 4205SOL    HW213515   2.633   5.509   3.292
 4206SOL     OW13516   5.755   7.012   4.647
 4206SOL    HW113517   5.673   6.955   4.639
 4206SOL    HW213518   5.835   6.953   4.659
 4207SOL     OW13519   0.779   0.542   1.243
 4207SOL    HW113520   0.835   0.537   1.161
 4207SOL    HW213521   0.703   0.605   1.227
 4208SOL     OW13522   0.763   2.694   0.620
 4208SOL    HW113523   0.765   2.595   0.627
 4208SOL    HW213524   0.786   2.722   0.527
 4209SOL     OW13525   2.754   0.839   4.521
 4209SOL    HW113526   2.689   0.806   4.453
 4209SOL    HW213527   2.710   0.841   4.611
 4210SOL     OW13528   5.132   2.674   7.018
 4210SOL    HW113529   5.181   2.736   6.956
 4210SOL    HW213530   5.163   2.689   0.091
 4211SOL     OW13531   4.893   3.465   3.563
 4211SOL    HW113532   4.862   3.370   3.561
 4211SOL    HW213533   4.942   3.483   3.648
 4212SOL     OW13534   6.230   6.770   3.108
 4212SOL    HW113535   6.308   6.722   3.067
 4212SOL    HW213536   6.262   6.828   3.182
 4213SOL     OW13537   0.718   0.331   1.699
 4213SOL    HW113538   0.805   0.381   1.701
 4213SOL    HW213539   0.693   0.312   1.605
 4214SOL     OW13540   1.826   4.425   4.483
 4214SOL    HW113541   1.834   4.357   4.410
 4214SOL    HW213542   1.765   4.391   4.555
 4215SOL     OW13543   0.712   5.375   5.321
 4215SOL    HW113544   0.690   5.371   5.419
 4215SOL    HW213545   0.701   5.284   5.281
 4216SOL     OW13546   2.703   3.434   5.357
 4216SOL    HW113547   2.611   3.396   5.348
 4216SOL    HW213548   2.740   3.410   5.447
 4217SOL     OW13549   6.953   0.835   3.005
 4217SOL    HW113550   6.913   0.924   3.030
 4217SOL    HW213551   0.028   0.832   3.037
 4218SOL     OW13552   2.952   6.768   2.819
 4218SOL    HW113553   2.864   6.780   2.864
 4218SOL    HW213554   2.965   6.672   2.795
 4219SOL     OW13555   5.027   6.765   3.254
 4219SOL    HW113556   4.989   6.673   3.255
 4219SOL    HW213557   4.966   6.826   3.203
 4220SOL     OW13558   0.619   4.077   3.557
 4220SOL    HW113559   0.646   4.115   3.645
 4220SOL    HW213560   0.637   3.979   3.555
 4221SOL     OW13561   5.319   6.039   5.774
 4221SOL    HW113562   5.282   5.961   5.725
 4221SOL    HW213563   5.304   6.122   5.720
 4222SOL     OW13564   3.560   2.654   0.143
 4222SOL    HW113565   3.611   2.635   0.059
 4222SOL    HW213566   3.462   2.645   0.125
 4223SOL     OW13567   2.959   3.734   2.663
 4223SOL    HW113568   2.951   3.805   2.734
 4223SOL    HW213569   2.881   3.672   2.668
 4224SOL     OW13570   4.000   1.876   5.621
 4224SOL    HW113571   3.941   1.957   5.613
 4224SOL    HW213572   3.962   1.813   5.688
 4225SOL     OW13573   5.147   0.623   4.849
 4225SOL    HW113574   5.243   0.596   4.838
 4225SOL    HW213575   5.089   0.563   4.796
 4226SOL     OW13576   1.793   0.972   3.134
 4226SOL    HW113577   1.797   1.072   3.137
 4226SOL    HW213578   1.708   0.943   3.091
 4227SOL     OW13579   5.918   3.758   6.903
 4227SOL    HW113580   5.986   3.773   6.831
 4227SOL    HW213581   5.925   3.830   6.972
 4228SOL     OW13582   5.779   5.435   3.010
 4228SOL    HW113583   5.874   5.464   3.005
 4228SOL    HW213584   5.746   5.445   3.104
 4229SOL     OW13585   4.539   4.895   5.442
 4229SOL    HW113586   4.439   4.901   5.437
 4229SOL    HW213587   4.572   4.941   5.525
 4230SOL     OW13588   2.902   0.547   4.826
 4230SOL    HW113589   2.958   0.466   4.809
 4230SOL    HW213590   2.913   0.612   4.750
 4231SOL     OW13591   4.171   6.179   5.128
 4231SOL    HW113592   4.253   6.234   5.110
 4231SOL    HW213593   4.177   6.139   5.219
 4232SOL     OW13594   2.025   4.030   1.701
 4232SOL    HW113595   2.117   4.033   1.662
 4232SOL    HW213596   2.021   3.959   1.771
 4233SOL     OW13597   5.478   6.635   0.827
 4233SOL    HW113598   5.555   6.638   0.890
 4233SOL    HW213599   5.401   6.588   0.870
 4234SOL     OW13600   3.125   3.965   5.371
 4234SOL    HW113601   3.054   4.014   5.322
 4234SOL    HW213602   3.170   3.900   5.308
 4235SOL     OW13603   0.192   3.850   5.413
 4235SOL    HW113604   0.110   3.889   5.455
 4235SOL    HW213605   0.271   3.866   5.473
 4236SOL     OW13606   1.125   3.972   4.702
 4236SOL    HW113607   1.183   3.966   4.783
 4236SOL    HW213608   1.077   4.060   4.702
 4237SOL     OW13609   5.465   4.559   4.954
 4237SOL    HW113610   5.442   4.518   4.866
 4237SOL    HW213611   5.419   4.509   5.027
 4238SOL     OW13612   4.661   4.308   4.255
 4238SOL    HW113613   4.698   4.215   4.251
 4238SOL    HW213614   4.635   4.336   4.163
 4239SOL     OW13615   5.227   5.427   5.838
 4239SOL    HW113616   5.176   5.507   5.867
 4239SOL    HW213617   5.172   5.373   5.774
 4240SOL     OW13618   2.593   4.940   6.219
 4240SOL    HW113619   2.528   5.004   6.178
 4240SOL    HW213620   2.547   4.888   6.291
 4241SOL     OW13621   4.009   1.117   0.099
 4241SOL    HW113622   4.044   1.053   0.167
 4241SOL    HW213623   4.031   1.211   0.127
 4242SOL     OW13624   1.246   0.237   2.742
 4242SOL    HW113625   1.202   0.160   2.697
 4242SOL    HW213626   1.345   0.232   2.728
 4243SOL     OW13627   1.518   3.238   2.946
 4243SOL    HW113628   1.601   3.290   2.966
 4243SOL    HW213629   1.535   3.175   2.870
 4244SOL     OW13630   3.028   0.076   0.817
 4244SOL    HW113631   2.995   7.007   0.786
 4244SOL    HW213632   2.953   0.141   0.818
 4245SOL     OW13633   6.627   2.283   1.124
 4245SOL    HW113634   6.639   2.372   1.079
 4245SOL    HW213635   6.600   2.215   1.056
 4246SOL     OW13636   4.644   2.538   3.802
 4246SOL    HW113637   4.614   2.539   3.897
 4246SOL    HW213638   4.665   2.631   3.772
 4247SOL     OW13639   1.954   4.516   6.612
 4247SOL    HW113640   2.022   4.444   6.626
 4247SOL    HW213641   1.910   4.504   6.524
 4248SOL     OW13642   1.981   0.561   3.178
 4248SOL    HW113643   1.938   0.611   3.253
 4248SOL    HW213644   2.015   0.626   3.110
 4249SOL     OW13645   6.185   0.272   5.828
 4249SOL    HW113646   6.195   0.356   5.775
 4249SOL    HW213647   6.212   0.194   5.772
 4250SOL     OW13648   6.539   5.906   4.498
 4250SOL    HW113649   6.608   5.849   4.541
 4250SOL    HW213650   6.535   5.995   4.544
 4251SOL     OW13651   5.073   2.509   5.681
 4251SOL    HW113652   5.076   2.550   5.771
 4251SOL    HW213653   5.037   2.416   5.688
 4252SOL     OW13654   6.704   6.813   0.056
 4252SOL    HW113655   6.783   6.783   0.003
 4252SOL    HW213656   6.731   6.886   0.119
 4253SOL     OW13657   4.804   6.271   2.783
 4253SOL    HW113658   4.767   6.286   2.875
 4253SOL    HW213659   4.882   6.332   2.769
 4254SOL     OW13660   1.677   2.425   5.911
 4254SOL    HW113661   1.590   2.431   5.959
 4254SOL    HW213662   1.694   2.510   5.861
 4255SOL     OW13663   0.849   2.847   3.269
 4255SOL    HW113664   0.840   2.927   3.329
 4255SOL    HW213665   0.777   2.850   3.199
 4256SOL     OW13666   0.255   6.074   1.007
 4256SOL    HW113667   0.314   5.999   1.035
 4256SOL    HW213668   0.264   6.150   1.072
 4257SOL     OW13669   6.327   0.906   3.475
 4257SOL    HW113670   6.355   0.911   3.571
 4257SOL    HW213671   6.391   0.958   3.419
 4258SOL     OW13672   3.018   5.479   0.973
 4258SOL    HW113673   2.967   5.564   0.967
 4258SOL    HW213674   2.984   5.425   1.050
 4259SOL     OW13675   1.210   0.291   1.033
 4259SOL    HW113676   1.230   0.196   1.055
 4259SOL    HW213677   1.215   0.304   0.934
 4260SOL     OW13678   5.871   0.492   4.627
 4260SOL    HW113679   5.834   0.414   4.578
 4260SOL    HW213680   5.928   0.460   4.703
 4261SOL     OW13681   2.681   6.287   4.620
 4261SOL    HW113682   2.728   6.340   4.691
 4261SOL    HW213683   2.741   6.278   4.540
 4262SOL     OW13684   2.098   4.697   5.294
 4262SOL    HW113685   2.143   4.698   5.205
 4262SOL    HW213686   2.038   4.777   5.303
 4263SOL     OW13687   2.456   1.655   3.509
 4263SOL    HW113688   2.387   1.727   3.509
 4263SOL    HW213689   2.508   1.658   3.594
 4264SOL     OW13690   4.585   1.788   5.759
 4264SOL    HW113691   4.650   1.824   5.826
 4264SOL    HW213692   4.492   1.813   5.786
 4265SOL     OW13693   2.476   6.738   6.062
 4265SOL    HW113694   2.424   6.786   6.133
 4265SOL    HW213695   2.427   6.745   5.975
 4266SOL     OW13696   1.219   5.240   1.723
 4266SOL    HW113697   1.316   5.238   1.701
 4266SOL    HW213698   1.166   5.230   1.638
 4267SOL     OW13699   0.973   4.054   4.153
 4267SOL    HW113700   0.913   4.017   4.082
 4267SOL    HW213701   1.026   4.130   4.114
 4268SOL     OW13702   0.964   4.545   6.215
 4268SOL    HW113703   0.864   4.534   6.219
 4268SOL    HW213704   1.008   4.462   6.249
 4269SOL     OW13705   3.148   1.623   4.459
 4269SOL    HW113706   3.215   1.675   4.511
 4269SOL    HW213707   3.177   1.618   4.363
 4270SOL     OW13708   3.890   3.386   0.382
 4270SOL    HW113709   3.951   3.379   0.303
 4270SOL    HW213710   3.927   3.451   0.448
 4271SOL     OW13711   0.040   0.255   0.955
 4271SOL    HW113712   0.039   0.273   1.053
 4271SOL    HW213713   0.001   0.164   0.938
 4272SOL     OW13714   0.058   1.412   5.897
 4272SOL    HW113715   0.105   1.324   5.896
 4272SOL    HW213716   7.017   1.419   5.818
 4273SOL     OW13717   2.760   5.849   3.887
 4273SOL    HW113718   2.694   5.864   3.960
 4273SOL    HW213719   2.825   5.925   3.885
 4274SOL     OW13720   0.938   1.606   1.692
 4274SOL    HW113721   0.937   1.507   1.682
 4274SOL    HW213722   1.024   1.643   1.656
 4275SOL     OW13723   0.140   2.447   3.778
 4275SOL    HW113724   0.156   2.366   3.722
 4275SOL    HW213725   0.072   2.427   3.848
 4276SOL     OW13726   1.745   6.498   3.132
 4276SOL    HW113727   1.734   6.526   3.036
 4276SOL    HW213728   1.768   6.400   3.135
 4277SOL     OW13729   6.759   5.409   3.022
 4277SOL    HW113730   6.842   5.369   2.984
 4277SOL    HW213731   6.701   5.443   2.948
 4278SOL     OW13732   1.138   6.540   1.129
 4278SOL    HW113733   1.114   6.458   1.181
 4278SOL    HW213734   1.195   6.600   1.185
 4279SOL     OW13735   0.824   2.600   3.364
 4279SOL    HW113736   0.824   2.696   3.337
 4279SOL    HW213737   0.732   2.573   3.395
 4280SOL     OW13738   2.063   6.237   6.238
 4280SOL    HW113739   2.019   6.298   6.172
 4280SOL    HW213740   2.155   6.269   6.257
 4281SOL     OW13741   5.988   6.043   3.469
 4281SOL    HW113742   6.050   6.043   3.548
 4281SOL    HW213743   5.993   5.954   3.423
 4282SOL     OW13744   5.335   5.343   2.372
 4282SOL    HW113745   5.242   5.374   2.352
 4282SOL    HW213746   5.361   5.272   2.307
 4283SOL     OW13747   5.610   1.278   4.546
 4283SOL    HW113748   5.626   1.238   4.455
 4283SOL    HW213749   5.558   1.362   4.537
 4284SOL     OW13750   4.732   5.817   6.607
 4284SOL    HW113751   4.670   5.759   6.660
 4284SOL    HW213752   4.717   5.801   6.509
 4285SOL     OW13753   3.282   1.501   6.426
 4285SOL    HW113754   3.337   1.486   6.344
 4285SOL    HW213755   3.341   1.521   6.503
 4286SOL     OW13756   5.355   0.377   6.726
 4286SOL    HW113757   5.363   0.286   6.765
 4286SOL    HW213758   5.445   0.420   6.721
 4287SOL     OW13759   3.538   0.848   1.070
 4287SOL    HW113760   3.516   0.945   1.074
 4287SOL    HW213761   3.465   0.799   1.022
 4288SOL     OW13762   6.822   5.910   1.997
 4288SOL    HW113763   6.893   5.969   2.035
 4288SOL    HW213764   6.799   5.839   2.063
 4289SOL     OW13765   0.266   4.687   5.086
 4289SOL    HW113766   0.289   4.636   5.169
 4289SOL    HW213767   0.191   4.641   5.038
 4290SOL     OW13768   0.299   1.619   3.167
 4290SOL    HW113769   0.353   1.537   3.184
 4290SOL    HW213770   0.357   1.700   3.177
 4291SOL     OW13771   3.902   4.640   6.437
 4291SOL    HW113772   3.863   4.556   6.401
 4291SOL    HW213773   3.867   4.656   6.530
 4292SOL     OW13774   6.459   1.193   1.659
 4292SOL    HW113775   6.432   1.120   1.597
 4292SOL    HW213776   6.405   1.187   1.743
 4293SOL     OW13777   4.119   2.568   0.270
 4293SOL    HW113778   4.071   2.535   0.351
 4293SOL    HW213779   4.151   2.662   0.286
 4294SOL     OW13780   2.796   1.755   6.420
 4294SOL    HW113781   2.887   1.793   6.434
 4294SOL    HW213782   2.751   1.804   6.346
 4295SOL     OW13783   4.647   6.323   3.031
 4295SOL    HW113784   4.695   6.385   3.094
 4295SOL    HW213785   4.623   6.239   3.079
 4296SOL     OW13786   2.139   6.364   2.152
 4296SOL    HW113787   2.199   6.305   2.098
 4296SOL    HW213788   2.140   6.456   2.114
 4297SOL     OW13789   4.751   5.175   0.488
 4297SOL    HW113790   4.845   5.194   0.459
 4297SOL    HW213791   4.706   5.117   0.420
 4298SOL     OW13792   1.635   0.250   0.877
 4298SOL    HW113793   1.679   0.319   0.819
 4298SOL    HW213794   1.693   0.169   0.884
 4299SOL     OW13795   1.061   3.295   6.659
 4299SOL    HW113796   1.129   3.262   6.593
 4299SOL    HW213797   0.972   3.255   6.637
 4300SOL     OW13798   3.281   1.018   1.811
 4300SOL    HW113799   3.325   1.045   1.725
 4300SOL    HW213800   3.268   1.099   1.868
 4301SOL     OW13801   2.365   6.116   6.117
 4301SOL    HW113802   2.278   6.077   6.087
 4301SOL    HW213803   2.440   6.068   6.071
 4302SOL     OW13804   3.338   5.052   6.221
 4302SOL    HW113805   3.422   5.025   6.268
 4302SOL    HW213806   3.351   5.046   6.122
 4303SOL     OW13807   4.054   5.428   3.427
 4303SOL    HW113808   3.989   5.504   3.434
 4303SOL    HW213809   4.147   5.464   3.421
 4304SOL     OW13810   3.214   4.048   1.935
 4304SOL    HW113811   3.154   3.971   1.958
 4304SOL    HW213812   3.246   4.092   2.018
 4305SOL     OW13813   0.664   6.238   6.471
 4305SOL    HW113814   0.684   6.241   6.373
 4305SOL    HW213815   0.585   6.179   6.487
 4306SOL     OW13816   5.915   3.554   5.358
 4306SOL    HW113817   5.851   3.624   5.325
 4306SOL    HW213818   5.933   3.569   5.456
 4307SOL     OW13819   6.881   1.239   5.522
 4307SOL    HW113820   6.864   1.321   5.576
 4307SOL    HW213821   6.963   1.252   5.467
 4308SOL     OW13822   4.109   5.715   6.452
 4308SOL    HW113823   4.176   5.789   6.450
 4308SOL    HW213824   4.134   5.651   6.525
 4309SOL     OW13825   1.617   1.268   0.263
 4309SOL    HW113826   1.573   1.180   0.244
 4309SOL    HW213827   1.565   1.341   0.219
 4310SOL     OW13828   5.995   2.227   2.850
 4310SOL    HW113829   6.045   2.243   2.764
 4310SOL    HW213830   5.900   2.207   2.830
 4311SOL     OW13831   1.035   0.186   1.473
 4311SOL    HW113832   1.092   0.230   1.404
 4311SOL    HW213833   0.969   0.125   1.428
 4312SOL     OW13834   6.858   3.518   1.761
 4312SOL    HW113835   6.772   3.568   1.764
 4312SOL    HW213836   6.859   3.449   1.834
 4313SOL     OW13837   0.878   3.557   6.367
 4313SOL    HW113838   0.978   3.567   6.375
 4313SOL    HW213839   0.834   3.607   6.441
 4314SOL     OW13840   0.915   1.132   5.478
 4314SOL    HW113841   0.864   1.165   5.557
 4314SOL    HW213842   1.012   1.156   5.489
 4315SOL     OW13843   2.693   1.834   5.805
 4315SOL    HW113844   2.764   1.784   5.755
 4315SOL    HW213845   2.713   1.831   5.903
 4316SOL     OW13846   4.362   5.525   1.892
 4316SOL    HW113847   4.366   5.494   1.987
 4316SOL    HW213848   4.285   5.481   1.846
 4317SOL     OW13849   5.074   0.670   5.100
 4317SOL    HW113850   4.989   0.721   5.113
 4317SOL    HW213851   5.098   0.670   5.003
 4318SOL     OW13852   1.360   6.490   4.390
 4318SOL    HW113853   1.359   6.541   4.476
 4318SOL    HW213854   1.268   6.457   4.370
 4319SOL     OW13855   1.016   4.198   2.337
 4319SOL    HW113856   0.992   4.152   2.422
 4319SOL    HW213857   0.947   4.176   2.267
 4320SOL     OW13858   3.306   0.100   0.878
 4320SOL    HW113859   3.230   0.052   0.833
 4320SOL    HW213860   3.320   0.188   0.834
 4321SOL     OW13861   6.742   6.370   3.397
 4321SOL    HW113862   6.803   6.432   3.346
 4321SOL    HW213863   6.794   6.292   3.430
 4322SOL     OW13864   2.174   1.906   4.258
 4322SOL    HW113865   2.079   1.882   4.276
 4322SOL    HW213866   2.188   2.004   4.270
 4323SOL     OW13867   4.401   4.866   0.045
 4323SOL    HW113868   4.317   4.826   0.083
 4323SOL    HW213869   4.471   4.795   0.039
 4324SOL     OW13870   0.579   4.810   5.895
 4324SOL    HW113871   0.510   4.878   5.872
 4324SOL    HW213872   0.648   4.806   5.823
 4325SOL     OW13873   1.937   6.204   1.497
 4325SOL    HW113874   2.000   6.208   1.575
 4325SOL    HW213875   1.925   6.296   1.459
 4326SOL     OW13876   4.633   2.441   2.448
 4326SOL    HW113877   4.566   2.430   2.522
 4326SOL    HW213878   4.665   2.351   2.419
 4327SOL     OW13879   2.414   5.570   3.627
 4327SOL    HW113880   2.380   5.579   3.533
 4327SOL    HW213881   2.427   5.660   3.667
 4328SOL     OW13882   6.165   0.504   3.549
 4328SOL    HW113883   6.157   0.512   3.450
 4328SOL    HW213884   6.086   0.547   3.593
 4329SOL     OW13885   6.478   3.515   6.606
 4329SOL    HW113886   6.451   3.434   6.657
 4329SOL    HW213887   6.577   3.528   6.615
 4330SOL     OW13888   2.510   4.889   4.485
 4330SOL    HW113889   2.452   4.810   4.466
 4330SOL    HW213890   2.455   4.972   4.487
 4331SOL     OW13891   5.848   1.971   2.567
 4331SOL    HW113892   5.849   2.016   2.656
 4331SOL    HW213893   5.807   2.032   2.500
 4332SOL     OW13894   0.149   5.532   1.506
 4332SOL    HW113895   0.165   5.563   1.600
 4332SOL    HW213896   0.130   5.610   1.447
 4333SOL     OW13897   4.151   2.659   5.980
 4333SOL    HW113898   4.187   2.665   5.886
 4333SOL    HW213899   4.063   2.706   5.985
 4334SOL     OW13900   0.262   3.176   3.841
 4334SOL    HW113901   0.165   3.168   3.865
 4334SOL    HW213902   0.280   3.123   3.759
 4335SOL     OW13903   2.493   4.089   1.714
 4335SOL    HW113904   2.585   4.124   1.698
 4335SOL    HW213905   2.499   3.995   1.748
 4336SOL     OW13906   2.501   5.693   5.648
 4336SOL    HW113907   2.446   5.720   5.570
 4336SOL    HW213908   2.593   5.731   5.640
 4337SOL     OW13909   6.862   4.679   3.600
 4337SOL    HW113910   6.779   4.732   3.618
 4337SOL    HW213911   6.907   4.714   3.518
 4338SOL     OW13912   2.865   2.381   5.648
 4338SOL    HW113913   2.811   2.298   5.661
 4338SOL    HW213914   2.938   2.385   5.715
 4339SOL     OW13915   4.090   4.833   5.347
 4339SOL    HW113916   4.045   4.891   5.279
 4339SOL    HW213917   4.081   4.873   5.438
 4340SOL     OW13918   0.036   4.383   1.130
 4340SOL    HW113919   0.075   4.337   1.211
 4340SOL    HW213920   0.100   4.374   1.054
 4341SOL     OW13921   5.928   5.868   1.471
 4341SOL    HW113922   5.951   5.807   1.547
 4341SOL    HW213923   5.844   5.918   1.492
 4342SOL     OW13924   5.612   3.121   2.444
 4342SOL    HW113925   5.580   3.061   2.371
 4342SOL    HW213926   5.700   3.089   2.479
 4343SOL     OW13927   3.531   0.447   6.400
 4343SOL    HW113928   3.440   0.412   6.423
 4343SOL    HW213929   3.600   0.384   6.434
 4344SOL     OW13930   0.404   4.210   3.196
 4344SOL    HW113931   0.358   4.129   3.159
 4344SOL    HW213932   0.393   4.286   3.132
 4345SOL     OW13933   3.698   3.567   2.468
 4345SOL    HW113934   3.676   3.511   2.547
 4345SOL    HW213935   3.635   3.645   2.464
 4346SOL     OW13936   0.677   3.143   2.788
 4346SOL    HW113937   0.663   3.218   2.723
 4346SOL    HW213938   0.698   3.181   2.879
 4347SOL     OW13939   6.156   5.498   0.553
 4347SOL    HW113940   6.084   5.564   0.574
 4347SOL    HW213941   6.123   5.405   0.573
 4348SOL     OW13942   5.956   5.015   5.539
 4348SOL    HW113943   5.995   5.021   5.447
 4348SOL    HW213944   6.017   5.059   5.605
 4349SOL     OW13945   0.850   3.531   4.169
 4349SOL    HW113946   0.895   3.619   4.183
 4349SOL    HW213947   0.756   3.547   4.138
 4350SOL     OW13948   3.988   1.059   4.473
 4350SOL    HW113949   4.013   0.963   4.464
 4350SOL    HW213950   4.070   1.115   4.481
 4351SOL     OW13951   0.178   5.527   0.752
 4351SOL    HW113952   0.165   5.545   0.850
 4351SOL    HW213953   0.102   5.569   0.701
 4352SOL     OW13954   3.676   5.041   2.002
 4352SOL    HW113955   3.650   4.945   1.993
 4352SOL    HW213956   3.603   5.099   1.966
 4353SOL     OW13957   2.998   2.974   1.006
 4353SOL    HW113958   2.959   2.915   0.935
 4353SOL    HW213959   3.063   3.038   0.965
 4354SOL     OW13960   5.706   6.203   2.177
 4354SOL    HW113961   5.747   6.117   2.208
 4354SOL    HW213962   5.616   6.215   2.219
 4355SOL     OW13963   1.945   4.869   2.608
 4355SOL    HW113964   1.859   4.867   2.659
 4355SOL    HW213965   1.927   4.890   2.512
 4356SOL     OW13966   5.825   2.656   5.412
 4356SOL    HW113967   5.815   2.748   5.450
 4356SOL    HW213968   5.922   2.629   5.415
 4357SOL     OW13969   5.932   6.917   1.639
 4357SOL    HW113970   6.028   6.888   1.646
 4357SOL    HW213971   5.928   7.016   1.625
 4358SOL     OW13972   2.931   1.036   0.188
 4358SOL    HW113973   2.870   1.016   0.111
 4358SOL    HW213974   3.025   1.020   0.162
 4359SOL     OW13975   2.537   2.065   0.903
 4359SOL    HW113976   2.539   2.078   0.804
 4359SOL    HW213977   2.489   2.141   0.946
 4360SOL     OW13978   2.145   5.392   3.939
 4360SOL    HW113979   2.050   5.382   3.910
 4360SOL    HW213980   2.148   5.441   4.026
 4361SOL     OW13981   0.556   1.995   0.222
 4361SOL    HW113982   0.526   2.084   0.255
 4361SOL    HW213983   0.651   2.001   0.191
 4362SOL     OW13984   1.193   5.565   3.189
 4362SOL    HW113985   1.272   5.606   3.234
 4362SOL    HW213986   1.224   5.503   3.117
 4363SOL     OW13987   3.834   0.879   1.991
 4363SOL    HW113988   3.886   0.795   2.003
 4363SOL    HW213989   3.895   0.958   2.000
 4364SOL     OW13990   3.404   4.168   2.725
 4364SOL    HW113991   3.471   4.141   2.794
 4364SOL    HW213992   3.388   4.267   2.730
 4365SOL     OW13993   2.192   0.962   1.481
 4365SOL    HW113994   2.245   0.959   1.565
 4365SOL    HW213995   2.253   0.978   1.403
 4366SOL     OW13996   5.139   6.714   4.653
 4366SOL    HW113997   5.177   6.694   4.743
 4366SOL    HW213998   5.210   6.702   4.584
 4367SOL     OW13999   2.450   6.289   2.826
 4367SOL    HW114000   2.419   6.194   2.814
 4367SOL    HW214001   2.385   6.351   2.783
 4368SOL     OW14002   4.935   3.777   3.910
 4368SOL    HW114003   4.935   3.686   3.869
 4368SOL    HW214004   4.908   3.844   3.841
 4369SOL     OW14005   5.301   4.123   3.623
 4369SOL    HW114006   5.384   4.073   3.648
 4369SOL    HW214007   5.230   4.059   3.596
 4370SOL     OW14008   4.013   4.655   0.843
 4370SOL    HW114009   4.064   4.574   0.871
 4370SOL    HW214010   4.050   4.735   0.890
 4371SOL     OW14011   3.109   0.885   2.764
 4371SOL    HW114012   3.091   0.971   2.716
 4371SOL    HW214013   3.138   0.816   2.698
 4372SOL     OW14014   1.889   4.113   3.943
 4372SOL    HW114015   1.833   4.064   4.010
 4372SOL    HW214016   1.955   4.171   3.990
 4373SOL     OW14017   4.446   0.696   6.807
 4373SOL    HW114018   4.350   0.671   6.818
 4373SOL    HW214019   4.482   0.659   6.722
 4374SOL     OW14020   2.924   6.735   0.178
 4374SOL    HW114021   2.977   6.720   0.262
 4374SOL    HW214022   2.835   6.773   0.203
 4375SOL     OW14023   4.342   1.318   5.880
 4375SOL    HW114024   4.425   1.370   5.861
 4375SOL    HW214025   4.263   1.366   5.843
 4376SOL     OW14026   2.274   5.638   0.222
 4376SOL    HW114027   2.179   5.609   0.216
 4376SOL    HW214028   2.280   5.720   0.280
 4377SOL     OW14029   5.255   6.033   0.245
 4377SOL    HW114030   5.336   6.071   0.199
 4377SOL    HW214031   5.266   5.934   0.255
 4378SOL     OW14032   2.576   5.104   2.749
 4378SOL    HW114033   2.513   5.026   2.745
 4378SOL    HW214034   2.622   5.114   2.660
 4379SOL     OW14035   0.649   6.853   1.382
 4379SOL    HW114036   0.583   6.799   1.434
 4379SOL    HW214037   0.606   6.886   1.298
 4380SOL     OW14038   2.104   5.448   4.432
 4380SOL    HW114039   2.018   5.399   4.446
 4380SOL    HW214040   2.125   5.502   4.514
 4381SOL     OW14041   4.812   5.524   5.515
 4381SOL    HW114042   4.903   5.522   5.473
 4381SOL    HW214043   4.751   5.581   5.460
 4382SOL     OW14044   5.250   3.511   3.234
 4382SOL    HW114045   5.160   3.485   3.269
 4382SOL    HW214046   5.240   3.546   3.140
 4383SOL     OW14047   0.962   1.535   0.307
 4383SOL    HW114048   0.870   1.547   0.345
 4383SOL    HW214049   0.976   1.600   0.232
 4384SOL     OW14050   4.020   6.622   1.241
 4384SOL    HW114051   3.952   6.573   1.187
 4384SOL    HW214052   4.065   6.691   1.184
 4385SOL     OW14053   6.340   2.269   2.410
 4385SOL    HW114054   6.414   2.318   2.457
 4385SOL    HW214055   6.287   2.333   2.355
 4386SOL     OW14056   1.152   4.030   6.861
 4386SOL    HW114057   1.145   4.102   6.792
 4386SOL    HW214058   1.136   3.941   6.819
 4387SOL     OW14059   6.193   2.440   1.779
 4387SOL    HW114060   6.208   2.459   1.682
 4387SOL    HW214061   6.222   2.347   1.800
 4388SOL     OW14062   3.346   1.867   5.843
 4388SOL    HW114063   3.321   1.922   5.923
 4388SOL    HW214064   3.413   1.917   5.788
 4389SOL     OW14065   6.120   2.309   2.602
 4389SOL    HW114066   6.095   2.398   2.563
 4389SOL    HW214067   6.183   2.262   2.540
 4390SOL     OW14068   4.297   2.423   1.926
 4390SOL    HW114069   4.279   2.416   1.828
 4390SOL    HW214070   4.229   2.370   1.977
 4391SOL     OW14071   0.500   6.499   0.491
 4391SOL    HW114072   0.569   6.440   0.533
 4391SOL    HW214073   0.514   6.593   0.520
 4392SOL     OW14074   5.662   4.295   4.700
 4392SOL    HW114075   5.643   4.261   4.608
 4392SOL    HW214076   5.761   4.304   4.712
 4393SOL     OW14077   5.157   6.456   3.551
 4393SOL    HW114078   5.242   6.424   3.593
 4393SOL    HW214079   5.126   6.388   3.484
 4394SOL     OW14080   4.469   1.032   2.589
 4394SOL    HW114081   4.497   1.073   2.675
 4394SOL    HW214082   4.491   1.094   2.514
 4395SOL     OW14083   5.399   1.759   1.301
 4395SOL    HW114084   5.466   1.832   1.288
 4395SOL    HW214085   5.392   1.705   1.217
 4396SOL     OW14086   1.253   1.304   4.181
 4396SOL    HW114087   1.206   1.392   4.189
 4396SOL    HW214088   1.329   1.312   4.116
 4397SOL     OW14089   5.792   0.221   6.510
 4397SOL    HW114090   5.890   0.215   6.493
 4397SOL    HW214091   5.750   0.282   6.443
 4398SOL     OW14092   0.185   5.489   4.212
 4398SOL    HW114093   0.245   5.521   4.286
 4398SOL    HW214094   0.154   5.396   4.233
 4399SOL     OW14095   2.868   1.087   2.291
 4399SOL    HW114096   2.805   1.164   2.304
 4399SOL    HW214097   2.877   1.068   2.193
 4400SOL     OW14098   3.569   6.203   3.581
 4400SOL    HW114099   3.587   6.224   3.485
 4400SOL    HW214100   3.533   6.110   3.589
 4401SOL     OW14101   6.160   6.227   4.931
 4401SOL    HW114102   6.134   6.216   4.835
 4401SOL    HW214103   6.187   6.138   4.968
 4402SOL     OW14104   6.677   6.918   3.252
 4402SOL    HW114105   6.755   6.859   3.271
 4402SOL    HW214106   6.699   6.979   3.176
 4403SOL     OW14107   0.221   0.301   3.504
 4403SOL    HW114108   0.160   0.222   3.497
 4403SOL    HW214109   0.299   0.279   3.562
 4404SOL     OW14110   1.773   4.734   3.089
 4404SOL    HW114111   1.689   4.695   3.128
 4404SOL    HW214112   1.754   4.773   2.999
 4405SOL     OW14113   3.252   3.593   5.878
 4405SOL    HW114114   3.295   3.668   5.928
 4405SOL    HW214115   3.201   3.629   5.800
 4406SOL     OW14116   5.564   3.749   1.807
 4406SOL    HW114117   5.515   3.825   1.765
 4406SOL    HW214118   5.591   3.684   1.736
 4407SOL     OW14119   6.592   0.487   0.219
 4407SOL    HW114120   6.585   0.580   0.254
 4407SOL    HW214121   6.688   0.457   0.224
 4408SOL     OW14122   4.283   6.172   0.417
 4408SOL    HW114123   4.356   6.212   0.363
 4408SOL    HW214124   4.204   6.235   0.418
 4409SOL     OW14125   2.255   1.545   3.330
 4409SOL    HW114126   2.264   1.584   3.238
 4409SOL    HW214127   2.336   1.567   3.383
 4410SOL     OW14128   1.991   5.737   1.370
 4410SOL    HW114129   1.983   5.836   1.357
 4410SOL    HW214130   1.966   5.713   1.464
 4411SOL     OW14131   3.868   3.202   2.575
 4411SOL    HW114132   3.860   3.103   2.572
 4411SOL    HW214133   3.791   3.243   2.525
 4412SOL     OW14134   3.245   1.970   6.194
 4412SOL    HW114135   3.287   1.991   6.283
 4412SOL    HW214136   3.309   1.993   6.121
 4413SOL     OW14137   4.362   5.196   3.801
 4413SOL    HW114138   4.419   5.155   3.729
 4413SOL    HW214139   4.266   5.176   3.783
 4414SOL     OW14140   3.404   5.806   1.486
 4414SOL    HW114141   3.363   5.794   1.395
 4414SOL    HW214142   3.470   5.880   1.482
 4415SOL     OW14143   4.370   1.604   1.234
 4415SOL    HW114144   4.391   1.513   1.267
 4415SOL    HW214145   4.277   1.629   1.262
 4416SOL     OW14146   2.635   2.380   4.660
 4416SOL    HW114147   2.556   2.320   4.669
 4416SOL    HW214148   2.711   2.343   4.714
 4417SOL     OW14149   6.859   0.737   1.076
 4417SOL    HW114150   6.934   0.686   1.034
 4417SOL    HW214151   6.794   0.673   1.117
 4418SOL     OW14152   4.721   1.057   4.149
 4418SOL    HW114153   4.777   0.985   4.107
 4418SOL    HW214154   4.673   1.019   4.228
 4419SOL     OW14155   6.683   5.384   0.032
 4419SOL    HW114156   6.595   5.417   7.018
 4419SOL    HW214157   6.672   5.355   0.128
 4420SOL     OW14158   4.603   0.931   6.628
 4420SOL    HW114159   4.508   0.917   6.600
 4420SOL    HW214160   4.607   0.969   6.720
 4421SOL     OW14161   1.037   1.941   3.181
 4421SOL    HW114162   1.060   1.987   3.267
 4421SOL    HW214163   1.110   1.956   3.114
 4422SOL     OW14164   1.841   4.438   5.827
 4422SOL    HW114165   1.858   4.495   5.746
 4422SOL    HW214166   1.811   4.348   5.798
 4423SOL     OW14167   6.825   1.963   6.325
 4423SOL    HW114168   6.827   2.015   6.239
 4423SOL    HW214169   6.875   2.013   6.395
 4424SOL     OW14170   0.625   6.370   3.734
 4424SOL    HW114171   0.601   6.321   3.650
 4424SOL    HW214172   0.586   6.323   3.813
 4425SOL     OW14173   5.154   4.081   0.077
 4425SOL    HW114174   5.208   4.012   0.029
 4425SOL    HW214175   5.057   4.059   0.069
 4426SOL     OW14176   0.559   0.258   6.105
 4426SOL    HW114177   0.604   0.319   6.171
 4426SOL    HW214178   0.468   0.234   6.139
 4427SOL     OW14179   0.991   6.132   3.970
 4427SOL    HW114180   1.028   6.142   3.878
 4427SOL    HW214181   1.033   6.054   4.015
 4428SOL     OW14182   1.917   6.525   3.340
 4428SOL    HW114183   1.912   6.611   3.391
 4428SOL    HW214184   1.837   6.518   3.281
 4429SOL     OW14185   3.772   6.949   3.170
 4429SOL    HW114186   3.701   6.942   3.100
 4429SOL    HW214187   3.740   6.910   3.256
 4430SOL     OW14188   1.461   0.451   1.471
 4430SOL    HW114189   1.479   0.474   1.567
 4430SOL    HW214190   1.548   0.440   1.423
 4431SOL     OW14191   2.033   1.926   3.456
 4431SOL    HW114192   2.094   1.888   3.526
 4431SOL    HW214193   1.962   1.981   3.501
 4432SOL     OW14194   2.996   3.173   3.859
 4432SOL    HW114195   3.074   3.127   3.817
 4432SOL    HW214196   2.931   3.200   3.787
 4433SOL     OW14197   6.260   0.257   3.566
 4433SOL    HW114198   6.325   0.257   3.643
 4433SOL    HW214199   6.219   0.347   3.556
 4434SOL     OW14200   5.065   2.202   4.871
 4434SOL    HW114201   5.008   2.178   4.949
 4434SOL    HW214202   5.135   2.132   4.857
 4435SOL     OW14203   4.145   3.248   2.280
 4435SOL    HW114204   4.156   3.206   2.190
 4435SOL    HW214205   4.139   3.348   2.271
 4436SOL     OW14206   5.319   0.678   0.821
 4436SOL    HW114207   5.288   0.716   0.733
 4436SOL    HW214208   5.331   0.579   0.812
 4437SOL     OW14209   3.455   0.287   5.334
 4437SOL    HW114210   3.535   0.342   5.358
 4437SOL    HW214211   3.475   0.233   5.253
 4438SOL     OW14212   3.631   3.570   6.599
 4438SOL    HW114213   3.666   3.581   6.506
 4438SOL    HW214214   3.547   3.515   6.596
 4439SOL     OW14215   2.180   4.868   2.243
 4439SOL    HW114216   2.231   4.885   2.159
 4439SOL    HW214217   2.234   4.899   2.321
 4440SOL     OW14218   6.745   1.107   0.266
 4440SOL    HW114219   6.764   1.145   0.356
 4440SOL    HW214220   6.646   1.103   0.252
 4441SOL     OW14221   6.626   1.606   3.124
 4441SOL    HW114222   6.648   1.694   3.168
 4441SOL    HW214223   6.702   1.542   3.138
 4442SOL     OW14224   1.883   6.170   1.899
 4442SOL    HW114225   1.826   6.098   1.938
 4442SOL    HW214226   1.844   6.259   1.922
 4443SOL     OW14227   2.975   1.331   6.141
 4443SOL    HW114228   2.901   1.399   6.139
 4443SOL    HW214229   2.999   1.312   6.236
 4444SOL     OW14230   5.022   0.917   2.957
 4444SOL    HW114231   4.953   0.855   2.993
 4444SOL    HW214232   5.023   0.912   2.857
 4445SOL     OW14233   1.158   1.236   6.449
 4445SOL    HW114234   1.058   1.227   6.442
 4445SOL    HW214235   1.202   1.179   6.380
 4446SOL     OW14236   5.284   4.953   3.819
 4446SOL    HW114237   5.216   4.887   3.787
 4446SOL    HW214238   5.281   4.960   3.918
 4447SOL     OW14239   4.956   3.119   4.951
 4447SOL    HW114240   4.911   3.032   4.933
 4447SOL    HW214241   5.054   3.111   4.934
 4448SOL     OW14242   2.216   2.782   6.825
 4448SOL    HW114243   2.261   2.796   6.913
 4448SOL    HW214244   2.225   2.686   6.797
 4449SOL     OW14245   0.500   1.625   5.222
 4449SOL    HW114246   0.519   1.529   5.240
 4449SOL    HW214247   0.437   1.661   5.292
 4450SOL     OW14248   3.208   3.942   2.832
 4450SOL    HW114249   3.262   3.869   2.790
 4450SOL    HW214250   3.257   4.029   2.821
 4451SOL     OW14251   0.043   4.267   1.389
 4451SOL    HW114252   0.137   4.292   1.413
 4451SOL    HW214253   7.003   4.283   1.467
 4452SOL     OW14254   6.353   4.043   6.128
 4452SOL    HW114255   6.414   4.100   6.073
 4452SOL    HW214256   6.342   3.954   6.083
 4453SOL     OW14257   5.041   1.622   1.073
 4453SOL    HW114258   4.978   1.691   1.110
 4453SOL    HW214259   5.129   1.665   1.054
 4454SOL     OW14260   4.966   2.947   1.255
 4454SOL    HW114261   5.010   3.037   1.249
 4454SOL    HW214262   4.892   2.950   1.322
 4455SOL     OW14263   4.320   1.860   2.117
 4455SOL    HW114264   4.220   1.867   2.110
 4455SOL    HW214265   4.345   1.767   2.141
 4456SOL     OW14266   0.739   5.750   2.509
 4456SOL    HW114267   0.643   5.732   2.531
 4456SOL    HW214268   0.748   5.769   2.411
 4457SOL     OW14269   4.536   1.851   6.453
 4457SOL    HW114270   4.609   1.841   6.386
 4457SOL    HW214271   4.568   1.907   6.530
 4458SOL     OW14272   3.745   1.381   0.300
 4458SOL    HW114273   3.706   1.439   0.372
 4458SOL    HW214274   3.767   1.292   0.337
 4459SOL     OW14275   5.076   6.469   5.332
 4459SOL    HW114276   4.983   6.498   5.356
 4459SOL    HW214277   5.130   6.549   5.307
 4460SOL     OW14278   1.320   1.462   6.353
 4460SOL    HW114279   1.241   1.403   6.368
 4460SOL    HW214280   1.339   1.514   6.436
 4461SOL     OW14281   1.848   6.673   2.103
 4461SOL    HW114282   1.890   6.696   2.190
 4461SOL    HW214283   1.861   6.748   2.039
 4462SOL     OW14284   6.908   4.925   0.619
 4462SOL    HW114285   6.841   4.855   0.642
 4462SOL    HW214286   6.999   4.883   0.610
 4463SOL     OW14287   1.898   3.799   5.925
 4463SOL    HW114288   1.888   3.887   5.879
 4463SOL    HW214289   1.900   3.726   5.857
 4464SOL     OW14290   5.840   3.016   0.051
 4464SOL    HW114291   5.897   3.082   0.001
 4464SOL    HW214292   5.806   3.057   0.135
 4465SOL     OW14293   0.896   6.270   1.063
 4465SOL    HW114294   0.940   6.222   0.987
 4465SOL    HW214295   0.945   6.250   1.148
 4466SOL     OW14296   0.313   2.982   3.237
 4466SOL    HW114297   0.251   3.056   3.265
 4466SOL    HW214298   0.405   3.019   3.224
 4467SOL     OW14299   1.578   0.224   3.147
 4467SOL    HW114300   1.628   0.161   3.206
 4467SOL    HW214301   1.621   0.315   3.152
 4468SOL     OW14302   2.287   2.256   0.640
 4468SOL    HW114303   2.329   2.166   0.654
 4468SOL    HW214304   2.345   2.327   0.681
 4469SOL     OW14305   4.769   6.729   0.611
 4469SOL    HW114306   4.753   6.774   0.524
 4469SOL    HW214307   4.868   6.721   0.627
 4470SOL     OW14308   4.727   5.058   1.680
 4470SOL    HW114309   4.812   5.068   1.731
 4470SOL    HW214310   4.650   5.085   1.737
 4471SOL     OW14311   6.450   2.746   0.493
 4471SOL    HW114312   6.535   2.714   0.534
 4471SOL    HW214313   6.439   2.706   0.402
 4472SOL     OW14314   2.238   4.350   1.604
 4472SOL    HW114315   2.278   4.337   1.513
 4472SOL    HW214316   2.310   4.376   1.668
 4473SOL     OW14317   0.400   0.604   6.332
 4473SOL    HW114318   0.342   0.670   6.379
 4473SOL    HW214319   0.458   0.556   6.398
 4474SOL     OW14320   5.790   0.489   4.228
 4474SOL    HW114321   5.848   0.409   4.246
 4474SOL    HW214322   5.731   0.505   4.307
 4475SOL     OW14323   2.112   3.450   0.508
 4475SOL    HW114324   2.194   3.413   0.466
 4475SOL    HW214325   2.056   3.496   0.439
 4476SOL     OW14326   4.889   0.092   1.994
 4476SOL    HW114327   4.795   0.086   2.026
 4476SOL    HW214328   4.889   0.115   1.896
 4477SOL     OW14329   1.093   0.842   0.490
 4477SOL    HW114330   1.063   0.887   0.406
 4477SOL    HW214331   1.023   0.851   0.560
 4478SOL     OW14332   1.707   4.834   2.029
 4478SOL    HW114333   1.630   4.861   1.972
 4478SOL    HW214334   1.748   4.751   1.993
 4479SOL     OW14335   0.730   0.417   6.250
 4479SOL    HW114336   0.814   0.368   6.270
 4479SOL    HW214337   0.751   0.513   6.230
 4480SOL     OW14338   0.447   4.342   3.778
 4480SOL    HW114339   0.452   4.434   3.818
 4480SOL    HW214340   0.377   4.341   3.707
 4481SOL     OW14341   1.211   0.522   3.738
 4481SOL    HW114342   1.292   0.516   3.797
 4481SOL    HW214343   1.162   0.607   3.757
 4482SOL     OW14344   0.870   4.446   3.706
 4482SOL    HW114345   0.811   4.518   3.670
 4482SOL    HW214346   0.923   4.482   3.783
 4483SOL     OW14347   5.353   3.030   1.270
 4483SOL    HW114348   5.448   3.022   1.301
 4483SOL    HW214349   5.322   2.942   1.235
 4484SOL     OW14350   3.878   3.278   6.602
 4484SOL    HW114351   3.935   3.326   6.668
 4484SOL    HW214352   3.797   3.241   6.647
 4485SOL     OW14353   4.897   0.552   6.529
 4485SOL    HW114354   4.988   0.516   6.545
 4485SOL    HW214355   4.871   0.613   6.604
 4486SOL     OW14356   5.935   2.238   3.925
 4486SOL    HW114357   5.890   2.302   3.987
 4486SOL    HW214358   5.962   2.156   3.976
 4487SOL     OW14359   2.952   3.104   5.682
 4487SOL    HW114360   2.987   3.155   5.603
 4487SOL    HW214361   2.988   3.010   5.679
 4488SOL     OW14362   0.105   1.991   6.580
 4488SOL    HW114363   0.122   1.903   6.536
 4488SOL    HW214364   0.166   2.060   6.543
 4489SOL     OW14365   6.558   0.798   2.549
 4489SOL    HW114366   6.589   0.741   2.625
 4489SOL    HW214367   6.632   0.807   2.482
 4490SOL     OW14368   0.103   2.060   3.910
 4490SOL    HW114369   0.119   2.030   4.003
 4490SOL    HW214370   0.009   2.093   3.901
 4491SOL     OW14371   1.205   3.509   3.058
 4491SOL    HW114372   1.138   3.579   3.085
 4491SOL    HW214373   1.253   3.539   2.976
 4492SOL     OW14374   4.614   4.508   6.491
 4492SOL    HW114375   4.623   4.527   6.393
 4492SOL    HW214376   4.644   4.588   6.543
 4493SOL     OW14377   5.854   5.251   3.309
 4493SOL    HW114378   5.792   5.329   3.298
 4493SOL    HW214379   5.843   5.212   3.400
 4494SOL     OW14380   6.066   2.613   3.346
 4494SOL    HW114381   6.034   2.521   3.321
 4494SOL    HW214382   6.000   2.681   3.312
 4495SOL     OW14383   4.029   6.281   1.891
 4495SOL    HW114384   4.094   6.340   1.940
 4495SOL    HW214385   4.080   6.207   1.846
 4496SOL     OW14386   5.570   4.572   5.863
 4496SOL    HW114387   5.641   4.534   5.922
 4496SOL    HW214388   5.582   4.537   5.770
 4497SOL     OW14389   6.156   5.232   0.954
 4497SOL    HW114390   6.102   5.237   1.038
 4497SOL    HW214391   6.197   5.321   0.936
 4498SOL     OW14392   0.727   4.051   6.725
 4498SOL    HW114393   0.703   4.136   6.771
 4498SOL    HW214394   0.646   3.994   6.714
 4499SOL     OW14395   5.544   3.106   6.218
 4499SOL    HW114396   5.541   3.045   6.139
 4499SOL    HW214397   5.492   3.189   6.198
 4500SOL     OW14398   3.009   3.880   3.574
 4500SOL    HW114399   3.018   3.915   3.667
 4500SOL    HW214400   3.004   3.780   3.576
 4501SOL     OW14401   1.739   5.045   4.424
 4501SOL    HW114402   1.804   5.040   4.348
 4501SOL    HW214403   1.649   5.013   4.394
 4502SOL     OW14404   6.499   2.924   6.841
 4502SOL    HW114405   6.423   2.935   6.777
 4502SOL    HW214406   6.558   2.850   6.810
 4503SOL     OW14407   1.941   3.028   2.951
 4503SOL    HW114408   2.035   3.061   2.948
 4503SOL    HW214409   1.910   3.008   2.858
 4504SOL     OW14410   4.531   2.598   4.395
 4504SOL    HW114411   4.451   2.646   4.430
 4504SOL    HW214412   4.506   2.504   4.371
 4505SOL     OW14413   2.056   5.008   6.729
 4505SOL    HW114414   2.063   5.022   6.631
 4505SOL    HW214415   1.990   4.935   6.748
 4506SOL     OW14416   4.066   6.798   4.481
 4506SOL    HW114417   4.036   6.729   4.546
 4506SOL    HW214418   4.164   6.791   4.466
 4507SOL     OW14419   6.604   3.690   1.740
 4507SOL    HW114420   6.619   3.726   1.648
 4507SOL    HW214421   6.564   3.761   1.797
 4508SOL     OW14422   1.666   4.257   6.889
 4508SOL    HW114423   1.683   4.201   6.971
 4508SOL    HW214424   1.599   4.211   6.831
 4509SOL     OW14425   0.875   1.828   3.386
 4509SOL    HW114426   0.939   1.824   3.309
 4509SOL    HW214427   0.926   1.832   3.472
 4510SOL     OW14428   3.846   6.338   5.228
 4510SOL    HW114429   3.787   6.348   5.308
 4510SOL    HW214430   3.841   6.245   5.194
 4511SOL     OW14431   6.313   2.441   6.212
 4511SOL    HW114432   6.406   2.426   6.244
 4511SOL    HW214433   6.314   2.471   6.117
 4512SOL     OW14434   2.937   4.920   0.177
 4512SOL    HW114435   2.938   4.856   0.100
 4512SOL    HW214436   3.003   4.891   0.246
 4513SOL     OW14437   5.707   1.237   2.067
 4513SOL    HW114438   5.663   1.317   2.025
 4513SOL    HW214439   5.643   1.160   2.065
 4514SOL     OW14440   3.557   0.895   5.380
 4514SOL    HW114441   3.656   0.888   5.365
 4514SOL    HW214442   3.516   0.804   5.376
 4515SOL     OW14443   6.399   4.950   1.142
 4515SOL    HW114444   6.466   4.998   1.199
 4515SOL    HW214445   6.329   4.909   1.200
 4516SOL     OW14446   0.858   0.333   4.561
 4516SOL    HW114447   0.899   0.255   4.608
 4516SOL    HW214448   0.762   0.312   4.540
 4517SOL     OW14449   3.525   6.946   6.235
 4517SOL    HW114450   3.486   6.915   6.322
 4517SOL    HW214451   3.601   6.887   6.209
 4518SOL     OW14452   1.311   0.810   3.912
 4518SOL    HW114453   1.338   0.722   3.950
 4518SOL    HW214454   1.375   0.880   3.942
 4519SOL     OW14455   6.468   3.016   4.720
 4519SOL    HW114456   6.392   3.044   4.662
 4519SOL    HW214457   6.511   3.097   4.760
 4520SOL     OW14458   0.377   3.957   2.371
 4520SOL    HW114459   0.284   3.934   2.398
 4520SOL    HW214460   0.383   4.054   2.347
 4521SOL     OW14461   5.132   1.831   6.048
 4521SOL    HW114462   5.085   1.858   5.964
 4521SOL    HW214463   5.230   1.850   6.039
 4522SOL     OW14464   5.826   0.524   2.985
 4522SOL    HW114465   5.760   0.588   3.024
 4522SOL    HW214466   5.811   0.433   3.025
 4523SOL     OW14467   4.390   3.233   6.573
 4523SOL    HW114468   4.326   3.309   6.564
 4523SOL    HW214469   4.401   3.209   6.669
 4524SOL     OW14470   6.359   0.590   5.063
 4524SOL    HW114471   6.409   0.515   5.020
 4524SOL    HW214472   6.291   0.626   5.000
 4525SOL     OW14473   6.837   1.950   5.378
 4525SOL    HW114474   6.898   2.017   5.334
 4525SOL    HW214475   6.840   1.963   5.477
 4526SOL     OW14476   3.694   1.045   0.677
 4526SOL    HW114477   3.747   0.972   0.720
 4526SOL    HW214478   3.604   1.010   0.650
 4527SOL     OW14479   3.971   0.335   4.011
 4527SOL    HW114480   4.051   0.281   4.040
 4527SOL    HW214481   4.001   0.407   3.949
 4528SOL     OW14482   5.146   6.941   5.863
 4528SOL    HW114483   5.103   6.930   5.773
 4528SOL    HW214484   5.076   6.965   5.930
 4529SOL     OW14485   4.184   0.286   3.781
 4529SOL    HW114486   4.232   0.258   3.864
 4529SOL    HW214487   4.114   0.353   3.804
 4530SOL     OW14488   0.604   2.844   4.882
 4530SOL    HW114489   0.560   2.837   4.793
 4530SOL    HW214490   0.631   2.753   4.913
 4531SOL     OW14491   0.136   3.986   3.730
 4531SOL    HW114492   0.093   4.040   3.803
 4531SOL    HW214493   0.147   3.891   3.760
 4532SOL     OW14494   6.398   1.870   0.483
 4532SOL    HW114495   6.343   1.800   0.438
 4532SOL    HW214496   6.343   1.917   0.552
 4533SOL     OW14497   3.934   5.651   2.281
 4533SOL    HW114498   3.972   5.632   2.191
 4533SOL    HW214499   3.850   5.704   2.272
 4534SOL     OW14500   0.196   4.195   5.386
 4534SOL    HW114501   0.273   4.152   5.432
 4534SOL    HW214502   0.116   4.136   5.392
 4535SOL     OW14503   4.928   2.321   2.750
 4535SOL    HW114504   5.026   2.312   2.768
 4535SOL    HW214505   4.888   2.386   2.814
 4536SOL     OW14506   0.267   0.639   4.078
 4536SOL    HW114507   0.179   0.602   4.108
 4536SOL    HW214508   0.340   0.598   4.132
 4537SOL     OW14509   4.301   2.953   6.331
 4537SOL    HW114510   4.378   3.013   6.355
 4537SOL    HW214511   4.337   2.868   6.292
 4538SOL     OW14512   3.639   1.237   2.001
 4538SOL    HW114513   3.684   1.203   1.919
 4538SOL    HW214514   3.540   1.240   1.986
 4539SOL     OW14515   2.047   2.020   2.385
 4539SOL    HW114516   1.999   1.969   2.314
 4539SOL    HW214517   2.015   2.115   2.385
 4540SOL     OW14518   3.612   2.846   5.080
 4540SOL    HW114519   3.693   2.896   5.109
 4540SOL    HW214520   3.636   2.782   5.006
 4541SOL     OW14521   6.411   1.501   1.521
 4541SOL    HW114522   6.483   1.432   1.531
 4541SOL    HW214523   6.350   1.474   1.446
 4542SOL     OW14524   5.088   0.126   3.576
 4542SOL    HW114525   5.055   0.193   3.643
 4542SOL    HW214526   5.069   0.159   3.483
 4543SOL     OW14527   5.318   1.989   1.821
 4543SOL    HW114528   5.383   2.002   1.896
 4543SOL    HW214529   5.316   2.070   1.764
 4544SOL     OW14530   4.127   4.766   6.627
 4544SOL    HW114531   4.056   4.712   6.582
 4544SOL    HW214532   4.213   4.715   6.627
 4545SOL     OW14533   4.361   3.544   6.094
 4545SOL    HW114534   4.427   3.612   6.064
 4545SOL    HW214535   4.339   3.483   6.017
 4546SOL     OW14536   0.272   6.645   6.908
 4546SOL    HW114537   0.218   6.644   6.992
 4546SOL    HW214538   0.338   6.569   6.910
 4547SOL     OW14539   4.014   1.517   1.599
 4547SOL    HW114540   3.922   1.548   1.574
 4547SOL    HW214541   4.019   1.418   1.591
 4548SOL     OW14542   1.691   3.293   3.589
 4548SOL    HW114543   1.690   3.318   3.492
 4548SOL    HW214544   1.656   3.369   3.644
 4549SOL     OW14545   4.711   1.764   2.650
 4549SOL    HW114546   4.692   1.671   2.680
 4549SOL    HW214547   4.651   1.787   2.573
 4550SOL     OW14548   1.502   6.300   4.821
 4550SOL    HW114549   1.522   6.385   4.772
 4550SOL    HW214550   1.584   6.244   4.826
 4551SOL     OW14551   0.436   2.853   6.591
 4551SOL    HW114552   0.502   2.843   6.666
 4551SOL    HW214553   0.372   2.927   6.613
 4552SOL     OW14554   6.621   2.928   3.804
 4552SOL    HW114555   6.657   2.840   3.773
 4552SOL    HW214556   6.626   2.994   3.729
 4553SOL     OW14557   4.857   4.658   0.144
 4553SOL    HW114558   4.792   4.686   0.214
 4553SOL    HW214559   4.935   4.613   0.186
 4554SOL     OW14560   5.724   0.098   3.644
 4554SOL    HW114561   5.671   0.049   3.574
 4554SOL    HW214562   5.776   0.171   3.601
 4555SOL     OW14563   4.347   2.047   6.866
 4555SOL    HW114564   4.445   2.065   6.869
 4555SOL    HW214565   4.329   1.952   6.891
 4556SOL     OW14566   4.972   1.055   5.008
 4556SOL    HW114567   5.009   1.069   4.916
 4556SOL    HW214568   5.030   1.103   5.075
 4557SOL     OW14569   4.970   0.454   5.411
 4557SOL    HW114570   4.918   0.371   5.431
 4557SOL    HW214571   5.007   0.491   5.496
 4558SOL     OW14572   5.875   3.702   5.897
 4558SOL    HW114573   5.965   3.692   5.939
 4558SOL    HW214574   5.884   3.696   5.798
 4559SOL     OW14575   0.513   6.479   1.661
 4559SOL    HW114576   0.414   6.465   1.653
 4559SOL    HW214577   0.560   6.411   1.605
 4560SOL     OW14578   5.238   2.619   2.951
 4560SOL    HW114579   5.258   2.521   2.942
 4560SOL    HW214580   5.176   2.633   3.028
 4561SOL     OW14581   2.830   0.546   6.744
 4561SOL    HW114582   2.802   0.561   6.649
 4561SOL    HW214583   2.906   0.482   6.747
 4562SOL     OW14584   2.877   4.915   5.495
 4562SOL    HW114585   2.871   4.907   5.594
 4562SOL    HW214586   2.863   4.825   5.453
 4563SOL     OW14587   5.529   2.395   5.946
 4563SOL    HW114588   5.608   2.440   5.987
 4563SOL    HW214589   5.465   2.465   5.913
 4564SOL     OW14590   1.387   5.617   6.886
 4564SOL    HW114591   1.318   5.666   6.832
 4564SOL    HW214592   1.406   5.669   6.969
 4565SOL     OW14593   3.188   0.705   3.811
 4565SOL    HW114594   3.109   0.765   3.824
 4565SOL    HW214595   3.262   0.734   3.872
 4566SOL     OW14596   0.714   1.558   0.469
 4566SOL    HW114597   0.733   1.536   0.565
 4566SOL    HW214598   0.664   1.644   0.464
 4567SOL     OW14599   6.710   1.164   1.016
 4567SOL    HW114600   6.642   1.160   0.943
 4567SOL    HW214601   6.716   1.258   1.051
 4568SOL     OW14602   3.424   4.995   4.553
 4568SOL    HW114603   3.327   4.978   4.567
 4568SOL    HW214604   3.455   4.944   4.472
 4569SOL     OW14605   0.092   2.430   3.334
 4569SOL    HW114606   0.174   2.376   3.352
 4569SOL    HW214607   0.116   2.511   3.280
 4570SOL     OW14608   6.376   5.158   4.133
 4570SOL    HW114609   6.342   5.141   4.041
 4570SOL    HW214610   6.299   5.171   4.196
 4571SOL     OW14611   3.880   3.083   3.910
 4571SOL    HW114612   3.862   3.072   3.812
 4571SOL    HW214613   3.962   3.139   3.922
 4572SOL     OW14614   2.308   5.532   2.097
 4572SOL    HW114615   2.364   5.554   2.017
 4572SOL    HW214616   2.354   5.566   2.179
 4573SOL     OW14617   5.368   6.866   0.759
 4573SOL    HW114618   5.399   6.887   0.666
 4573SOL    HW214619   5.396   6.773   0.783
 4574SOL     OW14620   0.414   4.721   1.629
 4574SOL    HW114621   0.492   4.731   1.690
 4574SOL    HW214622   0.406   4.802   1.572
 4575SOL     OW14623   6.586   6.642   2.182
 4575SOL    HW114624   6.606   6.682   2.272
 4575SOL    HW214625   6.618   6.547   2.180
 4576SOL     OW14626   3.138   5.856   4.426
 4576SOL    HW114627   3.109   5.913   4.349
 4576SOL    HW214628   3.058   5.827   4.479
 4577SOL     OW14629   1.471   2.305   3.926
 4577SOL    HW114630   1.549   2.333   3.869
 4577SOL    HW214631   1.400   2.375   3.922
 4578SOL     OW14632   6.922   5.127   4.046
 4578SOL    HW114633   6.927   5.220   4.009
 4578SOL    HW214634   6.865   5.126   4.127
 4579SOL     OW14635   5.120   2.042   4.456
 4579SOL    HW114636   5.022   2.037   4.476
 4579SOL    HW214637   5.133   2.061   4.359
 4580SOL     OW14638   6.976   5.512   0.186
 4580SOL    HW114639   0.033   5.569   0.161
 4580SOL    HW214640   6.893   5.568   0.192
 4581SOL     OW14641   3.377   6.311   3.792
 4581SOL    HW114642   3.418   6.398   3.764
 4581SOL    HW214643   3.407   6.238   3.731
 4582SOL     OW14644   4.759   0.132   3.518
 4582SOL    HW114645   4.762   0.140   3.618
 4582SOL    HW214646   4.817   0.056   3.488
 4583SOL     OW14647   4.164   1.484   5.787
 4583SOL    HW114648   4.239   1.550   5.788
 4583SOL    HW214649   4.141   1.461   5.692
 4584SOL     OW14650   1.266   5.081   5.757
 4584SOL    HW114651   1.225   5.142   5.690
 4584SOL    HW214652   1.358   5.112   5.780
 4585SOL     OW14653   3.024   6.523   2.708
 4585SOL    HW114654   3.085   6.460   2.755
 4585SOL    HW214655   2.999   6.484   2.619
 4586SOL     OW14656   2.508   6.886   2.149
 4586SOL    HW114657   2.478   6.935   2.230
 4586SOL    HW214658   2.601   6.851   2.163
 4587SOL     OW14659   2.746   4.824   1.088
 4587SOL    HW114660   2.653   4.842   1.055
 4587SOL    HW214661   2.792   4.761   1.026
 4588SOL     OW14662   3.957   3.921   5.614
 4588SOL    HW114663   4.045   3.967   5.605
 4588SOL    HW214664   3.971   3.829   5.649
 4589SOL     OW14665   1.163   2.045   3.416
 4589SOL    HW114666   1.110   2.089   3.488
 4589SOL    HW214667   1.235   2.106   3.384
 4590SOL     OW14668   4.578   6.079   2.794
 4590SOL    HW114669   4.608   6.004   2.852
 4590SOL    HW214670   4.647   6.151   2.793
 4591SOL     OW14671   5.900   6.469   5.566
 4591SOL    HW114672   5.932   6.515   5.483
 4591SOL    HW214673   5.874   6.375   5.543
 4592SOL     OW14674   3.382   1.455   5.789
 4592SOL    HW114675   3.395   1.509   5.705
 4592SOL    HW214676   3.313   1.499   5.847
 4593SOL     OW14677   3.744   6.586   1.572
 4593SOL    HW114678   3.771   6.622   1.661
 4593SOL    HW214679   3.708   6.661   1.516
 4594SOL     OW14680   3.250   2.122   2.596
 4594SOL    HW114681   3.230   2.024   2.585
 4594SOL    HW214682   3.170   2.168   2.635
 4595SOL     OW14683   4.587   3.162   5.980
 4595SOL    HW114684   4.658   3.229   6.000
 4595SOL    HW214685   4.514   3.169   6.048
 4596SOL     OW14686   6.132   6.896   1.948
 4596SOL    HW114687   6.172   6.819   1.997
 4596SOL    HW214688   6.138   6.880   1.850
 4597SOL     OW14689   6.524   4.829   5.963
 4597SOL    HW114690   6.574   4.797   6.044
 4597SOL    HW214691   6.426   4.818   5.980
 4598SOL     OW14692   3.086   4.429   0.372
 4598SOL    HW114693   3.123   4.483   0.447
 4598SOL    HW214694   3.131   4.455   0.287
 4599SOL     OW14695   2.272   5.182   0.623
 4599SOL    HW114696   2.364   5.219   0.634
 4599SOL    HW214697   2.258   5.155   0.527
 4600SOL     OW14698   3.664   5.092   1.631
 4600SOL    HW114699   3.603   5.160   1.590
 4600SOL    HW214700   3.610   5.019   1.672
 4601SOL     OW14701   1.643   5.593   4.405
 4601SOL    HW114702   1.647   5.590   4.305
 4601SOL    HW214703   1.735   5.583   4.442
 4602SOL     OW14704   1.558   1.290   1.395
 4602SOL    HW114705   1.604   1.344   1.326
 4602SOL    HW214706   1.506   1.216   1.351
 4603SOL     OW14707   3.366   1.514   1.992
 4603SOL    HW114708   3.312   1.598   1.997
 4603SOL    HW214709   3.449   1.531   1.939
 4604SOL     OW14710   1.565   0.951   2.332
 4604SOL    HW114711   1.648   1.003   2.313
 4604SOL    HW214712   1.558   0.874   2.268
 4605SOL     OW14713   4.850   6.552   5.711
 4605SOL    HW114714   4.822   6.643   5.739
 4605SOL    HW214715   4.909   6.511   5.781
 4606SOL     OW14716   6.865   6.537   5.484
 4606SOL    HW114717   6.875   6.526   5.385
 4606SOL    HW214718   6.938   6.596   5.518
 4607SOL     OW14719   2.780   2.557   0.936
 4607SOL    HW114720   2.781   2.656   0.954
 4607SOL    HW214721   2.858   2.514   0.981
 4608SOL     OW14722   1.639   3.766   5.015
 4608SOL    HW114723   1.679   3.680   4.985
 4608SOL    HW214724   1.655   3.777   5.113
 4609SOL     OW14725   3.351   6.678   0.071
 4609SOL    HW114726   3.437   6.723   0.094
 4609SOL    HW214727   3.346   6.662   6.993
 4610SOL     OW14728   6.623   3.202   6.872
 4610SOL    HW114729   6.604   3.261   6.950
 4610SOL    HW214730   6.541   3.195   6.814
 4611SOL     OW14731   0.597   3.535   6.501
 4611SOL    HW114732   0.641   3.452   6.535
 4611SOL    HW214733   0.650   3.615   6.530
 4612SOL     OW14734   2.571   0.473   6.328
 4612SOL    HW114735   2.483   0.465   6.374
 4612SOL    HW214736   2.587   0.393   6.270
 4613SOL     OW14737   3.396   5.751   2.316
 4613SOL    HW114738   3.341   5.668   2.312
 4613SOL    HW214739   3.478   5.739   2.259
 4614SOL     OW14740   2.511   5.272   7.008
 4614SOL    HW114741   2.544   5.233   6.922
 4614SOL    HW214742   2.432   5.218   0.020
 4615SOL     OW14743   6.935   2.921   0.420
 4615SOL    HW114744   6.947   2.884   0.328
 4615SOL    HW214745   6.840   2.949   0.433
 4616SOL     OW14746   6.266   0.492   0.451
 4616SOL    HW114747   6.270   0.542   0.365
 4616SOL    HW214748   6.309   0.403   0.440
 4617SOL     OW14749   6.872   3.644   2.078
 4617SOL    HW114750   6.827   3.555   2.084
 4617SOL    HW214751   6.810   3.711   2.038
 4618SOL     OW14752   1.052   1.923   6.422
 4618SOL    HW114753   1.112   2.002   6.435
 4618SOL    HW214754   0.956   1.952   6.432
 4619SOL     OW14755   2.998   6.933   3.687
 4619SOL    HW114756   3.054   6.937   3.604
 4619SOL    HW214757   3.026   7.005   3.751
 4620SOL     OW14758   2.810   4.934   6.410
 4620SOL    HW114759   2.743   4.919   6.337
 4620SOL    HW214760   2.831   5.032   6.416
 4621SOL     OW14761   6.925   6.711   6.872
 4621SOL    HW114762   7.005   6.650   6.868
 4621SOL    HW214763   6.843   6.657   6.886
 4622SOL     OW14764   2.427   3.383   1.380
 4622SOL    HW114765   2.455   3.451   1.313
 4622SOL    HW214766   2.434   3.292   1.339
 4623SOL     OW14767   6.128   4.592   2.540
 4623SOL    HW114768   6.142   4.493   2.527
 4623SOL    HW214769   6.065   4.626   2.470
 4624SOL     OW14770   5.036   6.951   5.623
 4624SOL    HW114771   5.111   6.925   5.563
 4624SOL    HW214772   4.955   6.895   5.602
 4625SOL     OW14773   1.698   3.533   6.029
 4625SOL    HW114774   1.722   3.605   6.094
 4625SOL    HW214775   1.644   3.572   5.954
 4626SOL     OW14776   5.403   5.568   2.158
 4626SOL    HW114777   5.307   5.543   2.169
 4626SOL    HW214778   5.441   5.520   2.078
 4627SOL     OW14779   1.973   0.558   5.818
 4627SOL    HW114780   2.073   0.562   5.820
 4627SOL    HW214781   1.936   0.598   5.902
 4628SOL     OW14782   0.271   3.157   1.838
 4628SOL    HW114783   0.285   3.251   1.867
 4628SOL    HW214784   0.319   3.141   1.752
 4629SOL     OW14785   3.963   4.841   4.341
 4629SOL    HW114786   3.943   4.928   4.296
 4629SOL    HW214787   3.903   4.830   4.421
 4630SOL     OW14788   1.961   6.856   2.555
 4630SOL    HW114789   2.022   6.857   2.634
 4630SOL    HW214790   1.866   6.857   2.586
 4631SOL     OW14791   1.718   1.038   2.616
 4631SOL    HW114792   1.783   1.069   2.685
 4631SOL    HW214793   1.669   0.957   2.650
 4632SOL     OW14794   5.886   5.607   4.097
 4632SOL    HW114795   5.826   5.638   4.171
 4632SOL    HW214796   5.976   5.584   4.134
 4633SOL     OW14797   5.698   2.583   5.640
 4633SOL    HW114798   5.622   2.644   5.615
 4633SOL    HW214799   5.775   2.599   5.579
 4634SOL     OW14800   3.733   4.955   1.127
 4634SOL    HW114801   3.635   4.965   1.109
 4634SOL    HW214802   3.755   4.858   1.138
 4635SOL     OW14803   5.205   3.832   1.152
 4635SOL    HW114804   5.122   3.799   1.107
 4635SOL    HW214805   5.181   3.897   1.224
 4636SOL     OW14806   1.368   5.301   1.033
 4636SOL    HW114807   1.276   5.334   1.052
 4636SOL    HW214808   1.398   5.333   0.943
 4637SOL     OW14809   1.863   0.331   4.702
 4637SOL    HW114810   1.913   0.403   4.751
 4637SOL    HW214811   1.856   0.356   4.606
 4638SOL     OW14812   4.402   4.101   6.231
 4638SOL    HW114813   4.454   4.155   6.297
 4638SOL    HW214814   4.464   4.063   6.163
 4639SOL     OW14815   0.162   2.983   5.170
 4639SOL    HW114816   0.232   3.008   5.237
 4639SOL    HW214817   0.181   2.892   5.134
 4640SOL     OW14818   6.378   4.450   2.805
 4640SOL    HW114819   6.407   4.392   2.729
 4640SOL    HW214820   6.453   4.461   2.870
 4641SOL     OW14821   2.898   4.309   5.974
 4641SOL    HW114822   2.867   4.257   5.895
 4641SOL    HW214823   2.979   4.362   5.949
 4642SOL     OW14824   6.122   6.069   3.713
 4642SOL    HW114825   6.206   6.122   3.713
 4642SOL    HW214826   6.043   6.130   3.720
 4643SOL     OW14827   4.247   2.542   0.899
 4643SOL    HW114828   4.193   2.561   0.981
 4643SOL    HW214829   4.291   2.626   0.867
 4644SOL     OW14830   2.460   5.013   5.231
 4644SOL    HW114831   2.377   4.962   5.208
 4644SOL    HW214832   2.538   4.975   5.182
 4645SOL     OW14833   2.214   6.098   4.542
 4645SOL    HW114834   2.131   6.096   4.598
 4645SOL    HW214835   2.260   6.009   4.550
 4646SOL     OW14836   4.011   0.648   1.614
 4646SOL    HW114837   4.050   0.592   1.540
 4646SOL    HW214838   3.956   0.722   1.574
 4647SOL     OW14839   0.127   0.796   4.481
 4647SOL    HW114840   0.178   0.880   4.469
 4647SOL    HW214841   0.152   0.753   4.568
 4648SOL     OW14842   1.271   4.719   2.233
 4648SOL    HW114843   1.354   4.713   2.178
 4648SOL    HW214844   1.212   4.791   2.197
 4649SOL     OW14845   5.811   6.334   6.309
 4649SOL    HW114846   5.769   6.309   6.396
 4649SOL    HW214847   5.745   6.318   6.235
 4650SOL     OW14848   0.195   4.937   1.795
 4650SOL    HW114849   0.220   4.871   1.866
 4650SOL    HW214850   0.124   4.898   1.737
 4651SOL     OW14851   6.567   1.735   1.989
 4651SOL    HW114852   6.580   1.637   2.004
 4651SOL    HW214853   6.483   1.751   1.938
 4652SOL     OW14854   0.209   5.983   5.664
 4652SOL    HW114855   0.227   5.912   5.731
 4652SOL    HW214856   0.171   6.063   5.710
 4653SOL     OW14857   0.783   5.620   6.866
 4653SOL    HW114858   0.840   5.658   6.793
 4653SOL    HW214859   0.804   5.523   6.879
 4654SOL     OW14860   0.709   1.459   6.236
 4654SOL    HW114861   0.755   1.407   6.308
 4654SOL    HW214862   0.671   1.396   6.168
 4655SOL     OW14863   0.307   5.419   3.506
 4655SOL    HW114864   0.295   5.412   3.407
 4655SOL    HW214865   0.230   5.469   3.546
 4656SOL     OW14866   2.162   0.167   3.170
 4656SOL    HW114867   2.245   0.224   3.176
 4656SOL    HW214868   2.182   0.077   3.208
 4657SOL     OW14869   5.606   0.210   6.695
 4657SOL    HW114870   5.683   0.213   6.631
 4657SOL    HW214871   5.571   0.116   6.701
 4658SOL     OW14872   5.155   0.654   3.378
 4658SOL    HW114873   5.099   0.734   3.354
 4658SOL    HW214874   5.119   0.574   3.331
 4659SOL     OW14875   2.449   2.558   4.738
 4659SOL    HW114876   2.533   2.506   4.724
 4659SOL    HW214877   2.445   2.592   4.832
 4660SOL     OW14878   6.962   1.593   6.093
 4660SOL    HW114879   7.014   1.532   6.033
 4660SOL    HW214880   6.872   1.610   6.053
 4661SOL     OW14881   4.115   3.525   3.466
 4661SOL    HW114882   4.112   3.596   3.395
 4661SOL    HW214883   4.066   3.444   3.433
 4662SOL     OW14884   5.641   0.549   3.840
 4662SOL    HW114885   5.637   0.644   3.868
 4662SOL    HW214886   5.733   0.528   3.806
 4663SOL     OW14887   1.217   1.435   1.953
 4663SOL    HW114888   1.155   1.506   1.986
 4663SOL    HW214889   1.166   1.349   1.941
 4664SOL     OW14890   3.261   3.208   0.443
 4664SOL    HW114891   3.361   3.200   0.441
 4664SOL    HW214892   3.220   3.117   0.439
 4665SOL     OW14893   5.269   1.059   6.698
 4665SOL    HW114894   5.369   1.057   6.701
 4665SOL    HW214895   5.234   0.972   6.733
 4666SOL     OW14896   2.755   1.397   0.611
 4666SOL    HW114897   2.849   1.430   0.605
 4666SOL    HW214898   2.754   1.297   0.609
 4667SOL     OW14899   0.474   5.754   5.213
 4667SOL    HW114900   0.377   5.746   5.238
 4667SOL    HW214901   0.483   5.809   5.130
 4668SOL     OW14902   5.570   1.449   5.072
 4668SOL    HW114903   5.639   1.501   5.123
 4668SOL    HW214904   5.584   1.464   4.974
 4669SOL     OW14905   2.577   0.549   1.460
 4669SOL    HW114906   2.529   0.488   1.524
 4669SOL    HW214907   2.675   0.534   1.467
 4670SOL     OW14908   1.473   1.251   4.765
 4670SOL    HW114909   1.535   1.277   4.691
 4670SOL    HW214910   1.461   1.152   4.765
 4671SOL     OW14911   5.866   2.784   0.980
 4671SOL    HW114912   5.819   2.712   1.031
 4671SOL    HW214913   5.840   2.873   1.018
 4672SOL     OW14914   2.889   3.126   5.168
 4672SOL    HW114915   2.958   3.054   5.175
 4672SOL    HW214916   2.819   3.112   5.238
 4673SOL     OW14917   4.224   0.329   2.504
 4673SOL    HW114918   4.272   0.373   2.580
 4673SOL    HW214919   4.133   0.301   2.534
 4674SOL     OW14920   4.480   6.923   5.624
 4674SOL    HW114921   4.468   6.839   5.678
 4674SOL    HW214922   4.400   6.981   5.634
 4675SOL     OW14923   1.281   4.232   6.179
 4675SOL    HW114924   1.272   4.316   6.232
 4675SOL    HW214925   1.192   4.210   6.137
 4676SOL     OW14926   0.329   5.208   3.662
 4676SOL    HW114927   0.353   5.269   3.587
 4676SOL    HW214928   0.239   5.232   3.697
 4677SOL     OW14929   1.292   3.316   0.615
 4677SOL    HW114930   1.266   3.220   0.609
 4677SOL    HW214931   1.374   3.332   0.560
 4678SOL     OW14932   1.591   4.283   2.185
 4678SOL    HW114933   1.551   4.306   2.274
 4678SOL    HW214934   1.522   4.235   2.130
 4679SOL     OW14935   4.172   0.111   1.880
 4679SOL    HW114936   4.162   0.036   1.815
 4679SOL    HW214937   4.227   0.184   1.839
 4680SOL     OW14938   1.744   0.830   6.889
 4680SOL    HW114939   1.816   0.864   6.828
 4680SOL    HW214940   1.776   0.832   6.983
 4681SOL     OW14941   4.933   5.165   2.312
 4681SOL    HW114942   4.848   5.131   2.352
 4681SOL    HW214943   4.937   5.264   2.325
 4682SOL     OW14944   3.156   4.102   6.570
 4682SOL    HW114945   3.136   4.132   6.477
 4682SOL    HW214946   3.078   4.053   6.608
 4683SOL     OW14947   5.851   4.200   3.715
 4683SOL    HW114948   5.910   4.274   3.748
 4683SOL    HW214949   5.759   4.235   3.701
 4684SOL     OW14950   5.489   6.188   0.152
 4684SOL    HW114951   5.481   6.287   0.136
 4684SOL    HW214952   5.585   6.165   0.170
 4685SOL     OW14953   3.530   4.110   4.101
 4685SOL    HW114954   3.525   4.014   4.127
 4685SOL    HW214955   3.504   4.167   4.179
 4686SOL     OW14956   2.366   6.334   0.417
 4686SOL    HW114957   2.425   6.391   0.360
 4686SOL    HW214958   2.422   6.266   0.465
 4687SOL     OW14959   2.421   0.452   2.654
 4687SOL    HW114960   2.400   0.478   2.560
 4687SOL    HW214961   2.392   0.525   2.716
 4688SOL     OW14962   5.848   2.990   6.318
 4688SOL    HW114963   5.874   2.934   6.397
 4688SOL    HW214964   5.779   3.057   6.345
 4689SOL     OW14965   6.707   0.522   2.195
 4689SOL    HW114966   6.714   0.438   2.141
 4689SOL    HW214967   6.613   0.556   2.191
 4690SOL     OW14968   2.606   2.065   0.592
 4690SOL    HW114969   2.690   2.012   0.591
 4690SOL    HW214970   2.611   2.138   0.524
 4691SOL     OW14971   6.696   4.059   2.352
 4691SOL    HW114972   6.747   4.103   2.278
 4691SOL    HW214973   6.598   4.069   2.335
 4692SOL     OW14974   4.991   3.075   2.470
 4692SOL    HW114975   5.086   3.106   2.466
 4692SOL    HW214976   4.950   3.082   2.379
 4693SOL     OW14977   1.230   0.691   3.126
 4693SOL    HW114978   1.313   0.671   3.178
 4693SOL    HW214979   1.254   0.714   3.032
 4694SOL     OW14980   1.867   0.729   6.487
 4694SOL    HW114981   1.869   0.765   6.394
 4694SOL    HW214982   1.845   0.631   6.484
 4695SOL     OW14983   1.763   5.080   2.361
 4695SOL    HW114984   1.823   5.001   2.370
 4695SOL    HW214985   1.785   5.147   2.431
 4696SOL     OW14986   1.743   6.220   6.106
 4696SOL    HW114987   1.692   6.138   6.078
 4696SOL    HW214988   1.753   6.281   6.028
 4697SOL     OW14989   4.118   5.344   1.806
 4697SOL    HW114990   4.021   5.365   1.821
 4697SOL    HW214991   4.139   5.348   1.708
 4698SOL     OW14992   5.080   1.083   4.744
 4698SOL    HW114993   5.017   1.106   4.670
 4698SOL    HW214994   5.150   1.154   4.753
 4699SOL     OW14995   1.389   6.948   2.539
 4699SOL    HW114996   1.351   6.882   2.604
 4699SOL    HW214997   1.319   6.975   2.474
 4700SOL     OW14998   6.202   1.863   2.191
 4700SOL    HW114999   6.222   1.888   2.286
 4700SOL    HW215000   6.195   1.764   2.183
 4701SOL     OW15001   3.219   2.442   1.744
 4701SOL    HW115002   3.273   2.358   1.749
 4701SOL    HW215003   3.135   2.430   1.798
 4702SOL     OW15004   5.608   5.125   6.691
 4702SOL    HW115005   5.626   5.221   6.673
 4702SOL    HW215006   5.602   5.075   6.604
 4703SOL     OW15007   0.743   5.573   3.406
 4703SOL    HW115008   0.695   5.539   3.487
 4703SOL    HW215009   0.839   5.544   3.409
 4704SOL     OW15010   1.221   4.838   4.129
 4704SOL    HW115011   1.283   4.840   4.208
 4704SOL    HW215012   1.262   4.782   4.057
 4705SOL     OW15013   3.770   1.821   1.666
 4705SOL    HW115014   3.692   1.757   1.668
 4705SOL    HW215015   3.736   1.913   1.648
 4706SOL     OW15016   2.325   0.280   1.376
 4706SOL    HW115017   2.400   0.247   1.433
 4706SOL    HW215018   2.280   0.357   1.421
 4707SOL     OW15019   1.614   5.425   1.996
 4707SOL    HW115020   1.521   5.408   2.029
 4707SOL    HW215021   1.666   5.340   1.998
 4708SOL     OW15022   1.935   2.714   5.210
 4708SOL    HW115023   1.859   2.779   5.213
 4708SOL    HW215024   2.021   2.763   5.202
 4709SOL     OW15025   5.001   4.199   5.851
 4709SOL    HW115026   5.026   4.282   5.901
 4709SOL    HW215027   4.905   4.204   5.824
 4710SOL     OW15028   5.920   5.896   5.040
 4710SOL    HW115029   5.951   5.803   5.023
 4710SOL    HW215030   5.994   5.960   5.021
 4711SOL     OW15031   5.409   3.900   2.515
 4711SOL    HW115032   5.311   3.887   2.524
 4711SOL    HW215033   5.427   3.989   2.473
 4712SOL     OW15034   4.674   4.372   5.753
 4712SOL    HW115035   4.689   4.314   5.673
 4712SOL    HW215036   4.594   4.339   5.803
 4713SOL     OW15037   5.529   4.242   0.650
 4713SOL    HW115038   5.628   4.251   0.653
 4713SOL    HW215039   5.492   4.303   0.580
 4714SOL     OW15040   4.056   1.515   6.435
 4714SOL    HW115041   4.135   1.496   6.376
 4714SOL    HW215042   4.026   1.610   6.420
 4715SOL     OW15043   6.940   1.520   1.928
 4715SOL    HW115044   6.853   1.543   1.885
 4715SOL    HW215045   6.945   1.564   2.018
 4716SOL     OW15046   4.089   4.993   5.607
 4716SOL    HW115047   4.088   5.093   5.606
 4716SOL    HW215048   4.181   4.961   5.632
 4717SOL     OW15049   2.384   4.752   5.424
 4717SOL    HW115050   2.426   4.838   5.452
 4717SOL    HW215051   2.453   4.692   5.384
 4718SOL     OW15052   4.463   4.486   0.303
 4718SOL    HW115053   4.412   4.528   0.378
 4718SOL    HW215054   4.426   4.519   0.216
 4719SOL     OW15055   0.042   4.243   3.671
 4719SOL    HW115056   0.090   4.155   3.676
 4719SOL    HW215057   0.097   4.308   3.620
 4720SOL     OW15058   2.251   3.070   6.809
 4720SOL    HW115059   2.251   2.970   6.799
 4720SOL    HW215060   2.326   3.109   6.755
 4721SOL     OW15061   0.400   2.856   2.668
 4721SOL    HW115062   0.423   2.884   2.761
 4721SOL    HW215063   0.470   2.794   2.633
 4722SOL     OW15064   1.200   5.979   0.097
 4722SOL    HW115065   1.187   5.957   0.000
 4722SOL    HW215066   1.115   5.959   0.147
 4723SOL     OW15067   3.644   4.479   6.768
 4723SOL    HW115068   3.650   4.379   6.779
 4723SOL    HW215069   3.736   4.517   6.761
 4724SOL     OW15070   0.688   0.412   5.033
 4724SOL    HW115071   0.728   0.504   5.037
 4724SOL    HW215072   0.744   0.354   4.973
 4725SOL     OW15073   5.231   5.947   1.465
 4725SOL    HW115074   5.255   5.963   1.370
 4725SOL    HW215075   5.134   5.967   1.479
 4726SOL     OW15076   2.018   3.024   5.377
 4726SOL    HW115077   2.001   3.043   5.281
 4726SOL    HW215078   2.025   3.110   5.428
 4727SOL     OW15079   6.813   4.627   1.387
 4727SOL    HW115080   6.814   4.603   1.484
 4727SOL    HW215081   6.843   4.548   1.333
 4728SOL     OW15082   6.002   1.622   4.614
 4728SOL    HW115083   6.032   1.611   4.520
 4728SOL    HW215084   5.904   1.641   4.616
 4729SOL     OW15085   6.411   1.454   1.948
 4729SOL    HW115086   6.348   1.463   1.871
 4729SOL    HW215087   6.382   1.377   2.006
 4730SOL     OW15088   3.064   0.074   4.551
 4730SOL    HW115089   3.003   0.130   4.608
 4730SOL    HW215090   3.118   0.134   4.491
 4731SOL     OW15091   3.129   6.440   0.743
 4731SOL    HW115092   3.043   6.395   0.765
 4731SOL    HW215093   3.159   6.413   0.651
 4732SOL     OW15094   0.586   5.262   4.949
 4732SOL    HW115095   0.595   5.352   4.992
 4732SOL    HW215096   0.499   5.221   4.976
 4733SOL     OW15097   2.163   4.157   2.320
 4733SOL    HW115098   2.149   4.111   2.232
 4733SOL    HW215099   2.260   4.182   2.329
 4734SOL     OW15100   4.793   3.862   6.542
 4734SOL    HW115101   4.748   3.934   6.490
 4734SOL    HW215102   4.886   3.849   6.509
 4735SOL     OW15103   0.645   0.821   5.068
 4735SOL    HW115104   0.697   0.873   5.000
 4735SOL    HW215105   0.706   0.759   5.116
 4736SOL     OW15106   6.595   2.157   3.293
 4736SOL    HW115107   6.547   2.135   3.208
 4736SOL    HW215108   6.529   2.180   3.364
 4737SOL     OW15109   2.536   4.906   6.717
 4737SOL    HW115110   2.608   4.973   6.732
 4737SOL    HW215111   2.447   4.947   6.738
 4738SOL     OW15112   1.151   5.640   3.478
 4738SOL    HW115113   1.072   5.640   3.418
 4738SOL    HW215114   1.157   5.551   3.525
 4739SOL     OW15115   5.771   3.350   2.856
 4739SOL    HW115116   5.714   3.280   2.814
 4739SOL    HW215117   5.783   3.427   2.793
 4740SOL     OW15118   0.988   0.512   1.019
 4740SOL    HW115119   0.986   0.606   1.051
 4740SOL    HW215120   1.055   0.460   1.071
 4741SOL     OW15121   5.122   4.718   1.126
 4741SOL    HW115122   5.152   4.691   1.218
 4741SOL    HW215123   5.159   4.808   1.104
 4742SOL     OW15124   2.025   5.503   2.206
 4742SOL    HW115125   1.993   5.408   2.209
 4742SOL    HW215126   2.123   5.505   2.223
 4743SOL     OW15127   2.694   3.362   0.386
 4743SOL    HW115128   2.613   3.366   0.445
 4743SOL    HW215129   2.715   3.267   0.364
 4744SOL     OW15130   2.242   2.071   5.218
 4744SOL    HW115131   2.262   2.004   5.147
 4744SOL    HW215132   2.209   2.156   5.175
 4745SOL     OW15133   3.490   5.327   4.891
 4745SOL    HW115134   3.520   5.241   4.932
 4745SOL    HW215135   3.569   5.380   4.863
 4746SOL     OW15136   5.818   0.903   1.456
 4746SOL    HW115137   5.890   0.934   1.518
 4746SOL    HW215138   5.817   0.804   1.453
 4747SOL     OW15139   6.840   2.545   1.740
 4747SOL    HW115140   6.868   2.468   1.681
 4747SOL    HW215141   6.845   2.517   1.835
 4748SOL     OW15142   1.931   0.758   1.179
 4748SOL    HW115143   1.918   0.845   1.227
 4748SOL    HW215144   2.025   0.753   1.145
 4749SOL     OW15145   2.917   0.064   6.133
 4749SOL    HW115146   2.973   0.084   6.053
 4749SOL    HW215147   2.963   7.014   6.189
 4750SOL     OW15148   0.666   1.908   4.417
 4750SOL    HW115149   0.611   1.929   4.336
 4750SOL    HW215150   0.761   1.891   4.390
 4751SOL     OW15151   1.234   3.738   5.720
 4751SOL    HW115152   1.147   3.689   5.724
 4751SOL    HW215153   1.242   3.799   5.799
 4752SOL     OW15154   2.079   5.810   1.775
 4752SOL    HW115155   2.003   5.798   1.711
 4752SOL    HW215156   2.047   5.795   1.868
 4753SOL     OW15157   0.350   6.974   5.525
 4753SOL    HW115158   0.287   7.019   5.589
 4753SOL    HW215159   0.337   7.011   5.433
 4754SOL     OW15160   0.295   0.325   6.889
 4754SOL    HW115161   0.274   0.228   6.891
 4754SOL    HW215162   0.212   0.378   6.904
 4755SOL     OW15163   2.536   0.692   1.137
 4755SOL    HW115164   2.516   0.601   1.101
 4755SOL    HW215165   2.465   0.756   1.107
 4756SOL     OW15166   4.770   2.921   1.452
 4756SOL    HW115167   4.686   2.869   1.436
 4756SOL    HW215168   4.788   2.926   1.550
 4757SOL     OW15169   2.272   1.257   1.445
 4757SOL    HW115170   2.212   1.322   1.493
 4757SOL    HW215171   2.313   1.195   1.512
 4758SOL     OW15172   5.383   4.004   5.385
 4758SOL    HW115173   5.377   3.905   5.371
 4758SOL    HW215174   5.298   4.037   5.426
 4759SOL     OW15175   5.970   4.767   6.264
 4759SOL    HW115176   6.028   4.707   6.319
 4759SOL    HW215177   5.877   4.731   6.264
 4760SOL     OW15178   1.876   2.466   0.943
 4760SOL    HW115179   1.901   2.563   0.941
 4760SOL    HW215180   1.793   2.454   0.998
 4761SOL     OW15181   1.565   5.621   6.026
 4761SOL    HW115182   1.562   5.708   6.075
 4761SOL    HW215183   1.630   5.627   5.951
 4762SOL     OW15184   3.972   6.738   2.304
 4762SOL    HW115185   3.872   6.728   2.308
 4762SOL    HW215186   4.012   6.706   2.390
 4763SOL     OW15187   5.714   5.448   4.820
 4763SOL    HW115188   5.623   5.474   4.789
 4763SOL    HW215189   5.748   5.372   4.765
 4764SOL     OW15190   4.031   3.867   4.900
 4764SOL    HW115191   3.970   3.802   4.944
 4764SOL    HW215192   4.079   3.822   4.825
 4765SOL     OW15193   6.958   4.616   5.190
 4765SOL    HW115194   6.984   4.634   5.095
 4765SOL    HW215195   6.945   4.702   5.238
 4766SOL     OW15196   3.238   0.573   3.346
 4766SOL    HW115197   3.283   0.571   3.257
 4766SOL    HW215198   3.139   0.584   3.334
 4767SOL     OW15199   3.963   6.459   6.811
 4767SOL    HW115200   4.058   6.448   6.839
 4767SOL    HW215201   3.923   6.370   6.790
 4768SOL     OW15202   0.780   0.961   4.891
 4768SOL    HW115203   0.840   0.998   4.962
 4768SOL    HW215204   0.736   1.037   4.843
 4769SOL     OW15205   3.889   0.863   1.492
 4769SOL    HW115206   3.844   0.789   1.442
 4769SOL    HW215207   3.819   0.926   1.527
 4770SOL     OW15208   2.603   0.434   3.451
 4770SOL    HW115209   2.559   0.514   3.491
 4770SOL    HW215210   2.642   0.377   3.523
 4771SOL     OW15211   3.902   4.207   5.492
 4771SOL    HW115212   3.973   4.164   5.547
 4771SOL    HW215213   3.944   4.260   5.418
 4772SOL     OW15214   2.336   2.683   0.406
 4772SOL    HW115215   2.242   2.672   0.374
 4772SOL    HW215216   2.392   2.718   0.332
 4773SOL     OW15217   6.982   5.439   4.039
 4773SOL    HW115218   6.911   5.502   4.072
 4773SOL    HW215219   0.052   5.480   4.052
 4774SOL     OW15220   0.939   4.322   0.208
 4774SOL    HW115221   0.923   4.245   0.146
 4774SOL    HW215222   0.854   4.373   0.220
 4775SOL     OW15223   2.475   1.583   2.232
 4775SOL    HW115224   2.502   1.624   2.319
 4775SOL    HW215225   2.552   1.533   2.193
 4776SOL     OW15226   3.977   4.970   2.062
 4776SOL    HW115227   3.908   5.039   2.083
 4776SOL    HW215228   3.938   4.903   1.999
 4777SOL     OW15229   2.981   4.272   1.700
 4777SOL    HW115230   3.071   4.243   1.731
 4777SOL    HW215231   2.970   4.370   1.716
 4778SOL     OW15232   5.280   3.625   2.630
 4778SOL    HW115233   5.378   3.645   2.627
 4778SOL    HW215234   5.228   3.710   2.636
 4779SOL     OW15235   4.908   0.695   3.046
 4779SOL    HW115236   4.868   0.653   2.964
 4779SOL    HW215237   4.847   0.681   3.124
 4780SOL     OW15238   1.793   0.316   5.492
 4780SOL    HW115239   1.813   0.410   5.518
 4780SOL    HW215240   1.759   0.314   5.398
 4781SOL     OW15241   1.904   5.825   2.978
 4781SOL    HW115242   1.976   5.883   3.018
 4781SOL    HW215243   1.946   5.750   2.927
 4782SOL     OW15244   5.772   5.954   0.498
 4782SOL    HW115245   5.797   5.885   0.566
 4782SOL    HW215246   5.847   6.019   0.488
 4783SOL     OW15247   6.175   3.944   2.406
 4783SOL    HW115248   6.174   3.861   2.461
 4783SOL    HW215249   6.141   4.020   2.461
 4784SOL     OW15250   6.055   4.322   5.003
 4784SOL    HW115251   6.087   4.264   5.078
 4784SOL    HW215252   6.088   4.415   5.016
 4785SOL     OW15253   6.435   6.760   0.983
 4785SOL    HW115254   6.524   6.776   0.942
 4785SOL    HW215255   6.370   6.729   0.914
 4786SOL     OW15256   1.790   2.940   2.528
 4786SOL    HW115257   1.871   2.884   2.508
 4786SOL    HW215258   1.716   2.913   2.466
 4787SOL     OW15259   4.289   2.343   2.455
 4787SOL    HW115260   4.342   2.368   2.536
 4787SOL    HW215261   4.194   2.328   2.481
 4788SOL     OW15262   1.242   6.137   5.722
 4788SOL    HW115263   1.164   6.189   5.687
 4788SOL    HW215264   1.230   6.041   5.697
 4789SOL     OW15265   6.317   6.779   0.728
 4789SOL    HW115266   6.389   6.778   0.658
 4789SOL    HW215267   6.275   6.689   0.734
 4790SOL     OW15268   5.525   1.032   0.035
 4790SOL    HW115269   5.459   1.092   7.010
 4790SOL    HW215270   5.545   0.954   6.997
 4791SOL     OW15271   4.830   1.048   3.447
 4791SOL    HW115272   4.752   1.052   3.385
 4791SOL    HW215273   4.902   1.111   3.415
 4792SOL     OW15274   3.003   2.248   1.655
 4792SOL    HW115275   3.094   2.220   1.625
 4792SOL    HW215276   3.011   2.322   1.721
 4793SOL     OW15277   0.591   0.243   6.490
 4793SOL    HW115278   0.607   0.341   6.502
 4793SOL    HW215279   0.569   0.224   6.394
 4794SOL     OW15280   3.993   0.647   2.045
 4794SOL    HW115281   4.075   0.616   1.997
 4794SOL    HW215282   3.973   0.584   2.120
 4795SOL     OW15283   5.771   2.635   4.324
 4795SOL    HW115284   5.781   2.712   4.260
 4795SOL    HW215285   5.837   2.646   4.399
 4796SOL     OW15286   6.253   3.808   1.113
 4796SOL    HW115287   6.164   3.818   1.156
 4796SOL    HW215288   6.282   3.712   1.118
 4797SOL     OW15289   0.399   4.626   4.871
 4797SOL    HW115290   0.353   4.651   4.957
 4797SOL    HW215291   0.497   4.637   4.881
 4798SOL     OW15292   6.772   4.313   5.526
 4798SOL    HW115293   6.847   4.361   5.482
 4798SOL    HW215294   6.685   4.352   5.497
 4799SOL     OW15295   3.756   1.326   4.972
 4799SOL    HW115296   3.738   1.424   4.983
 4799SOL    HW215297   3.816   1.311   4.894
 4800SOL     OW15298   2.115   1.942   3.896
 4800SOL    HW115299   2.162   1.881   3.959
 4800SOL    HW215300   2.146   2.036   3.911
 4801SOL     OW15301   1.490   2.771   0.435
 4801SOL    HW115302   1.450   2.862   0.429
 4801SOL    HW215303   1.451   2.713   0.364
 4802SOL     OW15304   1.904   0.413   2.047
 4802SOL    HW115305   1.876   0.395   2.142
 4802SOL    HW215306   1.825   0.401   1.987
 4803SOL     OW15307   0.840   0.071   1.313
 4803SOL    HW115308   0.774   0.013   1.361
 4803SOL    HW215309   0.897   0.014   1.254
 4804SOL     OW15310   3.557   5.519   0.210
 4804SOL    HW115311   3.608   5.604   0.215
 4804SOL    HW215312   3.557   5.474   0.300
 4805SOL     OW15313   0.641   1.150   0.873
 4805SOL    HW115314   0.704   1.079   0.902
 4805SOL    HW215315   0.691   1.235   0.856
 4806SOL     OW15316   0.672   2.775   3.044
 4806SOL    HW115317   0.602   2.838   3.010
 4806SOL    HW215318   0.649   2.682   3.015
 4807SOL     OW15319   0.953   6.465   2.413
 4807SOL    HW115320   0.923   6.414   2.333
 4807SOL    HW215321   0.982   6.400   2.484
 4808SOL     OW15322   5.621   3.016   1.348
 4808SOL    HW115323   5.673   3.012   1.262
 4808SOL    HW215324   5.614   2.924   1.387
 4809SOL     OW15325   4.359   6.553   6.065
 4809SOL    HW115326   4.272   6.601   6.076
 4809SOL    HW215327   4.380   6.505   6.150
 4810SOL     OW15328   1.360   0.153   1.422
 4810SOL    HW115329   1.399   0.241   1.448
 4810SOL    HW215330   1.380   0.085   1.492
 4811SOL     OW15331   5.642   5.799   2.919
 4811SOL    HW115332   5.634   5.807   2.819
 4811SOL    HW215333   5.730   5.836   2.947
 4812SOL     OW15334   6.747   4.962   4.340
 4812SOL    HW115335   6.758   4.902   4.261
 4812SOL    HW215336   6.734   5.056   4.308
 4813SOL     OW15337   5.721   3.055   2.765
 4813SOL    HW115338   5.704   2.969   2.814
 4813SOL    HW215339   5.765   3.035   2.678
 4814SOL     OW15340   6.792   3.362   1.992
 4814SOL    HW115341   6.697   3.368   2.024
 4814SOL    HW215342   6.849   3.324   2.064
 4815SOL     OW15343   4.048   6.602   2.888
 4815SOL    HW115344   4.122   6.536   2.902
 4815SOL    HW215345   4.043   6.662   2.968
 4816SOL     OW15346   5.380   5.365   3.181
 4816SOL    HW115347   5.282   5.385   3.180
 4816SOL    HW215348   5.402   5.312   3.263
 4817SOL     OW15349   6.970   1.863   6.959
 4817SOL    HW115350   0.045   1.892   6.946
 4817SOL    HW215351   6.928   1.918   0.010
 4818SOL     OW15352   6.783   6.056   3.465
 4818SOL    HW115353   6.784   5.963   3.428
 4818SOL    HW215354   6.834   6.058   3.551
 4819SOL     OW15355   1.826   3.431   1.357
 4819SOL    HW115356   1.751   3.389   1.305
 4819SOL    HW215357   1.791   3.506   1.412
 4820SOL     OW15358   0.696   3.035   2.369
 4820SOL    HW115359   0.743   2.950   2.390
 4820SOL    HW215360   0.693   3.048   2.270
 4821SOL     OW15361   6.950   5.780   3.886
 4821SOL    HW115362   6.886   5.826   3.824
 4821SOL    HW215363   6.900   5.750   3.968
 4822SOL     OW15364   2.014   4.570   4.236
 4822SOL    HW115365   1.993   4.611   4.325
 4822SOL    HW215366   2.092   4.617   4.195
 4823SOL     OW15367   1.595   2.974   1.360
 4823SOL    HW115368   1.533   2.939   1.430
 4823SOL    HW215369   1.649   3.049   1.399
 4824SOL     OW15370   6.302   1.642   6.503
 4824SOL    HW115371   6.402   1.637   6.504
 4824SOL    HW215372   6.267   1.633   6.596
 4825SOL     OW15373   0.770   6.862   4.027
 4825SOL    HW115374   0.837   6.934   4.046
 4825SOL    HW215375   0.752   6.811   4.111
 4826SOL     OW15376   3.945   0.283   1.030
 4826SOL    HW115377   4.037   0.296   0.993
 4826SOL    HW215378   3.878   0.295   0.957
 4827SOL     OW15379   6.777   1.432   0.809
 4827SOL    HW115380   6.754   1.461   0.716
 4827SOL    HW215381   6.873   1.406   0.813
 4828SOL     OW15382   5.553   1.459   5.383
 4828SOL    HW115383   5.572   1.402   5.304
 4828SOL    HW215384   5.462   1.439   5.419
 4829SOL     OW15385   4.269   6.551   5.100
 4829SOL    HW115386   4.215   6.539   5.183
 4829SOL    HW215387   4.235   6.632   5.050
 4830SOL     OW15388   1.692   6.482   3.702
 4830SOL    HW115389   1.631   6.404   3.684
 4830SOL    HW215390   1.783   6.461   3.667
 4831SOL     OW15391   3.101   4.378   5.288
 4831SOL    HW115392   3.047   4.462   5.293
 4831SOL    HW215393   3.106   4.347   5.193
 4832SOL     OW15394   4.033   3.660   4.320
 4832SOL    HW115395   3.933   3.658   4.328
 4832SOL    HW215396   4.059   3.737   4.263
 4833SOL     OW15397   6.452   3.189   5.043
 4833SOL    HW115398   6.456   3.274   4.990
 4833SOL    HW215399   6.356   3.164   5.060
 4834SOL     OW15400   1.028   5.175   1.546
 4834SOL    HW115401   1.097   5.146   1.479
 4834SOL    HW215402   0.941   5.190   1.501
 4835SOL     OW15403   6.887   3.114   5.762
 4835SOL    HW115404   6.879   3.059   5.679
 4835SOL    HW215405   6.979   3.151   5.769
 4836SOL     OW15406   4.476   2.260   5.616
 4836SOL    HW115407   4.443   2.268   5.522
 4836SOL    HW215408   4.446   2.340   5.668
 4837SOL     OW15409   0.688   3.757   3.931
 4837SOL    HW115410   0.681   3.659   3.947
 4837SOL    HW215411   0.651   3.806   4.010
 4838SOL     OW15412   2.079   3.869   6.249
 4838SOL    HW115413   2.148   3.941   6.247
 4838SOL    HW215414   2.114   3.788   6.201
 4839SOL     OW15415   2.711   1.135   0.863
 4839SOL    HW115416   2.626   1.180   0.891
 4839SOL    HW215417   2.690   1.064   0.796
 4840SOL     OW15418   5.386   3.159   5.242
 4840SOL    HW115419   5.414   3.101   5.165
 4840SOL    HW215420   5.300   3.204   5.221
 4841SOL     OW15421   2.692   6.461   3.247
 4841SOL    HW115422   2.672   6.552   3.281
 4841SOL    HW215423   2.627   6.396   3.285
 4842SOL     OW15424   3.633   6.168   3.293
 4842SOL    HW115425   3.594   6.089   3.246
 4842SOL    HW215426   3.637   6.246   3.230
 4843SOL     OW15427   0.190   1.474   7.006
 4843SOL    HW115428   0.130   1.509   0.057
 4843SOL    HW215429   0.244   1.548   6.967
 4844SOL     OW15430   1.090   5.380   5.965
 4844SOL    HW115431   1.171   5.422   5.923
 4844SOL    HW215432   1.031   5.452   6.002
 4845SOL     OW15433   4.897   3.825   4.889
 4845SOL    HW115434   4.960   3.780   4.825
 4845SOL    HW215435   4.878   3.764   4.965
 4846SOL     OW15436   6.151   3.310   4.846
 4846SOL    HW115437   6.068   3.321   4.900
 4846SOL    HW215438   6.214   3.385   4.864
 4847SOL     OW15439   2.580   6.718   6.583
 4847SOL    HW115440   2.521   6.651   6.538
 4847SOL    HW215441   2.602   6.791   6.518
 4848SOL     OW15442   4.514   1.121   4.014
 4848SOL    HW115443   4.438   1.059   4.033
 4848SOL    HW215444   4.593   1.093   4.068
 4849SOL     OW15445   2.415   6.415   1.029
 4849SOL    HW115446   2.510   6.413   1.060
 4849SOL    HW215447   2.376   6.323   1.037
 4850SOL     OW15448   3.560   6.489   1.202
 4850SOL    HW115449   3.656   6.464   1.190
 4850SOL    HW215450   3.509   6.409   1.235
 4851SOL     OW15451   3.785   4.953   7.008
 4851SOL    HW115452   3.765   5.048   0.013
 4851SOL    HW215453   3.719   4.923   6.939
 4852SOL     OW15454   5.372   4.987   5.987
 4852SOL    HW115455   5.355   4.898   5.946
 4852SOL    HW215456   5.437   5.038   5.930
 4853SOL     OW15457   4.739   0.409   2.477
 4853SOL    HW115458   4.668   0.460   2.428
 4853SOL    HW215459   4.730   0.312   2.457
 4854SOL     OW15460   4.137   6.756   2.075
 4854SOL    HW115461   4.087   6.739   2.160
 4854SOL    HW215462   4.202   6.831   2.090
 4855SOL     OW15463   4.936   5.103   5.529
 4855SOL    HW115464   4.885   5.022   5.559
 4855SOL    HW215465   4.873   5.169   5.489
 4856SOL     OW15466   0.440   3.316   2.732
 4856SOL    HW115467   0.459   3.281   2.824
 4856SOL    HW215468   0.422   3.414   2.737
 4857SOL     OW15469   2.294   2.627   5.339
 4857SOL    HW115470   2.263   2.537   5.367
 4857SOL    HW215471   2.370   2.656   5.398
 4858SOL     OW15472   1.757   6.491   4.812
 4858SOL    HW115473   1.811   6.408   4.798
 4858SOL    HW215474   1.764   6.520   4.908
 4859SOL     OW15475   6.802   5.724   2.810
 4859SOL    HW115476   6.724   5.668   2.835
 4859SOL    HW215477   6.775   5.820   2.810
 4860SOL     OW15478   4.172   5.248   2.066
 4860SOL    HW115479   4.122   5.161   2.059
 4860SOL    HW215480   4.157   5.301   1.983
 4861SOL     OW15481   0.221   4.638   5.480
 4861SOL    HW115482   0.238   4.583   5.562
 4861SOL    HW215483   0.176   4.581   5.411
 4862SOL     OW15484   2.288   6.535   4.702
 4862SOL    HW115485   2.342   6.474   4.759
 4862SOL    HW215486   2.215   6.483   4.657
 4863SOL     OW15487   5.661   1.659   2.230
 4863SOL    HW115488   5.623   1.715   2.303
 4863SOL    HW215489   5.761   1.659   2.236
 4864SOL     OW15490   2.359   1.784   0.971
 4864SOL    HW115491   2.283   1.760   1.032
 4864SOL    HW215492   2.348   1.878   0.939
 4865SOL     OW15493   4.166   6.214   4.773
 4865SOL    HW115494   4.085   6.198   4.830
 4865SOL    HW215495   4.240   6.250   4.831
 4866SOL     OW15496   0.632   5.320   1.891
 4866SOL    HW115497   0.700   5.372   1.839
 4866SOL    HW215498   0.604   5.239   1.839
 4867SOL     OW15499   5.088   4.653   4.447
 4867SOL    HW115500   5.071   4.693   4.537
 4867SOL    HW215501   5.057   4.558   4.446
 4868SOL     OW15502   2.014   5.540   1.641
 4868SOL    HW115503   1.958   5.559   1.722
 4868SOL    HW215504   2.103   5.506   1.670
 4869SOL     OW15505   6.053   2.006   1.353
 4869SOL    HW115506   6.079   2.063   1.431
 4869SOL    HW215507   6.083   1.912   1.369
 4870SOL     OW15508   6.682   0.561   1.192
 4870SOL    HW115509   6.606   0.498   1.207
 4870SOL    HW215510   6.708   0.604   1.278
 4871SOL     OW15511   1.630   3.850   4.542
 4871SOL    HW115512   1.553   3.811   4.592
 4871SOL    HW215513   1.705   3.869   4.605
 4872SOL     OW15514   1.045   0.727   3.898
 4872SOL    HW115515   1.026   0.667   3.976
 4872SOL    HW215516   1.131   0.775   3.913
 4873SOL     OW15517   1.272   6.278   5.356
 4873SOL    HW115518   1.213   6.237   5.287
 4873SOL    HW215519   1.234   6.261   5.447
 4874SOL     OW15520   6.173   3.294   3.491
 4874SOL    HW115521   6.219   3.382   3.479
 4874SOL    HW215522   6.234   3.230   3.538
 4875SOL     OW15523   6.886   2.943   6.277
 4875SOL    HW115524   6.912   3.038   6.292
 4875SOL    HW215525   6.912   2.915   6.185
 4876SOL     OW15526   0.598   1.415   0.024
 4876SOL    HW115527   0.651   1.343   0.067
 4876SOL    HW215528   0.593   1.494   0.085
 4877SOL     OW15529   5.926   1.237   2.249
 4877SOL    HW115530   5.861   1.252   2.175
 4877SOL    HW215531   5.887   1.173   2.315
 4878SOL     OW15532   0.284   2.650   1.579
 4878SOL    HW115533   0.331   2.590   1.644
 4878SOL    HW215534   0.240   2.725   1.628
 4879SOL     OW15535   4.777   5.857   3.086
 4879SOL    HW115536   4.753   5.938   3.139
 4879SOL    HW215537   4.703   5.835   3.022
 4880SOL     OW15538   6.209   1.829   5.494
 4880SOL    HW115539   6.177   1.748   5.445
 4880SOL    HW215540   6.308   1.837   5.484
 4881SOL     OW15541   3.018   5.650   6.493
 4881SOL    HW115542   2.941   5.712   6.507
 4881SOL    HW215543   3.042   5.649   6.396
 4882SOL     OW15544   4.938   6.367   0.062
 4882SOL    HW115545   4.912   6.282   0.017
 4882SOL    HW215546   4.918   6.445   0.002
 4883SOL     OW15547   6.041   5.613   0.181
 4883SOL    HW115548   5.968   5.592   0.116
 4883SOL    HW215549   6.003   5.660   0.261
 4884SOL     OW15550   4.142   6.256   1.435
 4884SOL    HW115551   4.087   6.340   1.431
 4884SOL    HW215552   4.239   6.281   1.445
 4885SOL     OW15553   2.071   0.268   2.730
 4885SOL    HW115554   2.125   0.189   2.703
 4885SOL    HW215555   2.100   0.300   2.820
 4886SOL     OW15556   6.039   0.700   5.965
 4886SOL    HW115557   5.958   0.675   5.912
 4886SOL    HW215558   6.019   0.782   6.020
 4887SOL     OW15559   0.631   2.257   5.694
 4887SOL    HW115560   0.613   2.354   5.684
 4887SOL    HW215561   0.611   2.229   5.788
 4888SOL     OW15562   3.602   6.033   2.052
 4888SOL    HW115563   3.577   5.969   1.979
 4888SOL    HW215564   3.582   6.127   2.022
 4889SOL     OW15565   1.226   2.913   6.334
 4889SOL    HW115566   1.269   2.883   6.419
 4889SOL    HW215567   1.277   2.878   6.256
 4890SOL     OW15568   0.484   0.223   4.211
 4890SOL    HW115569   0.395   0.265   4.226
 4890SOL    HW215570   0.500   0.213   4.113
 4891SOL     OW15571   1.032   3.981   0.312
 4891SOL    HW115572   1.073   4.046   0.376
 4891SOL    HW215573   0.957   3.934   0.358
 4892SOL     OW15574   1.508   5.268   2.402
 4892SOL    HW115575   1.495   5.291   2.499
 4892SOL    HW215576   1.582   5.201   2.394
 4893SOL     OW15577   0.885   3.579   6.804
 4893SOL    HW115578   0.913   3.561   6.898
 4893SOL    HW215579   0.946   3.531   6.741
 4894SOL     OW15580   1.792   0.750   3.315
 4894SOL    HW115581   1.702   0.753   3.359
 4894SOL    HW215582   1.797   0.822   3.246
 4895SOL     OW15583   6.054   3.985   0.024
 4895SOL    HW115584   6.009   3.990   0.113
 4895SOL    HW215585   6.079   4.077   7.014
 4896SOL     OW15586   4.083   6.394   3.724
 4896SOL    HW115587   4.131   6.345   3.796
 4896SOL    HW215588   4.008   6.337   3.689
 4897SOL     OW15589   2.793   5.818   6.556
 4897SOL    HW115590   2.813   5.913   6.580
 4897SOL    HW215591   2.794   5.761   6.638
 4898SOL     OW15592   6.241   2.200   4.398
 4898SOL    HW115593   6.276   2.113   4.432
 4898SOL    HW215594   6.298   2.275   4.434
 4899SOL     OW15595   4.872   4.692   4.870
 4899SOL    HW115596   4.861   4.616   4.806
 4899SOL    HW215597   4.958   4.740   4.851
 4900SOL     OW15598   0.636   6.545   5.409
 4900SOL    HW115599   0.539   6.570   5.413
 4900SOL    HW215600   0.648   6.465   5.350
 4901SOL     OW15601   6.917   6.816   3.214
 4901SOL    HW115602   6.921   6.858   3.123
 4901SOL    HW215603   7.007   6.822   3.257
 4902SOL     OW15604   3.488   4.915   1.751
 4902SOL    HW115605   3.423   4.859   1.700
 4902SOL    HW215606   3.545   4.856   1.808
 4903SOL     OW15607   5.497   5.707   6.163
 4903SOL    HW115608   5.555   5.653   6.103
 4903SOL    HW215609   5.466   5.789   6.115
 4904SOL     OW15610   3.052   6.621   3.468
 4904SOL    HW115611   3.104   6.590   3.547
 4904SOL    HW215612   3.066   6.719   3.455
 4905SOL     OW15613   6.140   3.528   3.711
 4905SOL    HW115614   6.138   3.436   3.750
 4905SOL    HW215615   6.077   3.588   3.760
 4906SOL     OW15616   5.092   0.969   1.150
 4906SOL    HW115617   5.188   0.947   1.134
 4906SOL    HW215618   5.053   0.902   1.213
 4907SOL     OW15619   2.565   1.845   2.050
 4907SOL    HW115620   2.500   1.782   2.093
 4907SOL    HW215621   2.588   1.918   2.114
 4908SOL     OW15622   3.966   4.929   0.196
 4908SOL    HW115623   3.937   4.900   0.104
 4908SOL    HW215624   3.960   5.028   0.203
 4909SOL     OW15625   6.199   0.364   5.235
 4909SOL    HW115626   6.229   0.315   5.317
 4909SOL    HW215627   6.214   0.462   5.247
 4910SOL     OW15628   5.753   6.765   6.536
 4910SOL    HW115629   5.689   6.712   6.591
 4910SOL    HW215630   5.752   6.731   6.441
 4911SOL     OW15631   1.211   3.645   6.092
 4911SOL    HW115632   1.190   3.727   6.145
 4911SOL    HW215633   1.296   3.660   6.041
 4912SOL     OW15634   2.547   2.691   1.773
 4912SOL    HW115635   2.563   2.775   1.722
 4912SOL    HW215636   2.632   2.639   1.778
 4913SOL     OW15637   2.818   3.101   1.878
 4913SOL    HW115638   2.912   3.131   1.895
 4913SOL    HW215639   2.756   3.148   1.941
 4914SOL     OW15640   1.833   6.601   2.651
 4914SOL    HW115641   1.801   6.526   2.592
 4914SOL    HW215642   1.924   6.629   2.622
 4915SOL     OW15643   2.569   6.307   3.489
 4915SOL    HW115644   2.658   6.270   3.511
 4915SOL    HW215645   2.549   6.385   3.549
 4916SOL     OW15646   2.082   2.158   2.818
 4916SOL    HW115647   2.098   2.211   2.901
 4916SOL    HW215648   2.092   2.217   2.738
 4917SOL     OW15649   1.948   4.369   6.067
 4917SOL    HW115650   1.967   4.272   6.078
 4917SOL    HW215651   1.951   4.394   5.970
 4918SOL     OW15652   1.912   0.632   3.811
 4918SOL    HW115653   1.951   0.697   3.745
 4918SOL    HW215654   1.980   0.611   3.881
 4919SOL     OW15655   2.472   3.294   1.661
 4919SOL    HW115656   2.444   3.349   1.582
 4919SOL    HW215657   2.426   3.329   1.743
 4920SOL     OW15658   4.192   0.340   0.225
 4920SOL    HW115659   4.164   0.435   0.224
 4920SOL    HW215660   4.288   0.334   0.254
 4921SOL     OW15661   0.770   4.612   2.048
 4921SOL    HW115662   0.833   4.676   2.003
 4921SOL    HW215663   0.817   4.568   2.125
 4922SOL     OW15664   0.752   3.018   5.889
 4922SOL    HW115665   0.827   2.954   5.871
 4922SOL    HW215666   0.718   3.004   5.982
 4923SOL     OW15667   2.862   1.855   0.223
 4923SOL    HW115668   2.861   1.870   0.322
 4923SOL    HW215669   2.778   1.807   0.196
 4924SOL     OW15670   0.215   3.603   4.275
 4924SOL    HW115671   0.263   3.534   4.329
 4924SOL    HW215672   0.251   3.694   4.298
 4925SOL     OW15673   4.674   6.186   6.452
 4925SOL    HW115674   4.597   6.136   6.412
 4925SOL    HW215675   4.645   6.276   6.482
 4926SOL     OW15676   4.418   2.951   0.317
 4926SOL    HW115677   4.407   2.898   0.402
 4926SOL    HW215678   4.352   2.918   0.250
 4927SOL     OW15679   3.279   3.718   2.294
 4927SOL    HW115680   3.305   3.638   2.239
 4927SOL    HW215681   3.185   3.709   2.325
 4928SOL     OW15682   0.772   6.459   0.344
 4928SOL    HW115683   0.756   6.403   0.263
 4928SOL    HW215684   0.870   6.463   0.362
 4929SOL     OW15685   0.776   4.774   4.719
 4929SOL    HW115686   0.805   4.839   4.648
 4929SOL    HW215687   0.786   4.681   4.685
 4930SOL     OW15688   0.472   2.740   0.895
 4930SOL    HW115689   0.473   2.797   0.813
 4930SOL    HW215690   0.391   2.762   0.950
 4931SOL     OW15691   6.635   6.578   0.930
 4931SOL    HW115692   6.621   6.583   1.029
 4931SOL    HW215693   6.612   6.487   0.897
 4932SOL     OW15694   3.354   1.712   1.013
 4932SOL    HW115695   3.396   1.799   0.984
 4932SOL    HW215696   3.373   1.696   1.109
 4933SOL     OW15697   2.354   0.323   4.950
 4933SOL    HW115698   2.439   0.356   4.911
 4933SOL    HW215699   2.284   0.395   4.945
 4934SOL     OW15700   1.951   5.915   5.385
 4934SOL    HW115701   1.947   5.935   5.288
 4934SOL    HW215702   2.010   5.982   5.431
 4935SOL     OW15703   2.065   1.451   0.743
 4935SOL    HW115704   2.134   1.516   0.711
 4935SOL    HW215705   1.979   1.466   0.693
 4936SOL     OW15706   5.064   6.230   1.617
 4936SOL    HW115707   5.050   6.321   1.655
 4936SOL    HW215708   5.137   6.183   1.667
 4937SOL     OW15709   1.066   3.263   4.787
 4937SOL    HW115710   1.087   3.233   4.880
 4937SOL    HW215711   1.124   3.214   4.722
 4938SOL     OW15712   3.333   4.946   2.063
 4938SOL    HW115713   3.336   5.032   2.013
 4938SOL    HW215714   3.408   4.887   2.032
 4939SOL     OW15715   1.204   1.388   0.843
 4939SOL    HW115716   1.128   1.328   0.870
 4939SOL    HW215717   1.240   1.359   0.755
 4940SOL     OW15718   1.413   1.919   5.820
 4940SOL    HW115719   1.440   1.909   5.725
 4940SOL    HW215720   1.421   2.015   5.847
 4941SOL     OW15721   4.034   2.648   5.351
 4941SOL    HW115722   4.090   2.612   5.276
 4941SOL    HW215723   4.075   2.623   5.438
 4942SOL     OW15724   0.414   1.888   3.187
 4942SOL    HW115725   0.433   1.982   3.158
 4942SOL    HW215726   0.336   1.887   3.249
 4943SOL     OW15727   5.512   2.732   6.972
 4943SOL    HW115728   5.441   2.795   6.942
 4943SOL    HW215729   5.508   2.648   6.918
 4944SOL     OW15730   0.938   4.899   0.249
 4944SOL    HW115731   0.843   4.872   0.229
 4944SOL    HW215732   0.987   4.821   0.288
 4945SOL     OW15733   2.639   0.211   5.843
 4945SOL    HW115734   2.650   0.310   5.848
 4945SOL    HW215735   2.716   0.166   5.888
 4946SOL     OW15736   2.876   5.410   6.858
 4946SOL    HW115737   2.804   5.411   6.928
 4946SOL    HW215738   2.950   5.350   6.887
 4947SOL     OW15739   0.988   0.363   0.782
 4947SOL    HW115740   1.013   0.269   0.807
 4947SOL    HW215741   0.971   0.415   0.866
 4948SOL     OW15742   1.637   2.093   2.152
 4948SOL    HW115743   1.688   2.168   2.111
 4948SOL    HW215744   1.606   2.119   2.244
 4949SOL     OW15745   6.992   4.178   6.324
 4949SOL    HW115746   6.927   4.155   6.252
 4949SOL    HW215747   0.059   4.134   6.306
 4950SOL     OW15748   3.833   4.353   5.745
 4950SOL    HW115749   3.771   4.421   5.783
 4950SOL    HW215750   3.883   4.392   5.667
 4951SOL     OW15751   4.997   5.817   2.894
 4951SOL    HW115752   4.932   5.837   2.967
 4951SOL    HW215753   4.954   5.832   2.805
 4952SOL     OW15754   0.700   0.336   6.996
 4952SOL    HW115755   0.693   0.418   0.032
 4952SOL    HW215756   0.794   0.302   6.997
 4953SOL     OW15757   1.256   2.215   5.101
 4953SOL    HW115758   1.217   2.250   5.015
 4953SOL    HW215759   1.258   2.115   5.098
 4954SOL     OW15760   2.973   3.719   4.738
 4954SOL    HW115761   2.973   3.799   4.798
 4954SOL    HW215762   2.954   3.637   4.792
 4955SOL     OW15763   3.797   5.952   5.929
 4955SOL    HW115764   3.743   5.975   5.848
 4955SOL    HW215765   3.807   6.033   5.986
 4956SOL     OW15766   2.854   0.185   4.931
 4956SOL    HW115767   2.809   0.237   5.003
 4956SOL    HW215768   2.807   0.098   4.917
 4957SOL     OW15769   5.723   4.267   0.014
 4957SOL    HW115770   5.659   4.232   6.965
 4957SOL    HW215771   5.816   4.260   7.000
 4958SOL     OW15772   3.778   5.460   0.919
 4958SOL    HW115773   3.722   5.377   0.917
 4958SOL    HW215774   3.872   5.437   0.895
 4959SOL     OW15775   0.176   2.646   2.726
 4959SOL    HW115776   0.158   2.618   2.821
 4959SOL    HW215777   0.223   2.735   2.726
 4960SOL     OW15778   5.085   4.760   3.801
 4960SOL    HW115779   5.021   4.683   3.801
 4960SOL    HW215780   5.179   4.725   3.801
 4961SOL     OW15781   3.542   2.327   1.660
 4961SOL    HW115782   3.569   2.246   1.607
 4961SOL    HW215783   3.604   2.337   1.737
 4962SOL     OW15784   1.287   3.124   0.144
 4962SOL    HW115785   1.267   3.162   0.054
 4962SOL    HW215786   1.272   3.195   0.214
 4963SOL     OW15787   0.861   3.907   5.746
 4963SOL    HW115788   0.801   3.914   5.666
 4963SOL    HW215789   0.943   3.856   5.722
 4964SOL     OW15790   2.278   5.970   4.886
 4964SOL    HW115791   2.335   5.937   4.810
 4964SOL    HW215792   2.319   5.942   4.972
 4965SOL     OW15793   1.227   6.492   2.965
 4965SOL    HW115794   1.233   6.486   3.064
 4965SOL    HW215795   1.319   6.491   2.926
 4966SOL     OW15796   3.582   6.403   4.336
 4966SOL    HW115797   3.485   6.413   4.316
 4966SOL    HW215798   3.594   6.344   4.416
 4967SOL     OW15799   4.392   4.744   4.759
 4967SOL    HW115800   4.369   4.674   4.827
 4967SOL    HW215801   4.361   4.833   4.791
 4968SOL     OW15802   0.133   2.677   3.234
 4968SOL    HW115803   0.094   2.730   3.310
 4968SOL    HW215804   0.231   2.693   3.229
 4969SOL     OW15805   0.050   5.799   4.194
 4969SOL    HW115806   0.105   5.877   4.166
 4969SOL    HW215807   0.107   5.716   4.194
 4970SOL     OW15808   2.046   1.777   1.385
 4970SOL    HW115809   2.011   1.708   1.322
 4970SOL    HW215810   1.973   1.842   1.408
 4971SOL     OW15811   6.799   6.076   2.487
 4971SOL    HW115812   6.815   5.978   2.487
 4971SOL    HW215813   6.806   6.111   2.393
 4972SOL     OW15814   0.763   4.332   0.621
 4972SOL    HW115815   0.722   4.415   0.582
 4972SOL    HW215816   0.863   4.343   0.624
 4973SOL     OW15817   6.169   1.204   0.334
 4973SOL    HW115818   6.069   1.208   0.326
 4973SOL    HW215819   6.206   1.297   0.336
 4974SOL     OW15820   3.204   6.863   4.484
 4974SOL    HW115821   3.125   6.916   4.517
 4974SOL    HW215822   3.251   6.915   4.412
 4975SOL     OW15823   5.221   4.955   1.060
 4975SOL    HW115824   5.208   5.009   1.142
 4975SOL    HW215825   5.309   4.977   1.018
 4976SOL     OW15826   1.161   6.792   3.260
 4976SOL    HW115827   1.158   6.865   3.329
 4976SOL    HW215828   1.242   6.804   3.203
 4977SOL     OW15829   1.414   4.018   6.093
 4977SOL    HW115830   1.507   4.043   6.066
 4977SOL    HW215831   1.373   4.093   6.143
 4978SOL     OW15832   6.298   4.217   4.559
 4978SOL    HW115833   6.302   4.301   4.611
 4978SOL    HW215834   6.218   4.164   4.585
 4979SOL     OW15835   2.515   6.919   6.401
 4979SOL    HW115836   2.467   6.915   6.314
 4979SOL    HW215837   2.471   6.986   6.461
 4980SOL     OW15838   5.402   3.012   4.332
 4980SOL    HW115839   5.309   3.021   4.368
 4980SOL    HW215840   5.397   3.007   4.232
 4981SOL     OW15841   3.276   5.153   2.773
 4981SOL    HW115842   3.289   5.087   2.848
 4981SOL    HW215843   3.200   5.122   2.715
 4982SOL     OW15844   3.906   2.383   5.409
 4982SOL    HW115845   3.866   2.473   5.392
 4982SOL    HW215846   4.002   2.383   5.381
 4983SOL     OW15847   5.572   4.495   2.916
 4983SOL    HW115848   5.668   4.520   2.905
 4983SOL    HW215849   5.562   4.396   2.915
 4984SOL     OW15850   4.982   3.501   3.826
 4984SOL    HW115851   4.956   3.479   3.920
 4984SOL    HW215852   5.080   3.521   3.823
 4985SOL     OW15853   5.681   0.705   2.398
 4985SOL    HW115854   5.643   0.616   2.419
 4985SOL    HW215855   5.766   0.719   2.449
 4986SOL     OW15856   0.808   5.157   0.916
 4986SOL    HW115857   0.816   5.057   0.918
 4986SOL    HW215858   0.879   5.197   0.973
 4987SOL     OW15859   1.544   1.321   2.194
 4987SOL    HW115860   1.577   1.296   2.286
 4987SOL    HW215861   1.446   1.341   2.199
 4988SOL     OW15862   6.151   5.827   3.839
 4988SOL    HW115863   6.206   5.781   3.770
 4988SOL    HW215864   6.130   5.920   3.809
 4989SOL     OW15865   5.006   0.303   3.800
 4989SOL    HW115866   4.993   0.356   3.884
 4989SOL    HW215867   4.932   0.237   3.790
 4990SOL     OW15868   4.304   1.904   5.882
 4990SOL    HW115869   4.210   1.898   5.917
 4990SOL    HW215870   4.368   1.907   5.958
 4991SOL     OW15871   1.905   5.264   5.878
 4991SOL    HW115872   1.905   5.236   5.782
 4991SOL    HW215873   1.859   5.194   5.932
 4992SOL     OW15874   0.981   3.400   3.929
 4992SOL    HW115875   1.075   3.371   3.946
 4992SOL    HW215876   0.943   3.442   4.011
 4993SOL     OW15877   2.282   6.354   3.994
 4993SOL    HW115878   2.202   6.355   4.054
 4993SOL    HW215879   2.323   6.445   3.992
 4994SOL     OW15880   3.682   4.962   5.250
 4994SOL    HW115881   3.593   4.916   5.257
 4994SOL    HW215882   3.719   4.977   5.341
 4995SOL     OW15883   0.275   0.574   5.779
 4995SOL    HW115884   0.238   0.615   5.696
 4995SOL    HW215885   0.201   0.552   5.842
 4996SOL     OW15886   0.319   1.371   3.461
 4996SOL    HW115887   0.239   1.421   3.429
 4996SOL    HW215888   0.317   1.365   3.561
 4997SOL     OW15889   4.114   1.468   0.760
 4997SOL    HW115890   4.106   1.369   0.755
 4997SOL    HW215891   4.117   1.497   0.855
 4998SOL     OW15892   0.591   3.786   3.260
 4998SOL    HW115893   0.491   3.788   3.265
 4998SOL    HW215894   0.624   3.872   3.223
 4999SOL     OW15895   0.872   2.870   3.570
 4999SOL    HW115896   0.926   2.787   3.561
 4999SOL    HW215897   0.848   2.886   3.666
 5000SOL     OW15898   2.477   6.203   3.112
 5000SOL    HW115899   2.509   6.189   3.018
 5000SOL    HW215900   2.414   6.280   3.115
 5001SOL     OW15901   0.474   6.270   3.073
 5001SOL    HW115902   0.462   6.362   3.037
 5001SOL    HW215903   0.540   6.220   3.017
 5002SOL     OW15904   1.528   4.499   3.889
 5002SOL    HW115905   1.477   4.424   3.846
 5002SOL    HW215906   1.618   4.466   3.917
 5003SOL     OW15907   4.044   0.569   3.118
 5003SOL    HW115908   3.985   0.647   3.100
 5003SOL    HW215909   4.108   0.558   3.041
 5004SOL     OW15910   3.869   5.796   0.106
 5004SOL    HW115911   3.883   5.698   0.124
 5004SOL    HW215912   3.825   5.807   0.017
 5005SOL     OW15913   2.755   2.877   0.043
 5005SOL    HW115914   2.767   2.976   0.029
 5005SOL    HW215915   2.741   2.858   0.140
 5006SOL     OW15916   4.785   1.466   2.249
 5006SOL    HW115917   4.875   1.441   2.213
 5006SOL    HW215918   4.766   1.412   2.331
 5007SOL     OW15919   5.721   6.110   1.893
 5007SOL    HW115920   5.712   6.169   1.974
 5007SOL    HW215921   5.743   6.017   1.922
 5008SOL     OW15922   5.367   0.406   3.222
 5008SOL    HW115923   5.339   0.391   3.317
 5008SOL    HW215924   5.390   0.318   3.180
 5009SOL     OW15925   6.689   2.359   0.646
 5009SOL    HW115926   6.718   2.281   0.701
 5009SOL    HW215927   6.738   2.441   0.676
 5010SOL     OW15928   3.632   3.555   0.965
 5010SOL    HW115929   3.624   3.474   1.024
 5010SOL    HW215930   3.662   3.633   1.020
 5011SOL     OW15931   1.660   3.057   6.812
 5011SOL    HW115932   1.741   3.088   6.862
 5011SOL    HW215933   1.689   3.018   6.724
 5012SOL     OW15934   6.284   1.861   6.002
 5012SOL    HW115935   6.184   1.854   6.001
 5012SOL    HW215936   6.317   1.879   5.910
 5013SOL     OW15937   5.632   0.334   6.076
 5013SOL    HW115938   5.590   0.378   5.997
 5013SOL    HW215939   5.731   0.330   6.063
 5014SOL     OW15940   5.764   3.303   1.857
 5014SOL    HW115941   5.747   3.205   1.862
 5014SOL    HW215942   5.824   3.323   1.780
 5015SOL     OW15943   5.961   6.064   3.986
 5015SOL    HW115944   6.045   6.118   3.987
 5015SOL    HW215945   5.885   6.122   3.956
 5016SOL     OW15946   1.866   3.743   5.616
 5016SOL    HW115947   1.866   3.643   5.615
 5016SOL    HW215948   1.958   3.776   5.638
 5017SOL     OW15949   0.561   3.202   1.952
 5017SOL    HW115950   0.575   3.248   1.864
 5017SOL    HW215951   0.477   3.236   1.994
 5018SOL     OW15952   0.985   0.117   6.792
 5018SOL    HW115953   1.025   0.037   6.748
 5018SOL    HW215954   0.898   0.139   6.749
 5019SOL     OW15955   1.311   4.754   4.406
 5019SOL    HW115956   1.287   4.801   4.491
 5019SOL    HW215957   1.275   4.661   4.409
 5020SOL     OW15958   2.169   0.123   4.810
 5020SOL    HW115959   2.230   0.046   4.791
 5020SOL    HW215960   2.183   0.153   4.905
 5021SOL     OW15961   1.801   0.895   0.803
 5021SOL    HW115962   1.829   0.932   0.715
 5021SOL    HW215963   1.826   0.798   0.808
 5022SOL     OW15964   0.043   2.800   1.242
 5022SOL    HW115965   7.017   2.712   1.254
 5022SOL    HW215966   0.006   2.866   1.308
 5023SOL     OW15967   0.629   4.341   2.394
 5023SOL    HW115968   0.655   4.248   2.419
 5023SOL    HW215969   0.586   4.385   2.473
 5024SOL     OW15970   4.462   4.088   0.992
 5024SOL    HW115971   4.505   3.998   0.987
 5024SOL    HW215972   4.467   4.123   1.086
 5025SOL     OW15973   4.616   1.521   4.908
 5025SOL    HW115974   4.566   1.447   4.954
 5025SOL    HW215975   4.642   1.492   4.816
 5026SOL     OW15976   4.920   6.944   4.597
 5026SOL    HW115977   4.992   6.920   4.662
 5026SOL    HW215978   4.942   6.905   4.508
 5027SOL     OW15979   4.769   6.039   1.074
 5027SOL    HW115980   4.796   5.965   1.136
 5027SOL    HW215981   4.740   6.000   0.987
 5028SOL     OW15982   6.183   1.548   2.191
 5028SOL    HW115983   6.185   1.527   2.093
 5028SOL    HW215984   6.277   1.553   2.226
 5029SOL     OW15985   5.923   1.681   2.312
 5029SOL    HW115986   5.961   1.748   2.376
 5029SOL    HW215987   5.998   1.628   2.272
 5030SOL     OW15988   0.548   4.291   6.580
 5030SOL    HW115989   0.451   4.265   6.579
 5030SOL    HW215990   0.601   4.222   6.530
 5031SOL     OW15991   6.270   0.175   6.259
 5031SOL    HW115992   6.289   0.247   6.192
 5031SOL    HW215993   6.237   0.094   6.212
 5032SOL     OW15994   3.247   3.039   5.747
 5032SOL    HW115995   3.210   3.128   5.718
 5032SOL    HW215996   3.291   2.994   5.670
 5033SOL     OW15997   2.118   0.558   6.486
 5033SOL    HW115998   2.152   0.532   6.395
 5033SOL    HW215999   2.029   0.602   6.476
 5034SOL     OW16000   4.419   6.773   4.670
 5034SOL    HW116001   4.503   6.799   4.623
 5034SOL    HW216002   4.423   6.677   4.696
 5035SOL     OW16003   1.968   3.268   4.000
 5035SOL    HW116004   2.051   3.212   3.993
 5035SOL    HW216005   1.979   3.334   4.074
 5036SOL     OW16006   0.785   2.544   4.873
 5036SOL    HW116007   0.793   2.582   4.781
 5036SOL    HW216008   0.875   2.517   4.906
 5037SOL     OW16009   3.999   4.068   1.107
 5037SOL    HW116010   4.003   4.014   1.191
 5037SOL    HW216011   4.021   4.009   1.029
 5038SOL     OW16012   3.821   3.705   3.653
 5038SOL    HW116013   3.907   3.746   3.624
 5038SOL    HW216014   3.835   3.657   3.740
 5039SOL     OW16015   1.088   3.867   6.223
 5039SOL    HW116016   1.099   3.918   6.308
 5039SOL    HW216017   1.032   3.920   6.160
 5040SOL     OW16018   0.076   1.273   5.379
 5040SOL    HW116019   0.134   1.262   5.460
 5040SOL    HW216020   0.122   1.333   5.313
 5041SOL     OW16021   6.915   2.353   1.520
 5041SOL    HW116022   6.994   2.393   1.474
 5041SOL    HW216023   6.925   2.254   1.524
 5042SOL     OW16024   0.878   2.488   6.523
 5042SOL    HW116025   0.861   2.530   6.434
 5042SOL    HW216026   0.974   2.459   6.529
 5043SOL     OW16027   3.430   6.741   1.876
 5043SOL    HW116028   3.450   6.781   1.787
 5043SOL    HW216029   3.515   6.728   1.927
 5044SOL     OW16030   6.589   4.669   0.461
 5044SOL    HW116031   6.626   4.634   0.375
 5044SOL    HW216032   6.510   4.727   0.442
 5045SOL     OW16033   6.019   2.708   6.810
 5045SOL    HW116034   5.933   2.738   6.767
 5045SOL    HW216035   6.000   2.676   6.902
 5046SOL     OW16036   3.345   3.294   2.707
 5046SOL    HW116037   3.300   3.272   2.620
 5046SOL    HW216038   3.309   3.234   2.778
 5047SOL     OW16039   1.945   3.744   3.692
 5047SOL    HW116040   1.994   3.788   3.767
 5047SOL    HW216041   1.928   3.648   3.715
 5048SOL     OW16042   2.250   1.112   6.196
 5048SOL    HW116043   2.234   1.207   6.169
 5048SOL    HW216044   2.330   1.077   6.148
 5049SOL     OW16045   4.492   1.258   6.770
 5049SOL    HW116046   4.477   1.169   6.813
 5049SOL    HW216047   4.503   1.328   6.841
 5050SOL     OW16048   1.746   0.011   0.985
 5050SOL    HW116049   1.789   6.954   0.938
 5050SOL    HW216050   1.769   0.008   1.082
 5051SOL     OW16051   4.591   5.111   1.137
 5051SOL    HW116052   4.615   5.022   1.176
 5051SOL    HW216053   4.493   5.127   1.147
 5052SOL     OW16054   2.374   1.561   5.084
 5052SOL    HW116055   2.448   1.628   5.090
 5052SOL    HW216056   2.336   1.545   5.175
 5053SOL     OW16057   0.321   0.902   1.996
 5053SOL    HW116058   0.396   0.966   2.014
 5053SOL    HW216059   0.278   0.924   1.909
 5054SOL     OW16060   3.749   5.112   3.968
 5054SOL    HW116061   3.764   5.098   3.870
 5054SOL    HW216062   3.779   5.204   3.994
 5055SOL     OW16063   0.446   3.968   6.100
 5055SOL    HW116064   0.409   3.876   6.089
 5055SOL    HW216065   0.534   3.963   6.147
 5056SOL     OW16066   5.588   4.250   4.428
 5056SOL    HW116067   5.639   4.264   4.343
 5056SOL    HW216068   5.526   4.327   4.442
 5057SOL     OW16069   1.047   5.864   2.252
 5057SOL    HW116070   1.036   5.833   2.157
 5057SOL    HW216071   1.094   5.794   2.305
 5058SOL     OW16072   2.912   5.510   5.568
 5058SOL    HW116073   2.970   5.430   5.584
 5058SOL    HW216074   2.816   5.481   5.565
 5059SOL     OW16075   6.778   0.164   2.330
 5059SOL    HW116076   6.700   0.167   2.268
 5059SOL    HW216077   6.820   0.255   2.335
 5060SOL     OW16078   6.613   2.058   5.717
 5060SOL    HW116079   6.607   2.072   5.618
 5060SOL    HW216080   6.604   2.146   5.763
 5061SOL     OW16081   5.287   4.899   0.361
 5061SOL    HW116082   5.188   4.911   0.352
 5061SOL    HW216083   5.320   4.952   0.438
 5062SOL     OW16084   0.136   0.510   0.824
 5062SOL    HW116085   0.063   0.578   0.813
 5062SOL    HW216086   0.095   0.420   0.843
 5063SOL     OW16087   1.507   5.928   1.877
 5063SOL    HW116088   1.487   6.025   1.866
 5063SOL    HW216089   1.532   5.889   1.788
 5064SOL     OW16090   5.265   3.303   0.041
 5064SOL    HW116091   5.211   3.335   0.119
 5064SOL    HW216092   5.220   3.330   6.976
 5065SOL     OW16093   2.624   6.524   5.638
 5065SOL    HW116094   2.603   6.459   5.711
 5065SOL    HW216095   2.660   6.608   5.677
 5066SOL     OW16096   4.701   4.742   1.025
 5066SOL    HW116097   4.700   4.819   1.089
 5066SOL    HW216098   4.760   4.670   1.062
 5067SOL     OW16099   5.275   1.311   6.562
 5067SOL    HW116100   5.353   1.359   6.522
 5067SOL    HW216101   5.306   1.224   6.600
 5068SOL     OW16102   3.321   5.292   2.082
 5068SOL    HW116103   3.392   5.282   2.013
 5068SOL    HW216104   3.331   5.379   2.129
 5069SOL     OW16105   0.457   5.105   2.892
 5069SOL    HW116106   0.427   5.031   2.953
 5069SOL    HW216107   0.509   5.172   2.944
 5070SOL     OW16108   4.883   3.485   4.083
 5070SOL    HW116109   4.889   3.532   4.172
 5070SOL    HW216110   4.788   3.481   4.054
 5071SOL     OW16111   3.929   0.593   6.896
 5071SOL    HW116112   3.879   0.591   6.809
 5071SOL    HW216113   3.916   0.506   6.944
 5072SOL     OW16114   1.094   4.214   1.152
 5072SOL    HW116115   1.019   4.172   1.204
 5072SOL    HW216116   1.109   4.163   1.068
 5073SOL     OW16117   4.508   1.681   4.450
 5073SOL    HW116118   4.573   1.756   4.454
 5073SOL    HW216119   4.434   1.705   4.387
 5074SOL     OW16120   3.406   4.897   5.488
 5074SOL    HW116121   3.451   4.945   5.563
 5074SOL    HW216122   3.461   4.818   5.461
 5075SOL     OW16123   6.745   6.376   4.035
 5075SOL    HW116124   6.711   6.392   4.128
 5075SOL    HW216125   6.795   6.289   4.033
 5076SOL     OW16126   3.729   0.573   0.820
 5076SOL    HW116127   3.645   0.589   0.873
 5076SOL    HW216128   3.748   0.475   0.817
 5077SOL     OW16129   0.432   2.031   2.326
 5077SOL    HW116130   0.367   2.058   2.255
 5077SOL    HW216131   0.442   2.105   2.392
 5078SOL     OW16132   0.531   1.223   3.698
 5078SOL    HW116133   0.508   1.276   3.780
 5078SOL    HW216134   0.543   1.127   3.722
 5079SOL     OW16135   4.027   5.084   4.695
 5079SOL    HW116136   4.058   5.009   4.752
 5079SOL    HW216137   3.931   5.069   4.669
 5080SOL     OW16138   5.802   6.776   5.895
 5080SOL    HW116139   5.755   6.824   5.969
 5080SOL    HW216140   5.861   6.840   5.846
 5081SOL     OW16141   3.214   3.470   2.935
 5081SOL    HW116142   3.307   3.478   2.972
 5081SOL    HW216143   3.218   3.467   2.835
 5082SOL     OW16144   6.630   0.165   6.303
 5082SOL    HW116145   6.696   0.099   6.340
 5082SOL    HW216146   6.538   0.141   6.335
 5083SOL     OW16147   1.561   5.543   1.709
 5083SOL    HW116148   1.536   5.487   1.787
 5083SOL    HW216149   1.530   5.499   1.625
 5084SOL     OW16150   2.073   6.206   2.847
 5084SOL    HW116151   1.988   6.154   2.846
 5084SOL    HW216152   2.064   6.284   2.909
 5085SOL     OW16153   6.523   3.382   6.153
 5085SOL    HW116154   6.608   3.350   6.111
 5085SOL    HW216155   6.481   3.452   6.096
 5086SOL     OW16156   0.023   5.138   3.665
 5086SOL    HW116157   7.000   5.063   3.715
 5086SOL    HW216158   7.014   5.225   3.705
 5087SOL     OW16159   0.208   5.764   5.244
 5087SOL    HW116160   0.157   5.776   5.329
 5087SOL    HW216161   0.145   5.761   5.166
 5088SOL     OW16162   5.989   0.511   6.879
 5088SOL    HW116163   5.992   0.610   6.864
 5088SOL    HW216164   6.042   0.466   6.808
 5089SOL     OW16165   5.551   2.839   3.859
 5089SOL    HW116166   5.463   2.885   3.871
 5089SOL    HW216167   5.550   2.753   3.911
 5090SOL     OW16168   1.353   4.502   0.600
 5090SOL    HW116169   1.362   4.532   0.505
 5090SOL    HW216170   1.309   4.574   0.654
 5091SOL     OW16171   1.403   6.552   3.547
 5091SOL    HW116172   1.445   6.600   3.471
 5091SOL    HW216173   1.442   6.460   3.554
 5092SOL     OW16174   3.755   2.810   1.467
 5092SOL    HW116175   3.691   2.883   1.445
 5092SOL    HW216176   3.715   2.751   1.537
 5093SOL     OW16177   0.861   1.739   0.838
 5093SOL    HW116178   0.865   1.784   0.749
 5093SOL    HW216179   0.783   1.676   0.840
 5094SOL     OW16180   6.384   0.322   6.600
 5094SOL    HW116181   6.392   0.242   6.541
 5094SOL    HW216182   6.425   0.401   6.554
 5095SOL     OW16183   3.061   0.038   5.487
 5095SOL    HW116184   3.137   0.089   5.445
 5095SOL    HW216185   2.991   0.101   5.519
 5096SOL     OW16186   4.242   5.578   2.816
 5096SOL    HW116187   4.238   5.676   2.793
 5096SOL    HW216188   4.309   5.533   2.756
 5097SOL     OW16189   0.623   0.802   6.469
 5097SOL    HW116190   0.709   0.810   6.419
 5097SOL    HW216191   0.599   0.706   6.479
 5098SOL     OW16192   6.688   2.726   2.322
 5098SOL    HW116193   6.712   2.641   2.369
 5098SOL    HW216194   6.733   2.729   2.233
 5099SOL     OW16195   1.186   0.248   4.989
 5099SOL    HW116196   1.148   0.321   5.046
 5099SOL    HW216197   1.281   0.230   5.018
 5100SOL     OW16198   4.885   6.012   6.396
 5100SOL    HW116199   4.846   6.097   6.431
 5100SOL    HW216200   4.817   5.966   6.339
 5101SOL     OW16201   3.980   5.951   0.690
 5101SOL    HW116202   4.025   5.982   0.774
 5101SOL    HW216203   3.880   5.957   0.702
 5102SOL     OW16204   4.284   5.573   4.239
 5102SOL    HW116205   4.223   5.509   4.286
 5102SOL    HW216206   4.379   5.547   4.256
 5103SOL     OW16207   1.070   1.099   4.540
 5103SOL    HW116208   1.168   1.104   4.524
 5103SOL    HW216209   1.040   1.004   4.538
 5104SOL     OW16210   1.213   6.776   1.259
 5104SOL    HW116211   1.215   6.785   1.358
 5104SOL    HW216212   1.149   6.843   1.221
 5105SOL     OW16213   2.600   3.134   6.471
 5105SOL    HW116214   2.580   3.117   6.567
 5105SOL    HW216215   2.668   3.207   6.463
 5106SOL     OW16216   2.843   0.181   2.194
 5106SOL    HW116217   2.863   0.274   2.224
 5106SOL    HW216218   2.928   0.130   2.182
 5107SOL     OW16219   1.048   0.237   6.099
 5107SOL    HW116220   1.033   0.306   6.029
 5107SOL    HW216221   1.142   0.242   6.131
 5108SOL     OW16222   2.897   3.492   3.830
 5108SOL    HW116223   2.975   3.448   3.875
 5108SOL    HW216224   2.896   3.466   3.733
 5109SOL     OW16225   0.333   1.545   1.526
 5109SOL    HW116226   0.330   1.585   1.618
 5109SOL    HW216227   0.258   1.480   1.516
 5110SOL     OW16228   1.988   6.238   5.250
 5110SOL    HW116229   1.946   6.164   5.198
 5110SOL    HW216230   2.075   6.207   5.288
 5111SOL     OW16231   1.621   1.087   6.894
 5111SOL    HW116232   1.523   1.070   6.881
 5111SOL    HW216233   1.662   1.008   6.940
 5112SOL     OW16234   0.383   6.931   3.667
 5112SOL    HW116235   0.313   6.997   3.639
 5112SOL    HW216236   0.407   6.874   3.589
 5113SOL     OW16237   0.857   6.856   6.644
 5113SOL    HW116238   0.780   6.878   6.704
 5113SOL    HW216239   0.942   6.891   6.684
 5114SOL     OW16240   4.228   5.295   6.308
 5114SOL    HW116241   4.304   5.351   6.342
 5114SOL    HW216242   4.265   5.215   6.260
 5115SOL     OW16243   2.042   3.918   5.149
 5115SOL    HW116244   2.082   3.884   5.234
 5115SOL    HW216245   2.104   3.986   5.108
 5116SOL     OW16246   6.642   2.948   1.208
 5116SOL    HW116247   6.676   2.992   1.291
 5116SOL    HW216248   6.599   2.861   1.232
 5117SOL     OW16249   2.691   4.860   3.575
 5117SOL    HW116250   2.604   4.814   3.555
 5117SOL    HW216251   2.732   4.819   3.657
 5118SOL     OW16252   4.455   6.725   1.774
 5118SOL    HW116253   4.532   6.694   1.719
 5118SOL    HW216254   4.403   6.647   1.807
 5119SOL     OW16255   6.414   6.882   2.800
 5119SOL    HW116256   6.322   6.884   2.761
 5119SOL    HW216257   6.430   6.965   2.852
 5120SOL     OW16258   4.097   1.904   2.809
 5120SOL    HW116259   4.182   1.933   2.854
 5120SOL    HW216260   4.109   1.812   2.772
 5121SOL     OW16261   1.543   3.424   4.763
 5121SOL    HW116262   1.539   3.358   4.689
 5121SOL    HW216263   1.539   3.376   4.851
 5122SOL     OW16264   2.821   6.235   3.567
 5122SOL    HW116265   2.862   6.300   3.503
 5122SOL    HW216266   2.893   6.178   3.607
 5123SOL     OW16267   6.257   4.046   1.827
 5123SOL    HW116268   6.243   4.133   1.781
 5123SOL    HW216269   6.181   3.984   1.805
 5124SOL     OW16270   2.979   6.066   0.890
 5124SOL    HW116271   2.897   6.122   0.892
 5124SOL    HW216272   3.017   6.065   0.798
 5125SOL     OW16273   6.885   2.194   5.839
 5125SOL    HW116274   6.980   2.168   5.854
 5125SOL    HW216275   6.851   2.151   5.756
 5126SOL     OW16276   4.743   2.300   6.569
 5126SOL    HW116277   4.840   2.303   6.590
 5126SOL    HW216278   4.690   2.325   6.650
 5127SOL     OW16279   5.775   3.258   6.525
 5127SOL    HW116280   5.798   3.256   6.623
 5127SOL    HW216281   5.676   3.252   6.514
 5128SOL     OW16282   0.096   0.062   0.127
 5128SOL    HW116283   0.055   0.002   0.059
 5128SOL    HW216284   0.035   0.139   0.144
 5129SOL     OW16285   4.839   2.472   2.985
 5129SOL    HW116286   4.742   2.465   3.008
 5129SOL    HW216287   4.862   2.566   2.961
 5130SOL     OW16288   1.034   6.523   5.210
 5130SOL    HW116289   1.078   6.438   5.180
 5130SOL    HW216290   1.039   6.530   5.309
 5131SOL     OW16291   3.850   4.939   3.526
 5131SOL    HW116292   3.927   4.876   3.530
 5131SOL    HW216293   3.798   4.923   3.442
 5132SOL     OW16294   3.388   1.528   6.742
 5132SOL    HW116295   3.424   1.620   6.757
 5132SOL    HW216296   3.446   1.461   6.789
 5133SOL     OW16297   4.932   4.505   6.656
 5133SOL    HW116298   5.022   4.548   6.667
 5133SOL    HW216299   4.861   4.568   6.686
 5134SOL     OW16300   5.825   5.795   0.705
 5134SOL    HW116301   5.848   5.834   0.794
 5134SOL    HW216302   5.747   5.733   0.714
 5135SOL     OW16303   6.965   2.596   2.182
 5135SOL    HW116304   6.871   2.595   2.148
 5135SOL    HW216305   6.996   2.502   2.198
 5136SOL     OW16306   0.891   1.611   5.737
 5136SOL    HW116307   0.844   1.639   5.654
 5136SOL    HW216308   0.980   1.571   5.714
 5137SOL     OW16309   5.632   0.415   3.328
 5137SOL    HW116310   5.544   0.444   3.290
 5137SOL    HW216311   5.640   0.316   3.321
 5138SOL     OW16312   3.114   3.026   2.294
 5138SOL    HW116313   3.158   2.957   2.236
 5138SOL    HW216314   3.115   3.114   2.247
 5139SOL     OW16315   2.938   0.556   5.734
 5139SOL    HW116316   2.931   0.635   5.673
 5139SOL    HW216317   3.034   0.535   5.750
 5140SOL     OW16318   3.463   3.384   6.498
 5140SOL    HW116319   3.472   3.437   6.413
 5140SOL    HW216320   3.457   3.287   6.477
 5141SOL     OW16321   0.637   2.758   1.523
 5141SOL    HW116322   0.607   2.679   1.577
 5141SOL    HW216323   0.559   2.796   1.473
 5142SOL     OW16324   0.763   0.009   2.252
 5142SOL    HW116325   0.741   6.937   2.283
 5142SOL    HW216326   0.777   0.008   2.153
 5143SOL     OW16327   0.279   6.340   2.818
 5143SOL    HW116328   0.354   6.388   2.863
 5143SOL    HW216329   0.268   6.249   2.859
 5144SOL     OW16330   2.313   2.977   5.406
 5144SOL    HW116331   2.220   2.952   5.379
 5144SOL    HW216332   2.356   3.030   5.332
 5145SOL     OW16333   2.248   5.557   5.998
 5145SOL    HW116334   2.274   5.613   6.077
 5145SOL    HW216335   2.196   5.477   6.029
 5146SOL     OW16336   5.504   5.977   6.988
 5146SOL    HW116337   5.475   5.991   6.893
 5146SOL    HW216338   5.521   6.065   0.011
 5147SOL     OW16339   5.294   2.196   3.625
 5147SOL    HW116340   5.239   2.239   3.696
 5147SOL    HW216341   5.239   2.128   3.576
 5148SOL     OW16342   0.063   0.756   6.846
 5148SOL    HW116343   0.084   0.847   6.880
 5148SOL    HW216344   0.136   0.692   6.873
 5149SOL     OW16345   4.221   5.837   4.179
 5149SOL    HW116346   4.123   5.820   4.183
 5149SOL    HW216347   4.270   5.755   4.210
 5150SOL     OW16348   6.299   6.938   3.787
 5150SOL    HW116349   6.333   6.942   3.881
 5150SOL    HW216350   6.377   6.942   3.724
 5151SOL     OW16351   5.605   5.838   2.079
 5151SOL    HW116352   5.539   5.770   2.110
 5151SOL    HW216353   5.610   5.912   2.146
 5152SOL     OW16354   2.297   1.468   0.390
 5152SOL    HW116355   2.268   1.444   0.297
 5152SOL    HW216356   2.317   1.384   0.440
 5153SOL     OW16357   1.533   1.815   0.489
 5153SOL    HW116358   1.586   1.796   0.572
 5153SOL    HW216359   1.518   1.730   0.439
 5154SOL     OW16360   0.581   2.508   0.833
 5154SOL    HW116361   0.654   2.487   0.768
 5154SOL    HW216362   0.557   2.605   0.825
 5155SOL     OW16363   1.700   1.804   0.230
 5155SOL    HW116364   1.676   1.881   0.289
 5155SOL    HW216365   1.651   1.722   0.261
 5156SOL     OW16366   5.815   5.525   5.224
 5156SOL    HW116367   5.864   5.573   5.152
 5156SOL    HW216368   5.775   5.591   5.287
 5157SOL     OW16369   3.674   1.013   1.598
 5157SOL    HW116370   3.740   1.063   1.655
 5157SOL    HW216371   3.637   0.936   1.651
 5158SOL     OW16372   1.474   2.405   2.119
 5158SOL    HW116373   1.446   2.314   2.090
 5158SOL    HW216374   1.570   2.420   2.094
 5159SOL     OW16375   6.051   3.357   5.765
 5159SOL    HW116376   6.046   3.376   5.863
 5159SOL    HW216377   5.960   3.365   5.725
 5160SOL     OW16378   6.454   6.700   3.503
 5160SOL    HW116379   6.358   6.706   3.532
 5160SOL    HW216380   6.490   6.793   3.491
 5161SOL     OW16381   0.786   2.089   0.106
 5161SOL    HW116382   0.773   2.132   0.017
 5161SOL    HW216383   0.855   2.140   0.158
 5162SOL     OW16384   0.331   6.940   5.232
 5162SOL    HW116385   0.306   6.851   5.195
 5162SOL    HW216386   0.425   6.936   5.266
 5163SOL     OW16387   3.246   0.032   1.848
 5163SOL    HW116388   3.202   0.113   1.809
 5163SOL    HW216389   3.203   0.009   1.935
 5164SOL     OW16390   2.501   4.036   0.181
 5164SOL    HW116391   2.546   4.123   0.158
 5164SOL    HW216392   2.423   4.055   0.241
 5165SOL     OW16393   1.390   4.628   5.885
 5165SOL    HW116394   1.425   4.658   5.796
 5165SOL    HW216395   1.387   4.528   5.887
 5166SOL     OW16396   0.248   4.744   0.050
 5166SOL    HW116397   0.247   4.786   6.980
 5166SOL    HW216398   0.292   4.805   0.116
 5167SOL     OW16399   5.298   3.492   5.413
 5167SOL    HW116400   5.267   3.484   5.507
 5167SOL    HW216401   5.229   3.454   5.351
 5168SOL     OW16402   4.289   2.098   3.477
 5168SOL    HW116403   4.244   2.082   3.565
 5168SOL    HW216404   4.243   2.045   3.406
 5169SOL     OW16405   5.267   5.510   4.368
 5169SOL    HW116406   5.286   5.434   4.430
 5169SOL    HW216407   5.234   5.475   4.280
 5170SOL     OW16408   2.261   4.073   6.205
 5170SOL    HW116409   2.267   4.151   6.268
 5170SOL    HW216410   2.296   4.100   6.115
 5171SOL     OW16411   2.178   6.757   5.907
 5171SOL    HW116412   2.255   6.802   5.863
 5171SOL    HW216413   2.144   6.683   5.848
 5172SOL     OW16414   5.934   5.675   5.977
 5172SOL    HW116415   5.894   5.757   5.936
 5172SOL    HW216416   5.975   5.698   6.065
 5173SOL     OW16417   4.712   5.897   5.040
 5173SOL    HW116418   4.716   5.988   4.997
 5173SOL    HW216419   4.707   5.827   4.968
 5174SOL     OW16420   2.140   6.871   2.765
 5174SOL    HW116421   2.228   6.919   2.772
 5174SOL    HW216422   2.112   6.840   2.855
 5175SOL     OW16423   2.529   2.933   6.353
 5175SOL    HW116424   2.486   2.900   6.437
 5175SOL    HW216425   2.587   3.012   6.375
 5176SOL     OW16426   6.289   5.658   6.779
 5176SOL    HW116427   6.291   5.604   6.863
 5176SOL    HW216428   6.226   5.615   6.714
 5177SOL     OW16429   6.121   6.526   0.710
 5177SOL    HW116430   6.042   6.466   0.724
 5177SOL    HW216431   6.179   6.488   0.638
 5178SOL     OW16432   0.627   4.404   1.488
 5178SOL    HW116433   0.573   4.321   1.474
 5178SOL    HW216434   0.597   4.475   1.423
 5179SOL     OW16435   5.367   6.002   3.433
 5179SOL    HW116436   5.447   5.978   3.378
 5179SOL    HW216437   5.296   6.039   3.374
 5180SOL     OW16438   1.191   4.441   2.368
 5180SOL    HW116439   1.116   4.379   2.345
 5180SOL    HW216440   1.210   4.502   2.291
 5181SOL     OW16441   6.462   1.322   5.679
 5181SOL    HW116442   6.396   1.372   5.623
 5181SOL    HW216443   6.442   1.336   5.776
 5182SOL     OW16444   2.216   6.484   2.747
 5182SOL    HW116445   2.133   6.476   2.802
 5182SOL    HW216446   2.192   6.514   2.655
 5183SOL     OW16447   4.359   2.396   3.687
 5183SOL    HW116448   4.449   2.424   3.652
 5183SOL    HW216449   4.299   2.373   3.610
 5184SOL     OW16450   1.716   1.305   3.382
 5184SOL    HW116451   1.621   1.280   3.364
 5184SOL    HW216452   1.737   1.390   3.334
 5185SOL     OW16453   0.109   0.362   2.796
 5185SOL    HW116454   0.161   0.367   2.881
 5185SOL    HW216455   0.068   0.452   2.778
 5186SOL     OW16456   6.318   3.029   6.634
 5186SOL    HW116457   6.280   2.936   6.634
 5186SOL    HW216458   6.331   3.059   6.539
 5187SOL     OW16459   1.137   4.635   4.943
 5187SOL    HW116460   1.223   4.614   4.990
 5187SOL    HW216461   1.080   4.693   5.002
 5188SOL     OW16462   6.299   0.192   2.694
 5188SOL    HW116463   6.273   0.109   2.645
 5188SOL    HW216464   6.340   0.257   2.629
 5189SOL     OW16465   4.568   6.257   6.873
 5189SOL    HW116466   4.476   6.292   6.855
 5189SOL    HW216467   4.593   6.191   6.802
 5190SOL     OW16468   2.024   4.494   0.257
 5190SOL    HW116469   1.987   4.408   0.223
 5190SOL    HW216470   2.025   4.561   0.183
 5191SOL     OW16471   2.401   4.531   1.839
 5191SOL    HW116472   2.474   4.533   1.770
 5191SOL    HW216473   2.424   4.594   1.913
 5192SOL     OW16474   0.717   5.160   2.492
 5192SOL    HW116475   0.804   5.167   2.443
 5192SOL    HW216476   0.711   5.234   2.560
 5193SOL     OW16477   5.056   0.799   5.432
 5193SOL    HW116478   4.979   0.778   5.370
 5193SOL    HW216479   5.140   0.808   5.379
 5194SOL     OW16480   4.612   1.352   5.349
 5194SOL    HW116481   4.551   1.305   5.286
 5194SOL    HW216482   4.628   1.295   5.430
 5195SOL     OW16483   0.760   0.403   5.476
 5195SOL    HW116484   0.713   0.471   5.533
 5195SOL    HW216485   0.692   0.343   5.434
 5196SOL     OW16486   5.152   6.726   3.495
 5196SOL    HW116487   5.180   6.630   3.499
 5196SOL    HW216488   5.116   6.747   3.404
 5197SOL     OW16489   1.225   2.912   5.003
 5197SOL    HW116490   1.287   2.847   5.048
 5197SOL    HW216491   1.135   2.907   5.047
 5198SOL     OW16492   5.836   5.152   2.855
 5198SOL    HW116493   5.774   5.133   2.780
 5198SOL    HW216494   5.807   5.235   2.903
 5199SOL     OW16495   0.056   4.709   0.749
 5199SOL    HW116496   0.022   4.747   0.835
 5199SOL    HW216497   0.117   4.774   0.705
 5200SOL     OW16498   6.463   3.763   5.425
 5200SOL    HW116499   6.546   3.819   5.425
 5200SOL    HW216500   6.488   3.666   5.436
 5201SOL     OW16501   0.438   5.871   4.487
 5201SOL    HW116502   0.462   5.847   4.393
 5201SOL    HW216503   0.470   5.799   4.549
 5202SOL     OW16504   1.015   4.546   1.758
 5202SOL    HW116505   0.963   4.584   1.682
 5202SOL    HW216506   0.995   4.448   1.767
 5203SOL     OW16507   6.230   2.774   6.645
 5203SOL    HW116508   6.153   2.769   6.708
 5203SOL    HW216509   6.255   2.682   6.615
 5204SOL     OW16510   4.637   4.868   6.434
 5204SOL    HW116511   4.560   4.897   6.492
 5204SOL    HW216512   4.656   4.939   6.366
 5205SOL     OW16513   1.351   0.091   6.851
 5205SOL    HW116514   1.255   0.072   6.829
 5205SOL    HW216515   1.399   0.005   6.868
 5206SOL     OW16516   0.461   3.804   5.485
 5206SOL    HW116517   0.458   3.753   5.399
 5206SOL    HW216518   0.555   3.810   5.517
 5207SOL     OW16519   1.983   4.428   3.579
 5207SOL    HW116520   1.954   4.417   3.675
 5207SOL    HW216521   1.999   4.338   3.539
 5208SOL     OW16522   4.796   0.758   6.723
 5208SOL    HW116523   4.804   0.824   6.798
 5208SOL    HW216524   4.723   0.788   6.661
 5209SOL     OW16525   6.237   5.808   3.422
 5209SOL    HW116526   6.310   5.877   3.417
 5209SOL    HW216527   6.216   5.776   3.330
 5210SOL     OW16528   4.898   4.074   2.910
 5210SOL    HW116529   4.884   3.976   2.896
 5210SOL    HW216530   4.979   4.088   2.967
 5211SOL     OW16531   3.299   4.090   2.217
 5211SOL    HW116532   3.254   4.070   2.305
 5211SOL    HW216533   3.397   4.102   2.232
 5212SOL     OW16534   1.128   0.531   0.308
 5212SOL    HW116535   1.226   0.531   0.327
 5212SOL    HW216536   1.076   0.538   0.393
 5213SOL     OW16537   4.270   2.442   6.257
 5213SOL    HW116538   4.346   2.405   6.311
 5213SOL    HW216539   4.287   2.426   6.160
 5214SOL     OW16540   5.401   1.716   0.089
 5214SOL    HW116541   5.303   1.729   0.075
 5214SOL    HW216542   5.445   1.805   0.102
 5215SOL     OW16543   5.585   5.175   2.704
 5215SOL    HW116544   5.577   5.075   2.713
 5215SOL    HW216545   5.535   5.219   2.778
 5216SOL     OW16546   4.627   5.720   1.374
 5216SOL    HW116547   4.708   5.727   1.314
 5216SOL    HW216548   4.545   5.717   1.317
 5217SOL     OW16549   2.923   5.080   3.757
 5217SOL    HW116550   2.918   5.072   3.658
 5217SOL    HW216551   2.952   4.992   3.796
 5218SOL     OW16552   1.913   0.288   4.423
 5218SOL    HW116553   1.852   0.358   4.383
 5218SOL    HW216554   1.955   0.235   4.349
 5219SOL     OW16555   2.309   6.475   0.766
 5219SOL    HW116556   2.252   6.394   0.780
 5219SOL    HW216557   2.359   6.495   0.850
 5220SOL     OW16558   1.513   0.154   1.894
 5220SOL    HW116559   1.511   0.098   1.977
 5220SOL    HW216560   1.431   0.210   1.890
 5221SOL     OW16561   4.550   1.484   5.796
 5221SOL    HW116562   4.547   1.584   5.801
 5221SOL    HW216563   4.629   1.456   5.742
 5222SOL     OW16564   0.702   0.060   3.041
 5222SOL    HW116565   0.753   0.042   3.126
 5222SOL    HW216566   0.702   6.999   2.984
 5223SOL     OW16567   4.973   6.621   0.911
 5223SOL    HW116568   5.018   6.681   0.845
 5223SOL    HW216569   5.029   6.540   0.926
 5224SOL     OW16570   5.143   1.338   2.947
 5224SOL    HW116571   5.133   1.255   3.003
 5224SOL    HW216572   5.239   1.367   2.949
 5225SOL     OW16573   6.143   6.580   5.657
 5225SOL    HW116574   6.204   6.502   5.646
 5225SOL    HW216575   6.048   6.550   5.644
 5226SOL     OW16576   2.350   6.606   3.983
 5226SOL    HW116577   2.314   6.680   4.039
 5226SOL    HW216578   2.319   6.616   3.889
 5227SOL     OW16579   5.228   3.217   3.441
 5227SOL    HW116580   5.129   3.234   3.446
 5227SOL    HW216581   5.244   3.130   3.395
 5228SOL     OW16582   5.311   0.810   1.048
 5228SOL    HW116583   5.293   0.778   0.955
 5228SOL    HW216584   5.316   0.732   1.110
 5229SOL     OW16585   1.008   4.600   3.900
 5229SOL    HW116586   1.084   4.630   3.958
 5229SOL    HW216587   0.949   4.538   3.951
 5230SOL     OW16588   1.174   6.235   6.173
 5230SOL    HW116589   1.130   6.303   6.115
 5230SOL    HW216590   1.224   6.282   6.246
 5231SOL     OW16591   3.779   3.532   3.124
 5231SOL    HW116592   3.794   3.630   3.107
 5231SOL    HW216593   3.842   3.500   3.194
 5232SOL     OW16594   5.014   2.980   5.222
 5232SOL    HW116595   5.027   2.901   5.162
 5232SOL    HW216596   5.032   3.064   5.171
 5233SOL     OW16597   0.515   0.404   2.993
 5233SOL    HW116598   0.502   0.479   3.058
 5233SOL    HW216599   0.604   0.361   3.009
 5234SOL     OW16600   4.161   5.679   1.391
 5234SOL    HW116601   4.076   5.719   1.358
 5234SOL    HW216602   4.219   5.752   1.428
 5235SOL     OW16603   1.056   3.567   1.002
 5235SOL    HW116604   1.141   3.619   0.992
 5235SOL    HW216605   1.070   3.474   0.968
 5236SOL     OW16606   5.599   3.170   0.982
 5236SOL    HW116607   5.562   3.249   1.032
 5236SOL    HW216608   5.527   3.103   0.968
 5237SOL     OW16609   2.213   1.753   4.038
 5237SOL    HW116610   2.146   1.680   4.022
 5237SOL    HW216611   2.191   1.799   4.124
 5238SOL     OW16612   2.121   4.013   1.059
 5238SOL    HW116613   2.058   4.080   1.018
 5238SOL    HW216614   2.072   3.927   1.074
 5239SOL     OW16615   3.160   3.250   5.101
 5239SOL    HW116616   3.074   3.291   5.131
 5239SOL    HW216617   3.179   3.168   5.155
 5240SOL     OW16618   2.534   1.787   5.187
 5240SOL    HW116619   2.569   1.874   5.155
 5240SOL    HW216620   2.563   1.772   5.282
 5241SOL     OW16621   2.925   5.912   5.937
 5241SOL    HW116622   3.023   5.895   5.926
 5241SOL    HW216623   2.899   5.901   6.033
 5242SOL     OW16624   4.472   0.602   5.675
 5242SOL    HW116625   4.453   0.539   5.750
 5242SOL    HW216626   4.550   0.569   5.622
 5243SOL     OW16627   0.726   4.064   0.584
 5243SOL    HW116628   0.635   4.049   0.546
 5243SOL    HW216629   0.740   4.162   0.597
 5244SOL     OW16630   6.150   3.518   6.799
 5244SOL    HW116631   6.106   3.560   6.878
 5244SOL    HW216632   6.080   3.496   6.730
 5245SOL     OW16633   4.620   4.446   6.763
 5245SOL    HW116634   4.636   4.348   6.766
 5245SOL    HW216635   4.608   4.475   6.668
 5246SOL     OW16636   0.809   3.475   2.804
 5246SOL    HW116637   0.896   3.432   2.829
 5246SOL    HW216638   0.763   3.508   2.886
 5247SOL     OW16639   0.184   5.089   0.848
 5247SOL    HW116640   0.267   5.060   0.896
 5247SOL    HW216641   0.137   5.159   0.901
 5248SOL     OW16642   4.910   0.230   6.811
 5248SOL    HW116643   4.963   0.295   6.865
 5248SOL    HW216644   4.822   0.270   6.786
 5249SOL     OW16645   1.224   5.324   5.633
 5249SOL    HW116646   1.136   5.355   5.598
 5249SOL    HW216647   1.298   5.357   5.573
 5250SOL     OW16648   0.790   1.446   5.940
 5250SOL    HW116649   0.826   1.517   5.880
 5250SOL    HW216650   0.690   1.449   5.940
 5251SOL     OW16651   0.845   2.764   1.345
 5251SOL    HW116652   0.805   2.727   1.262
 5251SOL    HW216653   0.792   2.734   1.424
 5252SOL     OW16654   4.346   6.599   1.153
 5252SOL    HW116655   4.334   6.674   1.217
 5252SOL    HW216656   4.362   6.514   1.203
 5253SOL     OW16657   5.907   2.782   3.216
 5253SOL    HW116658   5.904   2.803   3.118
 5253SOL    HW216659   5.815   2.765   3.249
 5254SOL     OW16660   4.369   1.072   4.383
 5254SOL    HW116661   4.294   1.138   4.387
 5254SOL    HW216662   4.456   1.121   4.397
 5255SOL     OW16663   3.305   6.388   4.374
 5255SOL    HW116664   3.244   6.461   4.345
 5255SOL    HW216665   3.317   6.392   4.473
 5256SOL     OW16666   5.331   6.615   2.056
 5256SOL    HW116667   5.257   6.667   2.099
 5256SOL    HW216668   5.419   6.661   2.074
 5257SOL     OW16669   3.372   1.040   3.089
 5257SOL    HW116670   3.466   1.010   3.105
 5257SOL    HW216671   3.372   1.133   3.053
 5258SOL     OW16672   5.949   1.980   1.683
 5258SOL    HW116673   5.985   1.951   1.772
 5258SOL    HW216674   5.858   2.020   1.695
 5259SOL     OW16675   5.512   4.305   1.753
 5259SOL    HW116676   5.440   4.238   1.738
 5259SOL    HW216677   5.593   4.259   1.789
 5260SOL     OW16678   5.360   3.313   2.128
 5260SOL    HW116679   5.448   3.327   2.083
 5260SOL    HW216680   5.289   3.359   2.076
 5261SOL     OW16681   2.441   2.592   5.018
 5261SOL    HW116682   2.384   2.658   5.067
 5261SOL    HW216683   2.498   2.542   5.083
 5262SOL     OW16684   2.131   0.177   2.139
 5262SOL    HW116685   2.210   0.238   2.140
 5262SOL    HW216686   2.084   0.182   2.227
 5263SOL     OW16687   0.650   6.313   0.646
 5263SOL    HW116688   0.717   6.383   0.670
 5263SOL    HW216689   0.696   6.238   0.599
 5264SOL     OW16690   0.571   1.949   0.743
 5264SOL    HW116691   0.622   2.009   0.804
 5264SOL    HW216692   0.589   1.853   0.767
 5265SOL     OW16693   5.787   5.272   2.553
 5265SOL    HW116694   5.712   5.248   2.614
 5265SOL    HW216695   5.845   5.342   2.595
 5266SOL     OW16696   1.109   6.467   1.476
 5266SOL    HW116697   1.189   6.520   1.450
 5266SOL    HW216698   1.029   6.528   1.481
 5267SOL     OW16699   5.211   3.774   5.101
 5267SOL    HW116700   5.116   3.778   5.132
 5267SOL    HW216701   5.219   3.706   5.028
 5268SOL     OW16702   5.798   5.261   5.597
 5268SOL    HW116703   5.830   5.167   5.608
 5268SOL    HW216704   5.859   5.310   5.534
 5269SOL     OW16705   1.318   4.460   5.519
 5269SOL    HW116706   1.307   4.385   5.453
 5269SOL    HW216707   1.415   4.474   5.537
 5270SOL     OW16708   6.778   3.032   2.789
 5270SOL    HW116709   6.825   3.065   2.707
 5270SOL    HW216710   6.751   2.936   2.776
 5271SOL     OW16711   5.070   4.121   5.127
 5271SOL    HW116712   4.971   4.122   5.117
 5271SOL    HW216713   5.095   4.094   5.220
 5272SOL     OW16714   1.827   1.226   3.943
 5272SOL    HW116715   1.794   1.318   3.922
 5272SOL    HW216716   1.785   1.161   3.881
 5273SOL     OW16717   0.839   0.646   4.991
 5273SOL    HW116718   0.783   0.718   4.948
 5273SOL    HW216719   0.935   0.674   4.991
 5274SOL     OW16720   6.916   5.515   4.750
 5274SOL    HW116721   6.969   5.472   4.824
 5274SOL    HW216722   6.977   5.571   4.694
 5275SOL     OW16723   1.639   6.140   6.833
 5275SOL    HW116724   1.657   6.232   6.869
 5275SOL    HW216725   1.551   6.107   6.868
 5276SOL     OW16726   0.187   0.102   0.698
 5276SOL    HW116727   0.251   0.169   0.734
 5276SOL    HW216728   0.217   0.010   0.723
 5277SOL     OW16729   1.354   1.504   2.550
 5277SOL    HW116730   1.448   1.481   2.577
 5277SOL    HW216731   1.290   1.464   2.617
 5278SOL     OW16732   0.449   4.050   6.454
 5278SOL    HW116733   0.527   3.996   6.422
 5278SOL    HW216734   0.422   4.018   6.545
 5279SOL     OW16735   2.156   6.627   6.389
 5279SOL    HW116736   2.079   6.692   6.394
 5279SOL    HW216737   2.124   6.536   6.412
 5280SOL     OW16738   4.854   6.620   5.336
 5280SOL    HW116739   4.884   6.673   5.257
 5280SOL    HW216740   4.821   6.682   5.407
 5281SOL     OW16741   2.440   0.000   5.393
 5281SOL    HW116742   2.502   0.048   5.331
 5281SOL    HW216743   2.492   6.957   5.449
 5282SOL     OW16744   0.786   6.516   1.085
 5282SOL    HW116745   0.804   6.419   1.072
 5282SOL    HW216746   0.870   6.568   1.068
 5283SOL     OW16747   0.942   0.794   3.658
 5283SOL    HW116748   0.972   0.788   3.753
 5283SOL    HW216749   1.013   0.757   3.598
 5284SOL     OW16750   4.817   2.924   1.722
 5284SOL    HW116751   4.747   2.961   1.783
 5284SOL    HW216752   4.851   2.837   1.760
 5285SOL     OW16753   1.332   1.982   3.962
 5285SOL    HW116754   1.350   2.071   4.006
 5285SOL    HW216755   1.400   1.966   3.891
 5286SOL     OW16756   5.957   3.238   1.255
 5286SOL    HW116757   5.946   3.323   1.203
 5286SOL    HW216758   6.003   3.257   1.342
 5287SOL     OW16759   2.041   4.939   0.933
 5287SOL    HW116760   1.979   4.898   1.000
 5287SOL    HW216761   1.994   5.013   0.885
 5288SOL     OW16762   4.293   0.738   1.271
 5288SOL    HW116763   4.245   0.781   1.347
 5288SOL    HW216764   4.227   0.693   1.211
 5289SOL     OW16765   2.369   4.805   6.014
 5289SOL    HW116766   2.353   4.734   6.082
 5289SOL    HW216767   2.465   4.835   6.020
 5290SOL     OW16768   1.791   3.375   4.492
 5290SOL    HW116769   1.842   3.391   4.576
 5290SOL    HW216770   1.741   3.458   4.466
 5291SOL     OW16771   2.892   4.821   4.516
 5291SOL    HW116772   2.828   4.884   4.473
 5291SOL    HW216773   2.841   4.749   4.563
 5292SOL     OW16774   0.317   3.644   5.667
 5292SOL    HW116775   0.318   3.710   5.742
 5292SOL    HW216776   0.369   3.681   5.590
 5293SOL     OW16777   2.106   0.446   4.281
 5293SOL    HW116778   2.129   0.492   4.367
 5293SOL    HW216779   2.054   0.363   4.301
 5294SOL     OW16780   4.067   0.293   4.921
 5294SOL    HW116781   4.151   0.327   4.962
 5294SOL    HW216782   4.083   0.202   4.882
 5295SOL     OW16783   2.770   1.563   2.496
 5295SOL    HW116784   2.814   1.508   2.425
 5295SOL    HW216785   2.718   1.504   2.558
 5296SOL     OW16786   4.685   4.907   1.282
 5296SOL    HW116787   4.635   4.934   1.364
 5296SOL    HW216788   4.708   4.809   1.287
 5297SOL     OW16789   3.028   5.389   6.624
 5297SOL    HW116790   3.040   5.473   6.572
 5297SOL    HW216791   2.965   5.406   6.700
 5298SOL     OW16792   2.031   0.575   0.474
 5298SOL    HW116793   1.970   0.630   0.418
 5298SOL    HW216794   2.015   0.478   0.456
 5299SOL     OW16795   2.638   1.573   1.608
 5299SOL    HW116796   2.571   1.499   1.614
 5299SOL    HW216797   2.657   1.607   1.700
 5300SOL     OW16798   3.153   4.763   6.625
 5300SOL    HW116799   3.176   4.770   6.528
 5300SOL    HW216800   3.193   4.840   6.674
 5301SOL     OW16801   5.901   0.031   6.080
 5301SOL    HW116802   5.901   0.015   5.981
 5301SOL    HW216803   5.825   7.001   6.121
 5302SOL     OW16804   5.603   6.169   2.951
 5302SOL    HW116805   5.627   6.080   2.990
 5302SOL    HW216806   5.649   6.242   3.003
 5303SOL     OW16807   1.014   5.140   5.860
 5303SOL    HW116808   1.094   5.089   5.828
 5303SOL    HW216809   1.042   5.232   5.886
 5304SOL     OW16810   7.009   0.616   2.733
 5304SOL    HW116811   7.016   0.685   2.805
 5304SOL    HW216812   6.939   0.644   2.667
 5305SOL     OW16813   0.325   4.762   3.337
 5305SOL    HW116814   0.397   4.694   3.328
 5305SOL    HW216815   0.349   4.829   3.408
 5306SOL     OW16816   0.195   3.164   6.073
 5306SOL    HW116817   0.286   3.172   6.114
 5306SOL    HW216818   0.201   3.189   5.976
 5307SOL     OW16819   6.603   1.290   1.298
 5307SOL    HW116820   6.665   1.356   1.255
 5307SOL    HW216821   6.655   1.213   1.333
 5308SOL     OW16822   1.367   4.222   3.155
 5308SOL    HW116823   1.374   4.270   3.067
 5308SOL    HW216824   1.354   4.124   3.139
 5309SOL     OW16825   6.046   5.488   2.970
 5309SOL    HW116826   6.101   5.405   2.960
 5309SOL    HW216827   6.062   5.529   3.060
 5310SOL     OW16828   5.330   2.507   2.601
 5310SOL    HW116829   5.360   2.436   2.538
 5310SOL    HW216830   5.344   2.597   2.559
 5311SOL     OW16831   5.614   0.353   0.712
 5311SOL    HW116832   5.708   0.354   0.747
 5311SOL    HW216833   5.603   0.277   0.648
 5312SOL     OW16834   0.101   6.656   0.104
 5312SOL    HW116835   0.143   6.688   0.189
 5312SOL    HW216836   0.009   6.695   0.096
 5313SOL     OW16837   1.109   5.865   5.854
 5313SOL    HW116838   1.046   5.900   5.784
 5313SOL    HW216839   1.072   5.783   5.895
 5314SOL     OW16840   6.066   0.912   1.868
 5314SOL    HW116841   6.029   0.901   1.960
 5314SOL    HW216842   6.143   0.849   1.856
 5315SOL     OW16843   4.852   1.459   4.406
 5315SOL    HW116844   4.830   1.394   4.333
 5315SOL    HW216845   4.849   1.412   4.494
 5316SOL     OW16846   0.848   2.293   4.399
 5316SOL    HW116847   0.787   2.356   4.352
 5316SOL    HW216848   0.908   2.248   4.333
 5317SOL     OW16849   6.107   2.566   0.042
 5317SOL    HW116850   6.156   2.499   7.007
 5317SOL    HW216851   6.169   2.604   0.111
 5318SOL     OW16852   6.656   4.071   6.594
 5318SOL    HW116853   6.713   4.012   6.651
 5318SOL    HW216854   6.664   4.043   6.499
 5319SOL     OW16855   4.105   6.647   1.703
 5319SOL    HW116856   4.071   6.596   1.623
 5319SOL    HW216857   4.190   6.605   1.735
 5320SOL     OW16858   3.770   5.719   0.968
 5320SOL    HW116859   3.746   5.622   0.962
 5320SOL    HW216860   3.715   5.763   1.039
 5321SOL     OW16861   1.365   4.612   5.098
 5321SOL    HW116862   1.419   4.531   5.122
 5321SOL    HW216863   1.422   4.693   5.100
 5322SOL     OW16864   5.294   6.539   1.788
 5322SOL    HW116865   5.297   6.605   1.863
 5322SOL    HW216866   5.207   6.547   1.740
 5323SOL     OW16867   4.014   0.813   6.021
 5323SOL    HW116868   4.029   0.806   6.119
 5323SOL    HW216869   4.072   0.747   5.974
 5324SOL     OW16870   2.130   1.462   1.043
 5324SOL    HW116871   2.100   1.461   0.947
 5324SOL    HW216872   2.193   1.385   1.058
 5325SOL     OW16873   2.059   1.816   5.160
 5325SOL    HW116874   2.028   1.722   5.144
 5325SOL    HW216875   1.981   1.878   5.157
 5326SOL     OW16876   6.262   6.464   2.026
 5326SOL    HW116877   6.242   6.539   1.963
 5326SOL    HW216878   6.198   6.468   2.104
 5327SOL     OW16879   6.488   2.662   5.220
 5327SOL    HW116880   6.430   2.664   5.138
 5327SOL    HW216881   6.578   2.628   5.196
 5328SOL     OW16882   4.116   5.183   6.639
 5328SOL    HW116883   4.204   5.166   6.595
 5328SOL    HW216884   4.080   5.271   6.608
 5329SOL     OW16885   1.441   6.700   6.409
 5329SOL    HW116886   1.540   6.708   6.398
 5329SOL    HW216887   1.413   6.747   6.493
 5330SOL     OW16888   2.503   4.310   0.658
 5330SOL    HW116889   2.441   4.234   0.638
 5330SOL    HW216890   2.597   4.282   0.641
 5331SOL     OW16891   6.290   0.864   6.619
 5331SOL    HW116892   6.342   0.906   6.692
 5331SOL    HW216893   6.265   0.770   6.645
 5332SOL     OW16894   0.843   5.070   2.053
 5332SOL    HW116895   0.878   5.096   1.964
 5332SOL    HW216896   0.903   5.001   2.094
 5333SOL     OW16897   0.855   6.245   4.181
 5333SOL    HW116898   0.890   6.339   4.174
 5333SOL    HW216899   0.885   6.193   4.101
 5334SOL     OW16900   2.588   0.548   4.661
 5334SOL    HW116901   2.508   0.490   4.641
 5334SOL    HW216902   2.588   0.626   4.598
 5335SOL     OW16903   6.694   5.691   6.953
 5335SOL    HW116904   6.680   5.694   6.854
 5335SOL    HW216905   6.709   5.596   6.982
 5336SOL     OW16906   1.411   3.906   1.548
 5336SOL    HW116907   1.444   3.812   1.555
 5336SOL    HW216908   1.311   3.906   1.546
 5337SOL     OW16909   5.176   4.286   1.253
 5337SOL    HW116910   5.150   4.346   1.177
 5337SOL    HW216911   5.269   4.308   1.282
 5338SOL     OW16912   6.415   1.995   6.713
 5338SOL    HW116913   6.325   1.985   6.671
 5338SOL    HW216914   6.486   1.981   6.644
 5339SOL     OW16915   6.149   0.889   3.145
 5339SOL    HW116916   6.134   0.982   3.178
 5339SOL    HW216917   6.231   0.852   3.188
 5340SOL     OW16918   5.198   2.283   6.059
 5340SOL    HW116919   5.188   2.378   6.089
 5340SOL    HW216920   5.244   2.230   6.130
 5341SOL     OW16921   4.412   0.028   0.454
 5341SOL    HW116922   4.433   6.970   0.395
 5341SOL    HW216923   4.429   0.113   0.404
 5342SOL     OW16924   2.958   0.700   5.991
 5342SOL    HW116925   2.946   0.638   5.914
 5342SOL    HW216926   3.032   0.764   5.971
 5343SOL     OW16927   3.486   3.877   2.036
 5343SOL    HW116928   3.429   3.915   2.109
 5343SOL    HW216929   3.430   3.822   1.975
 5344SOL     OW16930   2.736   1.920   3.024
 5344SOL    HW116931   2.663   1.950   3.084
 5344SOL    HW216932   2.699   1.896   2.934
 5345SOL     OW16933   4.331   6.475   1.774
 5345SOL    HW116934   4.383   6.392   1.756
 5345SOL    HW216935   4.296   6.473   1.867
 5346SOL     OW16936   2.336   6.619   3.169
 5346SOL    HW116937   2.385   6.584   3.088
 5346SOL    HW216938   2.281   6.546   3.209
 5347SOL     OW16939   0.031   1.849   1.946
 5347SOL    HW116940   0.045   1.775   1.880
 5347SOL    HW216941   6.959   1.887   1.935
 5348SOL     OW16942   6.934   1.068   0.510
 5348SOL    HW116943   6.970   1.017   0.432
 5348SOL    HW216944   6.983   1.155   0.518
 5349SOL     OW16945   6.243   0.699   1.871
 5349SOL    HW116946   6.337   0.671   1.856
 5349SOL    HW216947   6.229   0.722   1.967
 5350SOL     OW16948   2.476   1.126   6.728
 5350SOL    HW116949   2.378   1.107   6.731
 5350SOL    HW216950   2.502   1.177   6.810
 5351SOL     OW16951   4.694   0.847   2.143
 5351SOL    HW116952   4.693   0.750   2.117
 5351SOL    HW216953   4.717   0.854   2.240
 5352SOL     OW16954   3.453   5.937   3.649
 5352SOL    HW116955   3.396   5.934   3.732
 5352SOL    HW216956   3.426   5.862   3.588
 5353SOL     OW16957   5.959   6.989   5.484
 5353SOL    HW116958   6.044   6.937   5.497
 5353SOL    HW216959   5.982   0.061   5.452
 5354SOL     OW16960   0.590   3.828   0.719
 5354SOL    HW116961   0.613   3.834   0.816
 5354SOL    HW216962   0.607   3.916   0.675
 5355SOL     OW16963   4.226   1.992   5.158
 5355SOL    HW116964   4.303   1.944   5.116
 5355SOL    HW216965   4.158   1.925   5.189
 5356SOL     OW16966   6.329   3.550   1.189
 5356SOL    HW116967   6.403   3.594   1.240
 5356SOL    HW216968   6.365   3.471   1.139
 5357SOL     OW16969   3.429   6.596   0.560
 5357SOL    HW116970   3.422   6.657   0.640
 5357SOL    HW216971   3.522   6.602   0.523
 5358SOL     OW16972   4.701   2.870   0.833
 5358SOL    HW116973   4.691   2.776   0.864
 5358SOL    HW216974   4.622   2.924   0.862
 5359SOL     OW16975   1.915   0.898   6.705
 5359SOL    HW116976   1.941   0.986   6.665
 5359SOL    HW216977   1.884   0.836   6.632
 5360SOL     OW16978   3.774   0.034   6.837
 5360SOL    HW116979   3.792   0.120   6.789
 5360SOL    HW216980   3.860   7.010   6.859
 5361SOL     OW16981   1.902   0.581   5.555
 5361SOL    HW116982   1.967   0.643   5.512
 5361SOL    HW216983   1.919   0.577   5.653
 5362SOL     OW16984   4.310   6.151   3.213
 5362SOL    HW116985   4.349   6.091   3.283
 5362SOL    HW216986   4.234   6.203   3.252
 5363SOL     OW16987   0.592   5.157   6.187
 5363SOL    HW116988   0.685   5.129   6.161
 5363SOL    HW216989   0.573   5.127   6.281
 5364SOL     OW16990   0.441   6.093   0.129
 5364SOL    HW116991   0.508   6.089   0.055
 5364SOL    HW216992   0.385   6.175   0.120
 5365SOL     OW16993   3.984   2.001   6.598
 5365SOL    HW116994   3.926   2.051   6.535
 5365SOL    HW216995   4.079   2.004   6.566
 5366SOL     OW16996   4.061   3.560   0.112
 5366SOL    HW116997   4.118   3.596   0.037
 5366SOL    HW216998   4.063   3.460   0.110
 5367SOL     OW16999   0.206   4.505   0.889
 5367SOL    HW117000   0.120   4.548   0.865
 5367SOL    HW217001   0.252   4.473   0.806
 5368SOL     OW17002   6.248   1.423   3.864
 5368SOL    HW117003   6.278   1.328   3.873
 5368SOL    HW217004   6.320   1.484   3.896
 5369SOL     OW17005   1.859   4.097   2.261
 5369SOL    HW117006   1.794   4.096   2.185
 5369SOL    HW217007   1.925   4.172   2.248
 5370SOL     OW17008   4.002   2.784   1.623
 5370SOL    HW117009   4.041   2.857   1.679
 5370SOL    HW217010   3.925   2.820   1.570
 5371SOL     OW17011   1.183   4.036   5.358
 5371SOL    HW117012   1.138   4.048   5.270
 5371SOL    HW217013   1.205   3.940   5.372
 5372SOL     OW17014   2.362   5.192   2.936
 5372SOL    HW117015   2.281   5.139   2.961
 5372SOL    HW217016   2.423   5.136   2.880
 5373SOL     OW17017   2.494   5.087   3.395
 5373SOL    HW117018   2.459   4.994   3.411
 5373SOL    HW217019   2.537   5.091   3.305
 5374SOL     OW17020   3.130   2.031   0.629
 5374SOL    HW117021   3.030   2.021   0.634
 5374SOL    HW217022   3.173   1.952   0.672
 5375SOL     OW17023   1.840   4.654   3.809
 5375SOL    HW117024   1.828   4.675   3.712
 5375SOL    HW217025   1.865   4.558   3.820
 5376SOL     OW17026   2.329   4.122   0.436
 5376SOL    HW117027   2.329   4.086   0.529
 5376SOL    HW217028   2.268   4.202   0.431
 5377SOL     OW17029   0.655   1.799   1.486
 5377SOL    HW117030   0.563   1.768   1.464
 5377SOL    HW217031   0.682   1.765   1.576
 5378SOL     OW17032   4.876   0.094   0.332
 5378SOL    HW117033   4.898   0.185   0.299
 5378SOL    HW217034   4.926   0.075   0.416
 5379SOL     OW17035   0.073   6.463   1.643
 5379SOL    HW117036   0.051   6.499   1.734
 5379SOL    HW217037   0.113   6.535   1.587
 5380SOL     OW17038   2.716   0.295   4.288
 5380SOL    HW117039   2.734   0.379   4.236
 5380SOL    HW217040   2.656   0.235   4.236
 5381SOL     OW17041   5.708   4.041   1.473
 5381SOL    HW117042   5.796   3.994   1.483
 5381SOL    HW217043   5.724   4.139   1.464
 5382SOL     OW17044   1.471   6.994   1.650
 5382SOL    HW117045   1.504   0.031   1.726
 5382SOL    HW217046   1.441   6.906   1.685
 5383SOL     OW17047   2.469   2.222   5.346
 5383SOL    HW117048   2.419   2.181   5.270
 5383SOL    HW217049   2.547   2.164   5.369
 5384SOL     OW17050   5.940   6.731   4.305
 5384SOL    HW117051   5.889   6.692   4.382
 5384SOL    HW217052   5.975   6.658   4.247
 5385SOL     OW17053   3.181   3.953   2.466
 5385SOL    HW117054   3.191   3.957   2.565
 5385SOL    HW217055   3.124   3.875   2.441
 5386SOL     OW17056   5.196   6.974   5.364
 5386SOL    HW117057   5.250   0.032   5.396
 5386SOL    HW217058   5.113   7.007   5.321
 5387SOL     OW17059   2.698   5.473   1.750
 5387SOL    HW117060   2.673   5.447   1.657
 5387SOL    HW217061   2.707   5.572   1.756
 5388SOL     OW17062   5.574   6.982   2.636
 5388SOL    HW117063   5.501   6.914   2.646
 5388SOL    HW217064   5.622   6.992   2.724
 5389SOL     OW17065   4.949   1.980   1.407
 5389SOL    HW117066   5.000   2.053   1.361
 5389SOL    HW217067   4.926   1.908   1.341
 5390SOL     OW17068   5.972   4.886   6.009
 5390SOL    HW117069   5.872   4.880   6.005
 5390SOL    HW217070   6.002   4.872   6.104
 5391SOL     OW17071   2.516   3.150   6.730
 5391SOL    HW117072   2.541   3.065   6.776
 5391SOL    HW217073   2.563   3.227   6.774
 5392SOL     OW17074   6.308   2.968   2.593
 5392SOL    HW117075   6.304   3.005   2.500
 5392SOL    HW217076   6.326   2.869   2.589
 5393SOL     OW17077   5.932   6.862   6.750
 5393SOL    HW117078   5.851   6.854   6.692
 5393SOL    HW217079   5.992   6.935   6.715
 5394SOL     OW17080   1.027   4.195   6.101
 5394SOL    HW117081   0.944   4.139   6.094
 5394SOL    HW217082   1.012   4.283   6.056
 5395SOL     OW17083   4.533   1.227   0.336
 5395SOL    HW117084   4.511   1.324   0.323
 5395SOL    HW217085   4.531   1.204   0.433
 5396SOL     OW17086   5.271   3.165   2.355
 5396SOL    HW117087   5.359   3.195   2.393
 5396SOL    HW217088   5.253   3.214   2.270
 5397SOL     OW17089   6.936   2.977   1.439
 5397SOL    HW117090   6.890   2.899   1.482
 5397SOL    HW217091   7.008   3.011   1.500
 5398SOL     OW17092   3.672   2.931   1.755
 5398SOL    HW117093   3.707   2.845   1.716
 5398SOL    HW217094   3.743   2.975   1.808
 5399SOL     OW17095   1.143   5.472   0.618
 5399SOL    HW117096   1.120   5.478   0.715
 5399SOL    HW217097   1.079   5.410   0.572
 5400SOL     OW17098   2.883   4.706   7.010
 5400SOL    HW117099   2.804   4.738   6.958
 5400SOL    HW217100   2.853   4.649   0.066
 5401SOL     OW17101   6.279   3.220   1.654
 5401SOL    HW117102   6.286   3.124   1.628
 5401SOL    HW217103   6.356   3.271   1.615
 5402SOL     OW17104   1.583   6.275   2.651
 5402SOL    HW117105   1.660   6.329   2.616
 5402SOL    HW217106   1.517   6.335   2.695
 5403SOL     OW17107   6.626   2.940   6.516
 5403SOL    HW117108   6.549   2.984   6.562
 5403SOL    HW217109   6.595   2.857   6.471
 5404SOL     OW17110   1.773   3.339   2.700
 5404SOL    HW117111   1.689   3.387   2.728
 5404SOL    HW217112   1.759   3.241   2.709
 5405SOL     OW17113   6.737   4.476   5.930
 5405SOL    HW117114   6.678   4.430   5.996
 5405SOL    HW217115   6.681   4.522   5.861
 5406SOL     OW17116   1.946   0.053   5.334
 5406SOL    HW117117   1.941   0.129   5.399
 5406SOL    HW217118   1.996   6.997   5.376
 5407SOL     OW17119   3.797   3.596   6.800
 5407SOL    HW117120   3.739   3.602   6.719
 5407SOL    HW217121   3.778   3.673   6.861
 5408SOL     OW17122   2.690   0.992   6.924
 5408SOL    HW117123   2.685   1.066   6.858
 5408SOL    HW217124   2.755   0.923   6.892
 5409SOL     OW17125   3.949   1.054   2.687
 5409SOL    HW117126   3.957   0.973   2.629
 5409SOL    HW217127   4.005   1.128   2.648
 5410SOL     OW17128   2.084   2.364   2.198
 5410SOL    HW117129   2.029   2.354   2.281
 5410SOL    HW217130   2.109   2.273   2.164
 5411SOL     OW17131   0.678   5.180   4.700
 5411SOL    HW117132   0.622   5.097   4.700
 5411SOL    HW217133   0.654   5.236   4.780
 5412SOL     OW17134   6.099   2.819   1.389
 5412SOL    HW117135   6.018   2.792   1.440
 5412SOL    HW217136   6.178   2.766   1.421
 5413SOL     OW17137   2.297   0.040   1.740
 5413SOL    HW117138   2.300   0.026   1.839
 5413SOL    HW217139   2.375   0.096   1.713
 5414SOL     OW17140   3.887   0.835   5.776
 5414SOL    HW117141   3.857   0.925   5.743
 5414SOL    HW217142   3.914   0.843   5.872
 5415SOL     OW17143   5.858   4.988   2.123
 5415SOL    HW117144   5.947   4.985   2.168
 5415SOL    HW217145   5.793   5.035   2.183
 5416SOL     OW17146   4.543   5.503   4.308
 5416SOL    HW117147   4.608   5.538   4.240
 5416SOL    HW217148   4.561   5.406   4.324
 5417SOL     OW17149   3.161   6.855   5.353
 5417SOL    HW117150   3.129   6.929   5.413
 5417SOL    HW217151   3.189   6.894   5.265
 5418SOL     OW17152   3.538   0.114   3.003
 5418SOL    HW117153   3.587   0.144   3.085
 5418SOL    HW217154   3.544   0.014   2.996
 5419SOL     OW17155   3.155   3.756   6.402
 5419SOL    HW117156   3.133   3.838   6.349
 5419SOL    HW217157   3.072   3.700   6.412
 5420SOL     OW17158   1.363   1.633   2.897
 5420SOL    HW117159   1.403   1.709   2.846
 5420SOL    HW217160   1.290   1.591   2.843
 5421SOL     OW17161   1.471   3.644   1.625
 5421SOL    HW117162   1.424   3.560   1.653
 5421SOL    HW217163   1.542   3.666   1.692
 5422SOL     OW17164   2.352   4.015   0.684
 5422SOL    HW117165   2.255   3.988   0.690
 5422SOL    HW217166   2.390   4.022   0.776
 5423SOL     OW17167   5.908   3.997   6.191
 5423SOL    HW117168   5.851   3.925   6.151
 5423SOL    HW217169   5.882   4.012   6.286
 5424SOL     OW17170   5.501   4.190   5.197
 5424SOL    HW117171   5.574   4.164   5.133
 5424SOL    HW217172   5.455   4.108   5.230
 5425SOL     OW17173   5.019   0.501   4.626
 5425SOL    HW117174   4.952   0.551   4.571
 5425SOL    HW217175   5.023   0.406   4.595
 5426SOL     OW17176   6.715   0.198   5.638
 5426SOL    HW117177   6.675   0.219   5.549
 5426SOL    HW217178   6.643   0.178   5.703
 5427SOL     OW17179   4.337   6.055   6.827
 5427SOL    HW117180   4.310   6.151   6.832
 5427SOL    HW217181   4.256   5.998   6.814
 5428SOL     OW17182   1.037   0.646   6.655
 5428SOL    HW117183   1.073   0.568   6.707
 5428SOL    HW217184   1.095   0.726   6.670
 5429SOL     OW17185   1.741   2.716   6.982
 5429SOL    HW117186   1.649   2.682   7.003
 5429SOL    HW217187   1.808   2.659   0.009
 5430SOL     OW17188   2.480   2.512   5.873
 5430SOL    HW117189   2.423   2.528   5.954
 5430SOL    HW217190   2.453   2.575   5.800
 5431SOL     OW17191   3.852   5.824   4.617
 5431SOL    HW117192   3.880   5.920   4.608
 5431SOL    HW217193   3.752   5.819   4.623
 5432SOL     OW17194   5.540   6.222   1.335
 5432SOL    HW117195   5.520   6.127   1.311
 5432SOL    HW217196   5.471   6.256   1.400
 5433SOL     OW17197   0.159   1.720   4.090
 5433SOL    HW117198   0.124   1.721   4.184
 5433SOL    HW217199   0.192   1.811   4.066
 5434SOL     OW17200   2.998   6.903   5.769
 5434SOL    HW117201   3.084   6.860   5.798
 5434SOL    HW217202   3.011   6.944   5.679
 5435SOL     OW17203   4.286   1.163   1.951
 5435SOL    HW117204   4.318   1.199   1.864
 5435SOL    HW217205   4.355   1.099   1.987
 5436SOL     OW17206   5.446   4.130   2.376
 5436SOL    HW117207   5.399   4.214   2.401
 5436SOL    HW217208   5.518   4.151   2.309
 5437SOL     OW17209   3.065   3.457   6.509
 5437SOL    HW117210   3.126   3.477   6.586
 5437SOL    HW217211   3.083   3.365   6.475
 5438SOL     OW17212   6.446   1.751   1.370
 5438SOL    HW117213   6.442   1.673   1.433
 5438SOL    HW217214   6.521   1.737   1.306
 5439SOL     OW17215   1.279   2.362   1.576
 5439SOL    HW117216   1.355   2.332   1.519
 5439SOL    HW217217   1.314   2.412   1.656
 5440SOL     OW17218   1.577   2.072   0.929
 5440SOL    HW117219   1.602   2.080   0.832
 5440SOL    HW217220   1.660   2.056   0.983
 5441SOL     OW17221   3.779   1.834   4.072
 5441SOL    HW117222   3.798   1.736   4.085
 5441SOL    HW217223   3.710   1.845   4.001
 5442SOL     OW17224   3.815   0.490   2.870
 5442SOL    HW117225   3.867   0.424   2.816
 5442SOL    HW217226   3.878   0.552   2.917
 5443SOL     OW17227   3.310   6.698   5.054
 5443SOL    HW117228   3.309   6.604   5.086
 5443SOL    HW217229   3.237   6.711   4.987
 5444SOL     OW17230   0.084   0.043   3.386
 5444SOL    HW117231   0.107   6.969   3.410
 5444SOL    HW217232   0.102   0.058   3.289
 5445SOL     OW17233   5.489   3.888   2.183
 5445SOL    HW117234   5.439   3.935   2.256
 5445SOL    HW217235   5.427   3.828   2.133
 5446SOL     OW17236   6.433   5.420   5.604
 5446SOL    HW117237   6.432   5.458   5.697
 5446SOL    HW217238   6.504   5.349   5.599
 5447SOL     OW17239   3.323   1.849   0.313
 5447SOL    HW117240   3.309   1.853   0.412
 5447SOL    HW217241   3.255   1.787   0.272
 5448SOL     OW17242   5.793   2.342   5.750
 5448SOL    HW117243   5.758   2.421   5.700
 5448SOL    HW217244   5.870   2.370   5.808
 5449SOL     OW17245   0.785   3.722   6.559
 5449SOL    HW117246   0.800   3.715   6.658
 5449SOL    HW217247   0.811   3.813   6.528
 5450SOL     OW17248   1.893   6.833   0.819
 5450SOL    HW117249   1.963   6.877   0.762
 5450SOL    HW217250   1.935   6.757   0.870
 5451SOL     OW17251   1.289   0.245   2.333
 5451SOL    HW117252   1.221   0.247   2.259
 5451SOL    HW217253   1.247   0.209   2.416
 5452SOL     OW17254   3.009   3.773   5.792
 5452SOL    HW117255   2.953   3.740   5.868
 5452SOL    HW217256   2.954   3.831   5.733
 5453SOL     OW17257   6.203   5.077   6.666
 5453SOL    HW117258   6.154   5.092   6.752
 5453SOL    HW217259   6.137   5.065   6.591
 5454SOL     OW17260   0.268   4.319   6.540
 5454SOL    HW117261   0.282   4.311   6.441
 5454SOL    HW217262   0.181   4.275   6.565
 5455SOL     OW17263   6.419   3.252   1.318
 5455SOL    HW117264   6.476   3.232   1.398
 5455SOL    HW217265   6.369   3.169   1.292
 5456SOL     OW17266   3.710   6.658   0.855
 5456SOL    HW117267   3.776   6.704   0.796
 5456SOL    HW217268   3.617   6.682   0.827
 5457SOL     OW17269   6.123   3.695   0.480
 5457SOL    HW117270   6.115   3.597   0.463
 5457SOL    HW217271   6.177   3.737   0.407
 5458SOL     OW17272   2.413   4.159   6.606
 5458SOL    HW117273   2.507   4.146   6.575
 5458SOL    HW217274   2.405   4.127   6.700
 5459SOL     OW17275   2.195   5.108   6.016
 5459SOL    HW117276   2.292   5.088   6.001
 5459SOL    HW217277   2.175   5.202   5.989
 5460SOL     OW17278   3.488   0.664   1.260
 5460SOL    HW117279   3.510   0.747   1.210
 5460SOL    HW217280   3.564   0.640   1.321
 5461SOL     OW17281   4.297   0.089   5.234
 5461SOL    HW117282   4.354   0.160   5.276
 5461SOL    HW217283   4.315   0.085   5.136
 5462SOL     OW17284   1.219   0.375   1.286
 5462SOL    HW117285   1.298   0.331   1.328
 5462SOL    HW217286   1.213   0.349   1.190
 5463SOL     OW17287   0.133   2.871   0.535
 5463SOL    HW117288   0.164   2.953   0.582
 5463SOL    HW217289   0.035   2.877   0.516
 5464SOL     OW17290   2.040   0.095   4.248
 5464SOL    HW117291   2.096   0.060   4.173
 5464SOL    HW217292   2.076   0.062   4.335
 5465SOL     OW17293   2.747   6.746   5.737
 5465SOL    HW117294   2.824   6.810   5.743
 5465SOL    HW217295   2.722   6.715   5.829
 5466SOL     OW17296   4.727   4.218   4.601
 5466SOL    HW117297   4.709   4.305   4.555
 5466SOL    HW217298   4.715   4.142   4.537
 5467SOL     OW17299   5.958   1.860   1.940
 5467SOL    HW117300   5.886   1.807   1.985
 5467SOL    HW217301   6.030   1.798   1.909
 5468SOL     OW17302   4.282   1.619   5.357
 5468SOL    HW117303   4.381   1.625   5.370
 5468SOL    HW217304   4.241   1.708   5.371
 5469SOL     OW17305   4.337   4.640   6.413
 5469SOL    HW117306   4.420   4.626   6.359
 5469SOL    HW217307   4.349   4.597   6.503
 5470SOL     OW17308   1.426   5.689   3.268
 5470SOL    HW117309   1.399   5.778   3.303
 5470SOL    HW217310   1.520   5.694   3.232
 5471SOL     OW17311   6.203   5.289   2.217
 5471SOL    HW117312   6.210   5.204   2.165
 5471SOL    HW217313   6.258   5.281   2.300
 5472SOL     OW17314   3.814   5.001   5.491
 5472SOL    HW117315   3.752   5.059   5.543
 5472SOL    HW217316   3.891   4.975   5.550
 5473SOL     OW17317   1.411   3.413   3.498
 5473SOL    HW117318   1.396   3.349   3.423
 5473SOL    HW217319   1.486   3.474   3.476
 5474SOL     OW17320   2.345   6.193   3.413
 5474SOL    HW117321   2.421   6.241   3.457
 5474SOL    HW217322   2.376   6.104   3.379
 5475SOL     OW17323   3.099   2.498   1.504
 5475SOL    HW117324   3.144   2.471   1.589
 5475SOL    HW217325   3.159   2.477   1.426
 5476SOL     OW17326   1.050   3.416   5.967
 5476SOL    HW117327   1.138   3.437   6.009
 5476SOL    HW217328   1.046   3.455   5.875
 5477SOL     OW17329   2.150   3.094   2.282
 5477SOL    HW117330   2.216   3.022   2.299
 5477SOL    HW217331   2.111   3.125   2.369
 5478SOL     OW17332   6.730   6.084   6.177
 5478SOL    HW117333   6.787   6.086   6.259
 5478SOL    HW217334   6.716   5.989   6.149
 5479SOL     OW17335   4.641   0.759   4.855
 5479SOL    HW117336   4.680   0.669   4.835
 5479SOL    HW217337   4.644   0.815   4.772
 5480SOL     OW17338   0.044   3.659   4.751
 5480SOL    HW117339   0.108   3.678   4.677
 5480SOL    HW217340   0.058   3.565   4.784
 5481SOL     OW17341   4.764   6.629   4.357
 5481SOL    HW117342   4.744   6.533   4.379
 5481SOL    HW217343   4.795   6.636   4.262
 5482SOL     OW17344   1.539   4.439   1.571
 5482SOL    HW117345   1.479   4.392   1.635
 5482SOL    HW217346   1.484   4.483   1.500
 5483SOL     OW17347   0.563   2.946   6.104
 5483SOL    HW117348   0.504   2.938   6.024
 5483SOL    HW217349   0.534   2.880   6.174
 5484SOL     OW17350   4.578   0.227   5.025
 5484SOL    HW117351   4.638   0.219   4.945
 5484SOL    HW217352   4.608   0.303   5.083
 5485SOL     OW17353   2.968   0.297   4.698
 5485SOL    HW117354   2.909   0.257   4.768
 5485SOL    HW217355   2.912   0.331   4.623
 5486SOL     OW17356   2.345   5.521   5.041
 5486SOL    HW117357   2.329   5.516   5.140
 5486SOL    HW217358   2.391   5.438   5.010
 5487SOL     OW17359   3.030   5.272   5.596
 5487SOL    HW117360   3.050   5.265   5.498
 5487SOL    HW217361   3.095   5.215   5.647
 5488SOL     OW17362   5.313   2.481   0.908
 5488SOL    HW117363   5.348   2.405   0.963
 5488SOL    HW217364   5.333   2.463   0.811
 5489SOL     OW17365   6.659   3.798   3.269
 5489SOL    HW117366   6.648   3.703   3.241
 5489SOL    HW217367   6.748   3.809   3.314
 5490SOL     OW17368   1.479   6.153   3.004
 5490SOL    HW117369   1.538   6.075   2.987
 5490SOL    HW217370   1.398   6.148   2.946
 5491SOL     OW17371   6.608   4.157   0.785
 5491SOL    HW117372   6.599   4.133   0.882
 5491SOL    HW217373   6.652   4.246   0.777
 5492SOL     OW17374   6.983   1.850   5.842
 5492SOL    HW117375   6.912   1.785   5.870
 5492SOL    HW217376   0.036   1.850   5.910
 5493SOL     OW17377   3.615   3.958   0.922
 5493SOL    HW117378   3.525   3.924   0.897
 5493SOL    HW217379   3.667   3.886   0.968
 5494SOL     OW17380   5.954   3.700   5.649
 5494SOL    HW117381   5.909   3.780   5.609
 5494SOL    HW217382   6.053   3.710   5.640
 5495SOL     OW17383   5.763   6.713   0.393
 5495SOL    HW117384   5.751   6.804   0.353
 5495SOL    HW217385   5.850   6.709   0.442
 5496SOL     OW17386   3.759   0.248   4.330
 5496SOL    HW117387   3.713   0.194   4.259
 5496SOL    HW217388   3.748   0.345   4.310
 5497SOL     OW17389   0.925   0.522   5.283
 5497SOL    HW117390   0.877   0.460   5.345
 5497SOL    HW217391   0.890   0.615   5.295
 5498SOL     OW17392   0.606   5.823   0.889
 5498SOL    HW117393   0.563   5.884   0.823
 5498SOL    HW217394   0.697   5.858   0.913
 5499SOL     OW17395   1.662   6.888   4.702
 5499SOL    HW117396   1.751   6.918   4.669
 5499SOL    HW217397   1.604   6.862   4.624
 5500SOL     OW17398   2.841   0.477   0.961
 5500SOL    HW117399   2.907   0.458   1.034
 5500SOL    HW217400   2.757   0.514   1.001
 5501SOL     OW17401   3.308   3.984   6.842
 5501SOL    HW117402   3.238   4.047   6.810
 5501SOL    HW217403   3.350   3.938   6.763
 5502SOL     OW17404   4.674   3.087   6.931
 5502SOL    HW117405   4.692   3.002   6.882
 5502SOL    HW217406   4.676   3.071   0.009
 5503SOL     OW17407   6.086   3.429   1.022
 5503SOL    HW117408   6.073   3.331   1.006
 5503SOL    HW217409   6.085   3.478   0.934
 5504SOL     OW17410   3.658   1.728   0.088
 5504SOL    HW117411   3.676   1.807   0.029
 5504SOL    HW217412   3.577   1.679   0.054
 5505SOL     OW17413   3.196   4.941   3.464
 5505SOL    HW117414   3.098   4.944   3.483
 5505SOL    HW217415   3.246   4.940   3.551
 5506SOL     OW17416   0.116   3.233   5.795
 5506SOL    HW117417   0.165   3.188   5.721
 5506SOL    HW217418   0.124   3.332   5.785
 5507SOL     OW17419   3.529   0.150   6.583
 5507SOL    HW117420   3.510   0.199   6.668
 5507SOL    HW217421   3.496   0.056   6.590
 5508SOL     OW17422   6.979   0.821   6.232
 5508SOL    HW117423   6.959   0.746   6.294
 5508SOL    HW217424   6.963   0.793   6.138
 5509SOL     OW17425   6.341   4.673   0.681
 5509SOL    HW117426   6.336   4.574   0.694
 5509SOL    HW217427   6.365   4.693   0.586
 5510SOL     OW17428   4.785   5.137   0.016
 5510SOL    HW117429   4.785   5.237   0.021
 5510SOL    HW217430   4.879   5.104   0.014
 5511SOL     OW17431   0.471   2.555   5.994
 5511SOL    HW117432   0.374   2.548   6.017
 5511SOL    HW217433   0.506   2.466   5.968
 5512SOL     OW17434   2.405   0.584   2.398
 5512SOL    HW117435   2.452   0.588   2.310
 5512SOL    HW217436   2.342   0.662   2.405
 5513SOL     OW17437   3.804   3.964   0.378
 5513SOL    HW117438   3.746   3.886   0.400
 5513SOL    HW217439   3.776   4.002   0.289
 5514SOL     OW17440   3.374   1.262   0.139
 5514SOL    HW117441   3.282   1.224   0.142
 5514SOL    HW217442   3.382   1.337   0.205
 5515SOL     OW17443   2.924   5.607   2.575
 5515SOL    HW117444   2.934   5.593   2.476
 5515SOL    HW217445   2.982   5.542   2.624
 5516SOL     OW17446   2.132   2.042   5.462
 5516SOL    HW117447   2.159   2.043   5.366
 5516SOL    HW217448   2.215   2.040   5.519
 5517SOL     OW17449   1.359   2.184   3.238
 5517SOL    HW117450   1.422   2.261   3.229
 5517SOL    HW217451   1.317   2.163   3.150
 5518SOL     OW17452   4.688   4.991   6.810
 5518SOL    HW117453   4.756   5.022   6.744
 5518SOL    HW217454   4.709   5.029   6.900
 5519SOL     OW17455   5.145   2.708   4.519
 5519SOL    HW117456   5.154   2.807   4.506
 5519SOL    HW217457   5.230   2.671   4.554
 5520SOL     OW17458   4.958   0.718   1.241
 5520SOL    HW117459   4.902   0.644   1.279
 5520SOL    HW217460   4.924   0.742   1.150
 5521SOL     OW17461   4.765   6.584   2.557
 5521SOL    HW117462   4.827   6.605   2.632
 5521SOL    HW217463   4.806   6.513   2.499
 5522SOL     OW17464   6.242   5.782   0.943
 5522SOL    HW117465   6.294   5.799   1.026
 5522SOL    HW217466   6.304   5.751   0.870
 5523SOL     OW17467   5.653   2.020   0.398
 5523SOL    HW117468   5.626   2.058   0.486
 5523SOL    HW217469   5.706   2.087   0.346
 5524SOL     OW17470   2.666   1.310   3.831
 5524SOL    HW117471   2.657   1.328   3.928
 5524SOL    HW217472   2.762   1.293   3.809
 5525SOL     OW17473   6.178   1.148   1.492
 5525SOL    HW117474   6.217   1.238   1.512
 5525SOL    HW217475   6.120   1.119   1.568
 5526SOL     OW17476   5.537   5.369   3.840
 5526SOL    HW117477   5.530   5.301   3.914
 5526SOL    HW217478   5.600   5.335   3.770
 5527SOL     OW17479   5.850   0.490   3.657
 5527SOL    HW117480   5.884   0.397   3.648
 5527SOL    HW217481   5.836   0.529   3.566
 5528SOL     OW17482   1.131   1.541   6.838
 5528SOL    HW117483   1.134   1.636   6.807
 5528SOL    HW217484   1.062   1.532   6.911
 5529SOL     OW17485   3.674   0.699   2.510
 5529SOL    HW117486   3.596   0.731   2.564
 5529SOL    HW217487   3.708   0.613   2.548
 5530SOL     OW17488   6.801   1.926   1.240
 5530SOL    HW117489   6.873   1.865   1.271
 5530SOL    HW217490   6.757   1.968   1.319
 5531SOL     OW17491   1.878   4.041   1.476
 5531SOL    HW117492   1.883   4.083   1.566
 5531SOL    HW217493   1.924   3.952   1.477
 5532SOL     OW17494   0.821   2.649   6.916
 5532SOL    HW117495   0.807   2.571   6.977
 5532SOL    HW217496   0.763   2.725   6.945
 5533SOL     OW17497   3.392   1.440   2.470
 5533SOL    HW117498   3.441   1.434   2.383
 5533SOL    HW217499   3.405   1.531   2.510
 5534SOL     OW17500   1.464   0.349   4.557
 5534SOL    HW117501   1.460   0.291   4.476
 5534SOL    HW217502   1.495   0.295   4.636
 5535SOL     OW17503   6.975   1.667   2.744
 5535SOL    HW117504   0.019   1.678   2.820
 5535SOL    HW217505   6.884   1.696   2.773
 5536SOL     OW17506   4.577   6.194   4.469
 5536SOL    HW117507   4.488   6.168   4.505
 5536SOL    HW217508   4.648   6.136   4.508
 5537SOL     OW17509   3.127   2.120   3.939
 5537SOL    HW117510   3.111   2.166   4.026
 5537SOL    HW217511   3.091   2.027   3.943
 5538SOL     OW17512   4.862   4.806   4.577
 5538SOL    HW117513   4.829   4.853   4.659
 5538SOL    HW217514   4.853   4.707   4.589
 5539SOL     OW17515   2.626   4.810   6.993
 5539SOL    HW117516   2.596   4.842   6.903
 5539SOL    HW217517   2.663   4.886   0.025
 5540SOL     OW17518   4.484   5.369   2.492
 5540SOL    HW117519   4.497   5.438   2.562
 5540SOL    HW217520   4.390   5.372   2.458
 5541SOL     OW17521   4.590   1.485   6.129
 5541SOL    HW117522   4.532   1.488   6.047
 5541SOL    HW217523   4.598   1.390   6.160
 5542SOL     OW17524   5.287   4.408   6.802
 5542SOL    HW117525   5.283   4.385   6.705
 5542SOL    HW217526   5.283   4.507   6.814
 5543SOL     OW17527   0.211   2.295   5.623
 5543SOL    HW117528   0.270   2.226   5.581
 5543SOL    HW217529   0.125   2.301   5.572
 5544SOL     OW17530   6.008   0.823   6.889
 5544SOL    HW117531   6.050   0.829   6.980
 5544SOL    HW217532   6.066   0.869   6.822
 5545SOL     OW17533   2.784   2.568   1.723
 5545SOL    HW117534   2.815   2.497   1.786
 5545SOL    HW217535   2.862   2.625   1.696
 5546SOL     OW17536   4.017   4.801   5.867
 5546SOL    HW117537   3.961   4.735   5.917
 5546SOL    HW217538   4.033   4.768   5.774
 5547SOL     OW17539   3.374   5.563   3.966
 5547SOL    HW117540   3.434   5.488   3.993
 5547SOL    HW217541   3.427   5.647   3.959
 5548SOL     OW17542   0.547   2.343   4.606
 5548SOL    HW117543   0.615   2.366   4.537
 5548SOL    HW217544   0.503   2.426   4.638
 5549SOL     OW17545   3.645   5.213   0.098
 5549SOL    HW117546   3.618   5.237   0.004
 5549SOL    HW217547   3.606   5.124   0.122
 5550SOL     OW17548   2.742   6.525   2.392
 5550SOL    HW117549   2.736   6.614   2.438
 5550SOL    HW217550   2.830   6.482   2.412
 5551SOL     OW17551   0.754   1.136   2.979
 5551SOL    HW117552   0.794   1.045   2.970
 5551SOL    HW217553   0.730   1.153   3.074
 5552SOL     OW17554   0.942   2.608   2.109
 5552SOL    HW117555   0.975   2.631   2.201
 5552SOL    HW217556   1.019   2.601   2.046
 5553SOL     OW17557   4.660   6.402   6.619
 5553SOL    HW117558   4.662   6.496   6.654
 5553SOL    HW217559   4.690   6.339   6.691
 5554SOL     OW17560   3.515   1.042   4.268
 5554SOL    HW117561   3.567   0.965   4.232
 5554SOL    HW217562   3.540   1.125   4.218
 5555SOL     OW17563   0.867   6.006   1.676
 5555SOL    HW117564   0.965   5.992   1.688
 5555SOL    HW217565   0.823   6.009   1.766
 5556SOL     OW17566   0.992   0.839   4.506
 5556SOL    HW117567   1.035   0.793   4.428
 5556SOL    HW217568   1.001   0.781   4.587
 5557SOL     OW17569   2.316   0.572   2.916
 5557SOL    HW117570   2.284   0.657   2.874
 5557SOL    HW217571   2.239   0.525   2.959
 5558SOL     OW17572   5.042   2.667   5.273
 5558SOL    HW117573   5.034   2.705   5.181
 5558SOL    HW217574   4.952   2.642   5.307
 5559SOL     OW17575   2.220   0.691   1.667
 5559SOL    HW117576   2.248   0.722   1.758
 5559SOL    HW217577   2.133   0.735   1.642
 5560SOL     OW17578   6.883   1.381   4.427
 5560SOL    HW117579   6.905   1.286   4.405
 5560SOL    HW217580   6.919   1.404   4.518
 5561SOL     OW17581   1.536   3.548   2.380
 5561SOL    HW117582   1.564   3.550   2.284
 5561SOL    HW217583   1.549   3.638   2.420
 5562SOL     OW17584   2.796   1.826   6.785
 5562SOL    HW117585   2.841   1.914   6.770
 5562SOL    HW217586   2.733   1.808   6.709
 5563SOL     OW17587   4.138   4.072   1.591
 5563SOL    HW117588   4.042   4.085   1.568
 5563SOL    HW217589   4.195   4.105   1.516
 5564SOL     OW17590   5.439   2.389   1.440
 5564SOL    HW117591   5.443   2.409   1.342
 5564SOL    HW217592   5.518   2.332   1.465
 5565SOL     OW17593   2.808   2.795   5.398
 5565SOL    HW117594   2.784   2.892   5.384
 5565SOL    HW217595   2.903   2.780   5.372
 5566SOL     OW17596   2.142   4.330   0.511
 5566SOL    HW117597   2.177   4.343   0.604
 5566SOL    HW217598   2.061   4.387   0.498
 5567SOL     OW17599   1.820   5.250   2.558
 5567SOL    HW117600   1.810   5.347   2.539
 5567SOL    HW217601   1.889   5.236   2.629
 5568SOL     OW17602   3.921   2.488   0.479
 5568SOL    HW117603   3.848   2.554   0.460
 5568SOL    HW217604   3.884   2.395   0.477
 5569SOL     OW17605   4.950   1.937   6.235
 5569SOL    HW117606   4.915   1.893   6.317
 5569SOL    HW217607   5.010   1.874   6.186
 5570SOL     OW17608   1.296   3.374   5.234
 5570SOL    HW117609   1.321   3.332   5.321
 5570SOL    HW217610   1.303   3.473   5.241
 5571SOL     OW17611   6.422   4.371   6.829
 5571SOL    HW117612   6.422   4.277   6.795
 5571SOL    HW217613   6.506   4.388   6.881
 5572SOL     OW17614   0.126   3.416   4.846
 5572SOL    HW117615   0.219   3.418   4.883
 5572SOL    HW217616   0.062   3.390   4.918
 5573SOL     OW17617   0.068   4.004   6.846
 5573SOL    HW117618   0.117   4.083   6.882
 5573SOL    HW217619   7.004   3.990   6.899
 5574SOL     OW17620   1.108   6.903   4.056
 5574SOL    HW117621   1.167   6.912   3.976
 5574SOL    HW217622   1.068   6.811   4.058
 5575SOL     OW17623   0.883   1.323   1.836
 5575SOL    HW117624   0.915   1.362   1.922
 5575SOL    HW217625   0.922   1.231   1.825
 5576SOL     OW17626   5.339   6.286   5.644
 5576SOL    HW117627   5.338   6.352   5.719
 5576SOL    HW217628   5.247   6.276   5.607
 5577SOL     OW17629   2.115   4.437   4.501
 5577SOL    HW117630   2.128   4.443   4.600
 5577SOL    HW217631   2.017   4.431   4.480
 5578SOL     OW17632   3.319   2.048   6.465
 5578SOL    HW117633   3.417   2.040   6.448
 5578SOL    HW217634   3.304   2.084   6.557
 5579SOL     OW17635   4.991   5.152   2.030
 5579SOL    HW117636   4.944   5.223   1.978
 5579SOL    HW217637   4.946   5.140   2.119
 5580SOL     OW17638   5.326   1.221   1.164
 5580SOL    HW117639   5.281   1.230   1.076
 5580SOL    HW217640   5.276   1.273   1.233
 5581SOL     OW17641   2.800   2.510   0.532
 5581SOL    HW117642   2.713   2.467   0.555
 5581SOL    HW217643   2.875   2.448   0.556
 5582SOL     OW17644   3.570   3.008   3.275
 5582SOL    HW117645   3.535   2.944   3.343
 5582SOL    HW217646   3.498   3.073   3.249
 5583SOL     OW17647   4.728   0.471   6.804
 5583SOL    HW117648   4.664   0.491   6.730
 5583SOL    HW217649   4.790   0.549   6.816
 5584SOL     OW17650   5.001   3.412   3.259
 5584SOL    HW117651   4.955   3.432   3.345
 5584SOL    HW217652   5.012   3.313   3.249
 5585SOL     OW17653   0.480   0.265   4.788
 5585SOL    HW117654   0.471   0.198   4.715
 5585SOL    HW217655   0.570   0.255   4.832
 5586SOL     OW17656   2.878   1.128   6.609
 5586SOL    HW117657   2.838   1.184   6.682
 5586SOL    HW217658   2.975   1.148   6.601
 5587SOL     OW17659   3.591   6.500   4.085
 5587SOL    HW117660   3.539   6.415   4.074
 5587SOL    HW217661   3.613   6.513   4.182
 5588SOL     OW17662   4.978   6.510   6.201
 5588SOL    HW117663   4.960   6.413   6.184
 5588SOL    HW217664   4.901   6.550   6.250
 5589SOL     OW17665   2.597   3.780   0.136
 5589SOL    HW117666   2.579   3.876   0.155
 5589SOL    HW217667   2.620   3.768   0.039
 5590SOL     OW17668   6.736   0.343   3.581
 5590SOL    HW117669   6.667   0.279   3.548
 5590SOL    HW217670   6.726   0.355   3.680
 5591SOL     OW17671   5.228   0.281   0.661
 5591SOL    HW117672   5.226   0.326   0.572
 5591SOL    HW217673   5.305   0.315   0.715
 5592SOL     OW17674   1.391   2.642   2.461
 5592SOL    HW117675   1.348   2.679   2.379
 5592SOL    HW217676   1.417   2.546   2.445
 5593SOL     OW17677   2.146   4.494   4.773
 5593SOL    HW117678   2.193   4.415   4.813
 5593SOL    HW217679   2.100   4.545   4.846
 5594SOL     OW17680   2.830   1.516   6.560
 5594SOL    HW117681   2.822   1.600   6.506
 5594SOL    HW217682   2.920   1.513   6.603
 5595SOL     OW17683   0.885   2.961   6.771
 5595SOL    HW117684   0.837   2.944   6.685
 5595SOL    HW217685   0.974   3.004   6.752
 5596SOL     OW17686   4.838   3.056   4.481
 5596SOL    HW117687   4.792   3.094   4.562
 5596SOL    HW217688   4.798   2.966   4.460
 5597SOL     OW17689   6.819   2.011   6.759
 5597SOL    HW117690   6.745   1.951   6.728
 5597SOL    HW217691   6.881   1.960   6.819
 5598SOL     OW17692   6.446   1.675   3.580
 5598SOL    HW117693   6.441   1.659   3.482
 5598SOL    HW217694   6.511   1.749   3.598
 5599SOL     OW17695   5.569   2.616   3.067
 5599SOL    HW117696   5.654   2.637   3.116
 5599SOL    HW217697   5.549   2.691   3.004
 5600SOL     OW17698   2.054   2.951   2.054
 5600SOL    HW117699   2.094   3.018   2.117
 5600SOL    HW217700   1.966   2.984   2.021
 5601SOL     OW17701   5.621   3.319   5.886
 5601SOL    HW117702   5.607   3.224   5.911
 5601SOL    HW217703   5.657   3.370   5.964
 5602SOL     OW17704   6.165   2.051   2.991
 5602SOL    HW117705   6.112   2.027   3.073
 5602SOL    HW217706   6.111   2.112   2.933
 5603SOL     OW17707   3.487   2.312   6.214
 5603SOL    HW117708   3.525   2.229   6.255
 5603SOL    HW217709   3.400   2.335   6.258
 5604SOL     OW17710   1.139   5.992   3.622
 5604SOL    HW117711   1.047   5.955   3.609
 5604SOL    HW217712   1.133   6.090   3.638
 5605SOL     OW17713   4.476   0.466   3.918
 5605SOL    HW117714   4.570   0.484   3.945
 5605SOL    HW217715   4.414   0.526   3.968
 5606SOL     OW17716   4.913   3.136   0.983
 5606SOL    HW117717   4.845   3.128   1.055
 5606SOL    HW217718   4.936   3.045   0.948
 5607SOL     OW17719   6.894   2.461   3.489
 5607SOL    HW117720   6.971   2.427   3.436
 5607SOL    HW217721   6.808   2.435   3.445
 5608SOL     OW17722   5.224   0.742   3.842
 5608SOL    HW117723   5.232   0.828   3.892
 5608SOL    HW217724   5.280   0.672   3.887
 5609SOL     OW17725   6.509   0.915   0.443
 5609SOL    HW117726   6.590   0.931   0.500
 5609SOL    HW217727   6.427   0.941   0.493
 5610SOL     OW17728   5.442   5.928   6.009
 5610SOL    HW117729   5.393   5.969   5.932
 5610SOL    HW217730   5.510   5.992   6.043
 5611SOL     OW17731   6.399   3.928   2.026
 5611SOL    HW117732   6.391   3.829   2.021
 5611SOL    HW217733   6.333   3.971   1.965
 5612SOL     OW17734   4.236   1.940   0.736
 5612SOL    HW117735   4.200   1.963   0.646
 5612SOL    HW217736   4.292   2.015   0.770
 5613SOL     OW17737   6.177   5.261   5.973
 5613SOL    HW117738   6.204   5.348   5.931
 5613SOL    HW217739   6.087   5.270   6.014
 5614SOL     OW17740   4.809   1.889   4.980
 5614SOL    HW117741   4.718   1.919   4.954
 5614SOL    HW217742   4.862   1.967   5.014
 5615SOL     OW17743   0.832   3.108   3.445
 5615SOL    HW117744   0.924   3.146   3.432
 5615SOL    HW217745   0.838   3.025   3.500
 5616SOL     OW17746   1.784   3.320   2.115
 5616SOL    HW117747   1.884   3.312   2.109
 5616SOL    HW217748   1.751   3.272   2.196
 5617SOL     OW17749   1.080   5.343   6.299
 5617SOL    HW117750   1.112   5.328   6.206
 5617SOL    HW217751   1.126   5.424   6.337
 5618SOL     OW17752   4.501   6.960   2.613
 5618SOL    HW117753   4.509   6.868   2.575
 5618SOL    HW217754   4.546   0.005   2.552
 5619SOL     OW17755   3.210   2.941   3.177
 5619SOL    HW117756   3.126   2.989   3.151
 5619SOL    HW217757   3.254   2.904   3.096
 5620SOL     OW17758   4.822   4.369   4.902
 5620SOL    HW117759   4.723   4.367   4.889
 5620SOL    HW217760   4.859   4.277   4.892
 5621SOL     OW17761   1.053   2.512   6.776
 5621SOL    HW117762   1.121   2.550   6.713
 5621SOL    HW217763   0.975   2.575   6.783
 5622SOL     OW17764   4.557   5.623   3.828
 5622SOL    HW117765   4.595   5.695   3.887
 5622SOL    HW217766   4.528   5.546   3.884
 5623SOL     OW17767   4.889   4.923   3.906
 5623SOL    HW117768   4.962   4.872   3.861
 5623SOL    HW217769   4.917   5.018   3.919
 5624SOL     OW17770   4.884   3.973   3.704
 5624SOL    HW117771   4.965   3.947   3.653
 5624SOL    HW217772   4.819   4.019   3.643
 5625SOL     OW17773   2.900   6.535   6.143
 5625SOL    HW117774   2.870   6.622   6.103
 5625SOL    HW217775   2.824   6.471   6.144
 5626SOL     OW17776   1.201   5.136   6.445
 5626SOL    HW117777   1.256   5.197   6.503
 5626SOL    HW217778   1.140   5.191   6.388
 5627SOL     OW17779   1.426   5.350   0.772
 5627SOL    HW117780   1.411   5.434   0.720
 5627SOL    HW217781   1.412   5.271   0.713
 5628SOL     OW17782   1.532   3.368   0.433
 5628SOL    HW117783   1.577   3.377   0.344
 5628SOL    HW217784   1.585   3.414   0.503
 5629SOL     OW17785   6.699   3.656   4.018
 5629SOL    HW117786   6.710   3.755   4.007
 5629SOL    HW217787   6.604   3.631   4.003
 5630SOL     OW17788   1.069   3.485   0.297
 5630SOL    HW117789   1.038   3.536   0.377
 5630SOL    HW217790   1.156   3.441   0.317
 5631SOL     OW17791   3.745   0.613   1.407
 5631SOL    HW117792   3.809   0.540   1.381
 5631SOL    HW217793   3.698   0.588   1.492
 5632SOL     OW17794   4.068   5.970   6.770
 5632SOL    HW117795   4.010   5.889   6.762
 5632SOL    HW217796   4.063   6.023   6.685
 5633SOL     OW17797   1.195   5.725   5.454
 5633SOL    HW117798   1.235   5.634   5.448
 5633SOL    HW217799   1.096   5.718   5.467
 5634SOL     OW17800   2.634   1.004   1.539
 5634SOL    HW117801   2.567   0.973   1.472
 5634SOL    HW217802   2.719   0.954   1.527
 5635SOL     OW17803   3.606   0.810   2.118
 5635SOL    HW117804   3.536   0.878   2.142
 5635SOL    HW217805   3.688   0.856   2.085
 5636SOL     OW17806   5.664   0.381   5.537
 5636SOL    HW117807   5.672   0.473   5.498
 5636SOL    HW217808   5.574   0.343   5.516
 5637SOL     OW17809   5.335   6.906   4.815
 5637SOL    HW117810   5.411   6.905   4.751
 5637SOL    HW217811   5.358   6.963   4.894
 5638SOL     OW17812   6.495   5.054   0.364
 5638SOL    HW117813   6.441   5.130   0.328
 5638SOL    HW217814   6.478   5.044   0.462
 5639SOL     OW17815   3.533   0.882   1.820
 5639SOL    HW117816   3.518   0.785   1.841
 5639SOL    HW217817   3.461   0.936   1.862
 5640SOL     OW17818   2.753   0.040   3.679
 5640SOL    HW117819   2.837   7.007   3.689
 5640SOL    HW217820   2.706   0.046   3.767
 5641SOL     OW17821   6.796   4.377   3.801
 5641SOL    HW117822   6.701   4.351   3.783
 5641SOL    HW217823   6.857   4.301   3.780
 5642SOL     OW17824   1.886   3.113   6.289
 5642SOL    HW117825   1.976   3.102   6.245
 5642SOL    HW217826   1.857   3.208   6.284
 5643SOL     OW17827   6.333   2.469   4.288
 5643SOL    HW117828   6.339   2.567   4.266
 5643SOL    HW217829   6.302   2.419   4.207
 5644SOL     OW17830   4.113   0.464   5.656
 5644SOL    HW117831   4.141   0.391   5.595
 5644SOL    HW217832   4.039   0.432   5.715
 5645SOL     OW17833   5.944   6.574   3.598
 5645SOL    HW117834   5.962   6.480   3.568
 5645SOL    HW217835   5.847   6.596   3.584
 5646SOL     OW17836   6.545   6.715   3.827
 5646SOL    HW117837   6.629   6.704   3.775
 5646SOL    HW217838   6.522   6.629   3.873
 5647SOL     OW17839   0.031   4.200   6.591
 5647SOL    HW117840   7.015   4.179   6.500
 5647SOL    HW217841   6.992   4.159   6.660
 5648SOL     OW17842   2.702   1.501   4.412
 5648SOL    HW117843   2.717   1.597   4.386
 5648SOL    HW217844   2.644   1.498   4.494
 5649SOL     OW17845   0.855   0.338   5.883
 5649SOL    HW117846   0.876   0.291   5.798
 5649SOL    HW217847   0.823   0.431   5.863
 5650SOL     OW17848   0.140   4.904   5.485
 5650SOL    HW117849   0.170   4.944   5.572
 5650SOL    HW217850   0.154   4.805   5.487
 5651SOL     OW17851   5.602   1.388   2.309
 5651SOL    HW117852   5.666   1.318   2.276
 5651SOL    HW217853   5.625   1.476   2.269
 5652SOL     OW17854   5.746   4.196   0.287
 5652SOL    HW117855   5.670   4.243   0.331
 5652SOL    HW217856   5.746   4.215   0.189
 5653SOL     OW17857   2.413   5.897   6.864
 5653SOL    HW117858   2.446   5.819   6.811
 5653SOL    HW217859   2.469   5.907   6.947
 5654SOL     OW17860   1.819   5.957   6.935
 5654SOL    HW117861   1.759   6.034   6.915
 5654SOL    HW217862   1.915   5.986   6.926
 5655SOL     OW17863   6.594   5.111   2.994
 5655SOL    HW117864   6.598   5.022   2.950
 5655SOL    HW217865   6.632   5.105   3.086
 5656SOL     OW17866   3.690   5.464   6.577
 5656SOL    HW117867   3.725   5.371   6.586
 5656SOL    HW217868   3.609   5.463   6.517
 5657SOL     OW17869   4.612   5.394   1.828
 5657SOL    HW117870   4.665   5.433   1.753
 5657SOL    HW217871   4.529   5.448   1.842
 5658SOL     OW17872   5.441   6.481   5.812
 5658SOL    HW117873   5.412   6.550   5.879
 5658SOL    HW217874   5.537   6.497   5.787
 5659SOL     OW17875   3.032   3.148   2.972
 5659SOL    HW117876   3.065   3.202   3.050
 5659SOL    HW217877   3.109   3.123   2.913
 5660SOL     OW17878   6.478   6.385   1.561
 5660SOL    HW117879   6.566   6.339   1.552
 5660SOL    HW217880   6.406   6.318   1.579
 5661SOL     OW17881   6.229   5.680   4.287
 5661SOL    HW117882   6.184   5.758   4.245
 5661SOL    HW217883   6.323   5.672   4.253
 5662SOL     OW17884   2.270   4.712   5.104
 5662SOL    HW117885   2.341   4.652   5.141
 5662SOL    HW217886   2.311   4.780   5.044
 5663SOL     OW17887   2.556   4.421   1.253
 5663SOL    HW117888   2.525   4.414   1.158
 5663SOL    HW217889   2.574   4.517   1.275
 5664SOL     OW17890   6.905   6.246   2.301
 5664SOL    HW117891   6.976   6.225   2.234
 5664SOL    HW217892   6.928   6.330   2.349
 5665SOL     OW17893   0.985   1.342   6.100
 5665SOL    HW117894   1.061   1.404   6.119
 5665SOL    HW217895   0.907   1.394   6.065
 5666SOL     OW17896   5.724   5.558   0.356
 5666SOL    HW117897   5.690   5.491   0.289
 5666SOL    HW217898   5.763   5.510   0.434
 5667SOL     OW17899   6.314   4.942   2.899
 5667SOL    HW117900   6.296   4.867   2.835
 5667SOL    HW217901   6.358   5.018   2.850
 5668SOL     OW17902   6.059   3.033   5.927
 5668SOL    HW117903   6.018   3.075   5.846
 5668SOL    HW217904   5.992   2.973   5.971
 5669SOL     OW17905   0.035   3.245   4.621
 5669SOL    HW117906   0.007   3.295   4.539
 5669SOL    HW217907   0.074   3.309   4.688
 5670SOL     OW17908   1.412   3.836   2.210
 5670SOL    HW117909   1.378   3.916   2.259
 5670SOL    HW217910   1.509   3.848   2.189
 5671SOL     OW17911   1.161   0.918   5.458
 5671SOL    HW117912   1.199   1.009   5.475
 5671SOL    HW217913   1.217   0.850   5.504
 5672SOL     OW17914   5.148   3.880   5.858
 5672SOL    HW117915   5.124   3.792   5.817
 5672SOL    HW217916   5.073   3.945   5.844
 5673SOL     OW17917   1.533   0.066   0.651
 5673SOL    HW117918   1.480   0.090   0.570
 5673SOL    HW217919   1.515   0.133   0.724
 5674SOL     OW17920   6.754   3.262   1.070
 5674SOL    HW117921   6.844   3.242   1.108
 5674SOL    HW217922   6.716   3.180   1.027
 5675SOL     OW17923   3.521   0.925   6.497
 5675SOL    HW117924   3.562   0.910   6.586
 5675SOL    HW217925   3.507   0.837   6.451
 5676SOL     OW17926   3.116   0.072   1.433
 5676SOL    HW117927   3.102   6.996   1.409
 5676SOL    HW217928   3.102   0.129   1.352
 5677SOL     OW17929   6.665   0.823   3.676
 5677SOL    HW117930   6.604   0.745   3.662
 5677SOL    HW217931   6.690   0.863   3.588
 5678SOL     OW17932   1.735   5.626   3.591
 5678SOL    HW117933   1.755   5.608   3.688
 5678SOL    HW217934   1.740   5.724   3.574
 5679SOL     OW17935   3.098   5.274   5.320
 5679SOL    HW117936   3.151   5.227   5.250
 5679SOL    HW217937   3.117   5.372   5.315
 5680SOL     OW17938   1.892   0.031   6.688
 5680SOL    HW117939   1.850   0.027   6.779
 5680SOL    HW217940   1.980   7.003   6.690
 5681SOL     OW17941   2.619   3.962   6.901
 5681SOL    HW117942   2.717   3.967   6.918
 5681SOL    HW217943   2.601   3.902   6.822
 5682SOL     OW17944   1.309   4.001   3.929
 5682SOL    HW117945   1.354   3.932   3.873
 5682SOL    HW217946   1.294   4.083   3.875
 5683SOL     OW17947   4.172   3.521   4.853
 5683SOL    HW117948   4.265   3.547   4.826
 5683SOL    HW217949   4.156   3.546   4.949
 5684SOL     OW17950   3.150   3.314   3.149
 5684SOL    HW117951   3.192   3.366   3.075
 5684SOL    HW217952   3.070   3.363   3.183
 5685SOL     OW17953   0.012   6.100   2.070
 5685SOL    HW117954   6.990   6.164   2.006
 5685SOL    HW217955   0.102   6.073   2.037
 5686SOL     OW17956   3.276   4.487   0.203
 5686SOL    HW117957   3.268   4.563   0.138
 5686SOL    HW217958   3.360   4.498   0.257
 5687SOL     OW17959   3.926   5.239   6.336
 5687SOL    HW117960   3.923   5.155   6.391
 5687SOL    HW217961   4.020   5.275   6.335
 5688SOL     OW17962   5.639   1.802   1.994
 5688SOL    HW117963   5.633   1.902   1.995
 5688SOL    HW217964   5.618   1.767   2.085
 5689SOL     OW17965   4.374   3.171   6.167
 5689SOL    HW117966   4.333   3.087   6.201
 5689SOL    HW217967   4.345   3.248   6.223
 5690SOL     OW17968   4.422   6.466   2.624
 5690SOL    HW117969   4.465   6.487   2.712
 5690SOL    HW217970   4.459   6.526   2.554
 5691SOL     OW17971   2.535   0.227   3.855
 5691SOL    HW117972   2.547   0.169   3.936
 5691SOL    HW217973   2.604   0.299   3.855
 5692SOL     OW17974   5.749   2.828   6.573
 5692SOL    HW117975   5.767   2.731   6.587
 5692SOL    HW217976   5.750   2.875   6.662
 5693SOL     OW17977   4.694   2.161   2.603
 5693SOL    HW117978   4.710   2.086   2.540
 5693SOL    HW217979   4.782   2.203   2.628
 5694SOL     OW17980   1.255   1.583   3.974
 5694SOL    HW117981   1.261   1.487   3.945
 5694SOL    HW217982   1.218   1.587   4.067
 5695SOL     OW17983   1.790   3.796   3.447
 5695SOL    HW117984   1.692   3.804   3.462
 5695SOL    HW217985   1.837   3.790   3.536
 5696SOL     OW17986   3.366   0.301   6.059
 5696SOL    HW117987   3.443   0.355   6.093
 5696SOL    HW217988   3.281   0.340   6.093
 5697SOL     OW17989   6.211   3.607   0.104
 5697SOL    HW117990   6.287   3.591   0.041
 5697SOL    HW217991   6.223   3.695   0.150
 5698SOL     OW17992   0.770   4.263   3.207
 5698SOL    HW117993   0.868   4.247   3.194
 5698SOL    HW217994   0.727   4.178   3.240
 5699SOL     OW17995   6.631   2.529   4.884
 5699SOL    HW117996   6.546   2.554   4.931
 5699SOL    HW217997   6.616   2.531   4.786
 5700SOL     OW17998   1.040   5.757   3.093
 5700SOL    HW117999   1.085   5.687   3.148
 5700SOL    HW218000   0.946   5.729   3.075
 5701SOL     OW18001   5.549   4.523   2.144
 5701SOL    HW118002   5.590   4.572   2.221
 5701SOL    HW218003   5.608   4.530   2.064
 5702SOL     OW18004   2.367   0.279   0.033
 5702SOL    HW118005   2.378   0.275   0.132
 5702SOL    HW218006   2.399   0.368   7.020
 5703SOL     OW18007   4.900   4.287   1.860
 5703SOL    HW118008   4.848   4.211   1.822
 5703SOL    HW218009   4.837   4.357   1.894
 5704SOL     OW18010   4.771   4.097   3.247
 5704SOL    HW118011   4.805   4.003   3.241
 5704SOL    HW218012   4.799   4.147   3.165
 5705SOL     OW18013   6.265   1.978   3.368
 5705SOL    HW118014   6.285   1.943   3.460
 5705SOL    HW218015   6.301   2.071   3.359
 5706SOL     OW18016   1.666   1.423   6.890
 5706SOL    HW118017   1.642   1.329   6.914
 5706SOL    HW218018   1.590   1.464   6.839
 5707SOL     OW18019   3.044   1.497   6.709
 5707SOL    HW118020   3.131   1.546   6.710
 5707SOL    HW218021   3.058   1.403   6.738
 5708SOL     OW18022   6.619   7.003   1.670
 5708SOL    HW118023   6.529   7.006   1.627
 5708SOL    HW218024   6.680   0.046   1.622
 5709SOL     OW18025   1.197   1.969   1.726
 5709SOL    HW118026   1.273   1.979   1.662
 5709SOL    HW218027   1.170   2.059   1.761
 5710SOL     OW18028   3.432   4.245   6.349
 5710SOL    HW118029   3.382   4.237   6.262
 5710SOL    HW218030   3.428   4.340   6.380
 5711SOL     OW18031   4.869   1.094   4.569
 5711SOL    HW118032   4.905   1.021   4.510
 5711SOL    HW218033   4.783   1.128   4.531
 5712SOL     OW18034   6.433   6.159   0.016
 5712SOL    HW118035   6.475   6.205   0.095
 5712SOL    HW218036   6.401   6.069   0.044
 5713SOL     OW18037   0.252   2.453   2.532
 5713SOL    HW118038   0.214   2.516   2.599
 5713SOL    HW218039   0.350   2.468   2.522
 5714SOL     OW18040   2.134   0.865   6.139
 5714SOL    HW118041   2.145   0.962   6.157
 5714SOL    HW218042   2.217   0.816   6.165
 5715SOL     OW18043   0.862   6.750   3.401
 5715SOL    HW118044   0.803   6.696   3.462
 5715SOL    HW218045   0.929   6.691   3.358
 5716SOL     OW18046   2.139   2.278   5.063
 5716SOL    HW118047   2.093   2.344   5.122
 5716SOL    HW218048   2.188   2.326   4.991
 5717SOL     OW18049   0.570   3.554   6.816
 5717SOL    HW118050   0.670   3.561   6.812
 5717SOL    HW218051   0.544   3.460   6.835
 5718SOL     OW18052   2.475   5.090   5.488
 5718SOL    HW118053   2.468   5.046   5.399
 5718SOL    HW218054   2.571   5.106   5.510
 5719SOL     OW18055   2.440   0.411   0.264
 5719SOL    HW118056   2.463   0.486   0.325
 5719SOL    HW218057   2.523   0.361   0.239
 5720SOL     OW18058   1.762   5.947   3.795
 5720SOL    HW118059   1.717   5.992   3.872
 5720SOL    HW218060   1.726   5.984   3.709
 5721SOL     OW18061   6.827   4.515   0.970
 5721SOL    HW118062   6.825   4.484   0.874
 5721SOL    HW218063   6.906   4.475   1.016
 5722SOL     OW18064   5.468   1.529   3.790
 5722SOL    HW118065   5.553   1.483   3.816
 5722SOL    HW218066   5.485   1.627   3.778
 5723SOL     OW18067   1.121   4.023   0.916
 5723SOL    HW118068   1.155   3.955   0.981
 5723SOL    HW218069   1.047   3.983   0.862
 5724SOL     OW18070   4.748   2.279   5.978
 5724SOL    HW118071   4.674   2.281   6.045
 5724SOL    HW218072   4.815   2.209   6.004
 5725SOL     OW18073   5.202   5.853   5.632
 5725SOL    HW118074   5.257   5.773   5.609
 5725SOL    HW218075   5.158   5.888   5.549
 5726SOL     OW18076   4.381   3.991   5.312
 5726SOL    HW118077   4.360   3.898   5.345
 5726SOL    HW218078   4.479   4.000   5.298
 5727SOL     OW18079   6.047   1.978   3.779
 5727SOL    HW118080   6.007   1.904   3.725
 5727SOL    HW218081   5.979   2.050   3.793
 5728SOL     OW18082   4.798   0.556   5.794
 5728SOL    HW118083   4.844   0.521   5.875
 5728SOL    HW218084   4.750   0.641   5.816
 5729SOL     OW18085   1.332   3.074   4.750
 5729SOL    HW118086   1.357   3.029   4.836
 5729SOL    HW218087   1.412   3.121   4.713
 5730SOL     OW18088   3.933   4.979   0.654
 5730SOL    HW118089   3.840   5.002   0.625
 5730SOL    HW218090   3.935   4.965   0.753
 5731SOL     OW18091   4.293   1.605   5.069
 5731SOL    HW118092   4.271   1.652   5.154
 5731SOL    HW218093   4.252   1.654   4.992
 5732SOL     OW18094   5.295   4.351   4.239
 5732SOL    HW118095   5.244   4.426   4.197
 5732SOL    HW218096   5.273   4.265   4.192
 5733SOL     OW18097   2.505   6.936   1.449
 5733SOL    HW118098   2.602   6.917   1.437
 5733SOL    HW218099   2.470   6.883   1.527
 5734SOL     OW18100   1.316   6.387   6.371
 5734SOL    HW118101   1.368   6.410   6.454
 5734SOL    HW218102   1.283   6.472   6.329
 5735SOL     OW18103   5.266   0.963   2.047
 5735SOL    HW118104   5.272   1.048   2.100
 5735SOL    HW218105   5.184   0.912   2.075
 5736SOL     OW18106   6.158   4.145   6.601
 5736SOL    HW118107   6.160   4.062   6.544
 5736SOL    HW218108   6.243   4.151   6.653
 5737SOL     OW18109   4.780   5.765   2.118
 5737SOL    HW118110   4.813   5.685   2.169
 5737SOL    HW218111   4.752   5.836   2.182
 5738SOL     OW18112   2.206   0.544   0.937
 5738SOL    HW118113   2.200   0.489   1.021
 5738SOL    HW218114   2.287   0.516   0.886
 5739SOL     OW18115   2.258   1.080   5.922
 5739SOL    HW118116   2.203   1.164   5.925
 5739SOL    HW218117   2.355   1.103   5.935
 5740SOL     OW18118   4.913   3.463   2.748
 5740SOL    HW118119   4.921   3.363   2.745
 5740SOL    HW218120   4.913   3.493   2.843
 5741SOL     OW18121   1.373   3.888   4.187
 5741SOL    HW118122   1.331   3.946   4.117
 5741SOL    HW218123   1.354   3.926   4.278
 5742SOL     OW18124   5.965   6.835   3.429
 5742SOL    HW118125   6.059   6.837   3.460
 5742SOL    HW218126   5.924   6.746   3.449
 5743SOL     OW18127   3.382   5.570   0.004
 5743SOL    HW118128   3.460   5.547   0.063
 5743SOL    HW218129   3.299   5.533   0.045
 5744SOL     OW18130   5.094   6.374   3.269
 5744SOL    HW118131   5.124   6.416   3.184
 5744SOL    HW218132   5.161   6.305   3.297
 5745SOL     OW18133   1.064   3.125   2.160
 5745SOL    HW118134   1.034   3.189   2.090
 5745SOL    HW218135   1.127   3.058   2.120
 5746SOL     OW18136   5.174   0.045   2.999
 5746SOL    HW118137   5.260   0.048   2.950
 5746SOL    HW218138   5.134   0.137   3.002
 5747SOL     OW18139   1.491   6.685   1.158
 5747SOL    HW118140   1.405   6.735   1.157
 5747SOL    HW218141   1.560   6.738   1.208
 5748SOL     OW18142   6.914   6.117   0.510
 5748SOL    HW118143   6.871   6.065   0.437
 5748SOL    HW218144   6.864   6.101   0.596
 5749SOL     OW18145   1.945   5.663   6.419
 5749SOL    HW118146   1.973   5.568   6.408
 5749SOL    HW218147   1.957   5.712   6.333
 5750SOL     OW18148   0.012   2.984   4.305
 5750SOL    HW118149   0.060   3.068   4.333
 5750SOL    HW218150   6.935   3.003   4.296
 5751SOL     OW18151   0.883   3.959   4.529
 5751SOL    HW118152   0.982   3.965   4.518
 5751SOL    HW218153   0.858   3.986   4.622
 5752SOL     OW18154   5.305   0.955   0.222
 5752SOL    HW118155   5.347   0.995   0.141
 5752SOL    HW218156   5.352   0.988   0.304
 5753SOL     OW18157   3.501   4.145   4.445
 5753SOL    HW118158   3.593   4.105   4.440
 5753SOL    HW218159   3.489   4.190   4.533
 5754SOL     OW18160   0.488   5.876   1.417
 5754SOL    HW118161   0.399   5.890   1.461
 5754SOL    HW218162   0.475   5.858   1.319
 5755SOL     OW18163   0.806   3.189   6.351
 5755SOL    HW118164   0.838   3.265   6.407
 5755SOL    HW218165   0.857   3.185   6.265
 5756SOL     OW18166   5.989   5.899   1.918
 5756SOL    HW118167   5.971   5.956   1.999
 5756SOL    HW218168   6.002   5.958   1.838
 5757SOL     OW18169   0.018   1.144   3.792
 5757SOL    HW118170   0.054   1.186   3.875
 5757SOL    HW218171   0.081   1.073   3.761
 5758SOL     OW18172   5.952   6.644   2.860
 5758SOL    HW118173   6.023   6.577   2.882
 5758SOL    HW218174   5.885   6.648   2.934
 5759SOL     OW18175   3.601   0.254   1.624
 5759SOL    HW118176   3.506   0.232   1.602
 5759SOL    HW218177   3.621   0.223   1.717
 5760SOL     OW18178   1.697   2.605   0.414
 5760SOL    HW118179   1.664   2.531   0.355
 5760SOL    HW218180   1.628   2.677   0.418
 5761SOL     OW18181   6.617   6.953   4.695
 5761SOL    HW118182   6.672   0.016   4.708
 5761SOL    HW218183   6.635   6.916   4.604
 5762SOL     OW18184   0.648   5.582   6.500
 5762SOL    HW118185   0.661   5.554   6.405
 5762SOL    HW218186   0.633   5.681   6.503
 5763SOL     OW18187   5.548   0.165   0.504
 5763SOL    HW118188   5.498   0.153   0.418
 5763SOL    HW218189   5.605   0.084   0.520
 5764SOL     OW18190   4.431   6.286   4.084
 5764SOL    HW118191   4.492   6.221   4.129
 5764SOL    HW218192   4.443   6.377   4.124
 5765SOL     OW18193   6.416   4.944   2.568
 5765SOL    HW118194   6.385   4.926   2.475
 5765SOL    HW218195   6.360   4.892   2.632
 5766SOL     OW18196   0.466   1.214   4.156
 5766SOL    HW118197   0.369   1.199   4.175
 5766SOL    HW218198   0.520   1.136   4.188
 5767SOL     OW18199   4.051   6.780   7.017
 5767SOL    HW118200   4.116   6.837   0.046
 5767SOL    HW218201   4.014   6.710   0.058
 5768SOL     OW18202   0.758   1.148   5.247
 5768SOL    HW118203   0.802   1.150   5.337
 5768SOL    HW218204   0.660   1.132   5.258
 5769SOL     OW18205   1.616   3.808   5.721
 5769SOL    HW118206   1.701   3.790   5.671
 5769SOL    HW218207   1.554   3.860   5.663
 5770SOL     OW18208   2.015   3.868   1.985
 5770SOL    HW118209   1.925   3.908   1.972
 5770SOL    HW218210   2.084   3.940   1.988
 5771SOL     OW18211   3.487   5.090   3.991
 5771SOL    HW118212   3.587   5.097   3.980
 5771SOL    HW218213   3.460   5.141   4.072
 5772SOL     OW18214   3.131   6.906   2.520
 5772SOL    HW118215   3.192   6.985   2.507
 5772SOL    HW218216   3.044   6.923   2.474
 5773SOL     OW18217   5.760   1.158   2.506
 5773SOL    HW118218   5.692   1.098   2.549
 5773SOL    HW218219   5.811   1.205   2.578
 5774SOL     OW18220   0.719   6.586   2.504
 5774SOL    HW118221   0.764   6.564   2.417
 5774SOL    HW218222   0.741   6.680   2.530
 5775SOL     OW18223   6.307   5.087   1.490
 5775SOL    HW118224   6.279   5.013   1.430
 5775SOL    HW218225   6.347   5.161   1.435
 5776SOL     OW18226   2.398   0.985   3.982
 5776SOL    HW118227   2.383   1.077   4.017
 5776SOL    HW218228   2.495   0.971   3.963
 5777SOL     OW18229   1.781   6.813   1.770
 5777SOL    HW118230   1.734   6.858   1.846
 5777SOL    HW218231   1.831   6.733   1.804
 5778SOL     OW18232   0.444   0.987   0.808
 5778SOL    HW118233   0.505   1.060   0.838
 5778SOL    HW218234   0.359   1.026   0.773
 5779SOL     OW18235   5.956   0.969   6.083
 5779SOL    HW118236   5.908   1.005   6.163
 5779SOL    HW218237   5.902   0.987   6.000
 5780SOL     OW18238   5.482   5.153   4.043
 5780SOL    HW118239   5.451   5.058   4.044
 5780SOL    HW218240   5.536   5.171   4.125
 5781SOL     OW18241   1.394   5.410   5.955
 5781SOL    HW118242   1.443   5.347   5.894
 5781SOL    HW218243   1.451   5.489   5.975
 5782SOL     OW18244   0.692   0.560   0.144
 5782SOL    HW118245   0.596   0.557   0.116
 5782SOL    HW218246   0.743   0.623   0.085
 5783SOL     OW18247   2.448   2.541   0.670
 5783SOL    HW118248   2.499   2.598   0.735
 5783SOL    HW218249   2.369   2.591   0.636
 5784SOL     OW18250   6.784   6.083   6.850
 5784SOL    HW118251   6.877   6.102   6.820
 5784SOL    HW218252   6.735   6.034   6.778
 5785SOL     OW18253   0.949   1.274   0.676
 5785SOL    HW118254   0.877   1.279   0.745
 5785SOL    HW218255   0.967   1.366   0.641
 5786SOL     OW18256   5.676   5.398   1.611
 5786SOL    HW118257   5.712   5.359   1.696
 5786SOL    HW218258   5.599   5.459   1.632
 5787SOL     OW18259   2.429   2.783   6.549
 5787SOL    HW118260   2.441   2.687   6.522
 5787SOL    HW218261   2.488   2.803   6.627
 5788SOL     OW18262   2.962   0.582   3.321
 5788SOL    HW118263   2.923   0.673   3.334
 5788SOL    HW218264   2.890   0.518   3.292
 5789SOL     OW18265   3.699   4.552   5.823
 5789SOL    HW118266   3.681   4.608   5.742
 5789SOL    HW218267   3.700   4.611   5.904
 5790SOL     OW18268   1.392   3.354   3.167
 5790SOL    HW118269   1.437   3.292   3.103
 5790SOL    HW218270   1.316   3.399   3.121
 5791SOL     OW18271   1.545   0.908   2.914
 5791SOL    HW118272   1.471   0.933   2.851
 5791SOL    HW218273   1.588   0.823   2.881
 5792SOL     OW18274   6.782   2.511   2.432
 5792SOL    HW118275   6.846   2.546   2.500
 5792SOL    HW218276   6.832   2.456   2.365
 5793SOL     OW18277   0.367   0.855   3.948
 5793SOL    HW118278   0.328   0.774   3.991
 5793SOL    HW218279   0.303   0.891   3.881
 5794SOL     OW18280   5.209   4.504   6.195
 5794SOL    HW118281   5.180   4.416   6.233
 5794SOL    HW218282   5.246   4.561   6.268
 5795SOL     OW18283   5.707   4.221   6.668
 5795SOL    HW118284   5.700   4.270   6.581
 5795SOL    HW218285   5.623   4.234   6.721
 5796SOL     OW18286   3.586   2.316   0.645
 5796SOL    HW118287   3.530   2.257   0.588
 5796SOL    HW218288   3.531   2.392   0.680
 5797SOL     OW18289   3.530   2.850   6.292
 5797SOL    HW118290   3.582   2.933   6.273
 5797SOL    HW218291   3.590   2.781   6.333
 5798SOL     OW18292   6.473   5.676   4.206
 5798SOL    HW118293   6.549   5.636   4.257
 5798SOL    HW218294   6.504   5.758   4.158
 5799SOL     OW18295   5.448   0.657   3.624
 5799SOL    HW118296   5.438   0.558   3.615
 5799SOL    HW218297   5.392   0.689   3.700
 5800SOL     OW18298   5.747   5.137   0.765
 5800SOL    HW118299   5.828   5.096   0.807
 5800SOL    HW218300   5.714   5.079   0.691
 5801SOL     OW18301   2.617   0.998   2.873
 5801SOL    HW118302   2.591   1.012   2.778
 5801SOL    HW218303   2.712   0.968   2.879
 5802SOL     OW18304   0.493   2.612   4.748
 5802SOL    HW118305   0.468   2.571   4.836
 5802SOL    HW218306   0.421   2.674   4.719
 5803SOL     OW18307   2.020   4.671   0.460
 5803SOL    HW118308   1.932   4.669   0.508
 5803SOL    HW218309   2.022   4.597   0.392
 5804SOL     OW18310   6.323   3.345   5.322
 5804SOL    HW118311   6.379   3.279   5.271
 5804SOL    HW218312   6.328   3.324   5.419
 5805SOL     OW18313   5.746   2.891   6.849
 5805SOL    HW118314   5.646   2.897   6.846
 5805SOL    HW218315   5.781   2.956   6.916
 5806SOL     OW18316   0.495   6.927   0.179
 5806SOL    HW118317   0.549   6.844   0.165
 5806SOL    HW218318   0.539   7.003   0.131
 5807SOL     OW18319   2.184   3.696   1.833
 5807SOL    HW118320   2.156   3.763   1.902
 5807SOL    HW218321   2.209   3.610   1.879
 5808SOL     OW18322   6.545   2.953   3.537
 5808SOL    HW118323   6.598   2.963   3.452
 5808SOL    HW218324   6.492   2.868   3.533
 5809SOL     OW18325   6.621   3.355   4.166
 5809SOL    HW118326   6.565   3.283   4.127
 5809SOL    HW218327   6.567   3.439   4.174
 5810SOL     OW18328   2.523   2.305   2.495
 5810SOL    HW118329   2.442   2.247   2.482
 5810SOL    HW218330   2.502   2.379   2.559
 5811SOL     OW18331   2.607   1.114   3.107
 5811SOL    HW118332   2.618   1.068   3.018
 5811SOL    HW218333   2.556   1.199   3.094
 5812SOL     OW18334   4.048   0.495   4.737
 5812SOL    HW118335   4.050   0.414   4.796
 5812SOL    HW218336   3.953   0.514   4.710
 5813SOL     OW18337   1.726   1.147   5.295
 5813SOL    HW118338   1.714   1.120   5.390
 5813SOL    HW218339   1.640   1.133   5.245
 5814SOL     OW18340   0.350   5.213   1.132
 5814SOL    HW118341   0.415   5.202   1.057
 5814SOL    HW218342   0.401   5.228   1.218
 5815SOL     OW18343   3.515   1.445   3.411
 5815SOL    HW118344   3.464   1.491   3.338
 5815SOL    HW218345   3.458   1.371   3.449
 5816SOL     OW18346   4.871   6.671   1.156
 5816SOL    HW118347   4.802   6.742   1.174
 5816SOL    HW218348   4.891   6.668   1.059
 5817SOL     OW18349   5.112   1.901   5.165
 5817SOL    HW118350   5.040   1.832   5.163
 5817SOL    HW218351   5.174   1.888   5.089
 5818SOL     OW18352   5.889   6.030   6.044
 5818SOL    HW118353   5.970   6.054   6.098
 5818SOL    HW218354   5.916   6.011   5.950
 5819SOL     OW18355   5.898   0.444   0.795
 5819SOL    HW118356   5.882   0.529   0.846
 5819SOL    HW218357   5.920   0.371   0.859
 5820SOL     OW18358   6.241   6.168   3.021
 5820SOL    HW118359   6.224   6.190   3.117
 5820SOL    HW218360   6.255   6.253   2.970
 5821SOL     OW18361   3.616   0.550   1.641
 5821SOL    HW118362   3.622   0.450   1.640
 5821SOL    HW218363   3.613   0.583   1.735
 5822SOL     OW18364   0.404   1.411   2.346
 5822SOL    HW118365   0.418   1.485   2.412
 5822SOL    HW218366   0.439   1.439   2.257
 5823SOL     OW18367   2.420   2.546   4.277
 5823SOL    HW118368   2.449   2.609   4.205
 5823SOL    HW218369   2.337   2.498   4.248
 5824SOL     OW18370   4.582   0.679   3.476
 5824SOL    HW118371   4.568   0.764   3.526
 5824SOL    HW218372   4.526   0.607   3.517
 5825SOL     OW18373   2.872   0.812   0.874
 5825SOL    HW118374   2.851   0.757   0.793
 5825SOL    HW218375   2.922   0.894   0.847
 5826SOL     OW18376   6.374   0.978   4.740
 5826SOL    HW118377   6.418   1.055   4.694
 5826SOL    HW218378   6.287   0.958   4.697
 5827SOL     OW18379   1.010   5.193   5.283
 5827SOL    HW118380   1.026   5.260   5.356
 5827SOL    HW218381   0.976   5.108   5.322
 5828SOL     OW18382   0.003   3.053   1.772
 5828SOL    HW118383   6.954   3.125   1.765
 5828SOL    HW218384   0.093   3.094   1.788
 5829SOL     OW18385   1.739   0.950   1.973
 5829SOL    HW118386   1.749   0.863   2.022
 5829SOL    HW218387   1.651   0.992   1.997
 5830SOL     OW18388   1.938   1.315   5.714
 5830SOL    HW118389   2.033   1.293   5.690
 5830SOL    HW218390   1.896   1.236   5.760
 5831SOL     OW18391   5.784   6.368   3.059
 5831SOL    HW118392   5.776   6.397   2.963
 5831SOL    HW218393   5.862   6.307   3.069
 5832SOL     OW18394   3.503   3.716   5.109
 5832SOL    HW118395   3.420   3.671   5.076
 5832SOL    HW218396   3.554   3.653   5.168
 5833SOL     OW18397   3.678   3.271   4.848
 5833SOL    HW118398   3.713   3.180   4.825
 5833SOL    HW218399   3.703   3.336   4.776
 5834SOL     OW18400   6.015   0.692   0.466
 5834SOL    HW118401   6.044   0.760   0.399
 5834SOL    HW218402   6.050   0.602   0.441
 5835SOL     OW18403   5.273   2.411   4.137
 5835SOL    HW118404   5.210   2.483   4.107
 5835SOL    HW218405   5.224   2.323   4.137
 5836SOL     OW18406   3.473   6.091   2.504
 5836SOL    HW118407   3.476   6.080   2.405
 5836SOL    HW218408   3.446   6.005   2.547
 5837SOL     OW18409   4.915   4.583   6.300
 5837SOL    HW118410   4.857   4.573   6.381
 5837SOL    HW218411   5.006   4.545   6.319
 5838SOL     OW18412   0.595   1.981   5.587
 5838SOL    HW118413   0.636   2.072   5.577
 5838SOL    HW218414   0.616   1.945   5.678
 5839SOL     OW18415   0.172   3.274   2.687
 5839SOL    HW118416   0.269   3.270   2.711
 5839SOL    HW218417   0.116   3.254   2.767
 5840SOL     OW18418   2.156   5.250   6.833
 5840SOL    HW118419   2.104   5.165   6.824
 5840SOL    HW218420   2.160   5.297   6.746
 5841SOL     OW18421   6.811   2.512   2.916
 5841SOL    HW118422   6.752   2.513   2.996
 5841SOL    HW218423   6.793   2.429   2.862
 5842SOL     OW18424   4.103   3.087   0.844
 5842SOL    HW118425   4.046   3.014   0.805
 5842SOL    HW218426   4.050   3.137   0.912
 5843SOL     OW18427   1.162   3.243   1.643
 5843SOL    HW118428   1.092   3.235   1.713
 5843SOL    HW218429   1.249   3.209   1.678
 5844SOL     OW18430   1.217   6.091   0.454
 5844SOL    HW118431   1.309   6.057   0.473
 5844SOL    HW218432   1.214   6.129   0.361
 5845SOL     OW18433   1.076   2.167   4.546
 5845SOL    HW118434   1.046   2.072   4.536
 5845SOL    HW218435   1.011   2.227   4.501
 5846SOL     OW18436   0.211   2.971   6.260
 5846SOL    HW118437   0.184   3.026   6.339
 5846SOL    HW218438   0.198   3.025   6.176
 5847SOL     OW18439   2.040   2.649   3.268
 5847SOL    HW118440   2.008   2.741   3.293
 5847SOL    HW218441   2.121   2.627   3.322
 5848SOL     OW18442   1.286   4.964   3.836
 5848SOL    HW118443   1.301   4.875   3.879
 5848SOL    HW218444   1.326   5.036   3.894
 5849SOL     OW18445   3.212   6.794   5.864
 5849SOL    HW118446   3.311   6.786   5.860
 5849SOL    HW218447   3.172   6.704   5.884
 5850SOL     OW18448   0.842   4.236   2.865
 5850SOL    HW118449   0.901   4.209   2.941
 5850SOL    HW218450   0.748   4.212   2.887
 5851SOL     OW18451   5.850   3.213   2.220
 5851SOL    HW118452   5.886   3.168   2.139
 5851SOL    HW218453   5.767   3.264   2.195
 5852SOL     OW18454   3.721   5.737   2.879
 5852SOL    HW118455   3.710   5.834   2.902
 5852SOL    HW218456   3.663   5.682   2.938
 5853SOL     OW18457   3.855   4.087   5.812
 5853SOL    HW118458   3.895   4.029   5.740
 5853SOL    HW218459   3.838   4.178   5.775
 5854SOL     OW18460   0.132   0.978   6.441
 5854SOL    HW118461   0.225   0.964   6.408
 5854SOL    HW218462   0.130   0.974   6.541
 5855SOL     OW18463   1.642   1.007   4.971
 5855SOL    HW118464   1.724   0.966   4.932
 5855SOL    HW218465   1.570   1.012   4.902
 5856SOL     OW18466   2.103   4.950   4.028
 5856SOL    HW118467   2.040   4.954   3.951
 5856SOL    HW218468   2.125   4.854   4.048
 5857SOL     OW18469   6.846   2.912   5.967
 5857SOL    HW118470   6.752   2.888   5.945
 5857SOL    HW218471   6.878   2.984   5.906
 5858SOL     OW18472   3.320   0.087   2.796
 5858SOL    HW118473   3.377   0.098   2.878
 5858SOL    HW218474   3.305   7.010   2.779
 5859SOL     OW18475   6.563   5.782   1.571
 5859SOL    HW118476   6.561   5.792   1.670
 5859SOL    HW218477   6.654   5.751   1.542
 5860SOL     OW18478   1.747   3.947   1.085
 5860SOL    HW118479   1.818   3.890   1.125
 5860SOL    HW218480   1.746   4.036   1.132
 5861SOL     OW18481   6.242   2.232   4.026
 5861SOL    HW118482   6.145   2.223   4.049
 5861SOL    HW218483   6.286   2.142   4.033
 5862SOL     OW18484   5.115   4.466   3.367
 5862SOL    HW118485   5.123   4.546   3.309
 5862SOL    HW218486   5.207   4.434   3.392
 5863SOL     OW18487   2.201   0.893   0.468
 5863SOL    HW118488   2.186   0.849   0.379
 5863SOL    HW218489   2.298   0.888   0.491
 5864SOL     OW18490   4.652   4.758   0.761
 5864SOL    HW118491   4.611   4.847   0.741
 5864SOL    HW218492   4.673   4.753   0.859
 5865SOL     OW18493   4.138   0.770   3.332
 5865SOL    HW118494   4.048   0.779   3.288
 5865SOL    HW218495   4.153   0.674   3.357
 5866SOL     OW18496   4.151   0.290   6.446
 5866SOL    HW118497   4.175   0.357   6.376
 5866SOL    HW218498   4.229   0.229   6.462
 5867SOL     OW18499   0.209   2.495   0.913
 5867SOL    HW118500   0.205   2.532   0.820
 5867SOL    HW218501   0.253   2.405   0.911
 5868SOL     OW18502   1.438   0.169   5.045
 5868SOL    HW118503   1.485   0.102   4.989
 5868SOL    HW218504   1.489   0.255   5.044
 5869SOL     OW18505   2.917   5.001   3.493
 5869SOL    HW118506   2.894   5.080   3.436
 5869SOL    HW218507   2.834   4.950   3.515
 5870SOL     OW18508   5.440   4.762   4.649
 5870SOL    HW118509   5.489   4.765   4.561
 5870SOL    HW218510   5.476   4.833   4.709
 5871SOL     OW18511   2.926   3.055   6.665
 5871SOL    HW118512   2.875   2.977   6.628
 5871SOL    HW218513   2.958   3.112   6.590
 5872SOL     OW18514   3.930   5.672   4.374
 5872SOL    HW118515   3.835   5.663   4.343
 5872SOL    HW218516   3.936   5.743   4.445
 5873SOL     OW18517   2.457   3.554   0.156
 5873SOL    HW118518   2.363   3.568   0.126
 5873SOL    HW218519   2.505   3.642   0.158
 5874SOL     OW18520   1.509   4.286   0.599
 5874SOL    HW118521   1.480   4.375   0.636
 5874SOL    HW218522   1.437   4.249   0.541
 5875SOL     OW18523   4.439   1.959   0.256
 5875SOL    HW118524   4.397   1.901   0.326
 5875SOL    HW218525   4.385   2.042   0.244
 5876SOL     OW18526   3.740   4.157   6.057
 5876SOL    HW118527   3.779   4.111   5.977
 5876SOL    HW218528   3.670   4.222   6.028
 5877SOL     OW18529   6.572   6.904   2.552
 5877SOL    HW118530   6.502   6.903   2.624
 5877SOL    HW218531   6.529   6.925   2.464
 5878SOL     OW18532   5.349   4.836   2.348
 5878SOL    HW118533   5.326   4.931   2.368
 5878SOL    HW218534   5.386   4.830   2.255
 5879SOL     OW18535   3.834   3.227   5.468
 5879SOL    HW118536   3.821   3.292   5.393
 5879SOL    HW218537   3.929   3.230   5.499
 5880SOL     OW18538   5.793   2.450   6.117
 5880SOL    HW118539   5.886   2.444   6.153
 5880SOL    HW218540   5.787   2.526   6.052
 5881SOL     OW18541   1.465   6.023   2.528
 5881SOL    HW118542   1.391   6.045   2.463
 5881SOL    HW218543   1.477   6.100   2.591
 5882SOL     OW18544   1.703   4.985   5.519
 5882SOL    HW118545   1.699   4.908   5.582
 5882SOL    HW218546   1.798   4.999   5.490
 5883SOL     OW18547   6.655   4.658   0.075
 5883SOL    HW118548   6.635   4.694   7.005
 5883SOL    HW218549   6.673   4.734   0.138
 5884SOL     OW18550   6.623   1.964   2.743
 5884SOL    HW118551   6.546   1.942   2.803
 5884SOL    HW218552   6.672   2.043   2.780
 5885SOL     OW18553   6.555   5.480   0.671
 5885SOL    HW118554   6.507   5.404   0.627
 5885SOL    HW218555   6.599   5.448   0.755
 5886SOL     OW18556   1.947   4.179   3.420
 5886SOL    HW118557   2.000   4.105   3.379
 5886SOL    HW218558   1.853   4.176   3.386
 5887SOL     OW18559   2.401   2.774   0.819
 5887SOL    HW118560   2.344   2.711   0.872
 5887SOL    HW218561   2.438   2.844   0.880
 5888SOL     OW18562   3.067   6.575   1.808
 5888SOL    HW118563   3.002   6.504   1.834
 5888SOL    HW218564   3.059   6.653   1.870
 5889SOL     OW18565   5.978   1.288   1.881
 5889SOL    HW118566   5.937   1.215   1.936
 5889SOL    HW218567   5.910   1.325   1.818
 5890SOL     OW18568   1.914   5.421   3.015
 5890SOL    HW118569   1.953   5.394   3.103
 5890SOL    HW218570   1.821   5.456   3.028
 5891SOL     OW18571   2.556   3.584   6.658
 5891SOL    HW118572   2.460   3.568   6.680
 5891SOL    HW218573   2.574   3.551   6.565
 5892SOL     OW18574   0.956   2.981   0.098
 5892SOL    HW118575   0.886   2.912   0.113
 5892SOL    HW218576   1.020   2.949   0.028
 5893SOL     OW18577   0.851   6.487   0.728
 5893SOL    HW118578   0.822   6.575   0.766
 5893SOL    HW218579   0.926   6.502   0.664
 5894SOL     OW18580   2.294   5.554   6.569
 5894SOL    HW118581   2.369   5.591   6.623
 5894SOL    HW218582   2.245   5.629   6.524
 5895SOL     OW18583   5.115   3.888   3.489
 5895SOL    HW118584   5.193   3.828   3.511
 5895SOL    HW218585   5.061   3.847   3.415
 5896SOL     OW18586   5.793   2.875   2.271
 5896SOL    HW118587   5.807   2.969   2.301
 5896SOL    HW218588   5.724   2.832   2.328
 5897SOL     OW18589   3.646   2.033   0.466
 5897SOL    HW118590   3.629   1.942   0.429
 5897SOL    HW218591   3.559   2.073   0.496
 5898SOL     OW18592   1.870   1.374   6.486
 5898SOL    HW118593   1.915   1.333   6.407
 5898SOL    HW218594   1.937   1.390   6.559
 5899SOL     OW18595   0.345   6.494   6.379
 5899SOL    HW118596   0.318   6.398   6.376
 5899SOL    HW218597   0.263   6.551   6.385
 5900SOL     OW18598   5.816   6.669   3.101
 5900SOL    HW118599   5.876   6.610   3.155
 5900SOL    HW218600   5.842   6.764   3.115
 5901SOL     OW18601   2.260   0.754   4.893
 5901SOL    HW118602   2.306   0.792   4.813
 5901SOL    HW218603   2.213   0.827   4.943
 5902SOL     OW18604   4.588   3.689   5.989
 5902SOL    HW118605   4.633   3.740   5.916
 5902SOL    HW218606   4.653   3.625   6.031
 5903SOL     OW18607   6.446   1.879   5.137
 5903SOL    HW118608   6.456   1.806   5.070
 5903SOL    HW218609   6.349   1.902   5.147
 5904SOL     OW18610   0.646   4.838   1.915
 5904SOL    HW118611   0.739   4.862   1.942
 5904SOL    HW218612   0.628   4.742   1.939
 5905SOL     OW18613   5.940   1.814   4.364
 5905SOL    HW118614   5.885   1.869   4.426
 5905SOL    HW218615   5.899   1.723   4.354
 5906SOL     OW18616   4.439   1.141   5.658
 5906SOL    HW118617   4.376   1.095   5.595
 5906SOL    HW218618   4.388   1.181   5.733
 5907SOL     OW18619   1.504   3.987   5.510
 5907SOL    HW118620   1.447   3.963   5.432
 5907SOL    HW218621   1.599   3.998   5.481
 5908SOL     OW18622   4.709   3.735   6.277
 5908SOL    HW118623   4.763   3.766   6.355
 5908SOL    HW218624   4.612   3.754   6.294
 5909SOL     OW18625   6.574   4.724   3.644
 5909SOL    HW118626   6.517   4.739   3.563
 5909SOL    HW218627   6.572   4.627   3.668
 5910SOL     OW18628   3.325   4.717   0.964
 5910SOL    HW118629   3.273   4.713   1.050
 5910SOL    HW218630   3.295   4.644   0.903
 5911SOL     OW18631   5.811   6.446   0.323
 5911SOL    HW118632   5.908   6.420   0.318
 5911SOL    HW218633   5.803   6.539   0.359
 5912SOL     OW18634   0.736   3.483   5.195
 5912SOL    HW118635   0.718   3.442   5.106
 5912SOL    HW218636   0.821   3.446   5.233
 5913SOL     OW18637   1.315   1.924   5.137
 5913SOL    HW118638   1.234   1.887   5.091
 5913SOL    HW218639   1.299   1.927   5.236
 5914SOL     OW18640   1.761   5.713   0.599
 5914SOL    HW118641   1.734   5.634   0.545
 5914SOL    HW218642   1.752   5.693   0.696
 5915SOL     OW18643   5.384   3.082   4.044
 5915SOL    HW118644   5.368   3.060   3.948
 5915SOL    HW218645   5.465   3.141   4.051
 5916SOL     OW18646   3.217   0.079   6.252
 5916SOL    HW118647   3.213   0.099   6.154
 5916SOL    HW218648   3.242   7.004   6.266
 5917SOL     OW18649   3.774   3.887   2.665
 5917SOL    HW118650   3.707   3.953   2.631
 5917SOL    HW218651   3.733   3.832   2.737
 5918SOL     OW18652   2.486   2.532   3.625
 5918SOL    HW118653   2.532   2.518   3.538
 5918SOL    HW218654   2.532   2.479   3.697
 5919SOL     OW18655   1.317   2.376   0.195
 5919SOL    HW118656   1.246   2.413   0.135
 5919SOL    HW218657   1.346   2.286   0.162
 5920SOL     OW18658   2.817   5.645   0.075
 5920SOL    HW118659   2.796   5.547   0.076
 5920SOL    HW218660   2.788   5.686   0.162
 5921SOL     OW18661   3.655   5.200   5.635
 5921SOL    HW118662   3.656   5.246   5.546
 5921SOL    HW218663   3.681   5.265   5.706
 5922SOL     OW18664   6.196   4.323   1.592
 5922SOL    HW118665   6.189   4.418   1.623
 5922SOL    HW218666   6.124   4.269   1.634
 5923SOL     OW18667   6.846   0.667   3.877
 5923SOL    HW118668   6.888   0.732   3.942
 5923SOL    HW218669   6.779   0.715   3.821
 5924SOL     OW18670   5.916   1.825   4.813
 5924SOL    HW118671   5.950   1.732   4.801
 5924SOL    HW218672   5.979   1.889   4.770
 5925SOL     OW18673   6.314   5.466   0.853
 5925SOL    HW118674   6.218   5.487   0.835
 5925SOL    HW218675   6.348   5.404   0.782
 5926SOL     OW18676   3.663   4.864   2.263
 5926SOL    HW118677   3.711   4.950   2.244
 5926SOL    HW218678   3.641   4.818   2.176
 5927SOL     OW18679   2.245   5.198   2.258
 5927SOL    HW118680   2.344   5.189   2.265
 5927SOL    HW218681   2.211   5.138   2.185
 5928SOL     OW18682   0.945   6.696   1.442
 5928SOL    HW118683   1.024   6.720   1.498
 5928SOL    HW218684   0.876   6.768   1.449
 5929SOL     OW18685   1.464   0.022   5.653
 5929SOL    HW118686   1.477   0.029   5.554
 5929SOL    HW218687   1.546   7.005   5.695
 5930SOL     OW18688   6.956   1.190   5.156
 5930SOL    HW118689   6.924   1.277   5.117
 5930SOL    HW218690   6.997   1.207   5.246
 5931SOL     OW18691   5.979   5.322   1.503
 5931SOL    HW118692   5.892   5.331   1.553
 5931SOL    HW218693   6.024   5.411   1.500
 5932SOL     OW18694   2.361   6.948   6.998
 5932SOL    HW118695   2.323   6.972   0.067
 5932SOL    HW218696   2.318   7.005   6.927
 5933SOL     OW18697   6.213   3.713   2.590
 5933SOL    HW118698   6.152   3.634   2.594
 5933SOL    HW218699   6.255   3.727   2.680
 5934SOL     OW18700   3.035   3.710   2.408
 5934SOL    HW118701   3.020   3.728   2.505
 5934SOL    HW218702   2.965   3.645   2.376
 5935SOL     OW18703   4.144   3.471   3.025
 5935SOL    HW118704   4.110   3.474   2.931
 5935SOL    HW218705   4.160   3.376   3.051
 5936SOL     OW18706   5.642   6.109   6.155
 5936SOL    HW118707   5.611   6.182   6.094
 5936SOL    HW218708   5.735   6.081   6.129
 5937SOL     OW18709   0.955   4.073   0.008
 5937SOL    HW118710   1.025   4.049   6.962
 5937SOL    HW218711   0.991   4.059   0.101
 5938SOL     OW18712   2.062   4.285   1.361
 5938SOL    HW118713   2.048   4.365   1.421
 5938SOL    HW218714   2.027   4.203   1.406
 5939SOL     OW18715   2.368   1.327   2.598
 5939SOL    HW118716   2.445   1.390   2.608
 5939SOL    HW218717   2.311   1.331   2.681
 5940SOL     OW18718   4.093   5.256   3.682
 5940SOL    HW118719   4.063   5.291   3.594
 5940SOL    HW218720   4.033   5.183   3.712
 5941SOL     OW18721   6.409   4.088   2.647
 5941SOL    HW118722   6.496   4.073   2.693
 5941SOL    HW218723   6.425   4.116   2.553
 5942SOL     OW18724   6.186   1.941   5.163
 5942SOL    HW118725   6.122   1.921   5.237
 5942SOL    HW218726   6.198   2.040   5.155
 5943SOL     OW18727   0.848   5.147   0.392
 5943SOL    HW118728   0.839   5.050   0.366
 5943SOL    HW218729   0.762   5.194   0.374
 5944SOL     OW18730   4.743   1.999   2.907
 5944SOL    HW118731   4.744   2.027   2.811
 5944SOL    HW218732   4.667   2.045   2.954
 5945SOL     OW18733   6.926   5.051   5.801
 5945SOL    HW118734   7.004   5.021   5.856
 5945SOL    HW218735   6.900   5.144   5.827
 5946SOL     OW18736   3.857   2.834   5.286
 5946SOL    HW118737   3.881   2.907   5.223
 5946SOL    HW218738   3.919   2.757   5.273
 5947SOL     OW18739   4.326   3.704   1.589
 5947SOL    HW118740   4.382   3.787   1.591
 5947SOL    HW218741   4.383   3.625   1.611
 5948SOL     OW18742   3.616   5.500   3.257
 5948SOL    HW118743   3.525   5.487   3.297
 5948SOL    HW218744   3.675   5.423   3.283
 5949SOL     OW18745   4.505   4.513   2.588
 5949SOL    HW118746   4.516   4.419   2.620
 5949SOL    HW218747   4.592   4.562   2.597
 5950SOL     OW18748   6.758   2.290   3.660
 5950SOL    HW118749   6.785   2.368   3.604
 5950SOL    HW218750   6.659   2.285   3.666
 5951SOL     OW18751   1.988   6.513   3.954
 5951SOL    HW118752   1.913   6.575   3.976
 5951SOL    HW218753   1.951   6.425   3.924
 5952SOL     OW18754   6.928   6.844   4.891
 5952SOL    HW118755   0.000   6.848   4.929
 5952SOL    HW218756   6.930   6.866   4.794
 5953SOL     OW18757   0.463   3.207   6.134
 5953SOL    HW118758   0.521   3.125   6.138
 5953SOL    HW218759   0.519   3.289   6.140
 5954SOL     OW18760   1.299   5.010   6.750
 5954SOL    HW118761   1.205   4.981   6.730
 5954SOL    HW218762   1.302   5.055   6.839
 5955SOL     OW18763   4.989   5.542   2.910
 5955SOL    HW118764   4.959   5.528   3.005
 5955SOL    HW218765   5.013   5.638   2.897
 5956SOL     OW18766   6.166   2.339   6.679
 5956SOL    HW118767   6.102   2.301   6.746
 5956SOL    HW218768   6.254   2.356   6.723
 5957SOL     OW18769   4.793   6.873   5.557
 5957SOL    HW118770   4.714   6.843   5.503
 5957SOL    HW218771   4.770   6.867   5.655
 5958SOL     OW18772   1.168   5.622   2.368
 5958SOL    HW118773   1.089   5.580   2.323
 5958SOL    HW218774   1.223   5.552   2.413
 5959SOL     OW18775   1.591   1.234   6.636
 5959SOL    HW118776   1.667   1.294   6.612
 5959SOL    HW218777   1.620   1.172   6.709
 5960SOL     OW18778   3.294   0.070   4.881
 5960SOL    HW118779   3.310   0.102   4.788
 5960SOL    HW218780   3.282   0.149   4.942
 5961SOL     OW18781   2.644   1.133   6.308
 5961SOL    HW118782   2.627   1.062   6.376
 5961SOL    HW218783   2.636   1.223   6.351
 5962SOL     OW18784   5.387   5.575   2.656
 5962SOL    HW118785   5.472   5.581   2.710
 5962SOL    HW218786   5.342   5.488   2.676
 5963SOL     OW18787   3.958   3.863   2.035
 5963SOL    HW118788   4.037   3.884   1.977
 5963SOL    HW218789   3.987   3.852   2.130
 5964SOL     OW18790   1.255   4.338   5.755
 5964SOL    HW118791   1.346   4.300   5.774
 5964SOL    HW218792   1.261   4.401   5.678
 5965SOL     OW18793   2.407   1.528   4.151
 5965SOL    HW118794   2.370   1.496   4.064
 5965SOL    HW218795   2.370   1.619   4.171
 5966SOL     OW18796   1.601   6.502   4.128
 5966SOL    HW118797   1.554   6.527   4.213
 5966SOL    HW218798   1.535   6.463   4.064
 5967SOL     OW18799   4.493   6.834   2.016
 5967SOL    HW118800   4.492   6.762   2.085
 5967SOL    HW218801   4.499   6.792   1.925
 5968SOL     OW18802   0.490   2.196   4.237
 5968SOL    HW118803   0.534   2.244   4.313
 5968SOL    HW218804   0.476   2.259   4.161
 5969SOL     OW18805   5.985   3.179   2.931
 5969SOL    HW118806   6.017   3.181   3.025
 5969SOL    HW218807   5.907   3.242   2.920
 5970SOL     OW18808   2.100   3.031   3.945
 5970SOL    HW118809   2.006   3.010   3.920
 5970SOL    HW218810   2.127   2.975   4.023
 5971SOL     OW18811   2.391   6.966   2.805
 5971SOL    HW118812   2.459   6.961   2.879
 5971SOL    HW218813   2.376   0.041   2.779
 5972SOL     OW18814   4.671   6.627   1.625
 5972SOL    HW118815   4.718   6.548   1.663
 5972SOL    HW218816   4.631   6.603   1.536
 5973SOL     OW18817   0.857   4.836   3.749
 5973SOL    HW118818   0.941   4.883   3.723
 5973SOL    HW218819   0.831   4.860   3.842
 5974SOL     OW18820   1.142   3.985   6.500
 5974SOL    HW118821   1.177   4.059   6.557
 5974SOL    HW218822   1.149   3.899   6.551
 5975SOL     OW18823   1.808   3.236   6.968
 5975SOL    HW118824   1.843   3.306   6.906
 5975SOL    HW218825   1.776   3.279   0.032
 5976SOL     OW18826   3.634   3.657   4.691
 5976SOL    HW118827   3.675   3.597   4.623
 5976SOL    HW218828   3.581   3.729   4.645
 5977SOL     OW18829   0.962   3.317   3.171
 5977SOL    HW118830   1.001   3.255   3.239
 5977SOL    HW218831   1.032   3.382   3.142
 5978SOL     OW18832   5.455   5.296   2.924
 5978SOL    HW118833   5.460   5.286   3.024
 5978SOL    HW218834   5.449   5.393   2.900
 5979SOL     OW18835   0.504   0.783   2.680
 5979SOL    HW118836   0.524   0.881   2.674
 5979SOL    HW218837   0.435   0.767   2.750
 5980SOL     OW18838   6.146   3.666   6.052
 5980SOL    HW118839   6.112   3.573   6.038
 5980SOL    HW218840   6.130   3.693   6.147
 5981SOL     OW18841   3.892   2.078   1.078
 5981SOL    HW118842   3.975   2.118   1.039
 5981SOL    HW218843   3.836   2.151   1.118
 5982SOL     OW18844   5.969   2.526   6.489
 5982SOL    HW118845   6.066   2.548   6.485
 5982SOL    HW218846   5.937   2.500   6.398
 5983SOL     OW18847   0.982   1.489   4.760
 5983SOL    HW118848   0.972   1.572   4.815
 5983SOL    HW218849   1.015   1.513   4.669
 5984SOL     OW18850   0.617   6.951   5.566
 5984SOL    HW118851   0.650   6.871   5.616
 5984SOL    HW218852   0.518   6.944   5.553
 5985SOL     OW18853   5.018   3.413   4.455
 5985SOL    HW118854   4.993   3.364   4.538
 5985SOL    HW218855   4.940   3.468   4.425
 5986SOL     OW18856   3.856   3.124   2.257
 5986SOL    HW118857   3.942   3.141   2.305
 5986SOL    HW218858   3.794   3.201   2.270
 5987SOL     OW18859   4.119   6.910   5.406
 5987SOL    HW118860   4.070   6.837   5.358
 5987SOL    HW218861   4.202   6.934   5.355
 5988SOL     OW18862   4.041   0.643   4.157
 5988SOL    HW118863   3.983   0.586   4.099
 5988SOL    HW218864   4.034   0.738   4.127
 5989SOL     OW18865   2.509   0.779   6.422
 5989SOL    HW118866   2.566   0.699   6.400
 5989SOL    HW218867   2.564   0.845   6.474
 5990SOL     OW18868   3.070   5.136   2.041
 5990SOL    HW118869   3.056   5.067   2.113
 5990SOL    HW218870   3.163   5.171   2.047
 5991SOL     OW18871   3.395   5.240   3.770
 5991SOL    HW118872   3.299   5.265   3.784
 5991SOL    HW218873   3.422   5.172   3.839
 5992SOL     OW18874   4.487   1.428   4.468
 5992SOL    HW118875   4.507   1.526   4.470
 5992SOL    HW218876   4.419   1.408   4.397
 5993SOL     OW18877   3.648   5.451   4.009
 5993SOL    HW118878   3.733   5.409   4.042
 5993SOL    HW218879   3.626   5.416   3.918
 5994SOL     OW18880   6.701   2.576   2.066
 5994SOL    HW118881   6.624   2.628   2.030
 5994SOL    HW218882   6.682   2.478   2.057
 5995SOL     OW18883   0.497   4.595   1.338
 5995SOL    HW118884   0.435   4.579   1.262
 5995SOL    HW218885   0.445   4.629   1.417
 5996SOL     OW18886   0.887   5.124   6.203
 5996SOL    HW118887   0.930   5.129   6.113
 5996SOL    HW218888   0.919   5.201   6.259
 5997SOL     OW18889   0.762   0.302   1.969
 5997SOL    HW118890   0.861   0.286   1.969
 5997SOL    HW218891   0.729   0.305   1.875
 5998SOL     OW18892   4.177   1.984   3.704
 5998SOL    HW118893   4.243   1.927   3.754
 5998SOL    HW218894   4.100   1.927   3.675
 5999SOL     OW18895   2.288   1.973   2.918
 5999SOL    HW118896   2.231   2.011   2.845
 5999SOL    HW218897   2.242   1.984   3.006
 6000SOL     OW18898   4.487   6.613   2.847
 6000SOL    HW118899   4.476   6.581   2.941
 6000SOL    HW218900   4.584   6.606   2.820
 6001SOL     OW18901   6.225   1.808   0.005
 6001SOL    HW118902   6.176   1.857   0.078
 6001SOL    HW218903   6.292   1.869   6.983
 6002SOL     OW18904   1.705   6.939   1.988
 6002SOL    HW118905   1.664   6.940   2.079
 6002SOL    HW218906   1.770   7.015   1.980
 6003SOL     OW18907   4.754   4.205   3.910
 6003SOL    HW118908   4.762   4.305   3.913
 6003SOL    HW218909   4.802   4.170   3.831
 6004SOL     OW18910   0.314   3.673   1.462
 6004SOL    HW118911   0.280   3.586   1.499
 6004SOL    HW218912   0.237   3.735   1.448
 6005SOL     OW18913   2.761   5.816   2.367
 6005SOL    HW118914   2.778   5.913   2.352
 6005SOL    HW218915   2.800   5.789   2.455
 6006SOL     OW18916   2.515   5.603   6.780
 6006SOL    HW118917   2.451   5.591   6.856
 6006SOL    HW218918   2.598   5.648   6.813
 6007SOL     OW18919   5.545   2.390   4.037
 6007SOL    HW118920   5.581   2.312   3.986
 6007SOL    HW218921   5.462   2.362   4.086
 6008SOL     OW18922   4.205   5.205   6.958
 6008SOL    HW118923   4.192   5.130   6.894
 6008SOL    HW218924   4.291   5.193   7.008
 6009SOL     OW18925   3.221   1.662   4.106
 6009SOL    HW118926   3.242   1.738   4.168
 6009SOL    HW218927   3.144   1.687   4.048
 6010SOL     OW18928   1.478   2.893   3.519
 6010SOL    HW118929   1.487   2.863   3.614
 6010SOL    HW218930   1.568   2.918   3.483
 6011SOL     OW18931   0.060   2.805   2.316
 6011SOL    HW118932   7.016   2.880   2.304
 6011SOL    HW218933   0.025   2.724   2.268
 6012SOL     OW18934   0.097   3.249   1.082
 6012SOL    HW118935   0.108   3.335   1.132
 6012SOL    HW218936   0.056   3.181   1.141
 6013SOL     OW18937   5.904   0.574   2.534
 6013SOL    HW118938   5.912   0.664   2.575
 6013SOL    HW218939   5.812   0.538   2.550
 6014SOL     OW18940   5.480   0.506   1.121
 6014SOL    HW118941   5.434   0.433   1.173
 6014SOL    HW218942   5.479   0.590   1.174
 6015SOL     OW18943   4.902   1.412   4.932
 6015SOL    HW118944   4.984   1.407   4.990
 6015SOL    HW218945   4.896   1.504   4.893
 6016SOL     OW18946   1.729   6.964   5.433
 6016SOL    HW118947   1.633   6.984   5.411
 6016SOL    HW218948   1.789   7.013   5.370
 6017SOL     OW18949   6.689   3.982   2.616
 6017SOL    HW118950   6.766   4.022   2.666
 6017SOL    HW218951   6.696   4.007   2.519
 6018SOL     OW18952   2.695   5.411   0.971
 6018SOL    HW118953   2.716   5.334   0.911
 6018SOL    HW218954   2.738   5.398   1.060
 6019SOL     OW18955   5.254   6.729   3.806
 6019SOL    HW118956   5.201   6.644   3.796
 6019SOL    HW218957   5.227   6.793   3.734
 6020SOL     OW18958   3.053   0.437   2.153
 6020SOL    HW118959   3.092   0.529   2.149
 6020SOL    HW218960   2.966   0.440   2.201
 6021SOL     OW18961   4.394   0.781   3.242
 6021SOL    HW118962   4.298   0.792   3.267
 6021SOL    HW218963   4.409   0.689   3.207
 6022SOL     OW18964   3.930   1.275   5.910
 6022SOL    HW118965   4.010   1.244   5.857
 6022SOL    HW218966   3.911   1.209   5.983
 6023SOL     OW18967   0.117   1.770   2.496
 6023SOL    HW118968   0.046   1.699   2.502
 6023SOL    HW218969   0.138   1.787   2.400
 6024SOL     OW18970   0.713   5.391   2.233
 6024SOL    HW118971   0.649   5.396   2.310
 6024SOL    HW218972   0.669   5.345   2.156
 6025SOL     OW18973   4.007   2.123   2.312
 6025SOL    HW118974   3.908   2.119   2.319
 6025SOL    HW218975   4.046   2.032   2.329
 6026SOL     OW18976   0.851   4.552   5.575
 6026SOL    HW118977   0.832   4.502   5.490
 6026SOL    HW218978   0.947   4.579   5.577
 6027SOL     OW18979   3.186   3.464   0.962
 6027SOL    HW118980   3.199   3.530   1.036
 6027SOL    HW218981   3.180   3.512   0.875
 6028SOL     OW18982   1.204   4.477   0.061
 6028SOL    HW118983   1.112   4.515   0.058
 6028SOL    HW218984   1.271   4.551   0.049
 6029SOL     OW18985   1.481   5.206   1.668
 6029SOL    HW118986   1.549   5.262   1.715
 6029SOL    HW218987   1.508   5.192   1.573
 6030SOL     OW18988   1.901   6.749   1.499
 6030SOL    HW118989   1.844   6.772   1.577
 6030SOL    HW218990   1.985   6.803   1.501
 6031SOL     OW18991   5.407   0.130   4.894
 6031SOL    HW118992   5.380   0.174   4.980
 6031SOL    HW218993   5.444   0.199   4.832
 6032SOL     OW18994   0.326   3.745   2.892
 6032SOL    HW118995   0.319   3.811   2.817
 6032SOL    HW218996   0.404   3.685   2.877
 6033SOL     OW18997   0.390   0.491   4.521
 6033SOL    HW118998   0.396   0.516   4.618
 6033SOL    HW218999   0.457   0.419   4.502
 6034SOL     OW19000   2.105   4.029   4.826
 6034SOL    HW119001   2.046   4.109   4.836
 6034SOL    HW219002   2.170   4.026   4.902
 6035SOL     OW19003   5.508   0.660   4.228
 6035SOL    HW119004   5.493   0.655   4.326
 6035SOL    HW219005   5.579   0.728   4.208
 6036SOL     OW19006   0.826   1.206   3.887
 6036SOL    HW119007   0.781   1.133   3.837
 6036SOL    HW219008   0.824   1.290   3.833
 6037SOL     OW19009   6.820   5.679   5.052
 6037SOL    HW119010   6.771   5.689   5.139
 6037SOL    HW219011   6.759   5.641   4.983
 6038SOL     OW19012   5.056   4.288   6.293
 6038SOL    HW119013   4.972   4.274   6.240
 6038SOL    HW219014   5.055   4.228   6.373
 6039SOL     OW19015   3.490   3.241   3.522
 6039SOL    HW119016   3.530   3.159   3.564
 6039SOL    HW219017   3.559   3.313   3.519
 6040SOL     OW19018   1.245   1.419   0.385
 6040SOL    HW119019   1.227   1.331   0.429
 6040SOL    HW219020   1.172   1.440   0.321
 6041SOL     OW19021   0.723   2.777   0.360
 6041SOL    HW119022   0.638   2.726   0.345
 6041SOL    HW219023   0.721   2.861   0.306
 6042SOL     OW19024   5.578   5.079   4.504
 6042SOL    HW119025   5.592   4.985   4.475
 6042SOL    HW219026   5.562   5.082   4.603
 6043SOL     OW19027   0.387   4.910   4.111
 6043SOL    HW119028   0.465   4.970   4.093
 6043SOL    HW219029   0.419   4.819   4.135
 6044SOL     OW19030   1.200   0.636   1.431
 6044SOL    HW119031   1.203   0.545   1.391
 6044SOL    HW219032   1.293   0.673   1.436
 6045SOL     OW19033   0.249   3.540   0.816
 6045SOL    HW119034   0.159   3.498   0.804
 6045SOL    HW219035   0.309   3.478   0.868
 6046SOL     OW19036   2.740   3.106   0.331
 6046SOL    HW119037   2.659   3.064   0.290
 6046SOL    HW219038   2.773   3.048   0.406
 6047SOL     OW19039   0.471   6.307   4.612
 6047SOL    HW119040   0.463   6.359   4.527
 6047SOL    HW219041   0.388   6.321   4.667
 6048SOL     OW19042   5.000   6.094   5.093
 6048SOL    HW119043   5.027   6.012   5.042
 6048SOL    HW219044   4.941   6.151   5.035
 6049SOL     OW19045   6.366   5.367   1.285
 6049SOL    HW119046   6.325   5.442   1.337
 6049SOL    HW219047   6.383   5.397   1.191
 6050SOL     OW19048   4.950   4.423   5.266
 6050SOL    HW119049   4.990   4.363   5.336
 6050SOL    HW219050   4.995   4.407   5.178
 6051SOL     OW19051   2.474   2.235   3.468
 6051SOL    HW119052   2.546   2.299   3.439
 6051SOL    HW219053   2.394   2.287   3.498
 6052SOL     OW19054   6.698   1.269   0.508
 6052SOL    HW119055   6.745   1.358   0.507
 6052SOL    HW219056   6.743   1.208   0.572
 6053SOL     OW19057   1.975   0.348   6.081
 6053SOL    HW119058   2.062   0.356   6.032
 6053SOL    HW219059   1.988   0.290   6.162
 6054SOL     OW19060   2.526   4.636   6.655
 6054SOL    HW119061   2.547   4.732   6.676
 6054SOL    HW219062   2.608   4.581   6.665
 6055SOL     OW19063   4.842   0.837   4.036
 6055SOL    HW119064   4.832   0.775   4.114
 6055SOL    HW219065   4.758   0.834   3.981
 6056SOL     OW19066   5.243   3.026   6.585
 6056SOL    HW119067   5.307   2.950   6.574
 6056SOL    HW219068   5.150   2.992   6.577
 6057SOL     OW19069   3.134   0.459   6.400
 6057SOL    HW119070   3.196   0.388   6.433
 6057SOL    HW219071   3.039   0.430   6.416
 6058SOL     OW19072   5.650   1.538   4.083
 6058SOL    HW119073   5.575   1.603   4.096
 6058SOL    HW219074   5.626   1.450   4.124
 6059SOL     OW19075   6.832   6.105   6.452
 6059SOL    HW119076   6.744   6.146   6.477
 6059SOL    HW219077   6.842   6.016   6.495
 6060SOL     OW19078   3.560   6.597   6.379
 6060SOL    HW119079   3.472   6.554   6.398
 6060SOL    HW219080   3.592   6.568   6.289
 6061SOL     OW19081   2.149   1.756   6.537
 6061SOL    HW119082   2.058   1.754   6.579
 6061SOL    HW219083   2.143   1.722   6.444
 6062SOL     OW19084   1.871   0.589   4.421
 6062SOL    HW119085   1.947   0.653   4.412
 6062SOL    HW219086   1.822   0.607   4.507
 6063SOL     OW19087   4.703   6.906   0.409
 6063SOL    HW119088   4.634   6.869   0.346
 6063SOL    HW219089   4.756   6.977   0.364
 6064SOL     OW19090   0.375   5.804   3.687
 6064SOL    HW119091   0.448   5.735   3.679
 6064SOL    HW219092   0.295   5.762   3.731
 6065SOL     OW19093   6.205   6.976   0.904
 6065SOL    HW119094   6.271   6.913   0.864
 6065SOL    HW219095   6.240   0.049   0.900
 6066SOL     OW19096   4.309   2.260   6.697
 6066SOL    HW119097   4.230   2.311   6.731
 6066SOL    HW219098   4.335   2.191   6.765
 6067SOL     OW19099   5.458   1.903   6.728
 6067SOL    HW119100   5.493   1.988   6.687
 6067SOL    HW219101   5.362   1.916   6.752
 6068SOL     OW19102   4.949   2.133   5.126
 6068SOL    HW119103   4.943   2.189   5.209
 6068SOL    HW219104   5.028   2.072   5.131
 6069SOL     OW19105   5.912   4.113   4.159
 6069SOL    HW119106   5.836   4.177   4.155
 6069SOL    HW219107   5.912   4.055   4.078
 6070SOL     OW19108   3.727   2.600   6.956
 6070SOL    HW119109   3.802   2.545   6.991
 6070SOL    HW219110   3.762   2.683   6.914
 6071SOL     OW19111   4.616   6.253   5.183
 6071SOL    HW119112   4.590   6.217   5.094
 6071SOL    HW219113   4.712   6.281   5.181
 6072SOL     OW19114   6.952   1.665   0.943
 6072SOL    HW119115   0.013   1.694   0.993
 6072SOL    HW219116   6.974   1.656   0.846
 6073SOL     OW19117   6.684   2.047   1.470
 6073SOL    HW119118   6.778   2.065   1.498
 6073SOL    HW219119   6.651   2.122   1.412
 6074SOL     OW19120   0.743   0.551   4.692
 6074SOL    HW119121   0.777   0.467   4.650
 6074SOL    HW219122   0.653   0.533   4.733
 6075SOL     OW19123   4.631   4.110   6.618
 6075SOL    HW119124   4.578   4.093   6.701
 6075SOL    HW219125   4.712   4.165   6.640
 6076SOL     OW19126   2.246   6.964   3.687
 6076SOL    HW119127   2.242   0.026   3.745
 6076SOL    HW219128   2.183   6.895   3.723
 6077SOL     OW19129   5.742   5.599   2.560
 6077SOL    HW119130   5.707   5.527   2.500
 6077SOL    HW219131   5.822   5.565   2.610
 6078SOL     OW19132   2.398   4.812   3.441
 6078SOL    HW119133   2.306   4.780   3.464
 6078SOL    HW219134   2.462   4.735   3.445
 6079SOL     OW19135   2.002   1.322   0.411
 6079SOL    HW119136   2.029   1.413   0.444
 6079SOL    HW219137   2.048   1.252   0.465
 6080SOL     OW19138   5.859   1.942   2.961
 6080SOL    HW119139   5.905   1.934   3.049
 6080SOL    HW219140   5.897   1.875   2.898
 6081SOL     OW19141   0.454   3.671   2.603
 6081SOL    HW119142   0.467   3.639   2.509
 6081SOL    HW219143   0.530   3.731   2.629
 6082SOL     OW19144   3.819   1.796   4.619
 6082SOL    HW119145   3.829   1.697   4.615
 6082SOL    HW219146   3.772   1.829   4.537
 6083SOL     OW19147   1.978   6.829   0.498
 6083SOL    HW119148   2.055   6.829   0.434
 6083SOL    HW219149   1.987   6.752   0.562
 6084SOL     OW19150   0.258   4.882   6.168
 6084SOL    HW119151   0.333   4.815   6.169
 6084SOL    HW219152   0.251   4.925   6.258
 6085SOL     OW19153   5.074   4.352   1.507
 6085SOL    HW119154   4.977   4.372   1.516
 6085SOL    HW219155   5.096   4.331   1.412
 6086SOL     OW19156   2.590   1.486   3.326
 6086SOL    HW119157   2.554   1.547   3.397
 6086SOL    HW219158   2.553   1.513   3.237
 6087SOL     OW19159   4.171   6.930   0.450
 6087SOL    HW119160   4.104   6.989   0.494
 6087SOL    HW219161   4.263   6.969   0.460
 6088SOL     OW19162   0.064   0.251   5.463
 6088SOL    HW119163   0.050   0.155   5.440
 6088SOL    HW219164   6.999   0.302   5.449
 6089SOL     OW19165   6.617   3.334   0.109
 6089SOL    HW119166   6.709   3.373   0.101
 6089SOL    HW219167   6.606   3.292   0.199
 6090SOL     OW19168   0.159   5.668   3.811
 6090SOL    HW119169   0.081   5.722   3.843
 6090SOL    HW219170   0.218   5.646   3.889
 6091SOL     OW19171   5.870   1.720   1.593
 6091SOL    HW119172   5.797   1.727   1.661
 6091SOL    HW219173   5.901   1.812   1.568
 6092SOL     OW19174   1.605   2.584   0.918
 6092SOL    HW119175   1.647   2.588   1.009
 6092SOL    HW219176   1.518   2.535   0.923
 6093SOL     OW19177   1.339   3.421   0.893
 6093SOL    HW119178   1.310   3.408   0.798
 6093SOL    HW219179   1.348   3.332   0.938
 6094SOL     OW19180   0.643   0.569   0.914
 6094SOL    HW119181   0.625   0.591   0.818
 6094SOL    HW219182   0.670   0.473   0.922
 6095SOL     OW19183   6.570   4.102   5.587
 6095SOL    HW119184   6.582   4.017   5.639
 6095SOL    HW219185   6.660   4.141   5.568
 6096SOL     OW19186   3.745   1.755   3.204
 6096SOL    HW119187   3.655   1.780   3.170
 6096SOL    HW219188   3.815   1.791   3.143
 6097SOL     OW19189   3.455   2.013   1.675
 6097SOL    HW119190   3.535   2.052   1.719
 6097SOL    HW219191   3.473   1.918   1.650
 6098SOL     OW19192   1.418   1.268   6.051
 6098SOL    HW119193   1.444   1.338   6.117
 6098SOL    HW219194   1.500   1.233   6.005
 6099SOL     OW19195   5.840   4.931   4.842
 6099SOL    HW119196   5.862   4.839   4.808
 6099SOL    HW219197   5.924   4.973   4.877
 6100SOL     OW19198   6.876   2.254   0.333
 6100SOL    HW119199   6.840   2.196   0.406
 6100SOL    HW219200   6.875   2.350   0.362
 6101SOL     OW19201   5.653   1.278   4.229
 6101SOL    HW119202   5.641   1.189   4.272
 6101SOL    HW219203   5.716   1.270   4.152
 6102SOL     OW19204   2.947   0.701   5.040
 6102SOL    HW119205   2.921   0.635   4.970
 6102SOL    HW219206   2.877   0.772   5.046
 6103SOL     OW19207   6.318   0.910   5.346
 6103SOL    HW119208   6.341   0.813   5.341
 6103SOL    HW219209   6.383   0.957   5.405
 6104SOL     OW19210   1.831   3.350   0.919
 6104SOL    HW119211   1.816   3.291   0.998
 6104SOL    HW219212   1.852   3.293   0.839
 6105SOL     OW19213   3.142   5.388   4.632
 6105SOL    HW119214   3.110   5.316   4.570
 6105SOL    HW219215   3.115   5.367   4.725
 6106SOL     OW19216   3.472   5.269   4.519
 6106SOL    HW119217   3.444   5.173   4.523
 6106SOL    HW219218   3.397   5.327   4.550
 6107SOL     OW19219   2.402   5.359   5.504
 6107SOL    HW119220   2.403   5.399   5.596
 6107SOL    HW219221   2.436   5.265   5.508
 6108SOL     OW19222   6.568   1.872   4.159
 6108SOL    HW119223   6.648   1.909   4.113
 6108SOL    HW219224   6.559   1.775   4.137
 6109SOL     OW19225   6.450   4.428   1.861
 6109SOL    HW119226   6.443   4.515   1.813
 6109SOL    HW219227   6.542   4.390   1.849
 6110SOL     OW19228   3.557   2.145   3.931
 6110SOL    HW119229   3.646   2.170   3.893
 6110SOL    HW219230   3.503   2.098   3.861
 6111SOL     OW19231   0.438   4.720   2.935
 6111SOL    HW119232   0.512   4.653   2.943
 6111SOL    HW219233   0.419   4.738   2.839
 6112SOL     OW19234   1.380   2.204   1.977
 6112SOL    HW119235   1.368   2.114   2.020
 6112SOL    HW219236   1.310   2.217   1.907
 6113SOL     OW19237   2.404   5.823   5.097
 6113SOL    HW119238   2.456   5.818   5.182
 6113SOL    HW219239   2.316   5.776   5.109
 6114SOL     OW19240   5.257   5.341   1.068
 6114SOL    HW119241   5.175   5.344   1.010
 6114SOL    HW219242   5.274   5.432   1.105
 6115SOL     OW19243   6.274   4.755   2.704
 6115SOL    HW119244   6.232   4.716   2.622
 6115SOL    HW219245   6.314   4.681   2.759
 6116SOL     OW19246   3.171   2.282   0.800
 6116SOL    HW119247   3.145   2.187   0.780
 6116SOL    HW219248   3.257   2.284   0.850
 6117SOL     OW19249   5.519   6.656   4.163
 6117SOL    HW119250   5.521   6.719   4.241
 6117SOL    HW219251   5.605   6.605   4.160
 6118SOL     OW19252   6.062   0.193   3.003
 6118SOL    HW119253   5.980   0.220   3.052
 6118SOL    HW219254   6.054   0.097   2.974
 6119SOL     OW19255   6.316   5.416   3.696
 6119SOL    HW119256   6.268   5.334   3.667
 6119SOL    HW219257   6.400   5.390   3.743
 6120SOL     OW19258   2.492   0.873   3.327
 6120SOL    HW119259   2.499   0.819   3.411
 6120SOL    HW219260   2.555   0.951   3.333
 6121SOL     OW19261   6.778   2.009   4.368
 6121SOL    HW119262   6.727   2.093   4.347
 6121SOL    HW219263   6.721   1.949   4.424
 6122SOL     OW19264   4.459   6.111   3.850
 6122SOL    HW119265   4.416   6.034   3.897
 6122SOL    HW219266   4.482   6.181   3.918
 6123SOL     OW19267   6.981   1.286   1.781
 6123SOL    HW119268   6.996   1.359   1.847
 6123SOL    HW219269   6.884   1.261   1.780
 6124SOL     OW19270   2.865   0.534   5.259
 6124SOL    HW119271   2.938   0.566   5.319
 6124SOL    HW219272   2.879   0.573   5.168
 6125SOL     OW19273   1.923   4.867   2.320
 6125SOL    HW119274   2.018   4.868   2.287
 6125SOL    HW219275   1.886   4.775   2.309
 6126SOL     OW19276   4.655   5.506   2.316
 6126SOL    HW119277   4.580   5.478   2.376
 6126SOL    HW219278   4.660   5.445   2.238
 6127SOL     OW19279   1.999   3.846   2.273
 6127SOL    HW119280   1.967   3.941   2.281
 6127SOL    HW219281   2.005   3.821   2.177
 6128SOL     OW19282   5.134   2.164   1.304
 6128SOL    HW119283   5.118   2.216   1.220
 6128SOL    HW219284   5.170   2.225   1.375
 6129SOL     OW19285   5.582   4.190   3.484
 6129SOL    HW119286   5.594   4.091   3.489
 6129SOL    HW219287   5.557   4.225   3.575
 6130SOL     OW19288   5.449   4.210   2.881
 6130SOL    HW119289   5.400   4.270   2.819
 6130SOL    HW219290   5.452   4.117   2.843
 6131SOL     OW19291   6.535   0.885   5.115
 6131SOL    HW119292   6.436   0.876   5.126
 6131SOL    HW219293   6.558   0.982   5.103
 6132SOL     OW19294   6.421   2.221   0.538
 6132SOL    HW119295   6.363   2.212   0.619
 6132SOL    HW219296   6.470   2.308   0.541
 6133SOL     OW19297   1.548   4.659   0.339
 6133SOL    HW119298   1.475   4.593   0.321
 6133SOL    HW219299   1.612   4.622   0.406
 6134SOL     OW19300   4.678   3.047   0.194
 6134SOL    HW119301   4.618   2.980   0.238
 6134SOL    HW219302   4.657   3.138   0.230
 6135SOL     OW19303   5.410   0.288   2.023
 6135SOL    HW119304   5.344   0.320   2.091
 6135SOL    HW219305   5.412   0.351   1.945
 6136SOL     OW19306   0.119   1.288   2.107
 6136SOL    HW119307   0.138   1.384   2.085
 6136SOL    HW219308   0.191   1.253   2.167
 6137SOL     OW19309   3.032   6.588   5.609
 6137SOL    HW119310   3.071   6.655   5.672
 6137SOL    HW219311   2.946   6.623   5.573
 6138SOL     OW19312   4.357   6.894   2.991
 6138SOL    HW119313   4.274   6.949   2.996
 6138SOL    HW219314   4.342   6.805   3.035
 6139SOL     OW19315   2.291   5.297   4.322
 6139SOL    HW119316   2.213   5.346   4.358
 6139SOL    HW219317   2.271   5.264   4.230
 6140SOL     OW19318   2.003   6.193   1.154
 6140SOL    HW119319   2.095   6.231   1.165
 6140SOL    HW219320   2.003   6.098   1.183
 6141SOL     OW19321   6.712   6.319   5.502
 6141SOL    HW119322   6.769   6.400   5.494
 6141SOL    HW219323   6.645   6.318   5.427
 6142SOL     OW19324   0.472   4.100   2.665
 6142SOL    HW119325   0.535   4.107   2.587
 6142SOL    HW219326   0.399   4.036   2.642
 6143SOL     OW19327   6.534   4.337   6.514
 6143SOL    HW119328   6.585   4.422   6.499
 6143SOL    HW219329   6.595   4.267   6.549
 6144SOL     OW19330   0.283   4.970   4.353
 6144SOL    HW119331   0.183   4.974   4.349
 6144SOL    HW219332   0.319   4.944   4.263
 6145SOL     OW19333   5.012   5.645   3.664
 6145SOL    HW119334   5.003   5.744   3.678
 6145SOL    HW219335   5.109   5.622   3.653
 6146SOL     OW19336   5.501   1.206   3.335
 6146SOL    HW119337   5.582   1.223   3.279
 6146SOL    HW219338   5.527   1.207   3.432
 6147SOL     OW19339   1.041   3.799   3.236
 6147SOL    HW119340   0.973   3.822   3.167
 6147SOL    HW219341   1.006   3.725   3.293
 6148SOL     OW19342   5.704   5.981   3.975
 6148SOL    HW119343   5.800   5.990   3.999
 6148SOL    HW219344   5.666   5.899   4.017
 6149SOL     OW19345   2.156   0.276   4.558
 6149SOL    HW119346   2.161   0.208   4.631
 6149SOL    HW219347   2.060   0.290   4.532
 6150SOL     OW19348   4.188   5.850   5.677
 6150SOL    HW119349   4.100   5.828   5.719
 6150SOL    HW219350   4.252   5.881   5.748
 6151SOL     OW19351   4.540   1.133   5.978
 6151SOL    HW119352   4.465   1.193   5.949
 6151SOL    HW219353   4.622   1.154   5.925
 6152SOL     OW19354   6.647   5.069   5.913
 6152SOL    HW119355   6.740   5.052   5.878
 6152SOL    HW219356   6.599   4.981   5.922
 6153SOL     OW19357   4.872   4.045   0.025
 6153SOL    HW119358   4.812   4.110   0.072
 6153SOL    HW219359   4.818   3.992   6.979
 6154SOL     OW19360   4.999   2.883   3.149
 6154SOL    HW119361   5.078   2.853   3.203
 6154SOL    HW219362   4.915   2.861   3.197
 6155SOL     OW19363   1.535   3.469   4.070
 6155SOL    HW119364   1.567   3.555   4.032
 6155SOL    HW219365   1.607   3.400   4.063
 6156SOL     OW19366   6.169   0.661   4.209
 6156SOL    HW119367   6.090   0.687   4.153
 6156SOL    HW219368   6.148   0.675   4.305
 6157SOL     OW19369   1.540   1.459   3.567
 6157SOL    HW119370   1.511   1.478   3.473
 6157SOL    HW219371   1.635   1.486   3.578
 6158SOL     OW19372   4.396   0.531   0.578
 6158SOL    HW119373   4.495   0.539   0.590
 6158SOL    HW219374   4.357   0.622   0.562
 6159SOL     OW19375   5.630   3.257   6.880
 6159SOL    HW119376   5.724   3.243   6.911
 6159SOL    HW219377   5.605   3.353   6.889
 6160SOL     OW19378   6.752   4.904   1.692
 6160SOL    HW119379   6.725   4.823   1.744
 6160SOL    HW219380   6.692   4.981   1.715
 6161SOL     OW19381   5.837   0.571   6.504
 6161SOL    HW119382   5.820   0.498   6.437
 6161SOL    HW219383   5.935   0.590   6.508
 6162SOL     OW19384   6.227   5.104   3.907
 6162SOL    HW119385   6.153   5.046   3.940
 6162SOL    HW219386   6.205   5.140   3.817
 6163SOL     OW19387   0.040   3.990   2.103
 6163SOL    HW119388   0.053   3.900   2.144
 6163SOL    HW219389   0.122   4.046   2.120
 6164SOL     OW19390   4.964   2.565   0.561
 6164SOL    HW119391   4.935   2.547   0.655
 6164SOL    HW219392   4.908   2.510   0.498
 6165SOL     OW19393   4.519   6.269   0.353
 6165SOL    HW119394   4.497   6.341   0.287
 6165SOL    HW219395   4.571   6.308   0.429
 6166SOL     OW19396   3.753   1.387   6.757
 6166SOL    HW119397   3.822   1.431   6.699
 6166SOL    HW219398   3.770   1.409   6.853
 6167SOL     OW19399   0.016   4.920   3.019
 6167SOL    HW119400   0.053   4.849   3.080
 6167SOL    HW219401   6.971   4.976   3.070
 6168SOL     OW19402   0.451   2.501   1.734
 6168SOL    HW119403   0.495   2.543   1.813
 6168SOL    HW219404   0.488   2.409   1.720
 6169SOL     OW19405   1.916   4.220   1.968
 6169SOL    HW119406   1.951   4.264   1.885
 6169SOL    HW219407   1.857   4.144   1.943
 6170SOL     OW19408   6.912   2.157   3.489
 6170SOL    HW119409   6.978   2.232   3.491
 6170SOL    HW219410   6.843   2.170   3.560
 6171SOL     OW19411   6.690   0.715   6.665
 6171SOL    HW119412   6.778   0.668   6.675
 6171SOL    HW219413   6.639   0.674   6.588
 6172SOL     OW19414   1.176   4.494   4.167
 6172SOL    HW119415   1.143   4.554   4.239
 6172SOL    HW219416   1.276   4.495   4.167
 6173SOL     OW19417   5.986   6.317   3.470
 6173SOL    HW119418   5.988   6.218   3.454
 6173SOL    HW219419   6.061   6.360   3.421
 6174SOL     OW19420   6.058   2.712   2.120
 6174SOL    HW119421   6.056   2.805   2.157
 6174SOL    HW219422   6.121   2.708   2.042
 6175SOL     OW19423   3.880   2.133   6.415
 6175SOL    HW119424   3.928   2.221   6.414
 6175SOL    HW219425   3.870   2.100   6.321
 6176SOL     OW19426   3.593   4.014   6.285
 6176SOL    HW119427   3.618   4.035   6.191
 6176SOL    HW219428   3.543   4.091   6.325
 6177SOL     OW19429   5.920   6.633   1.374
 6177SOL    HW119430   5.864   6.678   1.304
 6177SOL    HW219431   6.005   6.684   1.386
 6178SOL     OW19432   4.255   4.684   1.624
 6178SOL    HW119433   4.240   4.664   1.528
 6178SOL    HW219434   4.239   4.601   1.679
 6179SOL     OW19435   5.513   4.987   4.803
 6179SOL    HW119436   5.609   5.005   4.828
 6179SOL    HW219437   5.462   4.960   4.885
 6180SOL     OW19438   2.884   4.675   6.497
 6180SOL    HW119439   2.854   4.764   6.464
 6180SOL    HW219440   2.973   4.685   6.543
 6181SOL     OW19441   6.047   6.383   0.108
 6181SOL    HW119442   6.024   6.480   0.116
 6181SOL    HW219443   6.130   6.373   0.053
 6182SOL     OW19444   2.933   2.493   0.137
 6182SOL    HW119445   3.025   2.491   0.178
 6182SOL    HW219446   2.902   2.399   0.123
 6183SOL     OW19447   6.875   6.509   0.761
 6183SOL    HW119448   6.784   6.545   0.781
 6183SOL    HW219449   6.887   6.501   0.662
 6184SOL     OW19450   3.417   6.393   5.440
 6184SOL    HW119451   3.344   6.345   5.490
 6184SOL    HW219452   3.389   6.487   5.423
 6185SOL     OW19453   3.973   3.467   5.069
 6185SOL    HW119454   3.926   3.543   5.024
 6185SOL    HW219455   4.065   3.497   5.095
 6186SOL     OW19456   1.062   1.602   2.232
 6186SOL    HW119457   1.037   1.600   2.329
 6186SOL    HW219458   1.087   1.695   2.206
 6187SOL     OW19459   3.428   1.459   6.188
 6187SOL    HW119460   3.406   1.369   6.150
 6187SOL    HW219461   3.518   1.487   6.157
 6188SOL     OW19462   1.941   1.416   4.863
 6188SOL    HW119463   1.979   1.468   4.939
 6188SOL    HW219464   1.868   1.356   4.896
 6189SOL     OW19465   6.622   5.311   0.895
 6189SOL    HW119466   6.543   5.252   0.911
 6189SOL    HW219467   6.703   5.254   0.880
 6190SOL     OW19468   0.830   2.977   4.151
 6190SOL    HW119469   0.785   3.054   4.197
 6190SOL    HW219470   0.905   2.944   4.207
 6191SOL     OW19471   3.372   3.482   0.341
 6191SOL    HW119472   3.303   3.465   0.411
 6191SOL    HW219473   3.330   3.529   0.263
 6192SOL     OW19474   2.891   1.719   0.925
 6192SOL    HW119475   2.795   1.740   0.908
 6192SOL    HW219476   2.899   1.654   1.000
 6193SOL     OW19477   4.213   5.549   6.650
 6193SOL    HW119478   4.268   5.494   6.713
 6193SOL    HW219479   4.127   5.502   6.631
 6194SOL     OW19480   5.563   6.976   6.749
 6194SOL    HW119481   5.516   6.929   6.674
 6194SOL    HW219482   5.547   6.927   6.834
 6195SOL     OW19483   5.697   6.249   6.529
 6195SOL    HW119484   5.666   6.292   6.614
 6195SOL    HW219485   5.625   6.190   6.494
 6196SOL     OW19486   6.113   3.449   3.101
 6196SOL    HW119487   6.127   3.399   3.016
 6196SOL    HW219488   6.144   3.544   3.090
 6197SOL     OW19489   0.689   5.399   1.006
 6197SOL    HW119490   0.704   5.304   0.981
 6197SOL    HW219491   0.610   5.435   0.957
 6198SOL     OW19492   5.464   1.452   6.445
 6198SOL    HW119493   5.439   1.542   6.480
 6198SOL    HW219494   5.493   1.460   6.350
 6199SOL     OW19495   2.089   6.983   6.046
 6199SOL    HW119496   2.107   6.913   5.977
 6199SOL    HW219497   2.010   0.018   6.018
 6200SOL     OW19498   1.718   0.631   1.027
 6200SOL    HW119499   1.744   0.538   1.002
 6200SOL    HW219500   1.783   0.668   1.094
 6201SOL     OW19501   0.320   4.460   3.020
 6201SOL    HW119502   0.316   4.445   2.921
 6201SOL    HW219503   0.319   4.558   3.039
 6202SOL     OW19504   5.982   1.226   2.677
 6202SOL    HW119505   5.912   1.201   2.744
 6202SOL    HW219506   6.057   1.273   2.723
 6203SOL     OW19507   5.913   0.042   2.040
 6203SOL    HW119508   6.003   7.020   2.032
 6203SOL    HW219509   5.902   0.111   1.968
 6204SOL     OW19510   1.081   6.045   4.843
 6204SOL    HW119511   1.050   6.054   4.749
 6204SOL    HW219512   1.107   6.135   4.879
 6205SOL     OW19513   5.667   4.540   3.702
 6205SOL    HW119514   5.610   4.561   3.623
 6205SOL    HW219515   5.760   4.575   3.687
 6206SOL     OW19516   5.646   2.139   3.514
 6206SOL    HW119517   5.577   2.162   3.582
 6206SOL    HW219518   5.614   2.062   3.458
 6207SOL     OW19519   0.758   5.837   4.217
 6207SOL    HW119520   0.850   5.818   4.182
 6207SOL    HW219521   0.759   5.923   4.267
 6208SOL     OW19522   4.493   3.958   5.592
 6208SOL    HW119523   4.504   4.008   5.506
 6208SOL    HW219524   4.497   3.860   5.574
 6209SOL     OW19525   3.619   2.130   1.345
 6209SOL    HW119526   3.716   2.110   1.350
 6209SOL    HW219527   3.571   2.053   1.304
 6210SOL     OW19528   5.716   1.655   4.596
 6210SOL    HW119529   5.701   1.607   4.509
 6210SOL    HW219530   5.731   1.752   4.577
 6211SOL     OW19531   5.988   3.817   5.044
 6211SOL    HW119532   5.904   3.777   5.006
 6211SOL    HW219533   6.060   3.817   4.975
 6212SOL     OW19534   5.393   4.405   4.724
 6212SOL    HW119535   5.461   4.332   4.715
 6212SOL    HW219536   5.403   4.470   4.649
 6213SOL     OW19537   4.064   5.678   0.607
 6213SOL    HW119538   3.995   5.632   0.551
 6213SOL    HW219539   4.028   5.766   0.638
 6214SOL     OW19540   5.853   6.952   0.215
 6214SOL    HW119541   5.881   6.956   0.119
 6214SOL    HW219542   5.926   6.987   0.272
 6215SOL     OW19543   5.850   2.399   4.975
 6215SOL    HW119544   5.826   2.313   5.019
 6215SOL    HW219545   5.790   2.472   5.009
 6216SOL     OW19546   4.368   1.312   4.712
 6216SOL    HW119547   4.403   1.386   4.654
 6216SOL    HW219548   4.433   1.294   4.786
 6217SOL     OW19549   0.695   4.105   2.487
 6217SOL    HW119550   0.707   4.044   2.408
 6217SOL    HW219551   0.764   4.084   2.556
 6218SOL     OW19552   4.421   6.197   0.085
 6218SOL    HW119553   4.456   6.124   0.145
 6218SOL    HW219554   4.479   6.204   0.004
 6219SOL     OW19555   1.973   1.086   6.925
 6219SOL    HW119556   1.945   1.007   6.978
 6219SOL    HW219557   1.923   1.088   6.838
 6220SOL     OW19558   3.393   6.304   0.827
 6220SOL    HW119559   3.332   6.382   0.843
 6220SOL    HW219560   3.488   6.335   0.832
 6221SOL     OW19561   5.095   5.814   6.336
 6221SOL    HW119562   5.021   5.868   6.376
 6221SOL    HW219563   5.161   5.789   6.406
 6222SOL     OW19564   6.815   1.692   2.155
 6222SOL    HW119565   6.858   1.759   2.215
 6222SOL    HW219566   6.736   1.733   2.110
 6223SOL     OW19567   0.036   5.264   4.322
 6223SOL    HW119568   0.012   5.167   4.322
 6223SOL    HW219569   6.978   5.319   4.292
 6224SOL     OW19570   3.864   6.799   0.344
 6224SOL    HW119571   3.839   6.826   0.251
 6224SOL    HW219572   3.964   6.793   0.351
 6225SOL     OW19573   4.991   6.374   6.509
 6225SOL    HW119574   5.078   6.412   6.478
 6225SOL    HW219575   4.969   6.293   6.456
 6226SOL     OW19576   0.793   1.068   4.134
 6226SOL    HW119577   0.706   1.033   4.167
 6226SOL    HW219578   0.787   1.083   4.035
 6227SOL     OW19579   2.977   4.618   5.819
 6227SOL    HW119580   2.925   4.697   5.788
 6227SOL    HW219581   3.053   4.601   5.756
 6228SOL     OW19582   1.234   3.071   3.767
 6228SOL    HW119583   1.307   3.137   3.751
 6228SOL    HW219584   1.242   3.033   3.859
 6229SOL     OW19585   0.584   3.521   4.043
 6229SOL    HW119586   0.505   3.574   4.073
 6229SOL    HW219587   0.553   3.436   4.001
 6230SOL     OW19588   0.460   1.230   1.341
 6230SOL    HW119589   0.538   1.228   1.404
 6230SOL    HW219590   0.399   1.154   1.362
 6231SOL     OW19591   2.084   5.456   5.718
 6231SOL    HW119592   2.180   5.469   5.744
 6231SOL    HW219593   2.048   5.375   5.763
 6232SOL     OW19594   4.176   0.500   6.245
 6232SOL    HW119595   4.273   0.485   6.229
 6232SOL    HW219596   4.155   0.597   6.231
 6233SOL     OW19597   6.703   3.458   1.242
 6233SOL    HW119598   6.709   3.383   1.176
 6233SOL    HW219599   6.609   3.466   1.276
 6234SOL     OW19600   4.901   4.788   4.316
 6234SOL    HW119601   4.865   4.832   4.398
 6234SOL    HW219602   4.986   4.740   4.337
 6235SOL     OW19603   0.069   0.620   2.224
 6235SOL    HW119604   0.090   0.708   2.181
 6235SOL    HW219605   0.119   0.613   2.311
 6236SOL     OW19606   6.988   5.822   1.563
 6236SOL    HW119607   6.953   5.915   1.574
 6236SOL    HW219608   6.924   5.768   1.508
 6237SOL     OW19609   3.141   1.310   2.454
 6237SOL    HW119610   3.080   1.353   2.389
 6237SOL    HW219611   3.224   1.365   2.464
 6238SOL     OW19612   2.084   0.854   3.638
 6238SOL    HW119613   2.039   0.845   3.549
 6238SOL    HW219614   2.182   0.866   3.625
 6239SOL     OW19615   4.840   1.364   4.664
 6239SOL    HW119616   4.853   1.268   4.641
 6239SOL    HW219617   4.826   1.374   4.762
 6240SOL     OW19618   4.002   3.581   4.010
 6240SOL    HW119619   4.034   3.563   3.917
 6240SOL    HW219620   4.048   3.520   4.074
 6241SOL     OW19621   3.624   6.827   3.653
 6241SOL    HW119622   3.613   6.921   3.688
 6241SOL    HW219623   3.686   6.776   3.713
 6242SOL     OW19624   3.048   2.216   3.668
 6242SOL    HW119625   3.047   2.183   3.763
 6242SOL    HW219626   3.135   2.192   3.626
 6243SOL     OW19627   4.301   1.791   6.920
 6243SOL    HW119628   4.257   1.753   7.001
 6243SOL    HW219629   4.259   1.752   6.838
 6244SOL     OW19630   4.552   2.554   1.974
 6244SOL    HW119631   4.454   2.538   1.968
 6244SOL    HW219632   4.581   2.552   2.070
 6245SOL     OW19633   0.093   5.321   2.270
 6245SOL    HW119634   0.131   5.256   2.336
 6245SOL    HW219635   0.162   5.343   2.201
 6246SOL     OW19636   6.958   6.861   4.604
 6246SOL    HW119637   6.950   6.959   4.589
 6246SOL    HW219638   6.883   6.814   4.556
 6247SOL     OW19639   6.466   6.015   3.341
 6247SOL    HW119640   6.499   6.084   3.277
 6247SOL    HW219641   6.545   5.966   3.379
 6248SOL     OW19642   4.036   3.196   5.112
 6248SOL    HW119643   4.019   3.294   5.124
 6248SOL    HW219644   4.085   3.161   5.192
 6249SOL     OW19645   5.803   3.585   2.439
 6249SOL    HW119646   5.779   3.674   2.399
 6249SOL    HW219647   5.764   3.512   2.383
 6250SOL     OW19648   5.427   6.687   6.482
 6250SOL    HW119649   5.467   6.652   6.566
 6250SOL    HW219650   5.459   6.633   6.404
 6251SOL     OW19651   2.600   1.191   4.640
 6251SOL    HW119652   2.585   1.288   4.620
 6251SOL    HW219653   2.569   1.136   4.563
 6252SOL     OW19654   3.342   5.257   0.171
 6252SOL    HW119655   3.250   5.294   0.152
 6252SOL    HW219656   3.401   5.331   0.204
 6253SOL     OW19657   3.694   6.147   3.919
 6253SOL    HW119658   3.788   6.171   3.892
 6253SOL    HW219659   3.663   6.070   3.863
 6254SOL     OW19660   0.551   0.096   1.609
 6254SOL    HW119661   0.572   0.167   1.542
 6254SOL    HW219662   0.461   0.057   1.589
 6255SOL     OW19663   1.059   1.531   0.588
 6255SOL    HW119664   1.008   1.572   0.513
 6255SOL    HW219665   1.132   1.593   0.616
 6256SOL     OW19666   5.954   5.727   2.227
 6256SOL    HW119667   5.961   5.662   2.151
 6256SOL    HW219668   6.034   5.718   2.286
 6257SOL     OW19669   3.577   4.699   0.654
 6257SOL    HW119670   3.554   4.625   0.717
 6257SOL    HW219671   3.628   4.663   0.576
 6258SOL     OW19672   4.275   5.669   4.809
 6258SOL    HW119673   4.178   5.676   4.785
 6258SOL    HW219674   4.320   5.605   4.747
 6259SOL     OW19675   4.324   0.978   5.390
 6259SOL    HW119676   4.385   1.021   5.323
 6259SOL    HW219677   4.360   0.888   5.414
 6260SOL     OW19678   2.354   1.363   0.799
 6260SOL    HW119679   2.290   1.429   0.760
 6260SOL    HW219680   2.409   1.408   0.870
 6261SOL     OW19681   3.568   0.028   0.864
 6261SOL    HW119682   3.563   6.968   0.923
 6261SOL    HW219683   3.476   0.058   0.840
 6262SOL     OW19684   6.132   0.742   2.638
 6262SOL    HW119685   6.224   0.764   2.672
 6262SOL    HW219686   6.097   0.820   2.586
 6263SOL     OW19687   6.297   5.870   6.160
 6263SOL    HW119688   6.273   5.967   6.153
 6263SOL    HW219689   6.376   5.859   6.220
 6264SOL     OW19690   2.414   5.985   0.281
 6264SOL    HW119691   2.331   6.029   0.246
 6264SOL    HW219692   2.481   5.976   0.206
 6265SOL     OW19693   4.190   6.247   6.345
 6265SOL    HW119694   4.214   6.344   6.339
 6265SOL    HW219695   4.253   6.193   6.289
 6266SOL     OW19696   3.421   5.349   2.891
 6266SOL    HW119697   3.358   5.297   2.834
 6266SOL    HW219698   3.374   5.379   2.974
 6267SOL     OW19699   0.817   6.395   4.657
 6267SOL    HW119700   0.740   6.360   4.711
 6267SOL    HW219701   0.893   6.418   4.718
 6268SOL     OW19702   3.139   1.822   0.852
 6268SOL    HW119703   3.068   1.757   0.878
 6268SOL    HW219704   3.224   1.800   0.900
 6269SOL     OW19705   0.031   5.764   6.396
 6269SOL    HW119706   0.055   5.807   6.483
 6269SOL    HW219707   0.113   5.755   6.340
 6270SOL     OW19708   1.904   6.357   0.842
 6270SOL    HW119709   1.902   6.423   0.917
 6270SOL    HW219710   1.817   6.308   0.838
 6271SOL     OW19711   6.673   3.180   6.010
 6271SOL    HW119712   6.663   3.108   6.078
 6271SOL    HW219713   6.756   3.232   6.028
 6272SOL     OW19714   0.054   1.085   6.717
 6272SOL    HW119715   6.995   1.037   6.680
 6272SOL    HW219716   0.035   1.183   6.724
 6273SOL     OW19717   0.434   6.779   2.862
 6273SOL    HW119718   0.380   6.786   2.778
 6273SOL    HW219719   0.518   6.831   2.851
 6274SOL     OW19720   2.931   5.702   3.761
 6274SOL    HW119721   2.967   5.665   3.847
 6274SOL    HW219722   2.855   5.764   3.781
 6275SOL     OW19723   2.916   6.073   6.576
 6275SOL    HW119724   2.948   6.138   6.507
 6275SOL    HW219725   2.992   6.048   6.636
 6276SOL     OW19726   1.467   5.415   2.707
 6276SOL    HW119727   1.558   5.374   2.708
 6276SOL    HW219728   1.434   5.423   2.801
 6277SOL     OW19729   5.110   2.733   1.420
 6277SOL    HW119730   5.081   2.738   1.515
 6277SOL    HW219731   5.052   2.792   1.364
 6278SOL     OW19732   4.362   2.176   0.807
 6278SOL    HW119733   4.397   2.255   0.857
 6278SOL    HW219734   4.352   2.199   0.711
 6279SOL     OW19735   3.022   6.824   1.446
 6279SOL    HW119736   3.082   6.745   1.456
 6279SOL    HW219737   2.974   6.841   1.532
 6280SOL     OW19738   5.096   2.068   6.584
 6280SOL    HW119739   5.032   2.001   6.546
 6280SOL    HW219740   5.173   2.081   6.522
 6281SOL     OW19741   5.051   4.735   5.917
 6281SOL    HW119742   5.014   4.767   6.004
 6281SOL    HW219743   5.150   4.746   5.917
 6282SOL     OW19744   0.755   3.747   6.098
 6282SOL    HW119745   0.691   3.713   6.028
 6282SOL    HW219746   0.786   3.670   6.154
 6283SOL     OW19747   2.580   6.748   4.798
 6283SOL    HW119748   2.536   6.772   4.711
 6283SOL    HW219749   2.559   6.653   4.821
 6284SOL     OW19750   1.793   3.151   5.557
 6284SOL    HW119751   1.763   3.230   5.504
 6284SOL    HW219752   1.727   3.076   5.546
 6285SOL     OW19753   1.283   3.333   2.797
 6285SOL    HW119754   1.289   3.433   2.800
 6285SOL    HW219755   1.341   3.295   2.869
 6286SOL     OW19756   0.723   2.216   6.884
 6286SOL    HW119757   0.667   2.160   6.823
 6286SOL    HW219758   0.719   2.311   6.853
 6287SOL     OW19759   4.333   4.990   4.854
 6287SOL    HW119760   4.365   5.006   4.947
 6287SOL    HW219761   4.264   5.059   4.831
 6288SOL     OW19762   2.683   3.880   5.586
 6288SOL    HW119763   2.619   3.936   5.638
 6288SOL    HW219764   2.777   3.910   5.604
 6289SOL     OW19765   2.123   4.859   4.535
 6289SOL    HW119766   2.163   4.778   4.493
 6289SOL    HW219767   2.169   4.940   4.501
 6290SOL     OW19768   5.885   0.101   4.035
 6290SOL    HW119769   5.802   0.110   3.980
 6290SOL    HW219770   5.965   0.106   3.976
 6291SOL     OW19771   3.616   3.614   2.160
 6291SOL    HW119772   3.715   3.600   2.148
 6291SOL    HW219773   3.594   3.710   2.143
 6292SOL     OW19774   1.498   4.941   4.799
 6292SOL    HW119775   1.513   4.969   4.893
 6292SOL    HW219776   1.464   4.847   4.796
 6293SOL     OW19777   3.066   1.662   6.343
 6293SOL    HW119778   3.088   1.664   6.245
 6293SOL    HW219779   3.118   1.589   6.387
 6294SOL     OW19780   2.167   1.353   2.092
 6294SOL    HW119781   2.266   1.351   2.106
 6294SOL    HW219782   2.123   1.295   2.160
 6295SOL     OW19783   4.456   3.804   6.312
 6295SOL    HW119784   4.444   3.889   6.260
 6295SOL    HW219785   4.366   3.763   6.330
 6296SOL     OW19786   0.566   2.715   6.824
 6296SOL    HW119787   0.646   2.660   6.798
 6296SOL    HW219788   0.596   2.794   6.877
 6297SOL     OW19789   6.814   1.156   3.956
 6297SOL    HW119790   6.746   1.226   3.934
 6297SOL    HW219791   6.892   1.165   3.894
 6298SOL     OW19792   0.235   6.506   0.634
 6298SOL    HW119793   0.308   6.509   0.566
 6298SOL    HW219794   0.250   6.430   0.697
 6299SOL     OW19795   3.874   1.455   4.275
 6299SOL    HW119796   3.839   1.362   4.281
 6299SOL    HW219797   3.830   1.503   4.199
 6300SOL     OW19798   2.971   2.144   0.323
 6300SOL    HW119799   2.912   2.084   0.379
 6300SOL    HW219800   2.915   2.187   0.252
 6301SOL     OW19801   4.034   6.081   6.523
 6301SOL    HW119802   4.083   6.154   6.476
 6301SOL    HW219803   4.004   6.012   6.456
 6302SOL     OW19804   1.203   3.251   6.901
 6302SOL    HW119805   1.214   3.342   6.942
 6302SOL    HW219806   1.150   3.259   6.816
 6303SOL     OW19807   0.600   5.251   4.422
 6303SOL    HW119808   0.632   5.253   4.517
 6303SOL    HW219809   0.506   5.285   4.418
 6304SOL     OW19810   2.941   0.756   4.086
 6304SOL    HW119811   2.951   0.798   3.995
 6304SOL    HW219812   2.907   0.825   4.151
 6305SOL     OW19813   0.660   5.906   5.759
 6305SOL    HW119814   0.629   5.895   5.664
 6305SOL    HW219815   0.583   5.933   5.816
 6306SOL     OW19816   0.402   4.316   4.499
 6306SOL    HW119817   0.371   4.361   4.583
 6306SOL    HW219818   0.500   4.296   4.506
 6307SOL     OW19819   3.788   2.874   2.303
 6307SOL    HW119820   3.772   2.834   2.213
 6307SOL    HW219821   3.809   2.971   2.294
 6308SOL     OW19822   0.989   2.095   0.608
 6308SOL    HW119823   1.019   2.176   0.557
 6308SOL    HW219824   1.068   2.040   0.633
 6309SOL     OW19825   1.901   6.258   4.858
 6309SOL    HW119826   1.819   6.207   4.885
 6309SOL    HW219827   1.963   6.198   4.808
 6310SOL     OW19828   0.994   6.917   3.774
 6310SOL    HW119829   0.914   6.860   3.795
 6310SOL    HW219830   0.991   7.001   3.829
 6311SOL     OW19831   6.366   1.351   6.333
 6311SOL    HW119832   6.351   1.417   6.260
 6311SOL    HW219833   6.452   1.371   6.380
 6312SOL     OW19834   3.034   5.583   0.360
 6312SOL    HW119835   3.119   5.556   0.405
 6312SOL    HW219836   2.959   5.579   0.425
 6313SOL     OW19837   5.980   4.414   3.769
 6313SOL    HW119838   5.989   4.437   3.672
 6313SOL    HW219839   5.997   4.495   3.825
 6314SOL     OW19840   1.772   6.164   2.826
 6314SOL    HW119841   1.737   6.078   2.862
 6314SOL    HW219842   1.707   6.202   2.760
 6315SOL     OW19843   2.180   1.810   3.653
 6315SOL    HW119844   2.170   1.863   3.737
 6315SOL    HW219845   2.176   1.712   3.675
 6316SOL     OW19846   4.412   0.678   4.964
 6316SOL    HW119847   4.431   0.685   5.062
 6316SOL    HW219848   4.492   0.708   4.912
 6317SOL     OW19849   4.932   4.579   2.740
 6317SOL    HW119850   4.950   4.621   2.651
 6317SOL    HW219851   5.007   4.518   2.764
 6318SOL     OW19852   6.232   0.008   6.885
 6318SOL    HW119853   6.291   7.000   6.809
 6318SOL    HW219854   6.164   6.957   6.902
 6319SOL     OW19855   4.652   1.911   4.382
 6319SOL    HW119856   4.720   1.851   4.341
 6319SOL    HW219857   4.590   1.945   4.311
 6320SOL     OW19858   6.529   1.477   5.350
 6320SOL    HW119859   6.439   1.458   5.391
 6320SOL    HW219860   6.534   1.436   5.259
 6321SOL     OW19861   0.448   2.685   0.375
 6321SOL    HW119862   0.429   2.780   0.396
 6321SOL    HW219863   0.389   2.654   0.301
 6322SOL     OW19864   1.522   1.430   3.012
 6322SOL    HW119865   1.611   1.466   2.981
 6322SOL    HW219866   1.449   1.488   2.976
 6323SOL     OW19867   2.293   4.975   0.836
 6323SOL    HW119868   2.207   4.947   0.879
 6323SOL    HW219869   2.274   5.011   0.745
 6324SOL     OW19870   4.545   3.532   1.395
 6324SOL    HW119871   4.640   3.513   1.370
 6324SOL    HW219872   4.484   3.490   1.328
 6325SOL     OW19873   1.838   2.991   3.944
 6325SOL    HW119874   1.797   3.082   3.947
 6325SOL    HW219875   1.837   2.950   4.035
 6326SOL     OW19876   5.465   5.417   5.283
 6326SOL    HW119877   5.474   5.365   5.369
 6326SOL    HW219878   5.512   5.368   5.210
 6327SOL     OW19879   0.781   1.219   3.239
 6327SOL    HW119880   0.764   1.201   3.336
 6327SOL    HW219881   0.798   1.317   3.227
 6328SOL     OW19882   4.743   3.768   5.406
 6328SOL    HW119883   4.678   3.706   5.448
 6328SOL    HW219884   4.813   3.716   5.357
 6329SOL     OW19885   1.078   2.296   5.952
 6329SOL    HW119886   1.163   2.262   5.911
 6329SOL    HW219887   1.025   2.219   5.987
 6330SOL     OW19888   4.436   1.636   4.136
 6330SOL    HW119889   4.500   1.577   4.087
 6330SOL    HW219890   4.344   1.598   4.129
 6331SOL     OW19891   1.121   3.477   3.580
 6331SOL    HW119892   1.053   3.458   3.650
 6331SOL    HW219893   1.210   3.491   3.623
 6332SOL     OW19894   3.200   1.862   6.878
 6332SOL    HW119895   3.127   1.816   6.928
 6332SOL    HW219896   3.223   1.809   6.796
 6333SOL     OW19897   5.576   0.832   0.813
 6333SOL    HW119898   5.505   0.762   0.823
 6333SOL    HW219899   5.658   0.792   0.773
 6334SOL     OW19900   1.679   0.988   1.707
 6334SOL    HW119901   1.715   1.062   1.649
 6334SOL    HW219902   1.712   1.001   1.801
 6335SOL     OW19903   6.964   3.270   6.170
 6335SOL    HW119904   6.932   3.318   6.089
 6335SOL    HW219905   0.042   3.254   6.163
 6336SOL     OW19906   0.387   4.075   5.527
 6336SOL    HW119907   0.355   4.083   5.621
 6336SOL    HW219908   0.437   3.990   5.516
 6337SOL     OW19909   5.644   0.275   5.100
 6337SOL    HW119910   5.553   0.313   5.084
 6337SOL    HW219911   5.678   0.232   5.017
 6338SOL     OW19912   1.138   0.927   3.233
 6338SOL    HW119913   1.171   0.860   3.166
 6338SOL    HW219914   1.117   1.013   3.186
 6339SOL     OW19915   0.353   3.313   3.182
 6339SOL    HW119916   0.379   3.290   3.276
 6339SOL    HW219917   0.385   3.405   3.160
 6340SOL     OW19918   2.674   4.850   0.370
 6340SOL    HW119919   2.602   4.823   0.434
 6340SOL    HW219920   2.637   4.914   0.303
 6341SOL     OW19921   6.946   5.514   2.022
 6341SOL    HW119922   6.919   5.548   1.932
 6341SOL    HW219923   7.013   5.440   2.011
 6342SOL     OW19924   2.243   0.963   1.810
 6342SOL    HW119925   2.269   0.897   1.880
 6342SOL    HW219926   2.143   0.964   1.801
 6343SOL     OW19927   1.364   5.362   0.401
 6343SOL    HW119928   1.394   5.429   0.334
 6343SOL    HW219929   1.279   5.393   0.444
 6344SOL     OW19930   1.415   1.375   4.411
 6344SOL    HW119931   1.358   1.363   4.330
 6344SOL    HW219932   1.419   1.471   4.436
 6345SOL     OW19933   5.893   2.823   2.939
 6345SOL    HW119934   5.978   2.859   2.899
 6345SOL    HW219935   5.879   2.729   2.911
 6346SOL     OW19936   0.155   4.323   4.995
 6346SOL    HW119937   0.106   4.362   4.918
 6346SOL    HW219938   0.191   4.233   4.969
 6347SOL     OW19939   2.022   2.522   3.619
 6347SOL    HW119940   1.932   2.565   3.619
 6347SOL    HW219941   2.087   2.581   3.666
 6348SOL     OW19942   1.128   3.017   6.685
 6348SOL    HW119943   1.156   2.978   6.597
 6348SOL    HW219944   1.210   3.045   6.736
 6349SOL     OW19945   5.960   1.040   0.884
 6349SOL    HW119946   5.903   1.081   0.955
 6349SOL    HW219947   6.053   1.076   0.892
 6350SOL     OW19948   1.021   6.275   1.310
 6350SOL    HW119949   1.053   6.345   1.373
 6350SOL    HW219950   0.947   6.222   1.352
 6351SOL     OW19951   5.822   3.714   1.397
 6351SOL    HW119952   5.781   3.693   1.486
 6351SOL    HW219953   5.886   3.790   1.407
 6352SOL     OW19954   3.800   0.539   4.659
 6352SOL    HW119955   3.700   0.538   4.651
 6352SOL    HW219956   3.840   0.566   4.572
 6353SOL     OW19957   3.745   6.104   5.116
 6353SOL    HW119958   3.747   6.006   5.097
 6353SOL    HW219959   3.655   6.129   5.151
 6354SOL     OW19960   5.168   5.061   2.419
 6354SOL    HW119961   5.164   5.049   2.518
 6354SOL    HW219962   5.078   5.087   2.385
 6355SOL     OW19963   3.603   5.842   1.150
 6355SOL    HW119964   3.525   5.788   1.117
 6355SOL    HW219965   3.582   5.940   1.140
 6356SOL     OW19966   0.206   6.274   6.493
 6356SOL    HW119967   0.176   6.325   6.574
 6356SOL    HW219968   0.127   6.252   6.436
 6357SOL     OW19969   4.856   1.263   3.175
 6357SOL    HW119970   4.946   1.234   3.145
 6357SOL    HW219971   4.865   1.338   3.240
 6358SOL     OW19972   1.029   1.857   4.511
 6358SOL    HW119973   0.977   1.788   4.561
 6358SOL    HW219974   1.123   1.861   4.546
 6359SOL     OW19975   5.462   5.975   1.868
 6359SOL    HW119976   5.483   5.893   1.921
 6359SOL    HW219977   5.543   6.033   1.864
 6360SOL     OW19978   1.797   2.023   1.104
 6360SOL    HW119979   1.820   1.926   1.097
 6360SOL    HW219980   1.881   2.078   1.098
 6361SOL     OW19981   0.481   1.496   1.310
 6361SOL    HW119982   0.472   1.396   1.307
 6361SOL    HW219983   0.451   1.529   1.399
 6362SOL     OW19984   1.825   5.264   0.298
 6362SOL    HW119985   1.727   5.241   0.299
 6362SOL    HW219986   1.869   5.223   0.378
 6363SOL     OW19987   1.647   3.501   1.822
 6363SOL    HW119988   1.632   3.437   1.746
 6363SOL    HW219989   1.745   3.518   1.832
 6364SOL     OW19990   2.639   1.640   3.728
 6364SOL    HW119991   2.697   1.560   3.745
 6364SOL    HW219992   2.583   1.658   3.809
 6365SOL     OW19993   6.046   6.945   2.977
 6365SOL    HW119994   6.128   6.902   3.016
 6365SOL    HW219995   5.968   6.928   3.037
 6366SOL     OW19996   5.670   0.765   5.182
 6366SOL    HW119997   5.584   0.796   5.143
 6366SOL    HW219998   5.721   0.713   5.113
 6367SOL     OW19999   1.141   2.227   3.637
 6367SOL    HW120000   1.238   2.221   3.611
 6367SOL    HW220001   1.090   2.272   3.563
 6368SOL     OW20002   4.979   3.492   4.865
 6368SOL    HW120003   5.075   3.491   4.896
 6368SOL    HW220004   4.920   3.516   4.942
 6369SOL     OW20005   4.199   4.565   0.452
 6369SOL    HW120006   4.190   4.656   0.491
 6369SOL    HW220007   4.177   4.496   0.521
 6370SOL     OW20008   5.692   4.574   4.497
 6370SOL    HW120009   5.766   4.510   4.478
 6370SOL    HW220010   5.611   4.523   4.529
 6371SOL     OW20011   5.733   4.858   0.902
 6371SOL    HW120012   5.734   4.789   0.974
 6371SOL    HW220013   5.827   4.890   0.886
 6372SOL     OW20014   6.659   1.482   1.840
 6372SOL    HW120015   6.686   1.393   1.803
 6372SOL    HW220016   6.565   1.476   1.875
 6373SOL     OW20017   4.869   3.177   2.242
 6373SOL    HW120018   4.781   3.223   2.253
 6373SOL    HW220019   4.896   3.179   2.146
 6374SOL     OW20020   4.907   3.024   6.291
 6374SOL    HW120021   4.868   3.080   6.364
 6374SOL    HW220022   4.835   3.004   6.223
 6375SOL     OW20023   4.847   1.071   1.967
 6375SOL    HW120024   4.832   1.144   1.900
 6375SOL    HW220025   4.944   1.068   1.991
 6376SOL     OW20026   2.883   0.205   0.380
 6376SOL    HW120027   2.963   0.239   0.429
 6376SOL    HW220028   2.811   0.182   0.446
 6377SOL     OW20029   0.291   0.803   7.008
 6377SOL    HW120030   0.195   0.805   0.015
 6377SOL    HW220031   0.343   0.868   0.044
 6378SOL     OW20032   5.659   4.637   2.401
 6378SOL    HW120033   5.742   4.690   2.419
 6378SOL    HW220034   5.589   4.662   2.468
 6379SOL     OW20035   1.838   5.242   6.284
 6379SOL    HW120036   1.771   5.292   6.230
 6379SOL    HW220037   1.844   5.281   6.375
 6380SOL     OW20038   1.529   3.121   5.414
 6380SOL    HW120039   1.542   3.051   5.484
 6380SOL    HW220040   1.493   3.078   5.331
 6381SOL     OW20041   4.042   3.821   0.410
 6381SOL    HW120042   4.120   3.851   0.466
 6381SOL    HW220043   3.974   3.893   0.407
 6382SOL     OW20044   1.678   1.205   0.523
 6382SOL    HW120045   1.730   1.286   0.551
 6382SOL    HW220046   1.653   1.212   0.427
 6383SOL     OW20047   2.472   2.563   2.242
 6383SOL    HW120048   2.534   2.500   2.194
 6383SOL    HW220049   2.486   2.555   2.340
 6384SOL     OW20050   6.509   2.814   2.004
 6384SOL    HW120051   6.449   2.893   1.990
 6384SOL    HW220052   6.457   2.739   2.045
 6385SOL     OW20053   6.574   3.710   0.333
 6385SOL    HW120054   6.614   3.796   0.366
 6385SOL    HW220055   6.635   3.634   0.354
 6386SOL     OW20056   3.027   3.222   0.140
 6386SOL    HW120057   2.959   3.158   0.105
 6386SOL    HW220058   2.982   3.286   0.203
 6387SOL     OW20059   6.657   0.025   6.728
 6387SOL    HW120060   6.750   0.056   6.705
 6387SOL    HW220061   6.600   0.104   6.750
 6388SOL     OW20062   5.506   5.359   2.014
 6388SOL    HW120063   5.592   5.362   1.964
 6388SOL    HW220064   5.519   5.314   2.102
 6389SOL     OW20065   6.943   6.695   0.347
 6389SOL    HW120066   6.905   6.603   0.352
 6389SOL    HW220067   6.876   6.761   0.381
 6390SOL     OW20068   5.512   0.334   0.093
 6390SOL    HW120069   5.427   0.304   0.136
 6390SOL    HW220070   5.590   0.287   0.134
 6391SOL     OW20071   1.530   1.900   4.835
 6391SOL    HW120072   1.551   1.920   4.931
 6391SOL    HW220073   1.497   1.983   4.790
 6392SOL     OW20074   4.661   0.124   4.120
 6392SOL    HW120075   4.720   0.204   4.130
 6392SOL    HW220076   4.600   0.137   4.042
 6393SOL     OW20077   1.782   4.572   0.597
 6393SOL    HW120078   1.814   4.494   0.652
 6393SOL    HW220079   1.767   4.650   0.658
 6394SOL     OW20080   2.004   5.025   1.270
 6394SOL    HW120081   2.099   5.000   1.289
 6394SOL    HW220082   1.956   4.946   1.232
 6395SOL     OW20083   2.001   4.323   4.125
 6395SOL    HW120084   2.099   4.314   4.142
 6395SOL    HW220085   1.970   4.412   4.158
 6396SOL     OW20086   1.883   2.764   5.484
 6396SOL    HW120087   1.936   2.848   5.473
 6396SOL    HW220088   1.891   2.708   5.402
 6397SOL     OW20089   6.257   3.565   4.956
 6397SOL    HW120090   6.247   3.664   4.951
 6397SOL    HW220091   6.224   3.533   5.045
 6398SOL     OW20092   2.060   0.380   2.496
 6398SOL    HW120093   2.099   0.472   2.500
 6398SOL    HW220094   2.054   0.342   2.588
 6399SOL     OW20095   3.393   6.784   0.330
 6399SOL    HW120096   3.403   6.698   0.381
 6399SOL    HW220097   3.355   6.764   0.240
 6400SOL     OW20098   0.449   0.012   2.581
 6400SOL    HW120099   0.380   0.076   2.615
 6400SOL    HW220100   0.411   6.979   2.506
 6401SOL     OW20101   3.974   5.109   2.721
 6401SOL    HW120102   3.932   5.130   2.810
 6401SOL    HW220103   3.907   5.126   2.648
 6402SOL     OW20104   3.020   4.577   5.523
 6402SOL    HW120105   3.072   4.662   5.512
 6402SOL    HW220106   2.929   4.589   5.483
 6403SOL     OW20107   5.123   5.268   5.641
 6403SOL    HW120108   5.158   5.296   5.552
 6403SOL    HW220109   5.050   5.200   5.628
 6404SOL     OW20110   4.855   5.874   0.485
 6404SOL    HW120111   4.794   5.939   0.531
 6404SOL    HW220112   4.934   5.924   0.449
 6405SOL     OW20113   4.367   1.349   2.936
 6405SOL    HW120114   4.328   1.400   2.859
 6405SOL    HW220115   4.443   1.292   2.903
 6406SOL     OW20116   0.293   3.159   2.954
 6406SOL    HW120117   0.310   3.209   3.039
 6406SOL    HW220118   0.202   3.116   2.958
 6407SOL     OW20119   0.311   6.832   2.383
 6407SOL    HW120120   0.333   6.749   2.332
 6407SOL    HW220121   0.231   6.876   2.342
 6408SOL     OW20122   0.112   1.065   1.766
 6408SOL    HW120123   0.047   1.142   1.759
 6408SOL    HW220124   0.205   1.100   1.757
 6409SOL     OW20125   5.525   4.547   3.481
 6409SOL    HW120126   5.475   4.464   3.459
 6409SOL    HW220127   5.516   4.613   3.407
 6410SOL     OW20128   1.888   1.125   0.263
 6410SOL    HW120129   1.943   1.187   0.318
 6410SOL    HW220130   1.806   1.172   0.230
 6411SOL     OW20131   0.464   2.851   2.191
 6411SOL    HW120132   0.549   2.901   2.176
 6411SOL    HW220133   0.416   2.890   2.270
 6412SOL     OW20134   3.797   0.606   6.647
 6412SOL    HW120135   3.824   0.688   6.595
 6412SOL    HW220136   3.837   0.525   6.604
 6413SOL     OW20137   4.884   6.535   3.307
 6413SOL    HW120138   4.951   6.463   3.291
 6413SOL    HW220139   4.841   6.560   3.220
 6414SOL     OW20140   2.757   0.642   0.708
 6414SOL    HW120141   2.729   0.592   0.627
 6414SOL    HW220142   2.743   0.585   0.789
 6415SOL     OW20143   1.141   1.779   3.561
 6415SOL    HW120144   1.191   1.846   3.506
 6415SOL    HW220145   1.172   1.784   3.656
 6416SOL     OW20146   3.331   5.022   0.319
 6416SOL    HW120147   3.427   4.997   0.300
 6416SOL    HW220148   3.309   5.108   0.273
 6417SOL     OW20149   4.142   2.739   6.918
 6417SOL    HW120150   4.241   2.731   6.933
 6417SOL    HW220151   4.126   2.783   6.829
 6418SOL     OW20152   5.032   5.031   0.318
 6418SOL    HW120153   4.980   5.006   0.399
 6418SOL    HW220154   5.094   5.107   0.341
 6419SOL     OW20155   0.991   6.517   6.710
 6419SOL    HW120156   1.089   6.528   6.697
 6419SOL    HW220157   0.942   6.578   6.647
 6420SOL     OW20158   2.758   4.782   3.847
 6420SOL    HW120159   2.712   4.865   3.878
 6420SOL    HW220160   2.853   4.782   3.878
 6421SOL     OW20161   4.712   6.897   1.663
 6421SOL    HW120162   4.629   6.952   1.665
 6421SOL    HW220163   4.693   6.809   1.620
 6422SOL     OW20164   6.968   2.995   4.734
 6422SOL    HW120165   0.010   2.917   4.732
 6422SOL    HW220166   7.016   3.077   4.703
 6423SOL     OW20167   0.956   4.458   4.824
 6423SOL    HW120168   1.028   4.509   4.870
 6423SOL    HW220169   0.880   4.442   4.887
 6424SOL     OW20170   6.911   4.699   6.024
 6424SOL    HW120171   6.971   4.717   5.946
 6424SOL    HW220172   6.850   4.623   6.002
 6425SOL     OW20173   7.019   6.100   4.253
 6425SOL    HW120174   0.044   6.100   4.342
 6425SOL    HW220175   0.049   6.160   4.191
 6426SOL     OW20176   4.627   5.245   4.426
 6426SOL    HW120177   4.608   5.167   4.366
 6426SOL    HW220178   4.576   5.234   4.512
 6427SOL     OW20179   4.059   3.243   3.404
 6427SOL    HW120180   3.970   3.210   3.374
 6427SOL    HW220181   4.129   3.212   3.340
 6428SOL     OW20182   5.661   3.071   0.293
 6428SOL    HW120183   5.592   3.136   0.260
 6428SOL    HW220184   5.626   2.978   0.283
 6429SOL     OW20185   2.362   1.516   5.343
 6429SOL    HW120186   2.439   1.516   5.406
 6429SOL    HW220187   2.303   1.595   5.362
 6430SOL     OW20188   6.210   1.092   5.182
 6430SOL    HW120189   6.242   1.033   5.257
 6430SOL    HW220190   6.114   1.073   5.163
 6431SOL     OW20191   3.395   5.208   2.495
 6431SOL    HW120192   3.446   5.125   2.474
 6431SOL    HW220193   3.387   5.218   2.594
 6432SOL     OW20194   4.793   3.115   5.723
 6432SOL    HW120195   4.758   3.190   5.668
 6432SOL    HW220196   4.766   3.028   5.682
 6433SOL     OW20197   3.870   4.606   5.561
 6433SOL    HW120198   3.966   4.605   5.590
 6433SOL    HW220199   3.866   4.632   5.464
 6434SOL     OW20200   5.522   5.268   5.940
 6434SOL    HW120201   5.452   5.288   5.871
 6434SOL    HW220202   5.613   5.284   5.901
 6435SOL     OW20203   4.755   1.110   0.839
 6435SOL    HW120204   4.664   1.114   0.881
 6435SOL    HW220205   4.811   1.042   0.886
 6436SOL     OW20206   0.383   3.506   3.615
 6436SOL    HW120207   0.346   3.501   3.708
 6436SOL    HW220208   0.317   3.553   3.556
 6437SOL     OW20209   1.353   2.777   5.817
 6437SOL    HW120210   1.299   2.702   5.779
 6437SOL    HW220211   1.344   2.858   5.759
 6438SOL     OW20212   0.461   5.494   0.023
 6438SOL    HW120213   0.369   5.513   7.007
 6438SOL    HW220214   0.505   5.580   0.048
 6439SOL     OW20215   5.550   0.022   2.217
 6439SOL    HW120216   5.520   6.969   2.279
 6439SOL    HW220217   5.597   0.092   2.270
 6440SOL     OW20218   2.762   1.557   6.157
 6440SOL    HW120219   2.718   1.518   6.238
 6440SOL    HW220220   2.759   1.657   6.161
 6441SOL     OW20221   0.305   1.996   2.078
 6441SOL    HW120222   0.384   2.000   2.017
 6441SOL    HW220223   0.230   1.947   2.034
 6442SOL     OW20224   2.463   2.178   4.797
 6442SOL    HW120225   2.504   2.193   4.887
 6442SOL    HW220226   2.447   2.081   4.784
 6443SOL     OW20227   3.591   3.042   6.526
 6443SOL    HW120228   3.668   3.021   6.465
 6443SOL    HW220229   3.607   3.131   6.570
 6444SOL     OW20230   6.861   4.250   4.555
 6444SOL    HW120231   6.809   4.267   4.471
 6444SOL    HW220232   6.845   4.156   4.586
 6445SOL     OW20233   3.314   2.878   3.485
 6445SOL    HW120234   3.256   2.892   3.406
 6445SOL    HW220235   3.325   2.780   3.502
 6446SOL     OW20236   1.360   0.922   0.410
 6446SOL    HW120237   1.424   0.850   0.435
 6446SOL    HW220238   1.267   0.885   0.407
 6447SOL     OW20239   5.488   3.597   2.016
 6447SOL    HW120240   5.520   3.644   1.934
 6447SOL    HW220241   5.391   3.615   2.029
 6448SOL     OW20242   4.480   4.564   1.135
 6448SOL    HW120243   4.551   4.512   1.181
 6448SOL    HW220244   4.482   4.544   1.037
 6449SOL     OW20245   3.261   4.873   0.747
 6449SOL    HW120246   3.291   4.808   0.816
 6449SOL    HW220247   3.161   4.879   0.747
 6450SOL     OW20248   6.332   3.801   6.674
 6450SOL    HW120249   6.340   3.701   6.677
 6450SOL    HW220250   6.241   3.826   6.641
 6451SOL     OW20251   4.281   2.631   1.686
 6451SOL    HW120252   4.202   2.689   1.701
 6451SOL    HW220253   4.362   2.673   1.726
 6452SOL     OW20254   3.823   1.986   4.963
 6452SOL    HW120255   3.905   2.042   4.974
 6452SOL    HW220256   3.846   1.890   4.976
 6453SOL     OW20257   1.794   0.148   2.807
 6453SOL    HW120258   1.838   0.104   2.886
 6453SOL    HW220259   1.860   0.158   2.733
 6454SOL     OW20260   4.959   2.783   4.219
 6454SOL    HW120261   4.956   2.883   4.217
 6454SOL    HW220262   4.940   2.751   4.312
 6455SOL     OW20263   6.888   2.969   3.947
 6455SOL    HW120264   6.811   3.000   3.891
 6455SOL    HW220265   6.859   2.964   4.043
 6456SOL     OW20266   6.370   2.039   2.053
 6456SOL    HW120267   6.453   2.035   2.108
 6456SOL    HW220268   6.301   1.978   2.091
 6457SOL     OW20269   2.709   6.309   2.656
 6457SOL    HW120270   2.690   6.400   2.691
 6457SOL    HW220271   2.623   6.260   2.641
 6458SOL     OW20272   0.198   6.780   4.733
 6458SOL    HW120273   0.196   6.836   4.816
 6458SOL    HW220274   0.109   6.787   4.686
 6459SOL     OW20275   0.755   3.178   3.068
 6459SOL    HW120276   0.673   3.177   3.126
 6459SOL    HW220277   0.826   3.234   3.111
 6460SOL     OW20278   1.499   5.304   6.372
 6460SOL    HW120279   1.554   5.244   6.313
 6460SOL    HW220280   1.418   5.334   6.323
 6461SOL     OW20281   1.024   6.150   0.853
 6461SOL    HW120282   0.997   6.163   0.758
 6461SOL    HW220283   1.110   6.199   0.870
 6462SOL     OW20284   1.718   3.811   5.273
 6462SOL    HW120285   1.649   3.754   5.318
 6462SOL    HW220286   1.809   3.776   5.295
 6463SOL     OW20287   5.143   3.174   1.317
 6463SOL    HW120288   5.109   3.227   1.239
 6463SOL    HW220289   5.223   3.122   1.288
 6464SOL     OW20290   0.818   4.154   3.739
 6464SOL    HW120291   0.863   4.091   3.802
 6464SOL    HW220292   0.851   4.247   3.754
 6465SOL     OW20293   2.838   0.850   3.702
 6465SOL    HW120294   2.908   0.921   3.697
 6465SOL    HW220295   2.767   0.877   3.767
 6466SOL     OW20296   0.000   4.884   6.799
 6466SOL    HW120297   6.957   4.878   6.722
 6466SOL    HW220298   6.981   4.840   6.880
 6467SOL     OW20299   2.061   2.093   6.337
 6467SOL    HW120300   2.014   2.072   6.423
 6467SOL    HW220301   2.003   2.150   6.280
 6468SOL     OW20302   1.833   0.405   1.199
 6468SOL    HW120303   1.867   0.474   1.263
 6468SOL    HW220304   1.758   0.355   1.240
 6469SOL     OW20305   2.416   1.123   1.639
 6469SOL    HW120306   2.366   1.061   1.699
 6469SOL    HW220307   2.504   1.083   1.614
 6470SOL     OW20308   6.395   1.557   6.998
 6470SOL    HW120309   6.341   1.641   7.007
 6470SOL    HW220310   6.478   1.565   0.033
 6471SOL     OW20311   0.308   6.438   5.763
 6471SOL    HW120312   0.318   6.507   5.834
 6471SOL    HW220313   0.381   6.371   5.770
 6472SOL     OW20314   6.875   6.256   2.691
 6472SOL    HW120315   6.841   6.213   2.607
 6472SOL    HW220316   6.798   6.284   2.748
 6473SOL     OW20317   2.467   0.838   3.051
 6473SOL    HW120318   2.520   0.910   3.005
 6473SOL    HW220319   2.464   0.856   3.149
 6474SOL     OW20320   3.850   6.307   4.207
 6474SOL    HW120321   3.750   6.315   4.214
 6474SOL    HW220322   3.874   6.241   4.137
 6475SOL     OW20323   5.588   5.543   2.852
 6475SOL    HW120324   5.663   5.495   2.898
 6475SOL    HW220325   5.584   5.637   2.884
 6476SOL     OW20326   4.569   3.055   6.407
 6476SOL    HW120327   4.579   2.970   6.458
 6476SOL    HW220328   4.565   3.132   6.470
 6477SOL     OW20329   0.414   6.491   1.081
 6477SOL    HW120330   0.326   6.471   1.038
 6477SOL    HW220331   0.486   6.491   1.012
 6478SOL     OW20332   2.340   5.894   0.999
 6478SOL    HW120333   2.315   5.825   1.067
 6478SOL    HW220334   2.356   5.850   0.911
 6479SOL     OW20335   4.644   6.104   3.207
 6479SOL    HW120336   4.656   6.172   3.280
 6479SOL    HW220337   4.567   6.044   3.229
 6480SOL     OW20338   3.517   1.793   6.240
 6480SOL    HW120339   3.550   1.764   6.329
 6480SOL    HW220340   3.543   1.726   6.171
 6481SOL     OW20341   4.145   3.165   2.022
 6481SOL    HW120342   4.128   3.091   1.956
 6481SOL    HW220343   4.240   3.195   2.015
 6482SOL     OW20344   4.885   3.491   5.637
 6482SOL    HW120345   4.933   3.406   5.617
 6482SOL    HW220346   4.792   3.471   5.668
 6483SOL     OW20347   1.817   5.836   4.965
 6483SOL    HW120348   1.719   5.838   4.980
 6483SOL    HW220349   1.848   5.741   4.953
 6484SOL     OW20350   4.018   1.277   3.396
 6484SOL    HW120351   4.096   1.244   3.449
 6484SOL    HW220352   4.014   1.377   3.400
 6485SOL     OW20353   2.631   5.905   4.918
 6485SOL    HW120354   2.694   5.833   4.889
 6485SOL    HW220355   2.554   5.864   4.967
 6486SOL     OW20356   0.087   4.814   2.767
 6486SOL    HW120357   0.097   4.718   2.793
 6486SOL    HW220358   0.030   4.861   2.834
 6487SOL     OW20359   6.575   5.116   3.648
 6487SOL    HW120360   6.545   5.185   3.714
 6487SOL    HW220361   6.609   5.161   3.566
 6488SOL     OW20362   3.464   5.284   4.210
 6488SOL    HW120363   3.473   5.288   4.310
 6488SOL    HW220364   3.529   5.348   4.169
 6489SOL     OW20365   5.411   3.263   4.577
 6489SOL    HW120366   5.378   3.288   4.486
 6489SOL    HW220367   5.354   3.189   4.614
 6490SOL     OW20368   2.245   2.333   0.360
 6490SOL    HW120369   2.246   2.318   0.458
 6490SOL    HW220370   2.222   2.248   0.312
 6491SOL     OW20371   1.854   6.527   1.796
 6491SOL    HW120372   1.952   6.513   1.781
 6491SOL    HW220373   1.820   6.460   1.861
 6492SOL     OW20374   4.024   3.914   4.200
 6492SOL    HW120375   3.961   3.930   4.123
 6492SOL    HW220376   4.096   3.983   4.199
 6493SOL     OW20377   1.458   4.531   4.145
 6493SOL    HW120378   1.514   4.533   4.228
 6493SOL    HW220379   1.517   4.523   4.065
 6494SOL     OW20380   6.758   1.084   1.466
 6494SOL    HW120381   6.844   1.121   1.431
 6494SOL    HW220382   6.748   0.989   1.438
 6495SOL     OW20383   6.827   6.934   3.568
 6495SOL    HW120384   6.910   6.898   3.609
 6495SOL    HW220385   6.850   7.000   3.496
 6496SOL     OW20386   3.326   2.147   1.862
 6496SOL    HW120387   3.361   2.091   1.787
 6496SOL    HW220388   3.366   2.116   1.948
 6497SOL     OW20389   0.170   1.475   0.757
 6497SOL    HW120390   0.201   1.441   0.846
 6497SOL    HW220391   0.234   1.445   0.686
 6498SOL     OW20392   2.241   4.265   4.286
 6498SOL    HW120393   2.186   4.331   4.337
 6498SOL    HW220394   2.329   4.307   4.261
 6499SOL     OW20395   4.633   2.408   3.557
 6499SOL    HW120396   4.671   2.463   3.483
 6499SOL    HW220397   4.644   2.456   3.644
 6500SOL     OW20398   1.210   3.777   3.599
 6500SOL    HW120399   1.206   3.856   3.537
 6500SOL    HW220400   1.207   3.693   3.545
 6501SOL     OW20401   5.989   1.510   3.152
 6501SOL    HW120402   5.933   1.428   3.163
 6501SOL    HW220403   6.020   1.542   3.242
 6502SOL     OW20404   0.409   3.393   1.641
 6502SOL    HW120405   0.337   3.428   1.701
 6502SOL    HW220406   0.386   3.412   1.546
 6503SOL     OW20407   6.563   3.456   5.507
 6503SOL    HW120408   6.562   3.416   5.415
 6503SOL    HW220409   6.470   3.456   5.544
 6504SOL     OW20410   3.315   0.254   6.436
 6504SOL    HW120411   3.371   0.197   6.495
 6504SOL    HW220412   3.272   0.198   6.365
 6505SOL     OW20413   0.151   6.568   0.901
 6505SOL    HW120414   0.168   6.598   0.807
 6505SOL    HW220415   0.069   6.511   0.904
 6506SOL     OW20416   0.643   3.663   2.174
 6506SOL    HW120417   0.713   3.717   2.128
 6506SOL    HW220418   0.670   3.567   2.176
 6507SOL     OW20419   4.028   5.383   0.842
 6507SOL    HW120420   4.050   5.448   0.769
 6507SOL    HW220421   4.113   5.354   0.887
 6508SOL     OW20422   6.865   1.020   3.535
 6508SOL    HW120423   6.878   1.040   3.632
 6508SOL    HW220424   6.916   0.938   3.510
 6509SOL     OW20425   2.653   1.703   0.138
 6509SOL    HW120426   2.662   1.631   0.207
 6509SOL    HW220427   2.665   1.663   0.047
 6510SOL     OW20428   3.213   5.389   4.897
 6510SOL    HW120429   3.204   5.467   4.834
 6510SOL    HW220430   3.306   5.354   4.894
 6511SOL     OW20431   2.828   2.249   0.120
 6511SOL    HW120432   2.868   2.203   0.041
 6511SOL    HW220433   2.743   2.202   0.146
 6512SOL     OW20434   4.806   0.679   0.201
 6512SOL    HW120435   4.829   0.678   0.298
 6512SOL    HW220436   4.890   0.678   0.147
 6513SOL     OW20437   2.602   4.669   2.904
 6513SOL    HW120438   2.535   4.643   2.835
 6513SOL    HW220439   2.575   4.631   2.993
 6514SOL     OW20440   5.070   6.255   5.549
 6514SOL    HW120441   4.997   6.190   5.569
 6514SOL    HW220442   5.040   6.317   5.476
 6515SOL     OW20443   0.723   4.836   2.980
 6515SOL    HW120444   0.681   4.749   2.953
 6515SOL    HW220445   0.653   4.898   3.013
 6516SOL     OW20446   6.559   2.351   2.551
 6516SOL    HW120447   6.534   2.384   2.642
 6516SOL    HW220448   6.603   2.425   2.500
 6517SOL     OW20449   6.314   3.803   0.320
 6517SOL    HW120450   6.409   3.772   0.323
 6517SOL    HW220451   6.310   3.902   0.333
 6518SOL     OW20452   1.297   0.848   2.050
 6518SOL    HW120453   1.304   0.941   2.013
 6518SOL    HW220454   1.201   0.828   2.072
 6519SOL     OW20455   1.406   1.278   2.761
 6519SOL    HW120456   1.334   1.247   2.823
 6519SOL    HW220457   1.443   1.365   2.794
 6520SOL     OW20458   6.657   5.350   0.351
 6520SOL    HW120459   6.737   5.409   0.352
 6520SOL    HW220460   6.683   5.258   0.379
 6521SOL     OW20461   1.792   4.863   3.975
 6521SOL    HW120462   1.810   4.791   3.908
 6521SOL    HW220463   1.750   4.823   4.057
 6522SOL     OW20464   2.692   3.061   5.373
 6522SOL    HW120465   2.677   3.050   5.472
 6522SOL    HW220466   2.604   3.059   5.326
 6523SOL     OW20467   6.228   6.471   0.974
 6523SOL    HW120468   6.167   6.521   1.036
 6523SOL    HW220469   6.188   6.470   0.882
 6524SOL     OW20470   2.993   2.959   1.273
 6524SOL    HW120471   2.999   2.949   1.174
 6524SOL    HW220472   2.907   2.919   1.306
 6525SOL     OW20473   1.312   4.834   3.541
 6525SOL    HW120474   1.409   4.826   3.566
 6525SOL    HW220475   1.260   4.764   3.589
 6526SOL     OW20476   6.997   6.408   0.523
 6526SOL    HW120477   0.062   6.457   0.543
 6526SOL    HW220478   7.013   6.309   0.527
 6527SOL     OW20479   6.226   1.674   1.101
 6527SOL    HW120480   6.160   1.615   1.056
 6527SOL    HW220481   6.281   1.620   1.165
 6528SOL     OW20482   4.320   6.531   0.527
 6528SOL    HW120483   4.370   6.462   0.474
 6528SOL    HW220484   4.384   6.580   0.586
 6529SOL     OW20485   4.642   0.555   2.084
 6529SOL    HW120486   4.590   0.540   2.168
 6529SOL    HW220487   4.738   0.532   2.099
 6530SOL     OW20488   0.536   2.572   3.387
 6530SOL    HW120489   0.495   2.610   3.470
 6530SOL    HW220490   0.487   2.605   3.307
 6531SOL     OW20491   3.871   3.952   3.931
 6531SOL    HW120492   3.831   4.042   3.918
 6531SOL    HW220493   3.798   3.884   3.940
 6532SOL     OW20494   1.022   6.237   0.564
 6532SOL    HW120495   0.944   6.193   0.518
 6532SOL    HW220496   1.105   6.186   0.545
 6533SOL     OW20497   4.816   4.649   1.535
 6533SOL    HW120498   4.790   4.563   1.579
 6533SOL    HW220499   4.884   4.696   1.590
 6534SOL     OW20500   7.013   4.467   3.115
 6534SOL    HW120501   0.059   4.411   3.165
 6534SOL    HW220502   6.932   4.481   3.172
 6535SOL     OW20503   5.120   4.057   5.405
 6535SOL    HW120504   5.082   3.980   5.457
 6535SOL    HW220505   5.097   4.143   5.450
 6536SOL     OW20506   0.228   4.507   5.731
 6536SOL    HW120507   0.193   4.418   5.762
 6536SOL    HW220508   0.323   4.516   5.760
 6537SOL     OW20509   6.955   5.362   3.788
 6537SOL    HW120510   6.984   5.407   3.872
 6537SOL    HW220511   6.879   5.412   3.747
 6538SOL     OW20512   0.970   2.501   4.550
 6538SOL    HW120513   0.953   2.423   4.490
 6538SOL    HW220514   0.885   2.552   4.563
 6539SOL     OW20515   4.342   6.486   6.558
 6539SOL    HW120516   4.437   6.460   6.545
 6539SOL    HW220517   4.320   6.564   6.500
 6540SOL     OW20518   0.017   2.618   5.642
 6540SOL    HW120519   6.983   2.541   5.675
 6540SOL    HW220520   6.999   2.652   5.556
 6541SOL     OW20521   4.670   1.786   5.510
 6541SOL    HW120522   4.625   1.719   5.451
 6541SOL    HW220523   4.633   1.778   5.603
 6542SOL     OW20524   1.616   3.787   2.510
 6542SOL    HW120525   1.710   3.753   2.500
 6542SOL    HW220526   1.618   3.886   2.525
 6543SOL     OW20527   3.835   1.502   4.641
 6543SOL    HW120528   3.932   1.488   4.662
 6543SOL    HW220529   3.786   1.416   4.652
 6544SOL     OW20530   0.649   0.353   0.542
 6544SOL    HW120531   0.728   0.307   0.582
 6544SOL    HW220532   0.669   0.375   0.446
 6545SOL     OW20533   4.987   6.219   1.216
 6545SOL    HW120534   5.001   6.120   1.209
 6545SOL    HW220535   4.947   6.253   1.131
 6546SOL     OW20536   4.888   5.098   6.037
 6546SOL    HW120537   4.979   5.057   6.039
 6546SOL    HW220538   4.824   5.040   6.088
 6547SOL     OW20539   0.796   6.147   5.368
 6547SOL    HW120540   0.883   6.197   5.365
 6547SOL    HW220541   0.732   6.186   5.302
 6548SOL     OW20542   0.811   1.786   5.926
 6548SOL    HW120543   0.857   1.740   5.850
 6548SOL    HW220544   0.716   1.807   5.898
 6549SOL     OW20545   3.678   1.773   2.750
 6549SOL    HW120546   3.663   1.837   2.675
 6549SOL    HW220547   3.683   1.823   2.836
 6550SOL     OW20548   6.058   6.490   2.225
 6550SOL    HW120549   6.023   6.548   2.299
 6550SOL    HW220550   5.982   6.441   2.183
 6551SOL     OW20551   3.007   4.828   0.828
 6551SOL    HW120552   3.042   4.901   0.887
 6551SOL    HW220553   2.921   4.857   0.786
 6552SOL     OW20554   1.956   4.730   0.057
 6552SOL    HW120555   1.945   4.701   6.982
 6552SOL    HW220556   1.867   4.751   0.096
 6553SOL     OW20557   0.619   2.020   3.478
 6553SOL    HW120558   0.641   1.996   3.572
 6553SOL    HW220559   0.670   1.960   3.415
 6554SOL     OW20560   1.563   2.753   4.164
 6554SOL    HW120561   1.479   2.720   4.208
 6554SOL    HW220562   1.540   2.821   4.095
 6555SOL     OW20563   1.187   3.780   4.483
 6555SOL    HW120564   1.269   3.726   4.464
 6555SOL    HW220565   1.192   3.816   4.577
 6556SOL     OW20566   4.637   2.673   2.734
 6556SOL    HW120567   4.696   2.680   2.814
 6556SOL    HW220568   4.678   2.723   2.657
 6557SOL     OW20569   2.407   1.135   1.945
 6557SOL    HW120570   2.343   1.096   1.879
 6557SOL    HW220571   2.374   1.120   2.038
 6558SOL     OW20572   5.454   5.814   1.011
 6558SOL    HW120573   5.512   5.744   1.052
 6558SOL    HW220574   5.509   5.894   0.987
 6559SOL     OW20575   0.084   2.489   6.084
 6559SOL    HW120576   0.046   2.473   6.176
 6559SOL    HW220577   0.011   2.485   6.016
 6560SOL     OW20578   6.300   4.563   6.717
 6560SOL    HW120579   6.342   4.499   6.781
 6560SOL    HW220580   6.285   4.518   6.629
 6561SOL     OW20581   2.610   4.132   0.454
 6561SOL    HW120582   2.638   4.036   0.454
 6561SOL    HW220583   2.512   4.138   0.433
 6562SOL     OW20584   4.966   2.618   1.733
 6562SOL    HW120585   4.930   2.636   1.825
 6562SOL    HW220586   5.048   2.672   1.719
 6563SOL     OW20587   6.611   5.176   5.365
 6563SOL    HW120588   6.621   5.211   5.458
 6563SOL    HW220589   6.591   5.078   5.368
 6564SOL     OW20590   5.614   3.403   2.348
 6564SOL    HW120591   5.633   3.321   2.401
 6564SOL    HW220592   5.610   3.379   2.251
 6565SOL     OW20593   5.231   6.818   2.231
 6565SOL    HW120594   5.176   6.896   2.203
 6565SOL    HW220595   5.313   6.850   2.279
 6566SOL     OW20596   5.143   5.486   3.911
 6566SOL    HW120597   5.076   5.547   3.954
 6566SOL    HW220598   5.095   5.423   3.849
 6567SOL     OW20599   3.691   0.442   2.572
 6567SOL    HW120600   3.645   0.394   2.647
 6567SOL    HW220601   3.651   0.412   2.485
 6568SOL     OW20602   4.856   1.032   0.565
 6568SOL    HW120603   4.789   1.055   0.635
 6568SOL    HW220604   4.946   1.023   0.607
 6569SOL     OW20605   1.124   5.105   4.118
 6569SOL    HW120606   1.114   5.135   4.213
 6569SOL    HW220607   1.160   5.011   4.116
 6570SOL     OW20608   4.407   0.168   2.341
 6570SOL    HW120609   4.357   0.121   2.268
 6570SOL    HW220610   4.343   0.219   2.398
 6571SOL     OW20611   2.963   6.373   3.368
 6571SOL    HW120612   3.003   6.463   3.387
 6571SOL    HW220613   2.889   6.382   3.302
 6572SOL     OW20614   2.053   5.918   3.740
 6572SOL    HW120615   2.060   5.833   3.792
 6572SOL    HW220616   1.959   5.950   3.740
 6573SOL     OW20617   6.852   2.194   3.193
 6573SOL    HW120618   6.780   2.163   3.254
 6573SOL    HW220619   6.934   2.216   3.246
 6574SOL     OW20620   1.627   4.452   1.961
 6574SOL    HW120621   1.713   4.499   1.943
 6574SOL    HW220622   1.640   4.385   2.034
 6575SOL     OW20623   6.909   1.621   3.466
 6575SOL    HW120624   6.866   1.628   3.556
 6575SOL    HW220625   6.930   1.713   3.433
 6576SOL     OW20626   3.879   0.082   1.574
 6576SOL    HW120627   3.842   0.144   1.644
 6576SOL    HW220628   3.807   0.059   1.509
 6577SOL     OW20629   3.528   1.082   4.541
 6577SOL    HW120630   3.485   1.032   4.616
 6577SOL    HW220631   3.518   1.030   4.457
 6578SOL     OW20632   1.286   4.727   0.992
 6578SOL    HW120633   1.365   4.702   0.935
 6578SOL    HW220634   1.308   4.709   1.088
 6579SOL     OW20635   1.239   1.141   3.435
 6579SOL    HW120636   1.140   1.143   3.444
 6579SOL    HW220637   1.275   1.062   3.485
 6580SOL     OW20638   2.600   2.136   0.180
 6580SOL    HW120639   2.559   2.046   0.197
 6580SOL    HW220640   2.557   2.204   0.238
 6581SOL     OW20641   0.699   2.094   0.903
 6581SOL    HW120642   0.717   2.072   0.999
 6581SOL    HW220643   0.725   2.188   0.884
 6582SOL     OW20644   5.432   0.681   3.125
 6582SOL    HW120645   5.390   0.721   3.207
 6582SOL    HW220646   5.422   0.581   3.128
 6583SOL     OW20647   2.981   4.180   0.443
 6583SOL    HW120648   3.036   4.262   0.426
 6583SOL    HW220649   2.887   4.206   0.461
 6584SOL     OW20650   4.256   1.965   6.529
 6584SOL    HW120651   4.287   1.930   6.440
 6584SOL    HW220652   4.257   2.065   6.528
 6585SOL     OW20653   5.684   0.153   1.672
 6585SOL    HW120654   5.691   0.248   1.701
 6585SOL    HW220655   5.692   0.093   1.752
 6586SOL     OW20656   6.631   1.313   6.407
 6586SOL    HW120657   6.687   1.391   6.380
 6586SOL    HW220658   6.661   1.280   6.497
 6587SOL     OW20659   2.921   5.041   4.803
 6587SOL    HW120660   2.902   5.035   4.901
 6587SOL    HW220661   3.020   5.036   4.788
 6588SOL     OW20662   0.883   1.839   0.280
 6588SOL    HW120663   0.983   1.836   0.271
 6588SOL    HW220664   0.846   1.908   0.218
 6589SOL     OW20665   6.648   6.528   1.781
 6589SOL    HW120666   6.635   6.451   1.844
 6589SOL    HW220667   6.711   6.501   1.708
 6590SOL     OW20668   1.335   6.169   4.577
 6590SOL    HW120669   1.384   6.180   4.664
 6590SOL    HW220670   1.263   6.238   4.570
 6591SOL     OW20671   6.237   3.274   3.854
 6591SOL    HW120672   6.214   3.197   3.914
 6591SOL    HW220673   6.315   3.249   3.797
 6592SOL     OW20674   6.474   0.300   3.817
 6592SOL    HW120675   6.556   0.355   3.802
 6592SOL    HW220676   6.437   0.320   3.908
 6593SOL     OW20677   2.387   1.462   1.879
 6593SOL    HW120678   2.477   1.505   1.881
 6593SOL    HW220679   2.386   1.388   1.811
 6594SOL     OW20680   5.072   6.712   0.124
 6594SOL    HW120681   4.978   6.683   0.140
 6594SOL    HW220682   5.077   6.812   0.129
 6595SOL     OW20683   1.007   1.871   5.260
 6595SOL    HW120684   0.954   1.948   5.295
 6595SOL    HW220685   1.032   1.888   5.165
 6596SOL     OW20686   5.215   1.188   2.280
 6596SOL    HW120687   5.308   1.175   2.316
 6596SOL    HW220688   5.150   1.195   2.356
 6597SOL     OW20689   0.982   4.457   1.084
 6597SOL    HW120690   1.009   4.363   1.105
 6597SOL    HW220691   0.887   4.458   1.053
 6598SOL     OW20692   1.390   5.153   3.396
 6598SOL    HW120693   1.458   5.225   3.382
 6598SOL    HW220694   1.350   5.162   3.487
 6599SOL     OW20695   0.478   5.925   6.307
 6599SOL    HW120696   0.435   5.908   6.218
 6599SOL    HW220697   0.577   5.934   6.296
 6600SOL     OW20698   4.653   6.898   5.163
 6600SOL    HW120699   4.630   6.842   5.242
 6600SOL    HW220700   4.571   6.943   5.128
 6601SOL     OW20701   1.411   2.476   1.778
 6601SOL    HW120702   1.456   2.546   1.835
 6601SOL    HW220703   1.465   2.393   1.779
 6602SOL     OW20704   6.799   5.667   1.408
 6602SOL    HW120705   6.855   5.585   1.397
 6602SOL    HW220706   6.814   5.728   1.330
 6603SOL     OW20707   0.214   4.481   2.084
 6603SOL    HW120708   0.158   4.494   2.166
 6603SOL    HW220709   0.304   4.446   2.110
 6604SOL     OW20710   1.809   5.552   3.346
 6604SOL    HW120711   1.780   5.584   3.436
 6604SOL    HW220712   1.909   5.556   3.341
 6605SOL     OW20713   0.084   5.444   1.142
 6605SOL    HW120714   0.016   5.425   1.212
 6605SOL    HW220715   0.072   5.380   1.066
 6606SOL     OW20716   1.554   3.896   2.776
 6606SOL    HW120717   1.562   3.850   2.864
 6606SOL    HW220718   1.582   3.833   2.703
 6607SOL     OW20719   6.400   3.095   4.233
 6607SOL    HW120720   6.437   3.025   4.294
 6607SOL    HW220721   6.361   3.169   4.288
 6608SOL     OW20722   1.282   0.237   5.854
 6608SOL    HW120723   1.276   0.262   5.757
 6608SOL    HW220724   1.262   0.318   5.910
 6609SOL     OW20725   3.695   2.220   6.930
 6609SOL    HW120726   3.600   2.201   6.952
 6609SOL    HW220727   3.701   2.300   6.871
 6610SOL     OW20728   3.079   5.935   1.097
 6610SOL    HW120729   3.079   5.969   1.003
 6610SOL    HW220730   3.021   5.994   1.153
 6611SOL     OW20731   2.874   1.974   4.748
 6611SOL    HW120732   2.816   1.916   4.692
 6611SOL    HW220733   2.946   1.918   4.790
 6612SOL     OW20734   0.972   0.279   7.009
 6612SOL    HW120735   1.037   0.263   0.064
 6612SOL    HW220736   0.982   0.207   6.941
 6613SOL     OW20737   4.658   6.350   0.600
 6613SOL    HW120738   4.607   6.418   0.652
 6613SOL    HW220739   4.756   6.365   0.613
 6614SOL     OW20740   4.064   4.880   1.004
 6614SOL    HW120741   4.008   4.962   0.999
 6614SOL    HW220742   4.159   4.903   0.982
 6615SOL     OW20743   3.677   5.581   5.623
 6615SOL    HW120744   3.709   5.532   5.704
 6615SOL    HW220745   3.705   5.533   5.540
 6616SOL     OW20746   4.124   0.992   6.900
 6616SOL    HW120747   4.061   1.052   6.948
 6616SOL    HW220748   4.218   1.019   6.919
 6617SOL     OW20749   3.508   0.566   3.767
 6617SOL    HW120750   3.449   0.612   3.700
 6617SOL    HW220751   3.581   0.629   3.796
 6618SOL     OW20752   5.973   2.175   4.302
 6618SOL    HW120753   5.967   2.114   4.223
 6618SOL    HW220754   6.069   2.192   4.324
 6619SOL     OW20755   5.034   5.162   3.998
 6619SOL    HW120756   5.029   5.213   4.083
 6619SOL    HW220757   4.985   5.211   3.926
 6620SOL     OW20758   1.112   2.920   3.253
 6620SOL    HW120759   1.111   2.924   3.353
 6620SOL    HW220760   1.024   2.886   3.220
 6621SOL     OW20761   3.109   3.398   3.987
 6621SOL    HW120762   3.064   3.416   4.074
 6621SOL    HW220763   3.075   3.313   3.949
 6622SOL     OW20764   6.990   4.834   0.982
 6622SOL    HW120765   6.892   4.845   0.995
 6622SOL    HW220766   0.017   4.913   1.020
 6623SOL     OW20767   3.036   3.957   3.858
 6623SOL    HW120768   3.101   3.993   3.925
 6623SOL    HW220769   2.978   3.888   3.903
 6624SOL     OW20770   2.671   2.314   2.787
 6624SOL    HW120771   2.667   2.327   2.688
 6624SOL    HW220772   2.764   2.292   2.814
 6625SOL     OW20773   6.809   3.990   5.701
 6625SOL    HW120774   6.856   3.913   5.744
 6625SOL    HW220775   6.780   4.055   5.772
 6626SOL     OW20776   3.228   5.508   5.218
 6626SOL    HW120777   3.266   5.568   5.288
 6626SOL    HW220778   3.301   5.476   5.158
 6627SOL     OW20779   2.464   6.234   4.449
 6627SOL    HW120780   2.531   6.259   4.519
 6627SOL    HW220781   2.392   6.177   4.490
 6628SOL     OW20782   3.784   6.927   3.457
 6628SOL    HW120783   3.834   7.010   3.480
 6628SOL    HW220784   3.713   6.910   3.526
 6629SOL     OW20785   4.810   5.463   5.194
 6629SOL    HW120786   4.749   5.521   5.248
 6629SOL    HW220787   4.884   5.518   5.156
 6630SOL     OW20788   1.566   0.763   0.483
 6630SOL    HW120789   1.660   0.785   0.457
 6630SOL    HW220790   1.562   0.740   0.580
 6631SOL     OW20791   2.113   2.949   5.887
 6631SOL    HW120792   2.184   2.994   5.833
 6631SOL    HW220793   2.094   3.003   5.969
 6632SOL     OW20794   1.386   0.445   6.625
 6632SOL    HW120795   1.461   0.380   6.643
 6632SOL    HW220796   1.315   0.433   6.693
 6633SOL     OW20797   4.438   5.720   6.254
 6633SOL    HW120798   4.353   5.734   6.203
 6633SOL    HW220799   4.458   5.622   6.260
 6634SOL     OW20800   3.383   2.152   4.142
 6634SOL    HW120801   3.454   2.161   4.073
 6634SOL    HW220802   3.325   2.233   4.141
 6635SOL     OW20803   5.179   5.263   5.342
 6635SOL    HW120804   5.096   5.242   5.291
 6635SOL    HW220805   5.248   5.299   5.279
 6636SOL     OW20806   4.345   1.100   6.981
 6636SOL    HW120807   4.433   1.060   7.004
 6636SOL    HW220808   4.338   1.191   0.002
 6637SOL     OW20809   6.960   2.230   6.930
 6637SOL    HW120810   6.861   2.216   6.941
 6637SOL    HW220811   6.986   2.214   6.835
 6638SOL     OW20812   3.178   3.675   3.697
 6638SOL    HW120813   3.169   3.673   3.797
 6638SOL    HW220814   3.274   3.690   3.672
 6639SOL     OW20815   5.246   2.246   1.605
 6639SOL    HW120816   5.301   2.260   1.523
 6639SOL    HW220817   5.253   2.327   1.664
 6640SOL     OW20818   1.378   4.130   4.691
 6640SOL    HW120819   1.418   4.086   4.771
 6640SOL    HW220820   1.302   4.189   4.720
 6641SOL     OW20821   5.982   2.334   6.913
 6641SOL    HW120822   5.918   2.387   6.968
 6641SOL    HW220823   6.037   2.275   6.973
 6642SOL     OW20824   1.441   5.823   0.055
 6642SOL    HW120825   1.372   5.886   0.088
 6642SOL    HW220826   1.499   5.793   0.131
 6643SOL     OW20827   3.335   6.161   6.291
 6643SOL    HW120828   3.336   6.091   6.362
 6643SOL    HW220829   3.387   6.241   6.323
 6644SOL     OW20830   2.221   6.808   4.112
 6644SOL    HW120831   2.293   6.849   4.168
 6644SOL    HW220832   2.219   6.851   4.022
 6645SOL     OW20833   5.079   2.615   5.927
 6645SOL    HW120834   5.020   2.696   5.933
 6645SOL    HW220835   5.078   2.566   6.014
 6646SOL     OW20836   3.926   6.875   5.054
 6646SOL    HW120837   3.873   6.948   5.098
 6646SOL    HW220838   3.870   6.832   4.983
 6647SOL     OW20839   3.884   4.781   0.451
 6647SOL    HW120840   3.864   4.826   0.364
 6647SOL    HW220841   3.899   4.849   0.522
 6648SOL     OW20842   2.981   5.581   5.076
 6648SOL    HW120843   3.055   5.573   5.143
 6648SOL    HW220844   2.928   5.496   5.074
 6649SOL     OW20845   4.609   2.757   5.931
 6649SOL    HW120846   4.628   2.660   5.913
 6649SOL    HW220847   4.691   2.802   5.964
 6650SOL     OW20848   1.857   1.336   5.447
 6650SOL    HW120849   1.848   1.295   5.538
 6650SOL    HW220850   1.794   1.290   5.385
 6651SOL     OW20851   0.126   1.895   5.579
 6651SOL    HW120852   0.070   1.942   5.647
 6651SOL    HW220853   0.188   1.960   5.536
 6652SOL     OW20854   6.844   4.462   0.159
 6652SOL    HW120855   6.783   4.527   0.115
 6652SOL    HW220856   6.938   4.478   0.129
 6653SOL     OW20857   5.955   4.171   6.792
 6653SOL    HW120858   6.037   4.160   6.737
 6653SOL    HW220859   5.879   4.199   6.734
 6654SOL     OW20860   6.426   3.199   3.541
 6654SOL    HW120861   6.482   3.119   3.517
 6654SOL    HW220862   6.469   3.248   3.616
 6655SOL     OW20863   0.199   6.197   1.540
 6655SOL    HW120864   0.171   6.292   1.554
 6655SOL    HW220865   0.292   6.195   1.505
 6656SOL     OW20866   4.095   1.344   3.015
 6656SOL    HW120867   4.088   1.266   3.078
 6656SOL    HW220868   4.191   1.366   3.000
 6657SOL     OW20869   5.375   1.456   4.615
 6657SOL    HW120870   5.313   1.481   4.541
 6657SOL    HW220871   5.324   1.407   4.686
 6658SOL     OW20872   6.877   6.086   5.578
 6658SOL    HW120873   6.798   6.145   5.558
 6658SOL    HW220874   6.959   6.125   5.539
 6659SOL     OW20875   0.731   5.596   1.179
 6659SOL    HW120876   0.708   5.538   1.101
 6659SOL    HW220877   0.656   5.595   1.244
 6660SOL     OW20878   0.175   0.201   4.720
 6660SOL    HW120879   0.246   0.184   4.653
 6660SOL    HW220880   0.217   0.216   4.810
 6661SOL     OW20881   4.174   5.763   3.743
 6661SOL    HW120882   4.139   5.812   3.663
 6661SOL    HW220883   4.098   5.734   3.800
 6662SOL     OW20884   3.630   6.572   2.674
 6662SOL    HW120885   3.619   6.665   2.708
 6662SOL    HW220886   3.543   6.538   2.639
 6663SOL     OW20887   1.081   4.437   5.942
 6663SOL    HW120888   1.118   4.529   5.944
 6663SOL    HW220889   1.125   4.384   5.869
 6664SOL     OW20890   3.222   0.410   1.538
 6664SOL    HW120891   3.296   0.365   1.487
 6664SOL    HW220892   3.152   0.343   1.562
 6665SOL     OW20893   2.682   0.494   6.971
 6665SOL    HW120894   2.737   0.522   6.892
 6665SOL    HW220895   2.661   0.396   6.965
 6666SOL     OW20896   3.955   6.169   4.944
 6666SOL    HW120897   3.866   6.138   4.978
 6666SOL    HW220898   4.016   6.186   5.022
 6667SOL     OW20899   1.068   5.877   6.391
 6667SOL    HW120900   1.017   5.953   6.351
 6667SOL    HW220901   1.149   5.858   6.336
 6668SOL     OW20902   0.076   3.981   0.237
 6668SOL    HW120903   0.011   3.939   0.174
 6668SOL    HW220904   0.092   3.920   0.314
 6669SOL     OW20905   1.753   2.317   3.396
 6669SOL    HW120906   1.810   2.340   3.317
 6669SOL    HW220907   1.711   2.400   3.432
 6670SOL     OW20908   3.639   3.366   0.435
 6670SOL    HW120909   3.735   3.373   0.411
 6670SOL    HW220910   3.593   3.453   0.414
 6671SOL     OW20911   4.676   5.029   0.244
 6671SOL    HW120912   4.717   5.084   0.171
 6671SOL    HW220913   4.663   4.935   0.212
 6672SOL     OW20914   1.348   2.028   1.291
 6672SOL    HW120915   1.349   2.112   1.236
 6672SOL    HW220916   1.284   1.963   1.251
 6673SOL     OW20917   6.512   2.746   3.968
 6673SOL    HW120918   6.539   2.811   3.897
 6673SOL    HW220919   6.413   2.735   3.968
 6674SOL     OW20920   0.195   1.133   0.741
 6674SOL    HW120921   0.246   1.210   0.779
 6674SOL    HW220922   0.109   1.165   0.702
 6675SOL     OW20923   5.109   0.354   6.969
 6675SOL    HW120924   5.194   0.301   6.971
 6675SOL    HW220925   5.130   0.450   6.949
 6676SOL     OW20926   0.743   3.750   4.541
 6676SOL    HW120927   0.762   3.847   4.530
 6676SOL    HW220928   0.789   3.716   4.623
 6677SOL     OW20929   0.612   1.894   6.358
 6677SOL    HW120930   0.623   1.852   6.268
 6677SOL    HW220931   0.598   1.822   6.427
 6678SOL     OW20932   3.220   4.461   6.435
 6678SOL    HW120933   3.192   4.519   6.358
 6678SOL    HW220934   3.293   4.505   6.486
 6679SOL     OW20935   1.859   0.418   4.034
 6679SOL    HW120936   1.942   0.473   4.027
 6679SOL    HW220937   1.858   0.350   3.961
 6680SOL     OW20938   6.659   5.353   1.267
 6680SOL    HW120939   6.647   5.375   1.363
 6680SOL    HW220940   6.585   5.394   1.213
 6681SOL     OW20941   2.990   6.099   1.767
 6681SOL    HW120942   2.986   6.047   1.852
 6681SOL    HW220943   3.084   6.102   1.734
 6682SOL     OW20944   3.398   5.334   5.426
 6682SOL    HW120945   3.379   5.430   5.446
 6682SOL    HW220946   3.487   5.326   5.382
 6683SOL     OW20947   6.891   5.295   5.877
 6683SOL    HW120948   6.864   5.349   5.956
 6683SOL    HW220949   6.991   5.291   5.872
 6684SOL     OW20950   2.770   5.718   6.850
 6684SOL    HW120951   2.779   5.675   6.939
 6684SOL    HW220952   2.807   5.811   6.855
 6685SOL     OW20953   4.966   2.878   0.893
 6685SOL    HW120954   4.951   2.810   0.964
 6685SOL    HW220955   4.882   2.892   0.842
 6686SOL     OW20956   5.089   4.869   4.996
 6686SOL    HW120957   5.142   4.827   5.069
 6686SOL    HW220958   4.992   4.872   5.023
 6687SOL     OW20959   0.097   1.376   1.555
 6687SOL    HW120960   0.041   1.329   1.624
 6687SOL    HW220961   0.048   1.378   1.468
 6688SOL     OW20962   4.054   5.200   0.152
 6688SOL    HW120963   4.121   5.239   0.214
 6688SOL    HW220964   4.098   5.177   0.065
 6689SOL     OW20965   2.932   3.999   5.623
 6689SOL    HW120966   3.006   3.991   5.556
 6689SOL    HW220967   2.899   4.093   5.626
 6690SOL     OW20968   0.772   0.788   6.709
 6690SOL    HW120969   0.714   0.801   6.628
 6690SOL    HW220970   0.864   0.761   6.679
 6691SOL     OW20971   2.869   1.747   2.086
 6691SOL    HW120972   2.914   1.752   1.997
 6691SOL    HW220973   2.790   1.808   2.088
 6692SOL     OW20974   4.292   5.864   2.698
 6692SOL    HW120975   4.244   5.862   2.610
 6692SOL    HW220976   4.251   5.934   2.756
 6693SOL     OW20977   3.396   1.037   5.602
 6693SOL    HW120978   3.309   1.072   5.570
 6693SOL    HW220979   3.452   1.008   5.524
 6694SOL     OW20980   4.276   4.178   1.379
 6694SOL    HW120981   4.246   4.237   1.304
 6694SOL    HW220982   4.372   4.154   1.365
 6695SOL     OW20983   2.582   2.362   0.547
 6695SOL    HW120984   2.547   2.356   0.454
 6695SOL    HW220985   2.532   2.432   0.597
 6696SOL     OW20986   4.050   3.340   4.487
 6696SOL    HW120987   4.116   3.413   4.468
 6696SOL    HW220988   4.044   3.280   4.408
 6697SOL     OW20989   4.647   2.259   2.209
 6697SOL    HW120990   4.564   2.310   2.188
 6697SOL    HW220991   4.629   2.161   2.204
 6698SOL     OW20992   3.954   4.305   1.524
 6698SOL    HW120993   3.901   4.224   1.550
 6698SOL    HW220994   3.925   4.383   1.580
 6699SOL     OW20995   1.413   3.215   5.860
 6699SOL    HW120996   1.472   3.237   5.938
 6699SOL    HW220997   1.382   3.301   5.818
 6700SOL     OW20998   5.818   0.149   0.957
 6700SOL    HW120999   5.798   0.230   1.012
 6700SOL    HW221000   5.733   0.107   0.926
 6701SOL     OW21001   6.221   6.819   1.681
 6701SOL    HW121002   6.263   6.843   1.594
 6701SOL    HW221003   6.278   6.752   1.729
 6702SOL     OW21004   3.679   2.918   0.853
 6702SOL    HW121005   3.733   2.924   0.937
 6702SOL    HW221006   3.617   2.840   0.858
 6703SOL     OW21007   0.288   1.324   0.372
 6703SOL    HW121008   0.315   1.307   0.277
 6703SOL    HW221009   0.359   1.290   0.433
 6704SOL     OW21010   3.438   6.899   5.566
 6704SOL    HW121011   3.437   6.886   5.665
 6704SOL    HW221012   3.419   6.812   5.521
 6705SOL     OW21013   0.164   4.493   2.349
 6705SOL    HW121014   0.129   4.436   2.423
 6705SOL    HW221015   0.225   4.563   2.387
 6706SOL     OW21016   0.272   6.845   1.242
 6706SOL    HW121017   0.240   6.754   1.216
 6706SOL    HW221018   0.357   6.865   1.193
 6707SOL     OW21019   4.202   1.230   2.472
 6707SOL    HW121020   4.290   1.276   2.461
 6707SOL    HW221021   4.180   1.226   2.570
 6708SOL     OW21022   0.795   3.254   0.110
 6708SOL    HW121023   0.757   3.293   0.194
 6708SOL    HW221024   0.860   3.182   0.132
 6709SOL     OW21025   2.365   4.326   2.197
 6709SOL    HW121026   2.330   4.419   2.196
 6709SOL    HW221027   2.371   4.291   2.103
 6710SOL     OW21028   4.634   1.410   1.111
 6710SOL    HW121029   4.544   1.422   1.067
 6710SOL    HW221030   4.640   1.318   1.150
 6711SOL     OW21031   3.491   6.000   6.062
 6711SOL    HW121032   3.500   6.042   6.152
 6711SOL    HW221033   3.494   6.071   5.992
 6712SOL     OW21034   5.447   4.687   1.175
 6712SOL    HW121035   5.381   4.720   1.242
 6712SOL    HW221036   5.538   4.682   1.217
 6713SOL     OW21037   1.136   4.967   4.592
 6713SOL    HW121038   1.221   5.019   4.593
 6713SOL    HW221039   1.090   4.976   4.680
 6714SOL     OW21040   5.536   1.151   1.643
 6714SOL    HW121041   5.550   1.111   1.553
 6714SOL    HW221042   5.606   1.117   1.706
 6715SOL     OW21043   1.827   0.456   6.427
 6715SOL    HW121044   1.792   0.474   6.335
 6715SOL    HW221045   1.796   0.366   6.458
 6716SOL     OW21046   0.299   6.052   2.048
 6716SOL    HW121047   0.289   6.046   2.147
 6716SOL    HW221048   0.318   5.961   2.010
 6717SOL     OW21049   5.961   1.689   5.759
 6717SOL    HW121050   5.913   1.655   5.839
 6717SOL    HW221051   6.058   1.665   5.765
 6718SOL     OW21052   4.858   1.360   0.698
 6718SOL    HW121053   4.832   1.287   0.761
 6718SOL    HW221054   4.825   1.340   0.606
 6719SOL     OW21055   1.947   1.662   0.214
 6719SOL    HW121056   1.865   1.718   0.202
 6719SOL    HW221057   1.938   1.579   0.159
 6720SOL     OW21058   1.330   0.929   6.154
 6720SOL    HW121059   1.278   1.015   6.155
 6720SOL    HW221060   1.323   0.887   6.064
 6721SOL     OW21061   6.209   6.804   1.191
 6721SOL    HW121062   6.126   6.759   1.159
 6721SOL    HW221063   6.289   6.751   1.162
 6722SOL     OW21064   5.432   3.575   0.081
 6722SOL    HW121065   5.484   3.525   0.012
 6722SOL    HW221066   5.459   3.544   0.172
 6723SOL     OW21067   1.036   3.158   5.813
 6723SOL    HW121068   1.054   3.220   5.890
 6723SOL    HW221069   0.938   3.136   5.811
 6724SOL     OW21070   2.159   3.621   4.217
 6724SOL    HW121071   2.098   3.551   4.254
 6724SOL    HW221072   2.119   3.659   4.133
 6725SOL     OW21073   5.275   2.518   3.734
 6725SOL    HW121074   5.323   2.534   3.820
 6725SOL    HW221075   5.340   2.488   3.665
 6726SOL     OW21076   0.555   0.687   6.078
 6726SOL    HW121077   0.491   0.652   6.146
 6726SOL    HW221078   0.542   0.786   6.067
 6727SOL     OW21079   1.516   5.190   5.550
 6727SOL    HW121080   1.444   5.201   5.481
 6727SOL    HW221081   1.568   5.108   5.530
 6728SOL     OW21082   3.820   1.187   3.723
 6728SOL    HW121083   3.785   1.247   3.652
 6728SOL    HW221084   3.897   1.134   3.688
 6729SOL     OW21085   4.124   0.991   2.351
 6729SOL    HW121086   4.114   0.994   2.251
 6729SOL    HW221087   4.157   1.079   2.383
 6730SOL     OW21088   0.000   1.685   0.667
 6730SOL    HW121089   0.028   1.780   0.663
 6730SOL    HW221090   0.080   1.627   0.686
 6731SOL     OW21091   4.093   0.173   6.142
 6731SOL    HW121092   4.147   0.169   6.058
 6731SOL    HW221093   4.116   0.255   6.193
 6732SOL     OW21094   6.876   4.934   5.557
 6732SOL    HW121095   6.962   4.946   5.510
 6732SOL    HW221096   6.875   4.989   5.641
 6733SOL     OW21097   4.845   4.925   5.267
 6733SOL    HW121098   4.890   5.014   5.260
 6733SOL    HW221099   4.911   4.856   5.296
 6734SOL     OW21100   6.220   1.803   4.506
 6734SOL    HW121101   6.194   1.811   4.602
 6734SOL    HW221102   6.141   1.821   4.447
 6735SOL     OW21103   6.607   2.521   3.442
 6735SOL    HW121104   6.618   2.559   3.350
 6735SOL    HW221105   6.528   2.458   3.443
 6736SOL     OW21106   3.989   3.594   0.885
 6736SOL    HW121107   4.049   3.540   0.827
 6736SOL    HW221108   3.895   3.588   0.851
 6737SOL     OW21109   6.792   3.652   0.544
 6737SOL    HW121110   6.802   3.742   0.588
 6737SOL    HW221111   6.700   3.618   0.560
 6738SOL     OW21112   1.874   5.695   4.180
 6738SOL    HW121113   1.899   5.786   4.212
 6738SOL    HW221114   1.953   5.634   4.190
 6739SOL     OW21115   0.321   0.417   5.419
 6739SOL    HW121116   0.394   0.366   5.464
 6739SOL    HW221117   0.235   0.366   5.424
 6740SOL     OW21118   0.216   0.143   2.638
 6740SOL    HW121119   0.144   0.093   2.590
 6740SOL    HW221120   0.175   0.208   2.703
 6741SOL     OW21121   3.585   1.799   0.344
 6741SOL    HW121122   3.487   1.815   0.336
 6741SOL    HW221123   3.623   1.778   0.254
 6742SOL     OW21124   5.645   4.349   3.253
 6742SOL    HW121125   5.598   4.437   3.242
 6742SOL    HW221126   5.638   4.319   3.348
 6743SOL     OW21127   3.958   3.596   0.542
 6743SOL    HW121128   3.995   3.678   0.498
 6743SOL    HW221129   3.887   3.622   0.608
 6744SOL     OW21130   6.222   6.698   5.900
 6744SOL    HW121131   6.217   6.657   5.808
 6744SOL    HW221132   6.166   6.644   5.963
 6745SOL     OW21133   0.282   4.399   5.228
 6745SOL    HW121134   0.253   4.327   5.291
 6745SOL    HW221135   0.261   4.372   5.134
 6746SOL     OW21136   1.034   2.550   2.634
 6746SOL    HW121137   1.084   2.637   2.634
 6746SOL    HW221138   1.087   2.483   2.583
 6747SOL     OW21139   0.919   5.927   5.662
 6747SOL    HW121140   0.927   5.891   5.569
 6747SOL    HW221141   0.825   5.914   5.695
 6748SOL     OW21142   1.878   0.969   4.846
 6748SOL    HW121143   1.952   0.997   4.907
 6748SOL    HW221144   1.916   0.940   4.758
 6749SOL     OW21145   4.464   4.970   2.254
 6749SOL    HW121146   4.386   4.928   2.300
 6749SOL    HW221147   4.544   4.966   2.315
 6750SOL     OW21148   3.453   1.003   5.158
 6750SOL    HW121149   3.532   1.023   5.100
 6750SOL    HW221150   3.482   0.952   5.239
 6751SOL     OW21151   4.167   0.212   4.648
 6751SOL    HW121152   4.236   0.210   4.720
 6751SOL    HW221153   4.103   0.136   4.662
 6752SOL     OW21154   1.869   4.563   2.388
 6752SOL    HW121155   1.965   4.576   2.413
 6752SOL    HW221156   1.864   4.505   2.307
 6753SOL     OW21157   4.086   3.105   6.541
 6753SOL    HW121158   4.123   3.107   6.448
 6753SOL    HW221159   4.018   3.178   6.550
 6754SOL     OW21160   6.236   1.722   0.329
 6754SOL    HW121161   6.157   1.772   0.292
 6754SOL    HW221162   6.254   1.643   0.271
 6755SOL     OW21163   2.829   5.943   6.273
 6755SOL    HW121164   2.886   6.006   6.326
 6755SOL    HW221165   2.780   5.882   6.335
 6756SOL     OW21166   3.728   2.640   6.411
 6756SOL    HW121167   3.794   2.626   6.485
 6756SOL    HW221168   3.772   2.622   6.323
 6757SOL     OW21169   4.084   0.443   1.454
 6757SOL    HW121170   4.038   0.418   1.369
 6757SOL    HW221171   4.183   0.440   1.440
 6758SOL     OW21172   5.551   2.363   3.158
 6758SOL    HW121173   5.457   2.327   3.158
 6758SOL    HW221174   5.550   2.459   3.132
 6759SOL     OW21175   0.738   1.864   2.650
 6759SOL    HW121176   0.679   1.925   2.598
 6759SOL    HW221177   0.699   1.849   2.741
 6760SOL     OW21178   5.281   2.271   4.558
 6760SOL    HW121179   5.198   2.225   4.525
 6760SOL    HW221180   5.330   2.309   4.480
 6761SOL     OW21181   3.301   1.509   5.324
 6761SOL    HW121182   3.207   1.535   5.348
 6761SOL    HW221183   3.314   1.411   5.341
 6762SOL     OW21184   6.825   5.338   4.518
 6762SOL    HW121185   6.904   5.285   4.550
 6762SOL    HW221186   6.818   5.423   4.571
 6763SOL     OW21187   5.858   6.264   4.735
 6763SOL    HW121188   5.771   6.238   4.779
 6763SOL    HW221189   5.895   6.344   4.781
 6764SOL     OW21190   0.690   4.677   1.154
 6764SOL    HW121191   0.764   4.705   1.215
 6764SOL    HW221192   0.606   4.666   1.207
 6765SOL     OW21193   0.289   3.883   2.667
 6765SOL    HW121194   0.222   3.917   2.601
 6765SOL    HW221195   0.354   3.824   2.619
 6766SOL     OW21196   5.858   0.634   1.477
 6766SOL    HW121197   5.952   0.644   1.510
 6766SOL    HW221198   5.856   0.568   1.402
 6767SOL     OW21199   3.213   0.385   0.727
 6767SOL    HW121200   3.270   0.463   0.703
 6767SOL    HW221201   3.200   0.382   0.827
 6768SOL     OW21202   1.561   0.711   0.183
 6768SOL    HW121203   1.628   0.644   0.152
 6768SOL    HW221204   1.543   0.698   0.281
 6769SOL     OW21205   4.518   2.754   1.769
 6769SOL    HW121206   4.582   2.690   1.811
 6769SOL    HW221207   4.538   2.847   1.801
 6770SOL     OW21208   0.141   0.876   1.578
 6770SOL    HW121209   0.220   0.816   1.592
 6770SOL    HW221210   0.143   0.949   1.646
 6771SOL     OW21211   4.709   1.705   3.349
 6771SOL    HW121212   4.629   1.669   3.301
 6771SOL    HW221213   4.730   1.797   3.315
 6772SOL     OW21214   3.254   1.327   4.000
 6772SOL    HW121215   3.189   1.282   4.061
 6772SOL    HW221216   3.266   1.422   4.029
 6773SOL     OW21217   0.234   3.977   1.132
 6773SOL    HW121218   0.329   4.001   1.154
 6773SOL    HW221219   0.228   3.879   1.115
 6774SOL     OW21220   0.520   2.335   6.483
 6774SOL    HW121221   0.484   2.243   6.468
 6774SOL    HW221222   0.456   2.402   6.447
 6775SOL     OW21223   2.248   4.534   0.005
 6775SOL    HW121224   2.305   4.590   0.064
 6775SOL    HW221225   2.158   4.577   7.016
 6776SOL     OW21226   5.836   5.577   6.995
 6776SOL    HW121227   5.860   5.602   6.901
 6776SOL    HW221228   5.741   5.548   6.999
 6777SOL     OW21229   4.857   5.023   6.618
 6777SOL    HW121230   4.867   5.040   6.520
 6777SOL    HW221231   4.941   4.981   6.653
 6778SOL     OW21232   0.194   5.868   3.033
 6778SOL    HW121233   0.098   5.869   3.062
 6778SOL    HW221234   0.208   5.937   2.962
 6779SOL     OW21235   0.398   4.389   0.232
 6779SOL    HW121236   0.329   4.443   0.280
 6779SOL    HW221237   0.369   4.294   0.229
 6780SOL     OW21238   0.561   2.632   1.953
 6780SOL    HW121239   0.582   2.725   1.924
 6780SOL    HW221240   0.483   2.634   2.016
 6781SOL     OW21241   5.977   4.693   5.755
 6781SOL    HW121242   6.049   4.754   5.720
 6781SOL    HW221243   5.916   4.744   5.815
 6782SOL     OW21244   6.270   1.514   2.579
 6782SOL    HW121245   6.206   1.468   2.518
 6782SOL    HW221246   6.244   1.610   2.589
 6783SOL     OW21247   0.477   6.005   6.698
 6783SOL    HW121248   0.401   6.060   6.734
 6783SOL    HW221249   0.441   5.919   6.661
 6784SOL     OW21250   3.530   3.105   0.232
 6784SOL    HW121251   3.551   3.126   0.327
 6784SOL    HW221252   3.458   3.167   0.199
 6785SOL     OW21253   5.800   6.341   1.707
 6785SOL    HW121254   5.777   6.290   1.791
 6785SOL    HW221255   5.859   6.418   1.731
 6786SOL     OW21256   1.789   3.012   6.537
 6786SOL    HW121257   1.845   3.042   6.614
 6786SOL    HW221258   1.833   3.039   6.451
 6787SOL     OW21259   1.308   3.472   1.732
 6787SOL    HW121260   1.348   3.448   1.821
 6787SOL    HW221261   1.292   3.390   1.679
 6788SOL     OW21262   2.632   4.575   0.959
 6788SOL    HW121263   2.726   4.561   0.992
 6788SOL    HW221264   2.576   4.496   0.983
 6789SOL     OW21265   0.044   6.542   3.430
 6789SOL    HW121266   0.100   6.481   3.485
 6789SOL    HW221267   0.036   6.506   3.337
 6790SOL     OW21268   1.722   3.409   0.183
 6790SOL    HW121269   1.813   3.437   0.215
 6790SOL    HW221270   1.671   3.489   0.152
 6791SOL     OW21271   3.945   3.651   6.462
 6791SOL    HW121272   3.932   3.573   6.401
 6791SOL    HW221273   3.873   3.718   6.447
 6792SOL     OW21274   0.209   4.895   0.638
 6792SOL    HW121275   0.214   4.976   0.696
 6792SOL    HW221276   0.297   4.849   0.637
 6793SOL     OW21277   6.419   1.764   0.913
 6793SOL    HW121278   6.339   1.760   0.973
 6793SOL    HW221279   6.451   1.858   0.906
 6794SOL     OW21280   4.512   1.131   5.224
 6794SOL    HW121281   4.589   1.133   5.160
 6794SOL    HW221282   4.437   1.186   5.189
 6795SOL     OW21283   2.855   6.208   7.018
 6795SOL    HW121284   2.771   6.238   0.044
 6795SOL    HW221285   2.932   6.216   0.061
 6796SOL     OW21286   4.346   2.385   2.955
 6796SOL    HW121287   4.301   2.346   3.037
 6796SOL    HW221288   4.307   2.342   2.873
 6797SOL     OW21289   0.052   3.504   2.561
 6797SOL    HW121290   6.978   3.509   2.594
 6797SOL    HW221291   0.098   3.428   2.606
 6798SOL     OW21292   6.308   6.739   2.123
 6798SOL    HW121293   6.247   6.734   2.202
 6798SOL    HW221294   6.376   6.666   2.128
 6799SOL     OW21295   5.296   6.118   1.688
 6799SOL    HW121296   5.299   6.050   1.615
 6799SOL    HW221297   5.371   6.099   1.753
 6800SOL     OW21298   3.138   4.647   7.007
 6800SOL    HW121299   3.158   4.604   6.919
 6800SOL    HW221300   3.046   4.686   7.004
 6801SOL     OW21301   1.659   2.027   2.722
 6801SOL    HW121302   1.722   1.954   2.695
 6801SOL    HW221303   1.709   2.098   2.771
 6802SOL     OW21304   2.248   5.412   2.448
 6802SOL    HW121305   2.265   5.332   2.390
 6802SOL    HW221306   2.283   5.394   2.540
 6803SOL     OW21307   5.275   2.576   0.411
 6803SOL    HW121308   5.211   2.511   0.369
 6803SOL    HW221309   5.255   2.668   0.378
 6804SOL     OW21310   1.408   6.899   4.010
 6804SOL    HW121311   1.406   6.845   3.925
 6804SOL    HW221312   1.447   6.989   3.991
 6805SOL     OW21313   5.184   0.698   4.269
 6805SOL    HW121314   5.236   0.619   4.300
 6805SOL    HW221315   5.205   0.777   4.326
 6806SOL     OW21316   4.579   0.247   5.501
 6806SOL    HW121317   4.641   0.300   5.559
 6806SOL    HW221318   4.631   0.179   5.449
 6807SOL     OW21319   3.160   2.938   0.132
 6807SOL    HW121320   3.135   2.997   0.054
 6807SOL    HW221321   3.078   2.915   0.184
 6808SOL     OW21322   1.994   3.068   5.074
 6808SOL    HW121323   2.082   3.100   5.108
 6808SOL    HW221324   2.005   3.032   4.982
 6809SOL     OW21325   1.739   3.965   6.764
 6809SOL    HW121326   1.660   3.935   6.710
 6809SOL    HW221327   1.727   4.061   6.790
 6810SOL     OW21328   5.717   1.734   2.606
 6810SOL    HW121329   5.766   1.815   2.575
 6810SOL    HW221330   5.782   1.665   2.637
 6811SOL     OW21331   5.113   5.410   1.363
 6811SOL    HW121332   5.146   5.315   1.366
 6811SOL    HW221333   5.020   5.412   1.327
 6812SOL     OW21334   3.551   2.855   2.458
 6812SOL    HW121335   3.616   2.783   2.431
 6812SOL    HW221336   3.513   2.897   2.376
 6813SOL     OW21337   4.738   4.019   1.341
 6813SOL    HW121338   4.721   3.983   1.433
 6813SOL    HW221339   4.672   4.091   1.321
 6814SOL     OW21340   2.303   4.270   0.056
 6814SOL    HW121341   2.303   4.202   7.003
 6814SOL    HW221342   2.306   4.362   0.016
 6815SOL     OW21343   2.058   6.832   1.937
 6815SOL    HW121344   1.992   6.892   1.892
 6815SOL    HW221345   2.139   6.884   1.963
 6816SOL     OW21346   6.428   4.243   1.468
 6816SOL    HW121347   6.351   4.281   1.520
 6816SOL    HW221348   6.421   4.270   1.372
 6817SOL     OW21349   0.262   1.857   5.813
 6817SOL    HW121350   0.216   1.851   5.725
 6817SOL    HW221351   0.262   1.766   5.856
 6818SOL     OW21352   3.224   5.922   2.587
 6818SOL    HW121353   3.214   5.920   2.687
 6818SOL    HW221354   3.134   5.938   2.545
 6819SOL     OW21355   3.081   0.964   3.945
 6819SOL    HW121356   3.163   0.988   3.997
 6819SOL    HW221357   3.091   0.994   3.850
 6820SOL     OW21358   1.200   4.188   3.759
 6820SOL    HW121359   1.143   4.164   3.680
 6820SOL    HW221360   1.276   4.246   3.728
 6821SOL     OW21361   2.293   1.891   4.770
 6821SOL    HW121362   2.211   1.942   4.744
 6821SOL    HW221363   2.299   1.885   4.870
 6822SOL     OW21364   4.948   2.273   5.756
 6822SOL    HW121365   4.921   2.293   5.850
 6822SOL    HW221366   4.881   2.212   5.714
 6823SOL     OW21367   3.130   2.878   1.863
 6823SOL    HW121368   3.122   2.797   1.803
 6823SOL    HW221369   3.215   2.926   1.842
 6824SOL     OW21370   1.273   4.448   6.346
 6824SOL    HW121371   1.346   4.398   6.392
 6824SOL    HW221372   1.303   4.541   6.328
 6825SOL     OW21373   4.889   0.038   4.016
 6825SOL    HW121374   4.812   0.053   4.078
 6825SOL    HW221375   4.925   6.966   4.028
 6826SOL     OW21376   1.239   3.114   3.084
 6826SOL    HW121377   1.329   3.073   3.068
 6826SOL    HW221378   1.200   3.075   3.167
 6827SOL     OW21379   5.580   6.156   4.939
 6827SOL    HW121380   5.514   6.115   5.003
 6827SOL    HW221381   5.553   6.251   4.920
 6828SOL     OW21382   1.482   2.326   1.388
 6828SOL    HW121383   1.419   2.290   1.319
 6828SOL    HW221384   1.569   2.276   1.382
 6829SOL     OW21385   4.656   5.273   3.724
 6829SOL    HW121386   4.674   5.337   3.650
 6829SOL    HW221387   4.586   5.311   3.785
 6830SOL     OW21388   5.582   2.190   3.830
 6830SOL    HW121389   5.643   2.111   3.828
 6830SOL    HW221390   5.490   2.160   3.856
 6831SOL     OW21391   0.228   1.198   5.884
 6831SOL    HW121392   0.196   1.133   5.815
 6831SOL    HW221393   0.296   1.259   5.843
 6832SOL     OW21394   3.153   5.057   2.438
 6832SOL    HW121395   3.228   5.121   2.427
 6832SOL    HW221396   3.163   4.981   2.373
 6833SOL     OW21397   3.917   5.559   0.434
 6833SOL    HW121398   3.931   5.513   0.347
 6833SOL    HW221399   3.835   5.522   0.479
 6834SOL     OW21400   4.033   5.266   2.435
 6834SOL    HW121401   3.940   5.250   2.400
 6834SOL    HW221402   4.096   5.201   2.393
 6835SOL     OW21403   3.977   6.672   4.706
 6835SOL    HW121404   3.906   6.740   4.726
 6835SOL    HW221405   3.966   6.594   4.767
 6836SOL     OW21406   3.139   5.980   6.703
 6836SOL    HW121407   3.206   6.018   6.767
 6836SOL    HW221408   3.153   5.881   6.696
 6837SOL     OW21409   1.213   2.969   2.004
 6837SOL    HW121410   1.312   2.983   1.993
 6837SOL    HW221411   1.173   2.944   1.915
 6838SOL     OW21412   2.392   1.814   6.856
 6838SOL    HW121413   2.441   1.893   6.894
 6838SOL    HW221414   2.395   1.818   6.756
 6839SOL     OW21415   4.110   0.629   1.095
 6839SOL    HW121416   4.043   0.588   1.157
 6839SOL    HW221417   4.090   0.601   1.001
 6840SOL     OW21418   1.062   1.655   6.386
 6840SOL    HW121419   1.024   1.616   6.302
 6840SOL    HW221420   1.043   1.753   6.390
 6841SOL     OW21421   6.390   3.777   6.173
 6841SOL    HW121422   6.368   3.861   6.224
 6841SOL    HW221423   6.394   3.700   6.236
 6842SOL     OW21424   1.992   4.427   2.919
 6842SOL    HW121425   1.940   4.465   2.995
 6842SOL    HW221426   1.953   4.458   2.833
 6843SOL     OW21427   4.214   6.515   6.961
 6843SOL    HW121428   4.251   6.523   0.033
 6843SOL    HW221429   4.121   6.553   6.958
 6844SOL     OW21430   5.237   0.400   5.685
 6844SOL    HW121431   5.250   0.464   5.760
 6844SOL    HW221432   5.235   0.306   5.721
 6845SOL     OW21433   5.176   1.783   2.186
 6845SOL    HW121434   5.232   1.855   2.229
 6845SOL    HW221435   5.096   1.825   2.143
 6846SOL     OW21436   2.211   3.901   0.042
 6846SOL    HW121437   2.205   3.802   0.029
 6846SOL    HW221438   2.180   3.925   0.134
 6847SOL     OW21439   6.874   3.343   4.077
 6847SOL    HW121440   6.776   3.354   4.092
 6847SOL    HW221441   6.915   3.433   4.060
 6848SOL     OW21442   6.012   4.244   3.254
 6848SOL    HW121443   5.992   4.332   3.297
 6848SOL    HW221444   5.965   4.239   3.166
 6849SOL     OW21445   2.695   4.071   6.541
 6849SOL    HW121446   2.664   4.108   6.454
 6849SOL    HW221447   2.662   3.977   6.551
 6850SOL     OW21448   4.272   1.401   4.280
 6850SOL    HW121449   4.221   1.466   4.336
 6850SOL    HW221450   4.257   1.421   4.183
 6851SOL     OW21451   2.134   3.307   3.256
 6851SOL    HW121452   2.118   3.405   3.251
 6851SOL    HW221453   2.165   3.283   3.348
 6852SOL     OW21454   2.920   4.423   0.160
 6852SOL    HW121455   2.984   4.427   0.237
 6852SOL    HW221456   2.837   4.473   0.183
 6853SOL     OW21457   4.981   3.822   6.329
 6853SOL    HW121458   5.059   3.858   6.279
 6853SOL    HW221459   4.953   3.734   6.289
 6854SOL     OW21460   5.563   6.047   6.402
 6854SOL    HW121461   5.576   6.062   6.304
 6854SOL    HW221462   5.614   5.967   6.431
 6855SOL     OW21463   4.232   4.935   3.675
 6855SOL    HW121464   4.296   4.983   3.615
 6855SOL    HW221465   4.180   4.868   3.621
 6856SOL     OW21466   0.210   2.045   6.198
 6856SOL    HW121467   0.204   2.108   6.121
 6856SOL    HW221468   0.166   1.958   6.174
 6857SOL     OW21469   0.915   3.904   5.403
 6857SOL    HW121470   0.953   3.873   5.316
 6857SOL    HW221471   0.970   3.980   5.437
 6858SOL     OW21472   2.482   3.806   1.719
 6858SOL    HW121473   2.514   3.734   1.657
 6858SOL    HW221474   2.402   3.774   1.770
 6859SOL     OW21475   1.652   1.855   2.482
 6859SOL    HW121476   1.746   1.889   2.485
 6859SOL    HW221477   1.615   1.866   2.389
 6860SOL     OW21478   0.868   6.487   1.668
 6860SOL    HW121479   0.778   6.444   1.678
 6860SOL    HW221480   0.857   6.584   1.650
 6861SOL     OW21481   6.367   3.341   5.884
 6861SOL    HW121482   6.375   3.433   5.924
 6861SOL    HW221483   6.341   3.276   5.956
 6862SOL     OW21484   0.683   4.352   4.409
 6862SOL    HW121485   0.723   4.417   4.345
 6862SOL    HW221486   0.681   4.261   4.367
 6863SOL     OW21487   5.927   1.038   5.382
 6863SOL    HW121488   5.879   0.955   5.354
 6863SOL    HW221489   5.934   1.100   5.304
 6864SOL     OW21490   1.240   3.948   5.903
 6864SOL    HW121491   1.147   3.974   5.931
 6864SOL    HW221492   1.304   3.970   5.977
 6865SOL     OW21493   2.461   0.282   3.204
 6865SOL    HW121494   2.481   0.343   3.128
 6865SOL    HW221495   2.514   0.310   3.284
 6866SOL     OW21496   1.470   4.944   0.429
 6866SOL    HW121497   1.471   4.868   0.494
 6866SOL    HW221498   1.431   4.914   0.342
 6867SOL     OW21499   2.217   3.669   6.449
 6867SOL    HW121500   2.182   3.686   6.542
 6867SOL    HW221501   2.140   3.671   6.385
 6868SOL     OW21502   2.704   5.248   3.786
 6868SOL    HW121503   2.628   5.221   3.727
 6868SOL    HW221504   2.788   5.201   3.757
 6869SOL     OW21505   3.508   1.046   6.262
 6869SOL    HW121506   3.560   0.993   6.195
 6869SOL    HW221507   3.509   0.998   6.350
 6870SOL     OW21508   5.955   2.356   0.479
 6870SOL    HW121509   5.928   2.411   0.558
 6870SOL    HW221510   6.009   2.411   0.416
 6871SOL     OW21511   6.747   3.598   2.629
 6871SOL    HW121512   6.780   3.691   2.612
 6871SOL    HW221513   6.697   3.595   2.715
 6872SOL     OW21514   2.063   3.976   0.658
 6872SOL    HW121515   2.006   3.978   0.576
 6872SOL    HW221516   2.028   3.908   0.722
 6873SOL     OW21517   0.544   4.317   3.422
 6873SOL    HW121518   0.503   4.269   3.345
 6873SOL    HW221519   0.590   4.251   3.482
 6874SOL     OW21520   5.491   6.738   3.363
 6874SOL    HW121521   5.504   6.703   3.270
 6874SOL    HW221522   5.408   6.794   3.366
 6875SOL     OW21523   2.614   1.179   0.525
 6875SOL    HW121524   2.619   1.160   0.427
 6875SOL    HW221525   2.551   1.255   0.542
 6876SOL     OW21526   5.103   5.245   3.508
 6876SOL    HW121527   5.071   5.182   3.437
 6876SOL    HW221528   5.185   5.292   3.477
 6877SOL     OW21529   0.999   3.378   1.445
 6877SOL    HW121530   0.903   3.395   1.424
 6877SOL    HW221531   1.005   3.317   1.524
 6878SOL     OW21532   2.157   0.582   4.516
 6878SOL    HW121533   2.085   0.578   4.586
 6878SOL    HW221534   2.246   0.564   4.559
 6879SOL     OW21535   1.806   1.074   0.997
 6879SOL    HW121536   1.817   1.007   0.924
 6879SOL    HW221537   1.710   1.099   1.006
 6880SOL     OW21538   1.474   5.328   0.027
 6880SOL    HW121539   1.456   5.384   0.107
 6880SOL    HW221540   1.548   5.263   0.047
 6881SOL     OW21541   0.446   2.945   0.718
 6881SOL    HW121542   0.353   2.982   0.719
 6881SOL    HW221543   0.502   2.997   0.653
 6882SOL     OW21544   2.301   6.438   6.713
 6882SOL    HW121545   2.225   6.464   6.772
 6882SOL    HW221546   2.303   6.338   6.703
 6883SOL     OW21547   4.658   0.307   1.085
 6883SOL    HW121548   4.731   0.345   1.029
 6883SOL    HW221549   4.600   0.380   1.119
 6884SOL     OW21550   1.766   4.091   3.014
 6884SOL    HW121551   1.742   4.006   3.062
 6884SOL    HW221552   1.845   4.074   2.955
 6885SOL     OW21553   6.218   5.370   4.627
 6885SOL    HW121554   6.295   5.371   4.692
 6885SOL    HW221555   6.198   5.464   4.600
 6886SOL     OW21556   4.796   2.297   0.130
 6886SOL    HW121557   4.699   2.322   0.137
 6886SOL    HW221558   4.814   2.215   0.183
 6887SOL     OW21559   5.696   5.565   6.049
 6887SOL    HW121560   5.790   5.597   6.044
 6887SOL    HW221561   5.685   5.482   5.994
 6888SOL     OW21562   6.110   4.644   6.482
 6888SOL    HW121563   6.180   4.711   6.506
 6888SOL    HW221564   6.142   4.552   6.508
 6889SOL     OW21565   6.756   2.579   6.146
 6889SOL    HW121566   6.815   2.639   6.200
 6889SOL    HW221567   6.810   2.532   6.077
 6890SOL     OW21568   4.519   4.489   3.635
 6890SOL    HW121569   4.463   4.530   3.707
 6890SOL    HW221570   4.467   4.485   3.550
 6891SOL     OW21571   1.782   1.193   1.534
 6891SOL    HW121572   1.690   1.227   1.515
 6891SOL    HW221573   1.841   1.211   1.456
 6892SOL     OW21574   3.279   0.957   4.379
 6892SOL    HW121575   3.332   0.988   4.301
 6892SOL    HW221576   3.215   0.886   4.350
 6893SOL     OW21577   6.546   3.081   1.000
 6893SOL    HW121578   6.588   3.033   1.077
 6893SOL    HW221579   6.487   3.154   1.034
 6894SOL     OW21580   6.225   4.995   0.506
 6894SOL    HW121581   6.289   4.938   0.456
 6894SOL    HW221582   6.139   4.945   0.520
 6895SOL     OW21583   0.408   6.630   2.206
 6895SOL    HW121584   0.323   6.585   2.179
 6895SOL    HW221585   0.454   6.575   2.276
 6896SOL     OW21586   4.735   1.199   5.042
 6896SOL    HW121587   4.788   1.123   5.005
 6896SOL    HW221588   4.790   1.283   5.039
 6897SOL     OW21589   4.868   2.881   4.834
 6897SOL    HW121590   4.770   2.870   4.845
 6897SOL    HW221591   4.902   2.815   4.768
 6898SOL     OW21592   1.592   6.340   1.440
 6898SOL    HW121593   1.627   6.284   1.516
 6898SOL    HW221594   1.609   6.293   1.354
 6899SOL     OW21595   6.295   5.996   2.053
 6899SOL    HW121596   6.290   5.905   2.011
 6899SOL    HW221597   6.274   6.065   1.983
 6900SOL     OW21598   6.463   3.772   4.880
 6900SOL    HW121599   6.369   3.806   4.881
 6900SOL    HW221600   6.496   3.765   4.974
 6901SOL     OW21601   4.957   4.788   6.964
 6901SOL    HW121602   4.924   4.749   0.029
 6901SOL    HW221603   5.048   4.751   6.943
 6902SOL     OW21604   0.489   5.895   6.022
 6902SOL    HW121605   0.542   5.818   6.059
 6902SOL    HW221606   0.403   5.860   5.984
 6903SOL     OW21607   0.960   5.617   4.454
 6903SOL    HW121608   1.054   5.624   4.490
 6903SOL    HW221609   0.900   5.679   4.506
 6904SOL     OW21610   6.728   0.420   6.291
 6904SOL    HW121611   6.791   0.399   6.217
 6904SOL    HW221612   6.698   0.335   6.334
 6905SOL     OW21613   5.162   6.271   5.981
 6905SOL    HW121614   5.154   6.226   6.070
 6905SOL    HW221615   5.093   6.234   5.919
 6906SOL     OW21616   3.376   1.088   3.928
 6906SOL    HW121617   3.443   1.114   3.858
 6906SOL    HW221618   3.340   1.171   3.971
 6907SOL     OW21619   5.491   2.343   1.061
 6907SOL    HW121620   5.539   2.285   1.127
 6907SOL    HW221621   5.555   2.373   0.990
 6908SOL     OW21622   3.157   5.274   0.400
 6908SOL    HW121623   3.218   5.340   0.443
 6908SOL    HW221624   3.070   5.271   0.450
 6909SOL     OW21625   5.859   4.911   1.867
 6909SOL    HW121626   5.843   4.930   1.963
 6909SOL    HW221627   5.842   4.814   1.849
 6910SOL     OW21628   1.137   2.844   2.639
 6910SOL    HW121629   1.073   2.876   2.709
 6910SOL    HW221630   1.119   2.892   2.553
 6911SOL     OW21631   1.491   6.536   5.617
 6911SOL    HW121632   1.578   6.511   5.573
 6911SOL    HW221633   1.474   6.474   5.693
 6912SOL     OW21634   2.718   3.663   6.855
 6912SOL    HW121635   2.780   3.606   6.909
 6912SOL    HW221636   2.667   3.606   6.791
 6913SOL     OW21637   4.758   6.215   6.076
 6913SOL    HW121638   4.812   6.194   5.994
 6913SOL    HW221639   4.661   6.210   6.054
 6914SOL     OW21640   5.845   2.587   2.239
 6914SOL    HW121641   5.911   2.621   2.172
 6914SOL    HW221642   5.787   2.662   2.270
 6915SOL     OW21643   6.592   3.716   3.678
 6915SOL    HW121644   6.497   3.723   3.648
 6915SOL    HW221645   6.616   3.619   3.689
 6916SOL     OW21646   5.081   6.273   6.757
 6916SOL    HW121647   5.008   6.221   6.801
 6916SOL    HW221648   5.044   6.319   6.676
 6917SOL     OW21649   3.916   6.754   1.903
 6917SOL    HW121650   3.952   6.729   1.813
 6917SOL    HW221651   3.991   6.754   1.970
 6918SOL     OW21652   2.508   3.469   0.574
 6918SOL    HW121653   2.478   3.556   0.612
 6918SOL    HW221654   2.443   3.440   0.503
 6919SOL     OW21655   5.386   6.007   3.711
 6919SOL    HW121656   5.365   6.021   3.614
 6919SOL    HW221657   5.485   6.007   3.724
 6920SOL     OW21658   6.223   1.084   6.075
 6920SOL    HW121659   6.128   1.059   6.092
 6920SOL    HW221660   6.278   1.063   6.156
 6921SOL     OW21661   4.306   0.038   4.210
 6921SOL    HW121662   4.316   6.962   4.186
 6921SOL    HW221663   4.226   0.049   4.269
 6922SOL     OW21664   1.847   4.794   6.274
 6922SOL    HW121665   1.846   4.894   6.268
 6922SOL    HW221666   1.753   4.759   6.272
 6923SOL     OW21667   5.826   6.862   2.246
 6923SOL    HW121668   5.863   6.890   2.157
 6923SOL    HW221669   5.811   6.943   2.303
 6924SOL     OW21670   3.170   5.930   2.161
 6924SOL    HW121671   3.244   5.896   2.219
 6924SOL    HW221672   3.145   6.022   2.189
 6925SOL     OW21673   5.779   6.861   5.309
 6925SOL    HW121674   5.832   6.914   5.375
 6925SOL    HW221675   5.747   6.921   5.235
 6926SOL     OW21676   3.212   2.469   0.257
 6926SOL    HW121677   3.259   2.544   0.212
 6926SOL    HW221678   3.222   2.386   0.202
 6927SOL     OW21679   4.699   0.351   0.758
 6927SOL    HW121680   4.701   0.372   0.660
 6927SOL    HW221681   4.605   0.352   0.791
 6928SOL     OW21682   3.830   5.368   0.216
 6928SOL    HW121683   3.907   5.305   0.211
 6928SOL    HW221684   3.747   5.323   0.181
 6929SOL     OW21685   5.492   5.153   2.220
 6929SOL    HW121686   5.454   5.086   2.157
 6929SOL    HW221687   5.560   5.110   2.279
 6930SOL     OW21688   0.141   6.885   1.474
 6930SOL    HW121689   0.204   6.864   1.549
 6930SOL    HW221690   0.191   6.887   1.388
 6931SOL     OW21691   3.075   3.216   0.893
 6931SOL    HW121692   3.128   3.289   0.936
 6931SOL    HW221693   3.010   3.256   0.828
 6932SOL     OW21694   4.032   6.491   6.530
 6932SOL    HW121695   4.126   6.455   6.529
 6932SOL    HW221696   3.991   6.473   6.619
 6933SOL     OW21697   3.435   5.527   5.899
 6933SOL    HW121698   3.505   5.484   5.842
 6933SOL    HW221699   3.474   5.606   5.946
 6934SOL     OW21700   4.804   4.756   6.711
 6934SOL    HW121701   4.857   4.776   6.793
 6934SOL    HW221702   4.775   4.841   6.668
 6935SOL     OW21703   4.105   6.006   1.526
 6935SOL    HW121704   4.124   6.086   1.469
 6935SOL    HW221705   4.012   6.013   1.562
 6936SOL     OW21706   0.323   1.732   5.403
 6936SOL    HW121707   0.282   1.704   5.490
 6936SOL    HW221708   0.252   1.774   5.345
 6937SOL     OW21709   5.437   5.276   0.044
 6937SOL    HW121710   5.434   5.190   0.095
 6937SOL    HW221711   5.349   5.292   7.019
 6938SOL     OW21712   2.587   1.489   4.650
 6938SOL    HW121713   2.496   1.496   4.692
 6938SOL    HW221714   2.654   1.464   4.719
 6939SOL     OW21715   5.798   3.151   3.332
 6939SOL    HW121716   5.826   3.228   3.388
 6939SOL    HW221717   5.739   3.183   3.257
 6940SOL     OW21718   2.703   6.192   0.932
 6940SOL    HW121719   2.689   6.125   1.005
 6940SOL    HW221720   2.650   6.165   0.852
 6941SOL     OW21721   3.574   3.679   2.771
 6941SOL    HW121722   3.611   3.586   2.763
 6941SOL    HW221723   3.478   3.680   2.743
 6942SOL     OW21724   6.197   5.667   2.375
 6942SOL    HW121725   6.145   5.665   2.460
 6942SOL    HW221726   6.253   5.750   2.372
 6943SOL     OW21727   4.593   4.521   6.217
 6943SOL    HW121728   4.521   4.473   6.166
 6943SOL    HW221729   4.662   4.556   6.154
 6944SOL     OW21730   1.094   4.281   4.668
 6944SOL    HW121731   1.035   4.354   4.704
 6944SOL    HW221732   1.076   4.269   4.571
 6945SOL     OW21733   5.418   1.579   1.088
 6945SOL    HW121734   5.425   1.534   0.998
 6945SOL    HW221735   5.457   1.519   1.158
 6946SOL     OW21736   5.100   6.776   2.944
 6946SOL    HW121737   5.006   6.794   2.972
 6946SOL    HW221738   5.156   6.856   2.965
 6947SOL     OW21739   6.236   4.442   4.792
 6947SOL    HW121740   6.222   4.512   4.862
 6947SOL    HW221741   6.259   4.355   4.835
 6948SOL     OW21742   0.230   4.460   6.788
 6948SOL    HW121743   0.268   4.397   6.721
 6948SOL    HW221744   0.179   4.532   6.741
 6949SOL     OW21745   2.604   2.123   3.684
 6949SOL    HW121746   2.635   2.028   3.679
 6949SOL    HW221747   2.548   2.145   3.605
 6950SOL     OW21748   0.261   1.049   4.549
 6950SOL    HW121749   0.258   1.118   4.622
 6950SOL    HW221750   0.346   0.997   4.557
 6951SOL     OW21751   0.971   4.597   0.012
 6951SOL    HW121752   0.955   4.503   7.003
 6951SOL    HW221753   0.885   4.647   0.011
 6952SOL     OW21754   4.983   5.700   4.043
 6952SOL    HW121755   4.961   5.748   3.958
 6952SOL    HW221756   5.052   5.753   4.094
 6953SOL     OW21757   6.601   1.718   1.145
 6953SOL    HW121758   6.659   1.798   1.128
 6953SOL    HW221759   6.548   1.698   1.063
 6954SOL     OW21760   6.856   4.487   6.793
 6954SOL    HW121761   6.856   4.391   6.763
 6954SOL    HW221762   6.910   4.495   6.877
 6955SOL     OW21763   4.878   6.569   3.042
 6955SOL    HW121764   4.835   6.597   2.956
 6955SOL    HW221765   4.976   6.555   3.028
 6956SOL     OW21766   5.602   5.394   2.364
 6956SOL    HW121767   5.506   5.375   2.384
 6956SOL    HW221768   5.660   5.334   2.418
 6957SOL     OW21769   6.082   5.630   5.518
 6957SOL    HW121770   6.037   5.547   5.486
 6957SOL    HW221771   6.021   5.678   5.582
 6958SOL     OW21772   3.131   3.599   3.250
 6958SOL    HW121773   3.140   3.692   3.212
 6958SOL    HW221774   3.208   3.543   3.220
 6959SOL     OW21775   1.664   4.139   2.753
 6959SOL    HW121776   1.728   4.166   2.826
 6959SOL    HW221777   1.631   4.047   2.771
 6960SOL     OW21778   3.865   4.275   0.091
 6960SOL    HW121779   3.895   4.200   0.033
 6960SOL    HW221780   3.930   4.287   0.166
 6961SOL     OW21781   4.685   2.356   5.104
 6961SOL    HW121782   4.593   2.341   5.068
 6961SOL    HW221783   4.699   2.296   5.183
 6962SOL     OW21784   2.415   6.529   6.476
 6962SOL    HW121785   2.371   6.519   6.387
 6962SOL    HW221786   2.347   6.521   6.548
 6963SOL     OW21787   6.237   5.770   0.374
 6963SOL    HW121788   6.156   5.712   0.371
 6963SOL    HW221789   6.319   5.713   0.364
 6964SOL     OW21790   2.076   1.365   5.293
 6964SOL    HW121791   1.998   1.372   5.355
 6964SOL    HW221792   2.158   1.340   5.344
 6965SOL     OW21793   1.400   1.403   0.626
 6965SOL    HW121794   1.466   1.329   0.620
 6965SOL    HW221795   1.359   1.419   0.536
 6966SOL     OW21796   1.371   6.326   1.063
 6966SOL    HW121797   1.330   6.257   1.122
 6966SOL    HW221798   1.418   6.394   1.120
 6967SOL     OW21799   4.102   0.871   6.658
 6967SOL    HW121800   4.008   0.861   6.625
 6967SOL    HW221801   4.102   0.917   6.747
 6968SOL     OW21802   4.014   6.769   3.132
 6968SOL    HW121803   3.924   6.758   3.174
 6968SOL    HW221804   4.021   6.859   3.090
 6969SOL     OW21805   2.125   2.132   2.093
 6969SOL    HW121806   2.119   2.039   2.128
 6969SOL    HW221807   2.212   2.145   2.047
 6970SOL     OW21808   3.693   5.104   4.992
 6970SOL    HW121809   3.630   5.050   4.936
 6970SOL    HW221810   3.714   5.054   5.076
 6971SOL     OW21811   6.282   4.072   0.380
 6971SOL    HW121812   6.289   4.065   0.480
 6971SOL    HW221813   6.362   4.119   0.344
 6972SOL     OW21814   5.430   4.295   1.345
 6972SOL    HW121815   5.472   4.374   1.389
 6972SOL    HW221816   5.500   4.243   1.296
 6973SOL     OW21817   1.704   2.187   3.109
 6973SOL    HW121818   1.774   2.190   3.038
 6973SOL    HW221819   1.663   2.278   3.120
 6974SOL     OW21820   4.067   3.806   2.806
 6974SOL    HW121821   4.096   3.829   2.713
 6974SOL    HW221822   4.083   3.709   2.822
 6975SOL     OW21823   3.009   5.376   4.268
 6975SOL    HW121824   2.970   5.397   4.357
 6975SOL    HW221825   2.952   5.416   4.196
 6976SOL     OW21826   4.464   3.933   6.028
 6976SOL    HW121827   4.391   3.970   5.970
 6976SOL    HW221828   4.472   3.835   6.012
 6977SOL     OW21829   4.653   5.049   2.469
 6977SOL    HW121830   4.692   5.018   2.556
 6977SOL    HW221831   4.593   5.127   2.485
 6978SOL     OW21832   0.116   3.498   1.217
 6978SOL    HW121833   0.052   3.545   1.277
 6978SOL    HW221834   0.161   3.565   1.158
 6979SOL     OW21835   1.279   3.656   2.367
 6979SOL    HW121836   1.338   3.707   2.304
 6979SOL    HW221837   1.332   3.583   2.410
 6980SOL     OW21838   1.994   5.256   2.758
 6980SOL    HW121839   1.976   5.231   2.854
 6980SOL    HW221840   2.082   5.302   2.752
 6981SOL     OW21841   4.092   2.466   6.741
 6981SOL    HW121842   4.020   2.396   6.746
 6981SOL    HW221843   4.101   2.511   6.830
 6982SOL     OW21844   1.370   0.695   2.490
 6982SOL    HW121845   1.326   0.776   2.453
 6982SOL    HW221846   1.354   0.617   2.430
 6983SOL     OW21847   6.010   1.079   4.138
 6983SOL    HW121848   6.080   1.013   4.165
 6983SOL    HW221849   6.014   1.159   4.198
 6984SOL     OW21850   1.514   2.965   3.150
 6984SOL    HW121851   1.604   2.941   3.113
 6984SOL    HW221852   1.463   2.881   3.169
 6985SOL     OW21853   5.635   3.546   6.423
 6985SOL    HW121854   5.609   3.599   6.343
 6985SOL    HW221855   5.577   3.465   6.430
 6986SOL     OW21856   4.883   4.707   5.432
 6986SOL    HW121857   4.915   4.626   5.384
 6986SOL    HW221858   4.869   4.686   5.529
 6987SOL     OW21859   0.312   1.036   6.818
 6987SOL    HW121860   0.217   1.062   6.799
 6987SOL    HW221861   0.316   0.981   6.902
 6988SOL     OW21862   2.729   1.321   6.749
 6988SOL    HW121863   2.737   1.391   6.678
 6988SOL    HW221864   2.635   1.317   6.783
 6989SOL     OW21865   0.544   4.160   2.916
 6989SOL    HW121866   0.496   4.138   2.831
 6989SOL    HW221867   0.513   4.248   2.950
 6990SOL     OW21868   3.595   3.734   0.399
 6990SOL    HW121869   3.606   3.701   0.306
 6990SOL    HW221870   3.500   3.726   0.427
 6991SOL     OW21871   6.309   3.082   2.299
 6991SOL    HW121872   6.371   3.159   2.306
 6991SOL    HW221873   6.361   2.997   2.298
 6992SOL     OW21874   0.841   5.557   0.273
 6992SOL    HW121875   0.748   5.564   0.309
 6992SOL    HW221876   0.856   5.465   0.235
 6993SOL     OW21877   4.322   2.014   1.787
 6993SOL    HW121878   4.224   2.031   1.799
 6993SOL    HW221879   4.373   2.096   1.809
 6994SOL     OW21880   2.872   1.227   3.554
 6994SOL    HW121881   2.775   1.224   3.533
 6994SOL    HW221882   2.903   1.138   3.587
 6995SOL     OW21883   6.904   4.122   0.946
 6995SOL    HW121884   6.923   4.126   1.044
 6995SOL    HW221885   6.805   4.111   0.932
 6996SOL     OW21886   0.666   1.154   6.601
 6996SOL    HW121887   0.653   1.225   6.671
 6996SOL    HW221888   0.620   1.071   6.630
 6997SOL     OW21889   6.222   6.138   6.136
 6997SOL    HW121890   6.161   6.196   6.190
 6997SOL    HW221891   6.254   6.188   6.056
 6998SOL     OW21892   0.022   1.304   0.517
 6998SOL    HW121893   7.016   1.399   0.530
 6998SOL    HW221894   0.105   1.300   0.461
 6999SOL     OW21895   6.922   3.357   6.616
 6999SOL    HW121896   6.847   3.423   6.625
 6999SOL    HW221897   6.886   3.264   6.627
 7000SOL     OW21898   0.409   5.908   3.316
 7000SOL    HW121899   0.378   5.994   3.355
 7000SOL    HW221900   0.347   5.880   3.243
 7001SOL     OW21901   6.847   1.886   4.030
 7001SOL    HW121902   6.898   1.894   4.116
 7001SOL    HW221903   6.886   1.814   3.974
 7002SOL     OW21904   0.883   5.540   2.620
 7002SOL    HW121905   0.855   5.625   2.576
 7002SOL    HW221906   0.958   5.498   2.568
 7003SOL     OW21907   0.276   4.162   0.643
 7003SOL    HW121908   0.314   4.136   0.732
 7003SOL    HW221909   0.177   4.162   0.647
 7004SOL     OW21910   1.801   6.952   0.311
 7004SOL    HW121911   1.802   6.972   0.409
 7004SOL    HW221912   1.807   6.853   0.297
 7005SOL     OW21913   1.354   5.143   0.626
 7005SOL    HW121914   1.390   5.056   0.591
 7005SOL    HW221915   1.303   5.189   0.554
 7006SOL     OW21916   0.471   0.200   3.927
 7006SOL    HW121917   0.468   0.242   3.836
 7006SOL    HW221918   0.393   0.139   3.938
 7007SOL     OW21919   2.245   0.480   6.236
 7007SOL    HW121920   2.271   0.402   6.293
 7007SOL    HW221921   2.214   0.447   6.147
 7008SOL     OW21922   5.734   3.396   3.148
 7008SOL    HW121923   5.762   3.357   3.061
 7008SOL    HW221924   5.641   3.366   3.171
 7009SOL     OW21925   5.141   5.922   2.530
 7009SOL    HW121926   5.194   5.881   2.604
 7009SOL    HW221927   5.044   5.902   2.544
 7010SOL     OW21928   5.052   3.573   2.396
 7010SOL    HW121929   5.144   3.548   2.367
 7010SOL    HW221930   5.004   3.493   2.430
 7011SOL     OW21931   2.991   6.872   6.285
 7011SOL    HW121932   2.933   6.811   6.339
 7011SOL    HW221933   3.086   6.863   6.316
 7012SOL     OW21934   6.836   3.077   0.018
 7012SOL    HW121935   6.783   3.138   6.980
 7012SOL    HW221936   6.775   3.019   0.071
 7013SOL     OW21937   3.413   2.872   0.327
 7013SOL    HW121938   3.314   2.872   0.317
 7013SOL    HW221939   3.451   2.954   0.285
 7014SOL     OW21940   5.375   3.156   0.683
 7014SOL    HW121941   5.332   3.094   0.617
 7014SOL    HW221942   5.309   3.226   0.710
 7015SOL     OW21943   5.860   6.360   1.463
 7015SOL    HW121944   5.879   6.454   1.435
 7015SOL    HW221945   5.837   6.358   1.560
 7016SOL     OW21946   3.436   5.265   1.068
 7016SOL    HW121947   3.412   5.169   1.085
 7016SOL    HW221948   3.398   5.293   0.979
 7017SOL     OW21949   5.944   4.485   5.551
 7017SOL    HW121950   5.953   4.551   5.626
 7017SOL    HW221951   6.001   4.405   5.571
 7018SOL     OW21952   5.392   3.646   4.750
 7018SOL    HW121953   5.368   3.630   4.654
 7018SOL    HW221954   5.402   3.744   4.766
 7019SOL     OW21955   4.312   5.482   2.155
 7019SOL    HW121956   4.292   5.515   2.247
 7019SOL    HW221957   4.278   5.388   2.146
 7020SOL     OW21958   0.677   2.436   6.733
 7020SOL    HW121959   0.601   2.392   6.685
 7020SOL    HW221960   0.753   2.450   6.670
 7021SOL     OW21961   0.585   2.077   4.680
 7021SOL    HW121962   0.646   2.029   4.617
 7021SOL    HW221963   0.567   2.169   4.644
 7022SOL     OW21964   3.072   2.625   0.700
 7022SOL    HW121965   3.106   2.716   0.677
 7022SOL    HW221966   3.035   2.582   0.617
 7023SOL     OW21967   0.415   1.304   0.767
 7023SOL    HW121968   0.448   1.292   0.673
 7023SOL    HW221969   0.486   1.275   0.831
 7024SOL     OW21970   3.234   3.623   4.587
 7024SOL    HW121971   3.194   3.706   4.627
 7024SOL    HW221972   3.281   3.571   4.658
 7025SOL     OW21973   3.011   0.462   1.174
 7025SOL    HW121974   2.970   0.428   1.258
 7025SOL    HW221975   3.082   0.529   1.196
 7026SOL     OW21976   3.318   2.873   1.059
 7026SOL    HW121977   3.338   2.904   0.966
 7026SOL    HW221978   3.240   2.810   1.057
 7027SOL     OW21979   3.004   5.016   2.716
 7027SOL    HW121980   3.017   4.933   2.770
 7027SOL    HW221981   3.015   4.994   2.619
 7028SOL     OW21982   3.497   6.819   3.385
 7028SOL    HW121983   3.556   6.810   3.465
 7028SOL    HW221984   3.482   6.916   3.366
 7029SOL     OW21985   3.440   3.742   3.611
 7029SOL    HW121986   3.406   3.819   3.556
 7029SOL    HW221987   3.537   3.728   3.592
 7030SOL     OW21988   6.815   0.793   4.863
 7030SOL    HW121989   6.729   0.828   4.826
 7030SOL    HW221990   6.892   0.831   4.812
 7031SOL     OW21991   4.918   6.379   0.644
 7031SOL    HW121992   4.967   6.410   0.725
 7031SOL    HW221993   4.983   6.366   0.568
 7032SOL     OW21994   4.553   5.055   4.232
 7032SOL    HW121995   4.460   5.037   4.200
 7032SOL    HW221996   4.614   4.981   4.202
 7033SOL     OW21997   1.932   1.830   5.411
 7033SOL    HW121998   1.839   1.865   5.423
 7033SOL    HW221999   1.995   1.906   5.395
 7034SOL     OW22000   6.363   0.914   2.727
 7034SOL    HW122001   6.430   0.880   2.661
 7034SOL    HW222002   6.406   0.920   2.817
 7035SOL     OW22003   2.281   0.776   1.074
 7035SOL    HW122004   2.284   0.763   1.174
 7035SOL    HW222005   2.255   0.690   1.031
 7036SOL     OW22006   6.666   1.447   2.234
 7036SOL    HW122007   6.741   1.514   2.230
 7036SOL    HW222008   6.686   1.372   2.171
 7037SOL     OW22009   1.178   0.466   5.971
 7037SOL    HW122010   1.180   0.559   5.934
 7037SOL    HW222011   1.158   0.470   6.069
 7038SOL     OW22012   1.446   3.655   0.213
 7038SOL    HW122013   1.506   3.668   0.292
 7038SOL    HW222014   1.379   3.730   0.210
 7039SOL     OW22015   0.072   6.905   2.297
 7039SOL    HW122016   0.023   6.831   2.252
 7039SOL    HW222017   0.097   6.974   2.229
 7040SOL     OW22018   5.755   2.689   4.821
 7040SOL    HW122019   5.853   2.680   4.839
 7040SOL    HW222020   5.703   2.650   4.898
 7041SOL     OW22021   1.166   6.748   4.320
 7041SOL    HW122022   1.212   6.784   4.401
 7041SOL    HW222023   1.155   6.821   4.253
 7042SOL     OW22024   5.542   6.046   5.223
 7042SOL    HW122025   5.472   6.101   5.269
 7042SOL    HW222026   5.508   5.953   5.210
 7043SOL     OW22027   2.043   5.554   0.936
 7043SOL    HW122028   2.011   5.592   1.023
 7043SOL    HW222029   2.004   5.462   0.924
 7044SOL     OW22030   5.988   6.667   4.877
 7044SOL    HW122031   5.968   6.725   4.956
 7044SOL    HW222032   5.987   6.571   4.905
 7045SOL     OW22033   6.273   5.640   1.668
 7045SOL    HW122034   6.292   5.677   1.578
 7045SOL    HW222035   6.329   5.558   1.684
 7046SOL     OW22036   1.777   1.491   3.862
 7046SOL    HW122037   1.708   1.536   3.918
 7046SOL    HW222038   1.773   1.527   3.769
 7047SOL     OW22039   1.362   6.246   0.672
 7047SOL    HW122040   1.454   6.285   0.664
 7047SOL    HW222041   1.305   6.307   0.728
 7048SOL     OW22042   0.173   6.263   4.111
 7048SOL    HW122043   0.155   6.356   4.080
 7048SOL    HW222044   0.263   6.260   4.156
 7049SOL     OW22045   3.831   1.306   3.970
 7049SOL    HW122046   3.838   1.252   3.886
 7049SOL    HW222047   3.892   1.268   4.039
 7050SOL     OW22048   3.995   4.316   0.530
 7050SOL    HW122049   3.915   4.263   0.559
 7050SOL    HW222050   3.982   4.412   0.555
 7051SOL     OW22051   1.485   1.355   1.893
 7051SOL    HW122052   1.399   1.406   1.884
 7051SOL    HW222053   1.562   1.417   1.882
 7052SOL     OW22054   4.380   1.426   3.232
 7052SOL    HW122055   4.383   1.370   3.314
 7052SOL    HW222056   4.370   1.367   3.151
 7053SOL     OW22057   1.267   3.930   3.120
 7053SOL    HW122058   1.336   3.869   3.159
 7053SOL    HW222059   1.177   3.906   3.156
 7054SOL     OW22060   5.529   1.058   6.747
 7054SOL    HW122061   5.559   0.965   6.766
 7054SOL    HW222062   5.606   1.112   6.712
 7055SOL     OW22063   2.716   0.478   0.465
 7055SOL    HW122064   2.771   0.460   0.384
 7055SOL    HW222065   2.648   0.548   0.445
 7056SOL     OW22066   6.681   4.932   1.033
 7056SOL    HW122067   6.606   4.880   0.992
 7056SOL    HW222068   6.680   4.919   1.132
 7057SOL     OW22069   3.046   5.704   4.831
 7057SOL    HW122070   3.052   5.655   4.918
 7057SOL    HW222071   2.982   5.657   4.770
 7058SOL     OW22072   6.052   2.522   6.197
 7058SOL    HW122073   6.047   2.607   6.144
 7058SOL    HW222074   6.147   2.504   6.223
 7059SOL     OW22075   1.797   6.920   5.086
 7059SOL    HW122076   1.857   6.981   5.138
 7059SOL    HW222077   1.849   6.877   5.013
 7060SOL     OW22078   3.171   2.099   1.063
 7060SOL    HW122079   3.086   2.116   1.013
 7060SOL    HW222080   3.151   2.041   1.142
 7061SOL     OW22081   0.949   1.050   1.456
 7061SOL    HW122082   1.009   1.130   1.451
 7061SOL    HW222083   0.998   0.971   1.420
 7062SOL     OW22084   3.183   0.386   3.898
 7062SOL    HW122085   3.095   0.427   3.920
 7062SOL    HW222086   3.234   0.446   3.837
 7063SOL     OW22087   0.060   0.868   1.191
 7063SOL    HW122088   6.996   0.822   1.161
 7063SOL    HW222089   0.039   0.963   1.216
 7064SOL     OW22090   3.095   1.183   5.120
 7064SOL    HW122091   3.023   1.243   5.156
 7064SOL    HW222092   3.184   1.215   5.151
 7065SOL     OW22093   4.133   5.363   5.321
 7065SOL    HW122094   4.099   5.439   5.376
 7065SOL    HW222095   4.127   5.387   5.224
 7066SOL     OW22096   3.694   0.288   0.877
 7066SOL    HW122097   3.685   0.192   0.905
 7066SOL    HW222098   3.627   0.343   0.926
 7067SOL     OW22099   1.791   3.749   6.192
 7067SOL    HW122100   1.859   3.712   6.255
 7067SOL    HW222101   1.836   3.773   6.106
 7068SOL     OW22102   5.373   4.053   4.450
 7068SOL    HW122103   5.308   4.090   4.516
 7068SOL    HW222104   5.444   4.121   4.432
 7069SOL     OW22105   4.923   0.796   6.054
 7069SOL    HW122106   4.925   0.875   5.992
 7069SOL    HW222107   4.962   0.822   6.143
 7070SOL     OW22108   0.555   0.028   5.910
 7070SOL    HW122109   0.598   0.117   5.898
 7070SOL    HW222110   0.623   6.981   5.938
 7071SOL     OW22111   4.673   6.085   6.698
 7071SOL    HW122112   4.700   5.989   6.687
 7071SOL    HW222113   4.672   6.131   6.609
 7072SOL     OW22114   0.680   3.937   6.309
 7072SOL    HW122115   0.705   3.868   6.241
 7072SOL    HW222116   0.746   3.937   6.383
 7073SOL     OW22117   4.925   1.819   3.939
 7073SOL    HW122118   4.922   1.867   4.026
 7073SOL    HW222119   4.890   1.879   3.867
 7074SOL     OW22120   5.308   3.763   2.975
 7074SOL    HW122121   5.308   3.829   2.900
 7074SOL    HW222122   5.349   3.803   3.056
 7075SOL     OW22123   2.379   5.366   3.138
 7075SOL    HW122124   2.362   5.309   3.058
 7075SOL    HW222125   2.457   5.426   3.119
 7076SOL     OW22126   5.372   2.644   1.539
 7076SOL    HW122127   5.296   2.694   1.497
 7076SOL    HW222128   5.375   2.551   1.501
 7077SOL     OW22129   3.845   6.109   1.860
 7077SOL    HW122130   3.854   6.033   1.925
 7077SOL    HW222131   3.914   6.178   1.880
 7078SOL     OW22132   6.462   0.633   6.864
 7078SOL    HW122133   6.538   0.683   6.822
 7078SOL    HW222134   6.496   0.547   6.902
 7079SOL     OW22135   1.554   5.645   4.666
 7079SOL    HW122136   1.582   5.633   4.571
 7079SOL    HW222137   1.503   5.730   4.676
 7080SOL     OW22138   3.879   1.988   6.150
 7080SOL    HW122139   3.795   1.972   6.098
 7080SOL    HW222140   3.935   2.055   6.103
 7081SOL     OW22141   2.692   6.725   0.609
 7081SOL    HW122142   2.711   6.628   0.597
 7081SOL    HW222143   2.636   6.739   0.690
 7082SOL     OW22144   0.611   3.843   2.355
 7082SOL    HW122145   0.522   3.888   2.362
 7082SOL    HW222146   0.606   3.771   2.286
 7083SOL     OW22147   5.159   2.643   3.209
 7083SOL    HW122148   5.248   2.669   3.247
 7083SOL    HW222149   5.100   2.610   3.282
 7084SOL     OW22150   0.901   5.311   0.152
 7084SOL    HW122151   0.986   5.262   0.171
 7084SOL    HW222152   0.878   5.300   0.055
 7085SOL     OW22153   0.861   4.131   2.130
 7085SOL    HW122154   0.899   4.067   2.064
 7085SOL    HW222155   0.835   4.215   2.083
 7086SOL     OW22156   5.309   1.072   3.759
 7086SOL    HW122157   5.274   1.022   3.680
 7086SOL    HW222158   5.241   1.072   3.832
 7087SOL     OW22159   4.756   2.976   3.302
 7087SOL    HW122160   4.773   2.933   3.391
 7087SOL    HW222161   4.713   2.909   3.241
 7088SOL     OW22162   6.288   2.202   4.884
 7088SOL    HW122163   6.257   2.203   4.979
 7088SOL    HW222164   6.223   2.254   4.828
 7089SOL     OW22165   2.622   5.341   1.529
 7089SOL    HW122166   2.573   5.361   1.444
 7089SOL    HW222167   2.564   5.289   1.591
 7090SOL     OW22168   4.201   3.069   1.383
 7090SOL    HW122169   4.163   3.018   1.307
 7090SOL    HW222170   4.199   3.167   1.362
 7091SOL     OW22171   0.494   6.773   0.512
 7091SOL    HW122172   0.513   6.852   0.569
 7091SOL    HW222173   0.409   6.787   0.461
 7092SOL     OW22174   4.331   6.948   6.723
 7092SOL    HW122175   4.415   6.986   6.686
 7092SOL    HW222176   4.351   6.866   6.777
 7093SOL     OW22177   3.406   2.962   0.809
 7093SOL    HW122178   3.503   2.968   0.833
 7093SOL    HW222179   3.369   3.055   0.797
 7094SOL     OW22180   3.917   0.391   5.841
 7094SOL    HW122181   3.940   0.421   5.934
 7094SOL    HW222182   3.833   0.336   5.843
 7095SOL     OW22183   2.432   4.928   4.900
 7095SOL    HW122184   2.515   4.953   4.951
 7095SOL    HW222185   2.452   4.850   4.842
 7096SOL     OW22186   6.923   0.250   1.231
 7096SOL    HW122187   6.838   0.285   1.192
 7096SOL    HW222188   6.910   0.155   1.258
 7097SOL     OW22189   4.646   1.500   2.707
 7097SOL    HW122190   4.683   1.457   2.790
 7097SOL    HW222191   4.615   1.429   2.644
 7098SOL     OW22192   0.812   0.875   3.299
 7098SOL    HW122193   0.850   0.787   3.328
 7098SOL    HW222194   0.882   0.946   3.307
 7099SOL     OW22195   3.595   1.812   4.791
 7099SOL    HW122196   3.563   1.741   4.728
 7099SOL    HW222197   3.683   1.847   4.759
 7100SOL     OW22198   6.747   4.119   1.367
 7100SOL    HW122199   6.708   4.106   1.458
 7100SOL    HW222200   6.815   4.047   1.349
 7101SOL     OW22201   2.587   6.172   5.003
 7101SOL    HW122202   2.677   6.214   5.014
 7101SOL    HW222203   2.597   6.072   5.002
 7102SOL     OW22204   5.451   1.200   2.431
 7102SOL    HW122205   5.499   1.124   2.473
 7102SOL    HW222206   5.516   1.257   2.380
 7103SOL     OW22207   4.886   3.737   3.462
 7103SOL    HW122208   4.825   3.787   3.523
 7103SOL    HW222209   4.880   3.639   3.482
 7104SOL     OW22210   4.836   3.061   4.206
 7104SOL    HW122211   4.869   3.098   4.292
 7104SOL    HW222212   4.739   3.083   4.195
 7105SOL     OW22213   2.897   3.421   3.248
 7105SOL    HW122214   2.889   3.511   3.292
 7105SOL    HW222215   2.879   3.430   3.150
 7106SOL     OW22216   3.632   1.860   2.459
 7106SOL    HW122217   3.644   1.763   2.480
 7106SOL    HW222218   3.541   1.875   2.422
 7107SOL     OW22219   3.924   0.521   6.093
 7107SOL    HW122220   3.972   0.504   6.179
 7107SOL    HW222221   3.917   0.620   6.078
 7108SOL     OW22222   4.229   0.398   2.101
 7108SOL    HW122223   4.143   0.352   2.121
 7108SOL    HW222224   4.227   0.491   2.138
 7109SOL     OW22225   3.190   5.704   6.691
 7109SOL    HW122226   3.135   5.692   6.608
 7109SOL    HW222227   3.258   5.631   6.696
 7110SOL     OW22228   3.033   6.713   5.015
 7110SOL    HW122229   3.007   6.651   4.942
 7110SOL    HW222230   2.984   6.800   5.004
 7111SOL     OW22231   6.702   0.665   5.077
 7111SOL    HW122232   6.744   0.696   4.991
 7111SOL    HW222233   6.624   0.723   5.098
 7112SOL     OW22234   0.978   4.814   5.095
 7112SOL    HW122235   1.039   4.824   5.174
 7112SOL    HW222236   0.894   4.865   5.111
 7113SOL     OW22237   3.385   6.430   4.630
 7113SOL    HW122238   3.457   6.364   4.652
 7113SOL    HW222239   3.421   6.522   4.643
 7114SOL     OW22240   5.996   3.949   1.103
 7114SOL    HW122241   5.954   4.014   1.041
 7114SOL    HW222242   5.925   3.898   1.152
 7115SOL     OW22243   5.737   3.515   6.077
 7115SOL    HW122244   5.761   3.594   6.020
 7115SOL    HW222245   5.761   3.534   6.173
 7116SOL     OW22246   6.876   3.995   4.704
 7116SOL    HW122247   6.857   3.897   4.703
 7116SOL    HW222248   6.937   4.016   4.781
 7117SOL     OW22249   5.264   6.905   3.284
 7117SOL    HW122250   5.238   6.987   3.334
 7117SOL    HW222251   5.182   6.858   3.252
 7118SOL     OW22252   4.361   4.359   6.135
 7118SOL    HW122253   4.281   4.404   6.173
 7118SOL    HW222254   4.385   4.280   6.190
 7119SOL     OW22255   3.431   6.175   5.825
 7119SOL    HW122256   3.400   6.089   5.784
 7119SOL    HW222257   3.514   6.206   5.779
 7120SOL     OW22258   4.292   1.249   0.723
 7120SOL    HW122259   4.357   1.237   0.648
 7120SOL    HW222260   4.330   1.313   0.790
 7121SOL     OW22261   1.417   5.475   2.211
 7121SOL    HW122262   1.475   5.411   2.262
 7121SOL    HW222263   1.383   5.545   2.273
 7122SOL     OW22264   3.413   2.012   6.885
 7122SOL    HW122265   3.343   1.941   6.896
 7122SOL    HW222266   3.423   2.063   6.971
 7123SOL     OW22267   5.869   5.145   6.085
 7123SOL    HW122268   5.920   5.222   6.123
 7123SOL    HW222269   5.931   5.069   6.067
 7124SOL     OW22270   1.630   3.101   1.003
 7124SOL    HW122271   1.648   3.033   1.075
 7124SOL    HW222272   1.650   3.060   0.914
 7125SOL     OW22273   0.349   6.364   2.349
 7125SOL    HW122274   0.393   6.402   2.430
 7125SOL    HW222275   0.273   6.305   2.377
 7126SOL     OW22276   3.620   5.385   1.248
 7126SOL    HW122277   3.611   5.484   1.240
 7126SOL    HW222278   3.564   5.340   1.179
 7127SOL     OW22279   2.541   6.286   6.478
 7127SOL    HW122280   2.601   6.257   6.552
 7127SOL    HW222281   2.507   6.379   6.497
 7128SOL     OW22282   2.988   4.287   6.947
 7128SOL    HW122283   3.012   4.354   6.877
 7128SOL    HW222284   2.961   4.335   0.010
 7129SOL     OW22285   0.596   0.083   7.006
 7129SOL    HW122286   0.507   0.099   6.964
 7129SOL    HW222287   0.653   0.165   6.998
 7130SOL     OW22288   3.429   6.706   3.950
 7130SOL    HW122289   3.398   6.650   4.027
 7130SOL    HW222290   3.529   6.706   3.947
 7131SOL     OW22291   2.458   1.378   1.623
 7131SOL    HW122292   2.369   1.422   1.612
 7131SOL    HW222293   2.447   1.279   1.628
 7132SOL     OW22294   5.018   4.060   0.888
 7132SOL    HW122295   4.962   4.002   0.829
 7132SOL    HW222296   4.979   4.061   0.981
 7133SOL     OW22297   5.138   6.333   2.710
 7133SOL    HW122298   5.230   6.299   2.731
 7133SOL    HW222299   5.113   6.305   2.617
 7134SOL     OW22300   5.004   5.435   0.022
 7134SOL    HW122301   5.051   5.455   6.956
 7134SOL    HW222302   5.062   5.461   0.099
 7135SOL     OW22303   1.877   3.795   1.273
 7135SOL    HW122304   1.840   3.723   1.330
 7135SOL    HW222305   1.971   3.815   1.301
 7136SOL     OW22306   1.182   2.652   1.948
 7136SOL    HW122307   1.277   2.630   1.970
 7136SOL    HW222308   1.172   2.659   1.849
 7137SOL     OW22309   2.859   1.215   1.536
 7137SOL    HW122310   2.911   1.178   1.614
 7137SOL    HW222311   2.774   1.163   1.525
 7138SOL     OW22312   0.331   2.994   0.365
 7138SOL    HW122313   0.296   3.087   0.351
 7138SOL    HW222314   0.259   2.936   0.402
 7139SOL     OW22315   5.885   6.431   1.123
 7139SOL    HW122316   5.947   6.366   1.167
 7139SOL    HW222317   5.797   6.432   1.172
 7140SOL     OW22318   6.739   4.174   0.055
 7140SOL    HW122319   6.663   4.113   0.077
 7140SOL    HW222320   6.773   4.216   0.139
 7141SOL     OW22321   3.253   0.409   1.018
 7141SOL    HW122322   3.217   0.499   1.043
 7141SOL    HW222323   3.218   0.340   1.081
 7142SOL     OW22324   4.006   7.005   4.696
 7142SOL    HW122325   4.028   6.922   4.647
 7142SOL    HW222326   3.925   0.027   4.656
 7143SOL     OW22327   2.749   3.348   6.523
 7143SOL    HW122328   2.838   3.379   6.489
 7143SOL    HW222329   2.676   3.398   6.476
 7144SOL     OW22330   6.760   1.025   6.330
 7144SOL    HW122331   6.688   1.051   6.394
 7144SOL    HW222332   6.738   0.936   6.290
 7145SOL     OW22333   5.681   1.470   6.156
 7145SOL    HW122334   5.771   1.430   6.175
 7145SOL    HW222335   5.619   1.398   6.122
 7146SOL     OW22336   1.193   2.269   5.544
 7146SOL    HW122337   1.152   2.207   5.611
 7146SOL    HW222338   1.258   2.329   5.590
 7147SOL     OW22339   6.303   6.180   1.839
 7147SOL    HW122340   6.362   6.247   1.885
 7147SOL    HW222341   6.274   6.217   1.751
 7148SOL     OW22342   6.686   6.761   1.290
 7148SOL    HW122343   6.606   6.714   1.326
 7148SOL    HW222344   6.736   6.804   1.366
 7149SOL     OW22345   5.622   4.502   5.601
 7149SOL    HW122346   5.576   4.517   5.514
 7149SOL    HW222347   5.719   4.483   5.585
 7150SOL     OW22348   2.942   2.702   6.977
 7150SOL    HW122349   2.959   2.621   0.013
 7150SOL    HW222350   2.859   2.748   7.008
 7151SOL     OW22351   5.294   1.229   6.992
 7151SOL    HW122352   5.229   1.225   0.048
 7151SOL    HW222353   5.326   1.323   6.981
 7152SOL     OW22354   4.945   0.511   6.073
 7152SOL    HW122355   5.029   0.489   6.122
 7152SOL    HW222356   4.935   0.610   6.064
 7153SOL     OW22357   3.355   5.731   0.353
 7153SOL    HW122358   3.360   5.718   0.254
 7153SOL    HW222359   3.410   5.811   0.378
 7154SOL     OW22360   4.335   1.449   2.004
 7154SOL    HW122361   4.327   1.361   1.957
 7154SOL    HW222362   4.247   1.473   2.045
 7155SOL     OW22363   1.455   0.478   2.074
 7155SOL    HW122364   1.497   0.441   2.157
 7155SOL    HW222365   1.410   0.405   2.023
 7156SOL     OW22366   6.632   3.406   5.237
 7156SOL    HW122367   6.602   3.361   5.152
 7156SOL    HW222368   6.684   3.488   5.214
 7157SOL     OW22369   0.439   4.224   6.032
 7157SOL    HW122370   0.516   4.246   5.972
 7157SOL    HW222371   0.440   4.126   6.052
 7158SOL     OW22372   5.243   6.858   4.049
 7158SOL    HW122373   5.227   6.954   4.026
 7158SOL    HW222374   5.236   6.802   3.966
 7159SOL     OW22375   0.427   6.515   2.960
 7159SOL    HW122376   0.440   6.594   2.900
 7159SOL    HW222377   0.348   6.530   3.019
 7160SOL     OW22378   5.942   0.248   3.564
 7160SOL    HW122379   5.999   0.179   3.609
 7160SOL    HW222380   5.985   0.277   3.478
 7161SOL     OW22381   3.861   4.012   2.251
 7161SOL    HW122382   3.884   3.987   2.157
 7161SOL    HW222383   3.924   3.966   2.314
 7162SOL     OW22384   0.782   6.498   1.354
 7162SOL    HW122385   0.781   6.496   1.254
 7162SOL    HW222386   0.847   6.567   1.385
 7163SOL     OW22387   6.932   0.703   0.742
 7163SOL    HW122388   6.833   0.709   0.750
 7163SOL    HW222389   6.975   0.780   0.789
 7164SOL     OW22390   1.362   1.025   6.829
 7164SOL    HW122391   1.326   0.937   6.799
 7164SOL    HW222392   1.347   1.093   6.757
 7165SOL     OW22393   5.787   2.129   6.849
 7165SOL    HW122394   5.798   2.146   6.750
 7165SOL    HW222395   5.789   2.216   6.897
 7166SOL     OW22396   6.721   5.874   5.922
 7166SOL    HW122397   6.771   5.799   5.879
 7166SOL    HW222398   6.763   5.961   5.896
 7167SOL     OW22399   0.050   3.239   5.164
 7167SOL    HW122400   0.131   3.295   5.180
 7167SOL    HW222401   0.076   3.143   5.159
 7168SOL     OW22402   1.826   1.889   2.168
 7168SOL    HW122403   1.783   1.801   2.150
 7168SOL    HW222404   1.763   1.963   2.146
 7169SOL     OW22405   2.169   4.440   5.395
 7169SOL    HW122406   2.193   4.381   5.318
 7169SOL    HW222407   2.130   4.526   5.360
 7170SOL     OW22408   3.398   1.617   1.270
 7170SOL    HW122409   3.494   1.603   1.248
 7170SOL    HW222410   3.354   1.528   1.285
 7171SOL     OW22411   0.039   3.910   0.866
 7171SOL    HW122412   7.000   3.967   0.809
 7171SOL    HW222413   0.045   3.951   0.957
 7172SOL     OW22414   0.328   2.635   3.927
 7172SOL    HW122415   0.273   2.579   3.864
 7172SOL    HW222416   0.275   2.714   3.956
 7173SOL     OW22417   4.663   5.325   6.081
 7173SOL    HW122418   4.753   5.356   6.110
 7173SOL    HW222419   4.670   5.282   5.991
 7174SOL     OW22420   6.455   4.284   2.363
 7174SOL    HW122421   6.424   4.200   2.320
 7174SOL    HW222422   6.414   4.363   2.317
 7175SOL     OW22423   6.729   3.824   5.507
 7175SOL    HW122424   6.761   3.893   5.573
 7175SOL    HW222425   6.772   3.841   5.418
 7176SOL     OW22426   0.042   1.057   6.055
 7176SOL    HW122427   0.018   0.987   5.988
 7176SOL    HW222428   0.132   1.094   6.035
 7177SOL     OW22429   1.354   6.200   3.846
 7177SOL    HW122430   1.266   6.172   3.808
 7177SOL    HW222431   1.339   6.256   3.928
 7178SOL     OW22432   1.608   0.008   4.909
 7178SOL    HW122433   1.631   6.978   4.825
 7178SOL    HW222434   1.665   6.995   4.984
 7179SOL     OW22435   4.034   4.677   6.134
 7179SOL    HW122436   4.110   4.703   6.075
 7179SOL    HW222437   3.989   4.760   6.168
 7180SOL     OW22438   1.904   2.884   1.766
 7180SOL    HW122439   1.913   2.814   1.695
 7180SOL    HW222440   1.992   2.928   1.782
 7181SOL     OW22441   1.924   1.461   0.004
 7181SOL    HW122442   1.836   1.428   6.991
 7181SOL    HW222443   1.969   1.514   6.953
 7182SOL     OW22444   1.554   1.187   3.762
 7182SOL    HW122445   1.532   1.257   3.694
 7182SOL    HW222446   1.611   1.117   3.719
 7183SOL     OW22447   1.561   6.852   2.189
 7183SOL    HW122448   1.461   6.841   2.193
 7183SOL    HW222449   1.601   6.821   2.275
 7184SOL     OW22450   6.584   1.007   3.879
 7184SOL    HW122451   6.664   1.052   3.918
 7184SOL    HW222452   6.608   0.969   3.789
 7185SOL     OW22453   4.258   0.428   4.179
 7185SOL    HW122454   4.223   0.516   4.212
 7185SOL    HW222455   4.349   0.411   4.218
 7186SOL     OW22456   6.443   0.790   0.058
 7186SOL    HW122457   6.523   0.780   0.117
 7186SOL    HW222458   6.449   0.725   7.002
 7187SOL     OW22459   3.742   3.654   3.935
 7187SOL    HW122460   3.835   3.638   3.969
 7187SOL    HW222461   3.676   3.605   3.991
 7188SOL     OW22462   4.437   4.567   0.062
 7188SOL    HW122463   4.524   4.520   0.050
 7188SOL    HW222464   4.369   4.527   7.020
 7189SOL     OW22465   6.530   2.855   5.825
 7189SOL    HW122466   6.471   2.843   5.905
 7189SOL    HW222467   6.518   2.947   5.788
 7190SOL     OW22468   5.882   5.238   6.850
 7190SOL    HW122469   5.818   5.301   6.807
 7190SOL    HW222470   5.878   5.249   6.949
 7191SOL     OW22471   6.736   4.906   2.874
 7191SOL    HW122472   6.746   4.808   2.858
 7191SOL    HW222473   6.778   4.930   2.962
 7192SOL     OW22474   2.345   4.211   5.988
 7192SOL    HW122475   2.441   4.227   6.011
 7192SOL    HW222476   2.309   4.289   5.937
 7193SOL     OW22477   3.316   1.597   3.284
 7193SOL    HW122478   3.240   1.612   3.222
 7193SOL    HW222479   3.283   1.593   3.378
 7194SOL     OW22480   2.913   2.560   6.075
 7194SOL    HW122481   2.926   2.648   6.120
 7194SOL    HW222482   2.879   2.493   6.140
 7195SOL     OW22483   0.931   4.203   5.320
 7195SOL    HW122484   0.832   4.200   5.336
 7195SOL    HW222485   0.979   4.192   5.407
 7196SOL     OW22486   3.520   4.184   1.951
 7196SOL    HW122487   3.520   4.084   1.941
 7196SOL    HW222488   3.539   4.208   2.046
 7197SOL     OW22489   3.444   4.613   6.621
 7197SOL    HW122490   3.516   4.584   6.684
 7197SOL    HW222491   3.363   4.639   6.673
 7198SOL     OW22492   0.954   1.072   1.811
 7198SOL    HW122493   0.907   0.986   1.790
 7198SOL    HW222494   1.047   1.070   1.774
 7199SOL     OW22495   6.085   1.390   2.376
 7199SOL    HW122496   6.132   1.450   2.312
 7199SOL    HW222497   6.019   1.333   2.326
 7200SOL     OW22498   0.914   2.588   0.269
 7200SOL    HW122499   0.881   2.574   0.176
 7200SOL    HW222500   0.858   2.659   0.314
 7201SOL     OW22501   6.309   5.559   3.940
 7201SOL    HW122502   6.388   5.620   3.934
 7201SOL    HW222503   6.303   5.503   3.858
 7202SOL     OW22504   4.584   6.415   5.918
 7202SOL    HW122505   4.530   6.477   5.974
 7202SOL    HW222506   4.660   6.465   5.877
 7203SOL     OW22507   0.235   1.490   1.196
 7203SOL    HW122508   0.321   1.511   1.241
 7203SOL    HW222509   0.227   1.391   1.183
 7204SOL     OW22510   6.904   0.454   2.417
 7204SOL    HW122511   7.004   0.464   2.417
 7204SOL    HW222512   6.865   0.505   2.341
 7205SOL     OW22513   2.762   2.069   4.381
 7205SOL    HW122514   2.745   2.127   4.301
 7205SOL    HW222515   2.838   2.106   4.433
 7206SOL     OW22516   1.670   4.031   0.040
 7206SOL    HW122517   1.646   4.004   0.133
 7206SOL    HW222518   1.610   3.983   6.996
 7207SOL     OW22519   1.919   1.151   3.480
 7207SOL    HW122520   1.856   1.219   3.444
 7207SOL    HW222521   1.870   1.088   3.540
 7208SOL     OW22522   2.954   0.498   4.007
 7208SOL    HW122523   2.955   0.598   4.015
 7208SOL    HW222524   3.001   0.457   4.085
 7209SOL     OW22525   3.405   1.100   1.588
 7209SOL    HW122526   3.371   1.116   1.496
 7209SOL    HW222527   3.496   1.057   1.584
 7210SOL     OW22528   3.368   1.223   3.469
 7210SOL    HW122529   3.295   1.196   3.406
 7210SOL    HW222530   3.338   1.208   3.563
 7211SOL     OW22531   4.503   6.519   5.355
 7211SOL    HW122532   4.512   6.456   5.278
 7211SOL    HW222533   4.501   6.467   5.441
 7212SOL     OW22534   0.612   5.012   5.601
 7212SOL    HW122535   0.671   4.935   5.624
 7212SOL    HW222536   0.518   4.992   5.630
 7213SOL     OW22537   4.027   1.869   6.932
 7213SOL    HW122538   4.028   1.776   6.896
 7213SOL    HW222539   4.119   1.907   6.929
 7214SOL     OW22540   5.994   0.104   6.686
 7214SOL    HW122541   6.069   0.150   6.734
 7214SOL    HW222542   5.906   0.142   6.716
 7215SOL     OW22543   6.510   1.634   2.604
 7215SOL    HW122544   6.596   1.587   2.625
 7215SOL    HW222545   6.441   1.567   2.578
 7216SOL     OW22546   4.371   6.669   3.157
 7216SOL    HW122547   4.319   6.585   3.173
 7216SOL    HW222548   4.350   6.736   3.228
 7217SOL     OW22549   0.971   3.028   2.967
 7217SOL    HW122550   1.051   3.032   3.027
 7217SOL    HW222551   0.893   3.071   3.012
 7218SOL     OW22552   6.301   2.773   4.294
 7218SOL    HW122553   6.226   2.831   4.324
 7218SOL    HW222554   6.353   2.742   4.374
 7219SOL     OW22555   3.114   6.277   2.778
 7219SOL    HW122556   3.025   6.254   2.816
 7219SOL    HW222557   3.184   6.269   2.849
 7220SOL     OW22558   6.483   4.419   3.585
 7220SOL    HW122559   6.404   4.375   3.626
 7220SOL    HW222560   6.546   4.349   3.550
 7221SOL     OW22561   4.061   5.411   3.905
 7221SOL    HW122562   4.058   5.349   3.827
 7221SOL    HW222563   4.054   5.506   3.872
 7222SOL     OW22564   6.368   5.993   4.282
 7222SOL    HW122565   6.407   5.943   4.359
 7222SOL    HW222566   6.322   5.929   4.221
 7223SOL     OW22567   0.041   4.234   1.664
 7223SOL    HW122568   0.102   4.260   1.739
 7223SOL    HW222569   0.020   4.137   1.670
 7224SOL     OW22570   4.230   2.268   2.747
 7224SOL    HW122571   4.303   2.201   2.760
 7224SOL    HW222572   4.174   2.242   2.669
 7225SOL     OW22573   1.652   5.479   0.447
 7225SOL    HW122574   1.596   5.408   0.489
 7225SOL    HW222575   1.704   5.439   0.370
 7226SOL     OW22576   0.028   6.379   0.200
 7226SOL    HW122577   6.952   6.375   0.227
 7226SOL    HW222578   0.067   6.467   0.226
 7227SOL     OW22579   1.989   1.231   2.270
 7227SOL    HW122580   1.931   1.157   2.303
 7227SOL    HW222581   2.006   1.296   2.344
 7228SOL     OW22582   6.532   3.348   2.079
 7228SOL    HW122583   6.501   3.359   2.174
 7228SOL    HW222584   6.471   3.285   2.031
 7229SOL     OW22585   6.507   1.145   5.202
 7229SOL    HW122586   6.417   1.103   5.217
 7229SOL    HW222587   6.564   1.133   5.283
 7230SOL     OW22588   2.199   5.022   4.766
 7230SOL    HW122589   2.162   4.952   4.705
 7230SOL    HW222590   2.281   4.987   4.811
 7231SOL     OW22591   4.438   2.890   5.753
 7231SOL    HW122592   4.504   2.904   5.679
 7231SOL    HW222593   4.486   2.868   5.838
 7232SOL     OW22594   4.784   6.530   3.682
 7232SOL    HW122595   4.829   6.462   3.624
 7232SOL    HW222596   4.684   6.518   3.675
 7233SOL     OW22597   0.429   1.327   4.976
 7233SOL    HW122598   0.525   1.344   5.001
 7233SOL    HW222599   0.394   1.405   4.924
 7234SOL     OW22600   5.090   4.102   3.106
 7234SOL    HW122601   5.091   4.058   3.196
 7234SOL    HW222602   5.180   4.091   3.064
 7235SOL     OW22603   6.582   6.470   1.219
 7235SOL    HW122604   6.484   6.448   1.211
 7235SOL    HW222605   6.597   6.523   1.303
 7236SOL     OW22606   1.346   3.589   2.843
 7236SOL    HW122607   1.416   3.656   2.866
 7236SOL    HW222608   1.304   3.613   2.755
 7237SOL     OW22609   5.796   0.971   0.586
 7237SOL    HW122610   5.883   0.991   0.542
 7237SOL    HW222611   5.766   1.050   0.639
 7238SOL     OW22612   4.029   3.463   6.769
 7238SOL    HW122613   3.943   3.504   6.797
 7238SOL    HW222614   4.106   3.516   6.806
 7239SOL     OW22615   6.233   2.468   2.281
 7239SOL    HW122616   6.156   2.501   2.336
 7239SOL    HW222617   6.198   2.430   2.195
 7240SOL     OW22618   6.922   1.800   0.294
 7240SOL    HW122619   6.979   1.729   0.252
 7240SOL    HW222620   6.968   1.836   0.375
 7241SOL     OW22621   2.599   0.891   2.155
 7241SOL    HW122622   2.645   0.950   2.088
 7241SOL    HW222623   2.511   0.932   2.180
 7242SOL     OW22624   6.741   4.230   4.305
 7242SOL    HW122625   6.836   4.210   4.283
 7242SOL    HW222626   6.715   4.317   4.262
 7243SOL     OW22627   5.685   4.661   6.262
 7243SOL    HW122628   5.679   4.574   6.212
 7243SOL    HW222629   5.598   4.710   6.254
 7244SOL     OW22630   0.128   6.179   0.393
 7244SOL    HW122631   0.120   6.245   0.319
 7244SOL    HW222632   0.037   6.154   0.426
 7245SOL     OW22633   1.126   3.192   0.827
 7245SOL    HW122634   1.214   3.165   0.868
 7245SOL    HW222635   1.113   3.144   0.741
 7246SOL     OW22636   4.597   6.861   3.193
 7246SOL    HW122637   4.571   6.954   3.168
 7246SOL    HW222638   4.527   6.797   3.161
 7247SOL     OW22639   3.518   3.924   4.912
 7247SOL    HW122640   3.601   3.974   4.937
 7247SOL    HW222641   3.509   3.842   4.969
 7248SOL     OW22642   2.994   1.336   5.389
 7248SOL    HW122643   2.939   1.343   5.306
 7248SOL    HW222644   3.025   1.427   5.417
 7249SOL     OW22645   4.247   5.112   2.361
 7249SOL    HW122646   4.299   5.097   2.277
 7249SOL    HW222647   4.270   5.041   2.427
 7250SOL     OW22648   5.352   5.222   5.035
 7250SOL    HW122649   5.438   5.269   5.015
 7250SOL    HW222650   5.358   5.177   5.123
 7251SOL     OW22651   0.081   6.258   5.487
 7251SOL    HW122652   0.024   6.272   5.406
 7251SOL    HW222653   0.174   6.234   5.458
 7252SOL     OW22654   3.583   4.131   2.291
 7252SOL    HW122655   3.660   4.080   2.252
 7252SOL    HW222656   3.610   4.226   2.306
 7253SOL     OW22657   2.709   5.625   4.863
 7253SOL    HW122658   2.755   5.579   4.787
 7253SOL    HW222659   2.704   5.564   4.942
 7254SOL     OW22660   5.775   3.195   4.317
 7254SOL    HW122661   5.836   3.264   4.356
 7254SOL    HW222662   5.726   3.148   4.390
 7255SOL     OW22663   4.868   3.622   6.894
 7255SOL    HW122664   4.842   3.627   6.990
 7255SOL    HW222665   4.967   3.635   6.884
 7256SOL     OW22666   3.082   0.222   5.073
 7256SOL    HW122667   3.001   0.202   5.018
 7256SOL    HW222668   3.095   0.321   5.078
 7257SOL     OW22669   0.511   1.373   4.579
 7257SOL    HW122670   0.530   1.471   4.579
 7257SOL    HW222671   0.535   1.334   4.490
 7258SOL     OW22672   5.993   2.748   2.648
 7258SOL    HW122673   5.989   2.655   2.683
 7258SOL    HW222674   6.040   2.806   2.715
 7259SOL     OW22675   1.371   4.096   2.469
 7259SOL    HW122676   1.459   4.054   2.445
 7259SOL    HW222677   1.365   4.186   2.426
 7260SOL     OW22678   5.547   3.391   0.618
 7260SOL    HW122679   5.482   3.339   0.674
 7260SOL    HW222680   5.627   3.414   0.673
 7261SOL     OW22681   6.732   4.281   0.315
 7261SOL    HW122682   6.725   4.313   0.409
 7261SOL    HW222683   6.776   4.351   0.259
 7262SOL     OW22684   5.901   1.366   5.052
 7262SOL    HW122685   5.865   1.443   5.106
 7262SOL    HW222686   5.918   1.397   4.959
 7263SOL     OW22687   0.179   6.002   0.050
 7263SOL    HW122688   0.205   6.042   6.982
 7263SOL    HW222689   0.253   6.019   0.116
 7264SOL     OW22690   6.131   1.541   0.513
 7264SOL    HW122691   6.217   1.500   0.544
 7264SOL    HW222692   6.152   1.619   0.454
 7265SOL     OW22693   3.947   6.624   5.735
 7265SOL    HW122694   3.894   6.707   5.718
 7265SOL    HW222695   3.912   6.549   5.679
 7266SOL     OW22696   0.381   1.022   3.545
 7266SOL    HW122697   0.415   1.116   3.539
 7266SOL    HW222698   0.453   0.959   3.517
 7267SOL     OW22699   6.469   4.751   4.698
 7267SOL    HW122700   6.423   4.795   4.776
 7267SOL    HW222701   6.562   4.787   4.690
 7268SOL     OW22702   6.255   6.644   4.265
 7268SOL    HW122703   6.323   6.717   4.265
 7268SOL    HW222704   6.272   6.582   4.188
 7269SOL     OW22705   2.525   4.570   5.022
 7269SOL    HW122706   2.625   4.572   5.020
 7269SOL    HW222707   2.490   4.608   4.937
 7270SOL     OW22708   0.655   1.190   4.736
 7270SOL    HW122709   0.743   1.222   4.700
 7270SOL    HW222710   0.582   1.249   4.702
 7271SOL     OW22711   0.983   4.837   3.453
 7271SOL    HW122712   0.997   4.825   3.355
 7271SOL    HW222713   0.956   4.750   3.494
 7272SOL     OW22714   6.661   4.648   2.073
 7272SOL    HW122715   6.712   4.726   2.108
 7272SOL    HW222716   6.653   4.578   2.144
 7273SOL     OW22717   0.814   2.697   5.286
 7273SOL    HW122718   0.818   2.789   5.327
 7273SOL    HW222719   0.793   2.630   5.357
 7274SOL     OW22720   0.715   4.674   0.007
 7274SOL    HW122721   0.682   4.749   0.064
 7274SOL    HW222722   0.660   4.669   6.944
 7275SOL     OW22723   6.851   0.400   3.168
 7275SOL    HW122724   6.868   0.330   3.237
 7275SOL    HW222725   6.933   0.456   3.157
 7276SOL     OW22726   5.781   6.676   4.504
 7276SOL    HW122727   5.758   6.580   4.493
 7276SOL    HW222728   5.788   6.699   4.601
 7277SOL     OW22729   4.888   0.095   6.273
 7277SOL    HW122730   4.909   0.163   6.203
 7277SOL    HW222731   4.945   0.014   6.258
 7278SOL     OW22732   3.244   2.853   2.122
 7278SOL    HW122733   3.202   2.883   2.036
 7278SOL    HW222734   3.227   2.755   2.133
 7279SOL     OW22735   3.195   6.436   6.168
 7279SOL    HW122736   3.137   6.511   6.137
 7279SOL    HW222737   3.192   6.361   6.101
 7280SOL     OW22738   4.858   1.219   5.907
 7280SOL    HW122739   4.842   1.122   5.889
 7280SOL    HW222740   4.892   1.230   6.001
 7281SOL     OW22741   5.080   1.398   5.922
 7281SOL    HW122742   5.173   1.373   5.895
 7281SOL    HW222743   5.016   1.330   5.886
 7282SOL     OW22744   5.870   5.466   2.285
 7282SOL    HW122745   5.770   5.462   2.280
 7282SOL    HW222746   5.898   5.561   2.298
 7283SOL     OW22747   1.844   0.964   3.650
 7283SOL    HW122748   1.933   0.934   3.685
 7283SOL    HW222749   1.784   0.884   3.640
 7284SOL     OW22750   0.337   3.588   5.069
 7284SOL    HW122751   0.332   3.645   4.987
 7284SOL    HW222752   0.327   3.492   5.044
 7285SOL     OW22753   5.040   5.490   1.637
 7285SOL    HW122754   5.127   5.480   1.684
 7285SOL    HW222755   5.043   5.443   1.549
 7286SOL     OW22756   2.084   3.642   1.096
 7286SOL    HW122757   2.090   3.591   1.181
 7286SOL    HW222758   2.163   3.622   1.038
 7287SOL     OW22759   5.725   1.654   6.418
 7287SOL    HW122760   5.744   1.570   6.469
 7287SOL    HW222761   5.632   1.685   6.439
 7288SOL     OW22762   3.232   6.100   6.920
 7288SOL    HW122763   3.176   6.181   6.941
 7288SOL    HW222764   3.285   6.075   7.000
 7289SOL     OW22765   4.826   2.002   3.455
 7289SOL    HW122766   4.809   2.101   3.459
 7289SOL    HW222767   4.836   1.974   3.360
 7290SOL     OW22768   2.959   5.092   4.090
 7290SOL    HW122769   2.903   5.175   4.083
 7290SOL    HW222770   3.056   5.117   4.086
 7291SOL     OW22771   2.635   5.270   2.124
 7291SOL    HW122772   2.648   5.358   2.171
 7291SOL    HW222773   2.590   5.206   2.186
 7292SOL     OW22774   2.631   0.117   4.484
 7292SOL    HW122775   2.684   0.032   4.480
 7292SOL    HW222776   2.676   0.187   4.429
 7293SOL     OW22777   1.414   2.837   5.470
 7293SOL    HW122778   1.425   2.791   5.382
 7293SOL    HW222779   1.318   2.843   5.494
 7294SOL     OW22780   3.377   5.298   0.791
 7294SOL    HW122781   3.316   5.374   0.772
 7294SOL    HW222782   3.333   5.212   0.763
 7295SOL     OW22783   6.125   0.412   1.635
 7295SOL    HW122784   6.179   0.410   1.719
 7295SOL    HW222785   6.168   0.474   1.570
 7296SOL     OW22786   4.225   4.861   1.933
 7296SOL    HW122787   4.243   4.793   2.004
 7296SOL    HW222788   4.140   4.909   1.954
 7297SOL     OW22789   5.108   0.088   1.466
 7297SOL    HW122790   5.048   0.166   1.446
 7297SOL    HW222791   5.066   0.004   1.431
 7298SOL     OW22792   5.777   3.793   4.216
 7298SOL    HW122793   5.806   3.722   4.280
 7298SOL    HW222794   5.739   3.870   4.267
 7299SOL     OW22795   6.172   3.950   6.399
 7299SOL    HW122796   6.158   3.854   6.377
 7299SOL    HW222797   6.120   4.007   6.335
 7300SOL     OW22798   4.327   4.985   0.979
 7300SOL    HW122799   4.339   4.937   1.065
 7300SOL    HW222800   4.392   4.950   0.911
 7301SOL     OW22801   6.534   0.561   6.466
 7301SOL    HW122802   6.488   0.629   6.409
 7301SOL    HW222803   6.608   0.519   6.415
 7302SOL     OW22804   4.956   1.245   6.185
 7302SOL    HW122805   4.901   1.302   6.246
 7302SOL    HW222806   5.053   1.265   6.199
 7303SOL     OW22807   3.751   1.112   0.389
 7303SOL    HW122808   3.761   1.029   0.334
 7303SOL    HW222809   3.767   1.090   0.485
 7304SOL     OW22810   3.307   4.150   5.530
 7304SOL    HW122811   3.403   4.176   5.522
 7304SOL    HW222812   3.277   4.106   5.446
 7305SOL     OW22813   5.135   1.272   0.193
 7305SOL    HW122814   5.081   1.355   0.202
 7305SOL    HW222815   5.187   1.257   0.277
 7306SOL     OW22816   4.997   4.751   1.727
 7306SOL    HW122817   4.986   4.850   1.730
 7306SOL    HW222818   5.085   4.727   1.768
 7307SOL     OW22819   4.111   6.655   2.500
 7307SOL    HW122820   4.180   6.691   2.563
 7307SOL    HW222821   4.085   6.563   2.529
 7308SOL     OW22822   6.495   1.824   4.503
 7308SOL    HW122823   6.544   1.754   4.452
 7308SOL    HW222824   6.398   1.799   4.510
 7309SOL     OW22825   4.663   6.133   1.444
 7309SOL    HW122826   4.650   6.036   1.467
 7309SOL    HW222827   4.760   6.155   1.449
 7310SOL     OW22828   2.983   5.337   1.708
 7310SOL    HW122829   2.890   5.353   1.739
 7310SOL    HW222830   2.987   5.253   1.654
 7311SOL     OW22831   2.768   2.230   1.812
 7311SOL    HW122832   2.787   2.282   1.895
 7311SOL    HW222833   2.844   2.240   1.748
 7312SOL     OW22834   6.728   1.668   5.762
 7312SOL    HW122835   6.650   1.659   5.700
 7312SOL    HW222836   6.695   1.695   5.852
 7313SOL     OW22837   4.379   2.517   6.621
 7313SOL    HW122838   4.347   2.427   6.650
 7313SOL    HW222839   4.302   2.573   6.592
 7314SOL     OW22840   0.294   3.353   4.427
 7314SOL    HW122841   0.393   3.340   4.417
 7314SOL    HW222842   0.247   3.316   4.348
 7315SOL     OW22843   6.727   0.277   4.761
 7315SOL    HW122844   6.800   0.258   4.827
 7315SOL    HW222845   6.720   0.376   4.747
 7316SOL     OW22846   3.560   3.913   5.545
 7316SOL    HW122847   3.481   3.906   5.606
 7316SOL    HW222848   3.580   4.009   5.527
 7317SOL     OW22849   3.705   0.840   4.145
 7317SOL    HW122850   3.655   0.801   4.068
 7317SOL    HW222851   3.671   0.800   4.230
 7318SOL     OW22852   2.260   2.157   1.264
 7318SOL    HW122853   2.224   2.250   1.255
 7318SOL    HW222854   2.345   2.159   1.317
 7319SOL     OW22855   6.202   4.798   6.800
 7319SOL    HW122856   6.222   4.703   6.774
 7319SOL    HW222857   6.221   4.858   6.723
 7320SOL     OW22858   0.057   2.789   1.736
 7320SOL    HW122859   6.995   2.761   1.687
 7320SOL    HW222860   0.054   2.888   1.753
 7321SOL     OW22861   2.768   1.254   4.325
 7321SOL    HW122862   2.860   1.227   4.355
 7321SOL    HW222863   2.741   1.338   4.371
 7322SOL     OW22864   0.624   3.850   2.935
 7322SOL    HW122865   0.583   3.939   2.952
 7322SOL    HW222866   0.637   3.836   2.837
 7323SOL     OW22867   2.048   3.562   3.278
 7323SOL    HW122868   2.066   3.623   3.356
 7323SOL    HW222869   2.042   3.616   3.194
 7324SOL     OW22870   5.533   6.671   3.113
 7324SOL    HW122871   5.632   6.672   3.103
 7324SOL    HW222872   5.498   6.579   3.095
 7325SOL     OW22873   3.180   6.378   6.922
 7325SOL    HW122874   3.096   6.412   6.962
 7325SOL    HW222875   3.234   6.454   6.886
 7326SOL     OW22876   3.225   6.256   5.626
 7326SOL    HW122877   3.286   6.184   5.659
 7326SOL    HW222878   3.155   6.274   5.696
 7327SOL     OW22879   1.285   3.026   5.720
 7327SOL    HW122880   1.348   3.094   5.759
 7327SOL    HW222881   1.205   3.072   5.682
 7328SOL     OW22882   2.654   0.226   0.213
 7328SOL    HW122883   2.621   0.135   0.190
 7328SOL    HW222884   2.736   0.219   0.269
 7329SOL     OW22885   4.432   2.955   1.312
 7329SOL    HW122886   4.349   2.980   1.361
 7329SOL    HW222887   4.476   2.877   1.356
 7330SOL     OW22888   3.806   1.497   0.058
 7330SOL    HW122889   3.783   1.456   0.147
 7330SOL    HW222890   3.760   1.585   0.050
 7331SOL     OW22891   5.506   0.269   1.482
 7331SOL    HW122892   5.565   0.224   1.549
 7331SOL    HW222893   5.432   0.315   1.529
 7332SOL     OW22894   3.503   5.251   1.475
 7332SOL    HW122895   3.560   5.285   1.401
 7332SOL    HW222896   3.410   5.288   1.466
 7333SOL     OW22897   0.993   4.968   2.532
 7333SOL    HW122898   1.032   4.885   2.493
 7333SOL    HW222899   0.961   5.028   2.458
 7334SOL     OW22900   4.041   6.477   4.317
 7334SOL    HW122901   4.015   6.569   4.286
 7334SOL    HW222902   3.998   6.409   4.258
 7335SOL     OW22903   1.878   2.416   3.153
 7335SOL    HW122904   1.793   2.469   3.160
 7335SOL    HW222905   1.956   2.477   3.153
 7336SOL     OW22906   1.916   6.880   3.715
 7336SOL    HW122907   1.898   6.960   3.772
 7336SOL    HW222908   1.842   6.814   3.724
 7337SOL     OW22909   6.065   2.977   2.184
 7337SOL    HW122910   6.150   3.025   2.207
 7337SOL    HW222911   5.996   2.997   2.253
 7338SOL     OW22912   6.418   3.155   0.326
 7338SOL    HW122913   6.420   3.146   0.226
 7338SOL    HW222914   6.446   3.247   0.352
 7339SOL     OW22915   0.260   5.560   4.682
 7339SOL    HW122916   0.351   5.602   4.686
 7339SOL    HW222917   0.191   5.627   4.708
 7340SOL     OW22918   2.218   0.262   6.828
 7340SOL    HW122919   2.290   0.259   6.897
 7340SOL    HW222920   2.259   0.255   6.737
 7341SOL     OW22921   6.414   2.452   0.058
 7341SOL    HW122922   6.370   2.497   0.136
 7341SOL    HW222923   6.487   2.393   0.091
 7342SOL     OW22924   6.771   0.092   2.594
 7342SOL    HW122925   6.754   0.141   2.509
 7342SOL    HW222926   6.710   0.012   2.600
 7343SOL     OW22927   5.200   3.067   0.239
 7343SOL    HW122928   5.262   3.114   0.176
 7343SOL    HW222929   5.106   3.081   0.208
 7344SOL     OW22930   1.356   6.561   5.972
 7344SOL    HW122931   1.330   6.610   6.055
 7344SOL    HW222932   1.281   6.501   5.943
 7345SOL     OW22933   3.564   5.208   6.032
 7345SOL    HW122934   3.630   5.144   6.071
 7345SOL    HW222935   3.564   5.293   6.084
 7346SOL     OW22936   4.896   4.890   2.977
 7346SOL    HW122937   4.844   4.843   3.049
 7346SOL    HW222938   4.953   4.961   3.019
 7347SOL     OW22939   5.820   2.161   6.580
 7347SOL    HW122940   5.817   2.087   6.513
 7347SOL    HW222941   5.914   2.191   6.592
 7348SOL     OW22942   0.033   4.549   1.707
 7348SOL    HW122943   6.958   4.521   1.692
 7348SOL    HW222944   0.044   4.583   1.800
 7349SOL     OW22945   4.065   1.832   2.043
 7349SOL    HW122946   3.970   1.863   2.038
 7349SOL    HW222947   4.088   1.782   1.960
 7350SOL     OW22948   3.249   0.302   4.713
 7350SOL    HW122949   3.270   0.398   4.734
 7350SOL    HW222950   3.149   0.290   4.707
 7351SOL     OW22951   3.259   4.905   3.968
 7351SOL    HW122952   3.318   4.983   3.988
 7351SOL    HW222953   3.225   4.866   4.054
 7352SOL     OW22954   6.659   2.651   3.687
 7352SOL    HW122955   6.651   2.607   3.598
 7352SOL    HW222956   6.663   2.582   3.759
 7353SOL     OW22957   6.101   0.557   6.414
 7353SOL    HW122958   6.167   0.603   6.355
 7353SOL    HW222959   6.072   0.472   6.371
 7354SOL     OW22960   0.630   1.863   2.926
 7354SOL    HW122961   0.560   1.866   2.997
 7354SOL    HW222962   0.720   1.852   2.968
 7355SOL     OW22963   2.187   1.798   0.240
 7355SOL    HW122964   2.234   1.759   0.318
 7355SOL    HW222965   2.090   1.772   0.242
 7356SOL     OW22966   4.123   3.973   6.211
 7356SOL    HW122967   4.059   4.049   6.219
 7356SOL    HW222968   4.211   4.006   6.176
 7357SOL     OW22969   5.067   5.731   2.273
 7357SOL    HW122970   5.003   5.807   2.273
 7357SOL    HW222971   5.103   5.719   2.366
 7358SOL     OW22972   5.861   0.934   3.378
 7358SOL    HW122973   5.785   0.887   3.423
 7358SOL    HW222974   5.895   0.879   3.302
 7359SOL     OW22975   5.089   0.431   1.295
 7359SOL    HW122976   5.033   0.513   1.293
 7359SOL    HW222977   5.031   0.352   1.317
 7360SOL     OW22978   3.198   3.571   4.980
 7360SOL    HW122979   3.104   3.550   4.956
 7360SOL    HW222980   3.254   3.572   4.897
 7361SOL     OW22981   5.467   0.378   3.677
 7361SOL    HW122982   5.414   0.317   3.736
 7361SOL    HW222983   5.548   0.410   3.727
 7362SOL     OW22984   3.311   5.056   6.983
 7362SOL    HW122985   3.340   5.122   0.032
 7362SOL    HW222986   3.312   4.964   0.001
 7363SOL     OW22987   3.800   0.548   0.556
 7363SOL    HW122988   3.899   0.557   0.558
 7363SOL    HW222989   3.764   0.548   0.650
 7364SOL     OW22990   5.804   6.834   1.208
 7364SOL    HW122991   5.776   6.812   1.114
 7364SOL    HW222992   5.880   6.899   1.205
 7365SOL     OW22993   5.701   5.063   2.377
 7365SOL    HW122994   5.672   4.987   2.435
 7365SOL    HW222995   5.733   5.138   2.435
 7366SOL     OW22996   1.705   0.945   3.901
 7366SOL    HW122997   1.720   0.937   3.803
 7366SOL    HW222998   1.792   0.961   3.947
 7367SOL     OW22999   4.579   0.038   6.625
 7367SOL    HW123000   4.617   0.103   6.560
 7367SOL    HW223001   4.582   0.078   6.717
 7368SOL     OW23002   3.644   3.665   3.450
 7368SOL    HW123003   3.720   3.688   3.510
 7368SOL    HW223004   3.649   3.719   3.366
 7369SOL     OW23005   5.283   2.194   0.601
 7369SOL    HW123006   5.340   2.186   0.519
 7369SOL    HW223007   5.190   2.220   0.574
 7370SOL     OW23008   1.751   1.347   4.224
 7370SOL    HW123009   1.738   1.444   4.202
 7370SOL    HW223010   1.735   1.293   4.141
 7371SOL     OW23011   3.624   0.824   3.784
 7371SOL    HW123012   3.607   0.917   3.817
 7371SOL    HW223013   3.694   0.826   3.712
 7372SOL     OW23014   5.454   1.002   5.431
 7372SOL    HW123015   5.448   0.928   5.498
 7372SOL    HW223016   5.492   1.084   5.476
 7373SOL     OW23017   5.721   3.587   4.443
 7373SOL    HW123018   5.801   3.530   4.461
 7373SOL    HW223019   5.718   3.662   4.508
 7374SOL     OW23020   6.409   2.373   5.273
 7374SOL    HW123021   6.454   2.459   5.247
 7374SOL    HW223022   6.479   2.306   5.299
 7375SOL     OW23023   1.539   3.428   2.074
 7375SOL    HW123024   1.568   3.461   1.984
 7375SOL    HW223025   1.615   3.380   2.118
 7376SOL     OW23026   6.856   3.497   0.338
 7376SOL    HW123027   6.820   3.408   0.368
 7376SOL    HW223028   6.845   3.563   0.411
 7377SOL     OW23029   2.682   6.048   1.162
 7377SOL    HW123030   2.626   5.970   1.133
 7377SOL    HW223031   2.632   6.100   1.231
 7378SOL     OW23032   1.168   5.414   4.114
 7378SOL    HW123033   1.097   5.464   4.163
 7378SOL    HW223034   1.155   5.316   4.126
 7379SOL     OW23035   3.855   1.085   1.224
 7379SOL    HW123036   3.848   0.985   1.224
 7379SOL    HW223037   3.801   1.122   1.299
 7380SOL     OW23038   5.293   4.117   1.907
 7380SOL    HW123039   5.367   4.094   1.970
 7380SOL    HW223040   5.235   4.036   1.892
 7381SOL     OW23041   3.786   0.810   1.205
 7381SOL    HW123042   3.773   0.729   1.263
 7381SOL    HW223043   3.706   0.822   1.147
 7382SOL     OW23044   6.596   1.281   6.113
 7382SOL    HW123045   6.593   1.278   6.213
 7382SOL    HW223046   6.519   1.336   6.080
 7383SOL     OW23047   2.125   0.128   0.787
 7383SOL    HW123048   2.061   0.118   0.711
 7383SOL    HW223049   2.075   0.150   0.871
 7384SOL     OW23050   6.828   6.769   1.065
 7384SOL    HW123051   6.769   6.781   1.144
 7384SOL    HW223052   6.792   6.695   1.008
 7385SOL     OW23053   5.788   4.054   2.953
 7385SOL    HW123054   5.703   4.017   2.989
 7385SOL    HW223055   5.806   4.143   2.994
 7386SOL     OW23056   5.557   3.511   6.851
 7386SOL    HW123057   5.597   3.602   6.839
 7386SOL    HW223058   5.477   3.501   6.791
 7387SOL     OW23059   6.867   5.830   5.562
 7387SOL    HW123060   6.872   5.927   5.583
 7387SOL    HW223061   6.876   5.776   5.646
 7388SOL     OW23062   2.028   5.042   3.277
 7388SOL    HW123063   1.945   5.067   3.326
 7388SOL    HW223064   2.104   5.099   3.307
 7389SOL     OW23065   5.823   2.429   0.108
 7389SOL    HW123066   5.809   2.410   0.205
 7389SOL    HW223067   5.822   2.528   0.093
 7390SOL     OW23068   2.288   2.788   3.350
 7390SOL    HW123069   2.245   2.862   3.298
 7390SOL    HW223070   2.377   2.818   3.383
 7391SOL     OW23071   3.476   3.507   3.067
 7391SOL    HW123072   3.460   3.476   3.161
 7391SOL    HW223073   3.572   3.498   3.044
 7392SOL     OW23074   3.181   6.330   6.613
 7392SOL    HW123075   3.116   6.300   6.544
 7392SOL    HW223076   3.137   6.329   6.703
 7393SOL     OW23077   5.279   5.394   4.106
 7393SOL    HW123078   5.282   5.294   4.104
 7393SOL    HW223079   5.236   5.427   4.022
 7394SOL     OW23080   3.025   1.862   5.970
 7394SOL    HW123081   3.068   1.889   5.884
 7394SOL    HW223082   3.093   1.819   6.029
 7395SOL     OW23083   2.912   5.745   0.980
 7395SOL    HW123084   2.971   5.816   1.018
 7395SOL    HW223085   2.816   5.768   0.996
 7396SOL     OW23086   2.218   5.039   1.997
 7396SOL    HW123087   2.289   4.978   1.962
 7396SOL    HW223088   2.129   4.994   1.989
 7397SOL     OW23089   5.678   4.248   4.131
 7397SOL    HW123090   5.604   4.228   4.067
 7397SOL    HW223091   5.727   4.330   4.102
 7398SOL     OW23092   2.578   4.696   2.341
 7398SOL    HW123093   2.671   4.710   2.376
 7398SOL    HW223094   2.535   4.619   2.388
 7399SOL     OW23095   5.273   2.179   5.518
 7399SOL    HW123096   5.233   2.088   5.504
 7399SOL    HW223097   5.251   2.211   5.610
 7400SOL     OW23098   5.507   3.027   5.456
 7400SOL    HW123099   5.474   3.058   5.367
 7400SOL    HW223100   5.431   3.028   5.521
 7401SOL     OW23101   1.487   2.977   3.987
 7401SOL    HW123102   1.503   2.981   3.888
 7401SOL    HW223103   1.390   2.985   4.006
 7402SOL     OW23104   3.620   5.620   4.379
 7402SOL    HW123105   3.622   5.614   4.479
 7402SOL    HW223106   3.583   5.709   4.351
 7403SOL     OW23107   1.950   3.856   4.331
 7403SOL    HW123108   1.981   3.807   4.413
 7403SOL    HW223109   2.011   3.934   4.314
 7404SOL     OW23110   3.577   3.323   1.106
 7404SOL    HW123111   3.484   3.288   1.096
 7404SOL    HW223112   3.623   3.276   1.181
 7405SOL     OW23113   3.727   6.582   3.834
 7405SOL    HW123114   3.689   6.546   3.919
 7405SOL    HW223115   3.825   6.601   3.847
 7406SOL     OW23116   1.100   1.721   5.478
 7406SOL    HW123117   1.170   1.652   5.460
 7406SOL    HW223118   1.084   1.774   5.394
 7407SOL     OW23119   0.929   5.663   5.503
 7407SOL    HW123120   0.916   5.656   5.602
 7407SOL    HW223121   0.840   5.673   5.458
 7408SOL     OW23122   4.096   5.027   5.152
 7408SOL    HW123123   4.099   5.127   5.154
 7408SOL    HW223124   4.188   4.990   5.162
 7409SOL     OW23125   6.527   3.690   1.298
 7409SOL    HW123126   6.549   3.715   1.392
 7409SOL    HW223127   6.604   3.710   1.238
 7410SOL     OW23128   0.310   0.799   1.035
 7410SOL    HW123129   0.273   0.788   0.943
 7410SOL    HW223130   0.251   0.753   1.101
 7411SOL     OW23131   1.933   1.545   5.135
 7411SOL    HW123132   1.859   1.571   5.196
 7411SOL    HW223133   1.995   1.483   5.182
 7412SOL     OW23134   4.139   6.666   0.339
 7412SOL    HW123135   4.178   6.589   0.389
 7412SOL    HW223136   4.183   6.751   0.370
 7413SOL     OW23137   4.851   6.915   3.126
 7413SOL    HW123138   4.768   6.880   3.169
 7413SOL    HW223139   4.827   6.968   3.045
 7414SOL     OW23140   3.605   1.271   4.138
 7414SOL    HW123141   3.514   1.310   4.122
 7414SOL    HW223142   3.664   1.291   4.060
 7415SOL     OW23143   3.866   6.235   6.669
 7415SOL    HW123144   3.923   6.173   6.615
 7415SOL    HW223145   3.799   6.279   6.608
 7416SOL     OW23146   1.526   0.558   1.775
 7416SOL    HW123147   1.497   0.648   1.744
 7416SOL    HW223148   1.521   0.554   1.875
 7417SOL     OW23149   0.170   0.982   2.642
 7417SOL    HW123150   0.247   1.008   2.583
 7417SOL    HW223151   0.192   1.005   2.737
 7418SOL     OW23152   1.458   4.377   6.017
 7418SOL    HW123153   1.386   4.333   6.071
 7418SOL    HW223154   1.547   4.352   6.055
 7419SOL     OW23155   6.825   3.924   3.884
 7419SOL    HW123156   6.749   3.954   3.942
 7419SOL    HW223157   6.798   3.929   3.788
 7420SOL     OW23158   0.217   0.068   1.751
 7420SOL    HW123159   0.137   0.092   1.807
 7420SOL    HW223160   0.248   6.996   1.774
 7421SOL     OW23161   5.492   3.581   0.901
 7421SOL    HW123162   5.571   3.603   0.958
 7421SOL    HW223163   5.479   3.653   0.833
 7422SOL     OW23164   5.721   2.794   2.639
 7422SOL    HW123165   5.687   2.738   2.563
 7422SOL    HW223166   5.821   2.795   2.638
 7423SOL     OW23167   5.360   1.880   5.768
 7423SOL    HW123168   5.278   1.932   5.745
 7423SOL    HW223169   5.434   1.907   5.707
 7424SOL     OW23170   0.291   2.241   3.354
 7424SOL    HW123171   0.368   2.289   3.395
 7424SOL    HW223172   0.260   2.169   3.416
 7425SOL     OW23173   6.026   0.829   1.179
 7425SOL    HW123174   5.931   0.859   1.172
 7425SOL    HW223175   6.048   0.809   1.275
 7426SOL     OW23176   4.079   3.203   5.605
 7426SOL    HW123177   4.074   3.302   5.595
 7426SOL    HW223178   4.140   3.180   5.681
 7427SOL     OW23179   3.055   0.929   3.416
 7427SOL    HW123180   2.972   0.882   3.386
 7427SOL    HW223181   3.094   0.978   3.338
 7428SOL     OW23182   4.529   6.527   4.749
 7428SOL    HW123183   4.611   6.483   4.714
 7428SOL    HW223184   4.548   6.571   4.836
 7429SOL     OW23185   1.011   6.852   2.995
 7429SOL    HW123186   1.054   6.800   2.921
 7429SOL    HW223187   1.045   6.819   3.083
 7430SOL     OW23188   6.568   5.298   2.764
 7430SOL    HW123189   6.653   5.319   2.715
 7430SOL    HW223190   6.589   5.245   2.846
 7431SOL     OW23191   1.385   1.857   3.336
 7431SOL    HW123192   1.345   1.949   3.327
 7431SOL    HW223193   1.482   1.865   3.356
 7432SOL     OW23194   2.326   0.654   3.241
 7432SOL    HW123195   2.347   0.642   3.144
 7432SOL    HW223196   2.383   0.727   3.279
 7433SOL     OW23197   2.760   0.055   6.449
 7433SOL    HW123198   2.677   7.020   6.443
 7433SOL    HW223199   2.743   0.134   6.509
 7434SOL     OW23200   3.919   6.722   4.275
 7434SOL    HW123201   3.935   6.773   4.190
 7434SOL    HW223202   3.963   6.768   4.351
 7435SOL     OW23203   5.135   3.852   2.598
 7435SOL    HW123204   5.126   3.886   2.504
 7435SOL    HW223205   5.054   3.799   2.622
 7436SOL     OW23206   5.461   2.813   6.054
 7436SOL    HW123207   5.447   2.732   5.997
 7436SOL    HW223208   5.412   2.801   6.141
 7437SOL     OW23209   3.140   0.210   0.535
 7437SOL    HW123210   3.173   0.117   0.548
 7437SOL    HW223211   3.160   0.264   0.617
 7438SOL     OW23212   1.974   0.556   0.137
 7438SOL    HW123213   2.015   0.544   0.047
 7438SOL    HW223214   1.939   0.467   0.170
 7439SOL     OW23215   1.134   4.373   6.780
 7439SOL    HW123216   1.153   4.470   6.770
 7439SOL    HW223217   1.046   4.361   6.827
 7440SOL     OW23218   5.675   3.636   3.930
 7440SOL    HW123219   5.655   3.593   4.018
 7440SOL    HW223220   5.688   3.565   3.861
 7441SOL     OW23221   6.043   5.607   0.983
 7441SOL    HW123222   6.113   5.674   0.959
 7441SOL    HW223223   6.005   5.628   1.073
 7442SOL     OW23224   5.426   0.836   5.635
 7442SOL    HW123225   5.385   0.749   5.608
 7442SOL    HW223226   5.394   0.861   5.726
 7443SOL     OW23227   0.484   1.110   2.047
 7443SOL    HW123228   0.566   1.053   2.046
 7443SOL    HW223229   0.489   1.176   1.972
 7444SOL     OW23230   2.039   6.363   6.952
 7444SOL    HW123231   1.968   6.421   6.913
 7444SOL    HW223232   1.997   6.291   7.008
 7445SOL     OW23233   3.658   6.180   1.700
 7445SOL    HW123234   3.735   6.151   1.758
 7445SOL    HW223235   3.691   6.243   1.630
 7446SOL     OW23236   5.114   4.372   0.005
 7446SOL    HW123237   5.099   4.276   0.031
 7446SOL    HW223238   5.160   4.375   6.936
 7447SOL     OW23239   0.187   4.370   0.448
 7447SOL    HW123240   0.238   4.304   0.502
 7447SOL    HW223241   0.111   4.323   0.401
 7448SOL     OW23242   4.538   5.667   6.754
 7448SOL    HW123243   4.539   5.741   6.820
 7448SOL    HW223244   4.577   5.585   6.795
 7449SOL     OW23245   0.062   4.716   5.787
 7449SOL    HW123246   0.004   4.735   5.708
 7449SOL    HW223247   0.123   4.640   5.765
 7450SOL     OW23248   5.441   2.093   5.261
 7450SOL    HW123249   5.465   2.117   5.355
 7450SOL    HW223250   5.373   2.158   5.226
 7451SOL     OW23251   4.869   4.440   3.299
 7451SOL    HW123252   4.874   4.357   3.244
 7451SOL    HW223253   4.957   4.456   3.343
 7452SOL     OW23254   5.767   5.338   5.902
 7452SOL    HW123255   5.814   5.320   5.816
 7452SOL    HW223256   5.823   5.306   5.978
 7453SOL     OW23257   3.613   5.749   6.028
 7453SOL    HW123258   3.699   5.797   6.012
 7453SOL    HW223259   3.541   5.815   6.052
 7454SOL     OW23260   4.204   2.029   1.075
 7454SOL    HW123261   4.285   2.071   1.033
 7454SOL    HW223262   4.198   2.057   1.171
 7455SOL     OW23263   6.899   1.885   3.131
 7455SOL    HW123264   6.836   1.962   3.144
 7455SOL    HW223265   6.873   1.835   3.048
 7456SOL     OW23266   2.602   2.021   6.480
 7456SOL    HW123267   2.530   2.017   6.551
 7456SOL    HW223268   2.561   2.005   6.391
 7457SOL     OW23269   1.837   1.001   2.347
 7457SOL    HW123270   1.811   0.984   2.442
 7457SOL    HW223271   1.901   0.930   2.317
 7458SOL     OW23272   2.053   5.391   5.138
 7458SOL    HW123273   2.145   5.351   5.136
 7458SOL    HW223274   2.026   5.417   5.045
 7459SOL     OW23275   5.914   0.345   2.734
 7459SOL    HW123276   5.853   0.417   2.768
 7459SOL    HW223277   5.999   0.347   2.786
 7460SOL     OW23278   1.711   6.252   1.208
 7460SOL    HW123279   1.733   6.347   1.187
 7460SOL    HW223280   1.795   6.197   1.207
 7461SOL     OW23281   2.348   4.537   5.567
 7461SOL    HW123282   2.274   4.504   5.508
 7461SOL    HW223283   2.378   4.627   5.536
 7462SOL     OW23284   1.292   3.997   0.706
 7462SOL    HW123285   1.227   4.017   0.780
 7462SOL    HW223286   1.385   4.017   0.738
 7463SOL     OW23287   4.252   5.266   0.956
 7463SOL    HW123288   4.283   5.176   0.985
 7463SOL    HW223289   4.313   5.336   0.993
 7464SOL     OW23290   5.817   6.263   5.186
 7464SOL    HW123291   5.765   6.337   5.229
 7464SOL    HW223292   5.778   6.175   5.213
 7465SOL     OW23293   1.733   4.820   0.180
 7465SOL    HW123294   1.760   4.866   0.265
 7465SOL    HW223295   1.682   4.737   0.202
 7466SOL     OW23296   0.400   0.681   5.014
 7466SOL    HW123297   0.468   0.738   5.058
 7466SOL    HW223298   0.317   0.735   4.997
 7467SOL     OW23299   0.937   3.680   4.746
 7467SOL    HW123300   1.031   3.653   4.766
 7467SOL    HW223301   0.906   3.748   4.813
 7468SOL     OW23302   5.772   3.358   5.681
 7468SOL    HW123303   5.747   3.427   5.613
 7468SOL    HW223304   5.707   3.362   5.757
 7469SOL     OW23305   0.273   1.832   0.777
 7469SOL    HW123306   0.224   1.919   0.789
 7469SOL    HW223307   0.305   1.799   0.865
 7470SOL     OW23308   5.669   2.714   3.329
 7470SOL    HW123309   5.685   2.745   3.423
 7470SOL    HW223310   5.681   2.614   3.324
 7471SOL     OW23311   3.949   5.895   6.305
 7471SOL    HW123312   3.862   5.872   6.261
 7471SOL    HW223313   3.978   5.819   6.363
 7472SOL     OW23314   6.624   0.192   6.032
 7472SOL    HW123315   6.540   0.243   6.014
 7472SOL    HW223316   6.643   0.191   6.130
 7473SOL     OW23317   3.236   5.911   3.847
 7473SOL    HW123318   3.248   5.887   3.943
 7473SOL    HW223319   3.197   5.833   3.798
 7474SOL     OW23320   5.832   1.895   6.756
 7474SOL    HW123321   5.815   1.982   6.803
 7474SOL    HW223322   5.763   1.828   6.784
 7475SOL     OW23323   5.226   1.822   0.923
 7475SOL    HW123324   5.230   1.850   0.827
 7475SOL    HW223325   5.258   1.897   0.981
 7476SOL     OW23326   2.122   0.388   3.008
 7476SOL    HW123327   2.128   0.292   3.036
 7476SOL    HW223328   2.107   0.446   3.089
 7477SOL     OW23329   1.027   3.810   5.170
 7477SOL    HW123330   0.968   3.814   5.089
 7477SOL    HW223331   1.077   3.724   5.170
 7478SOL     OW23332   0.296   1.196   5.558
 7478SOL    HW123333   0.225   1.142   5.604
 7478SOL    HW223334   0.324   1.150   5.474
 7479SOL     OW23335   5.098   2.793   0.655
 7479SOL    HW123336   5.056   2.715   0.608
 7479SOL    HW223337   5.052   2.808   0.743
 7480SOL     OW23338   3.451   4.875   2.716
 7480SOL    HW123339   3.540   4.830   2.707
 7480SOL    HW223340   3.428   4.919   2.629
 7481SOL     OW23341   0.237   3.799   6.944
 7481SOL    HW123342   0.189   3.887   6.933
 7481SOL    HW223343   0.231   3.771   0.020
 7482SOL     OW23344   5.323   1.954   2.897
 7482SOL    HW123345   5.266   1.939   2.978
 7482SOL    HW223346   5.419   1.961   2.925
 7483SOL     OW23347   4.718   2.159   5.652
 7483SOL    HW123348   4.637   2.216   5.643
 7483SOL    HW223349   4.690   2.065   5.673
 7484SOL     OW23350   3.124   0.120   3.834
 7484SOL    HW123351   3.194   0.057   3.867
 7484SOL    HW223352   3.154   0.214   3.850
 7485SOL     OW23353   3.647   6.584   6.108
 7485SOL    HW123354   3.649   6.556   6.012
 7485SOL    HW223355   3.663   6.683   6.115
 7486SOL     OW23356   2.661   6.575   0.895
 7486SOL    HW123357   2.658   6.674   0.886
 7486SOL    HW223358   2.665   6.551   0.992
 7487SOL     OW23359   4.011   6.091   4.559
 7487SOL    HW123360   3.965   6.179   4.550
 7487SOL    HW223361   4.068   6.091   4.641
 7488SOL     OW23362   0.946   5.578   4.176
 7488SOL    HW123363   0.863   5.534   4.142
 7488SOL    HW223364   0.937   5.594   4.274
 7489SOL     OW23365   5.548   3.024   6.488
 7489SOL    HW123366   5.581   2.930   6.480
 7489SOL    HW223367   5.542   3.065   6.397
 7490SOL     OW23368   1.286   2.780   2.243
 7490SOL    HW123369   1.250   2.852   2.303
 7490SOL    HW223370   1.223   2.765   2.167
 7491SOL     OW23371   4.066   3.272   0.178
 7491SOL    HW123372   4.016   3.185   0.174
 7491SOL    HW223373   4.164   3.253   0.183
 7492SOL     OW23374   1.513   0.239   4.261
 7492SOL    HW123375   1.520   0.141   4.243
 7492SOL    HW223376   1.604   0.280   4.255
 7493SOL     OW23377   6.362   4.804   4.946
 7493SOL    HW123378   6.325   4.723   4.993
 7493SOL    HW223379   6.451   4.828   4.985
 7494SOL     OW23380   6.546   0.915   1.750
 7494SOL    HW123381   6.488   0.940   1.828
 7494SOL    HW223382   6.633   0.965   1.756
 7495SOL     OW23383   1.518   3.383   5.029
 7495SOL    HW123384   1.595   3.349   5.083
 7495SOL    HW223385   1.437   3.388   5.086
 7496SOL     OW23386   5.761   4.396   2.479
 7496SOL    HW123387   5.718   4.482   2.450
 7496SOL    HW223388   5.775   4.398   2.578
 7497SOL     OW23389   0.049   6.318   1.224
 7497SOL    HW123390   0.127   6.372   1.255
 7497SOL    HW223391   0.028   6.342   1.129
 7498SOL     OW23392   3.328   6.713   3.037
 7498SOL    HW123393   3.402   6.706   3.104
 7498SOL    HW223394   3.250   6.660   3.069
 7499SOL     OW23395   2.973   1.870   4.038
 7499SOL    HW123396   2.903   1.800   4.049
 7499SOL    HW223397   3.002   1.903   4.128
 7500SOL     OW23398   3.858   0.772   3.083
 7500SOL    HW123399   3.822   0.846   3.139
 7500SOL    HW223400   3.877   0.805   2.991
 7501SOL     OW23401   6.231   2.715   5.604
 7501SOL    HW123402   6.249   2.622   5.636
 7501SOL    HW223403   6.311   2.750   5.555
 7502SOL     OW23404   4.449   0.669   4.184
 7502SOL    HW123405   4.438   0.702   4.090
 7502SOL    HW223406   4.382   0.714   4.243
 7503SOL     OW23407   1.915   5.236   1.839
 7503SOL    HW123408   1.991   5.262   1.899
 7503SOL    HW223409   1.839   5.201   1.895
 7504SOL     OW23410   6.299   6.430   4.696
 7504SOL    HW123411   6.234   6.464   4.628
 7504SOL    HW223412   6.250   6.404   4.779
 7505SOL     OW23413   0.286   6.421   4.788
 7505SOL    HW123414   0.321   6.515   4.788
 7505SOL    HW223415   0.224   6.409   4.866
 7506SOL     OW23416   3.576   1.827   3.839
 7506SOL    HW123417   3.526   1.912   3.857
 7506SOL    HW223418   3.630   1.837   3.756
 7507SOL     OW23419   6.318   4.576   5.694
 7507SOL    HW123420   6.263   4.659   5.698
 7507SOL    HW223421   6.329   4.547   5.599
 7508SOL     OW23422   2.656   6.079   0.413
 7508SOL    HW123423   2.744   6.047   0.377
 7508SOL    HW223424   2.582   6.041   0.357
 7509SOL     OW23425   6.072   4.942   2.276
 7509SOL    HW123426   6.127   4.990   2.208
 7509SOL    HW223427   6.076   4.991   2.363
 7510SOL     OW23428   3.330   3.742   2.671
 7510SOL    HW123429   3.378   3.761   2.585
 7510SOL    HW223430   3.281   3.655   2.663
 7511SOL     OW23431   4.854   6.779   4.123
 7511SOL    HW123432   4.765   6.818   4.147
 7511SOL    HW223433   4.865   6.780   4.024
 7512SOL     OW23434   3.774   0.899   0.218
 7512SOL    HW123435   3.791   0.872   0.123
 7512SOL    HW223436   3.715   0.831   0.262
 7513SOL     OW23437   1.640   2.179   2.452
 7513SOL    HW123438   1.739   2.195   2.458
 7513SOL    HW223439   1.609   2.132   2.534
 7514SOL     OW23440   1.045   6.277   1.695
 7514SOL    HW123441   0.985   6.351   1.666
 7514SOL    HW223442   1.127   6.276   1.639
 7515SOL     OW23443   0.561   4.929   5.105
 7515SOL    HW123444   0.585   4.852   5.045
 7515SOL    HW223445   0.488   4.982   5.063
 7516SOL     OW23446   1.531   6.189   5.269
 7516SOL    HW123447   1.457   6.237   5.315
 7516SOL    HW223448   1.619   6.222   5.303
 7517SOL     OW23449   0.901   1.648   6.151
 7517SOL    HW123450   0.885   1.719   6.082
 7517SOL    HW223451   0.815   1.601   6.171
 7518SOL     OW23452   4.902   2.218   3.966
 7518SOL    HW123453   4.921   2.279   4.044
 7518SOL    HW223454   4.808   2.186   3.971
 7519SOL     OW23455   3.878   6.044   4.257
 7519SOL    HW123456   3.800   6.105   4.259
 7519SOL    HW223457   3.940   6.066   4.333
 7520SOL     OW23458   1.992   1.591   0.507
 7520SOL    HW123459   2.082   1.635   0.513
 7520SOL    HW223460   1.928   1.652   0.460
 7521SOL     OW23461   3.566   1.801   5.496
 7521SOL    HW123462   3.627   1.722   5.505
 7521SOL    HW223463   3.581   1.845   5.408
 7522SOL     OW23464   1.736   0.060   3.291
 7522SOL    HW123465   1.799   0.094   3.360
 7522SOL    HW223466   1.747   6.981   3.281
 7523SOL     OW23467   5.545   1.108   0.860
 7523SOL    HW123468   5.559   1.009   0.857
 7523SOL    HW223469   5.448   1.129   0.871
 7524SOL     OW23470   0.579   3.346   4.467
 7524SOL    HW123471   0.667   3.328   4.423
 7524SOL    HW223472   0.575   3.297   4.554
 7525SOL     OW23473   3.851   5.438   6.053
 7525SOL    HW123474   3.793   5.365   6.087
 7525SOL    HW223475   3.913   5.468   6.126
 7526SOL     OW23476   2.478   3.598   1.196
 7526SOL    HW123477   2.406   3.571   1.133
 7526SOL    HW223478   2.485   3.697   1.200
 7527SOL     OW23479   3.957   5.048   3.247
 7527SOL    HW123480   3.938   5.139   3.210
 7527SOL    HW223481   3.872   5.007   3.281
 7528SOL     OW23482   6.223   2.797   5.896
 7528SOL    HW123483   6.162   2.873   5.920
 7528SOL    HW223484   6.207   2.771   5.801
 7529SOL     OW23485   6.120   3.452   4.016
 7529SOL    HW123486   6.166   3.399   3.945
 7529SOL    HW223487   6.139   3.411   4.105
 7530SOL     OW23488   0.915   2.242   1.906
 7530SOL    HW123489   0.871   2.162   1.865
 7530SOL    HW223490   0.846   2.303   1.943
 7531SOL     OW23491   4.070   2.226   4.046
 7531SOL    HW123492   4.045   2.138   4.005
 7531SOL    HW223493   3.988   2.279   4.066
 7532SOL     OW23494   4.637   5.336   6.483
 7532SOL    HW123495   4.627   5.330   6.582
 7532SOL    HW223496   4.729   5.368   6.460
 7533SOL     OW23497   4.519   4.292   1.599
 7533SOL    HW123498   4.448   4.360   1.583
 7533SOL    HW223499   4.506   4.250   1.689
 7534SOL     OW23500   3.773   6.810   4.827
 7534SOL    HW123501   3.675   6.792   4.831
 7534SOL    HW223502   3.788   6.894   4.775
 7535SOL     OW23503   0.673   6.730   4.252
 7535SOL    HW123504   0.715   6.639   4.255
 7535SOL    HW223505   0.590   6.727   4.196
 7536SOL     OW23506   5.605   6.439   4.404
 7536SOL    HW123507   5.509   6.465   4.412
 7536SOL    HW223508   5.613   6.339   4.410
 7537SOL     OW23509   2.501   6.536   2.942
 7537SOL    HW123510   2.487   6.591   2.859
 7537SOL    HW223511   2.502   6.439   2.918
 7538SOL     OW23512   0.587   3.567   0.676
 7538SOL    HW123513   0.585   3.663   0.649
 7538SOL    HW223514   0.550   3.510   0.602
 7539SOL     OW23515   6.737   0.555   4.674
 7539SOL    HW123516   6.681   0.508   4.606
 7539SOL    HW223517   6.696   0.644   4.694
 7540SOL     OW23518   6.039   5.582   3.245
 7540SOL    HW123519   6.121   5.631   3.219
 7540SOL    HW223520   5.959   5.642   3.238
 7541SOL     OW23521   2.609   4.211   6.022
 7541SOL    HW123522   2.674   4.286   6.008
 7541SOL    HW223523   2.658   4.129   6.052
 7542SOL     OW23524   6.272   5.823   4.898
 7542SOL    HW123525   6.255   5.876   4.815
 7542SOL    HW223526   6.228   5.733   4.890
 7543SOL     OW23527   2.628   0.998   6.536
 7543SOL    HW123528   2.716   1.019   6.578
 7543SOL    HW223529   2.554   1.032   6.594
 7544SOL     OW23530   6.442   1.605   3.959
 7544SOL    HW123531   6.397   1.605   4.048
 7544SOL    HW223532   6.438   1.697   3.919
 7545SOL     OW23533   1.532   5.187   5.819
 7545SOL    HW123534   1.602   5.118   5.833
 7545SOL    HW223535   1.537   5.222   5.726
 7546SOL     OW23536   2.341   2.625   1.943
 7546SOL    HW123537   2.373   2.587   2.030
 7546SOL    HW223538   2.417   2.670   1.896
 7547SOL     OW23539   4.214   0.284   1.665
 7547SOL    HW123540   4.148   0.332   1.607
 7547SOL    HW223541   4.295   0.340   1.678
 7548SOL     OW23542   3.837   3.001   6.300
 7548SOL    HW123543   3.809   3.011   6.204
 7548SOL    HW223544   3.888   3.082   6.328
 7549SOL     OW23545   5.328   1.440   4.329
 7549SOL    HW123546   5.230   1.457   4.331
 7549SOL    HW223547   5.373   1.507   4.270
 7550SOL     OW23548   2.928   4.762   4.203
 7550SOL    HW123549   2.831   4.783   4.216
 7550SOL    HW223550   2.973   4.754   4.292
 7551SOL     OW23551   6.553   2.487   5.987
 7551SOL    HW123552   6.569   2.566   5.928
 7551SOL    HW223553   6.604   2.498   6.072
 7552SOL     OW23554   2.315   7.012   5.085
 7552SOL    HW123555   2.313   6.965   4.997
 7552SOL    HW223556   2.399   0.046   5.092
 7553SOL     OW23557   5.325   6.168   5.297
 7553SOL    HW123558   5.341   6.222   5.380
 7553SOL    HW223559   5.317   6.229   5.218
 7554SOL     OW23560   4.639   0.757   0.801
 7554SOL    HW123561   4.676   0.843   0.767
 7554SOL    HW223562   4.582   0.774   0.881
 7555SOL     OW23563   4.368   5.503   4.592
 7555SOL    HW123564   4.382   5.407   4.568
 7555SOL    HW223565   4.437   5.559   4.546
 7556SOL     OW23566   0.640   6.728   1.732
 7556SOL    HW123567   0.688   6.700   1.815
 7556SOL    HW223568   0.582   6.654   1.700
 7557SOL     OW23569   5.096   0.227   0.879
 7557SOL    HW123570   5.142   0.146   0.917
 7557SOL    HW223571   5.134   0.248   0.789
 7558SOL     OW23572   0.923   1.876   3.876
 7558SOL    HW123573   0.864   1.805   3.915
 7558SOL    HW223574   1.012   1.837   3.852
 7559SOL     OW23575   2.718   1.931   5.029
 7559SOL    HW123576   2.750   2.007   5.085
 7559SOL    HW223577   2.750   1.943   4.935
 7560SOL     OW23578   1.197   1.496   6.119
 7560SOL    HW123579   1.175   1.577   6.065
 7560SOL    HW223580   1.276   1.516   6.177
 7561SOL     OW23581   6.285   1.472   5.512
 7561SOL    HW123582   6.275   1.375   5.492
 7561SOL    HW223583   6.227   1.525   5.450
 7562SOL     OW23584   2.081   6.196   3.504
 7562SOL    HW123585   2.174   6.202   3.467
 7562SOL    HW223586   2.085   6.186   3.603
 7563SOL     OW23587   3.726   5.407   2.324
 7563SOL    HW123588   3.693   5.460   2.245
 7563SOL    HW223589   3.800   5.457   2.369
 7564SOL     OW23590   3.603   1.920   5.252
 7564SOL    HW123591   3.563   2.011   5.261
 7564SOL    HW223592   3.671   1.920   5.178
 7565SOL     OW23593   6.251   3.832   5.862
 7565SOL    HW123594   6.173   3.892   5.846
 7565SOL    HW223595   6.229   3.768   5.935
 7566SOL     OW23596   4.346   4.825   1.190
 7566SOL    HW123597   4.280   4.813   1.263
 7566SOL    HW223598   4.406   4.744   1.185
 7567SOL     OW23599   0.823   0.108   4.287
 7567SOL    HW123600   0.899   0.168   4.263
 7567SOL    HW223601   0.738   0.145   4.249
 7568SOL     OW23602   6.000   5.676   1.659
 7568SOL    HW123603   5.969   5.595   1.708
 7568SOL    HW223604   6.099   5.672   1.648
 7569SOL     OW23605   4.763   3.614   0.183
 7569SOL    HW123606   4.836   3.619   0.251
 7569SOL    HW223607   4.680   3.655   0.220
 7570SOL     OW23608   0.507   3.240   2.451
 7570SOL    HW123609   0.467   3.220   2.541
 7570SOL    HW223610   0.578   3.173   2.431
 7571SOL     OW23611   5.040   2.002   2.576
 7571SOL    HW123612   5.089   2.085   2.550
 7571SOL    HW223613   4.952   1.998   2.527
 7572SOL     OW23614   4.744   0.470   3.640
 7572SOL    HW123615   4.790   0.555   3.613
 7572SOL    HW223616   4.645   0.480   3.629
 7573SOL     OW23617   4.460   6.420   5.631
 7573SOL    HW123618   4.456   6.520   5.638
 7573SOL    HW223619   4.545   6.387   5.671
 7574SOL     OW23620   1.067   2.753   3.973
 7574SOL    HW123621   1.049   2.675   4.033
 7574SOL    HW223622   1.124   2.723   3.896
 7575SOL     OW23623   0.215   6.831   1.921
 7575SOL    HW123624   0.130   6.799   1.878
 7575SOL    HW223625   0.193   6.884   2.002
 7576SOL     OW23626   4.810   2.408   0.376
 7576SOL    HW123627   4.843   2.426   0.283
 7576SOL    HW223628   4.732   2.345   0.372
 7577SOL     OW23629   0.945   0.072   0.913
 7577SOL    HW123630   0.869   0.104   0.969
 7577SOL    HW223631   0.911   0.050   0.821
 7578SOL     OW23632   6.830   6.117   3.216
 7578SOL    HW123633   6.736   6.142   3.193
 7578SOL    HW223634   6.836   6.097   3.314
 7579SOL     OW23635   0.656   1.290   6.816
 7579SOL    HW123636   0.719   1.218   6.844
 7579SOL    HW223637   0.629   1.344   6.896
 7580SOL     OW23638   2.185   4.982   3.704
 7580SOL    HW123639   2.095   5.013   3.733
 7580SOL    HW223640   2.176   4.904   3.642
 7581SOL     OW23641   6.767   0.779   2.360
 7581SOL    HW123642   6.751   0.708   2.291
 7581SOL    HW223643   6.864   0.802   2.363
 7582SOL     OW23644   2.432   1.659   6.328
 7582SOL    HW123645   2.512   1.618   6.372
 7582SOL    HW223646   2.454   1.753   6.299
 7583SOL     OW23647   5.071   3.014   2.916
 7583SOL    HW123648   5.019   2.974   2.992
 7583SOL    HW223649   5.136   3.081   2.952
 7584SOL     OW23650   0.604   0.856   3.117
 7584SOL    HW123651   0.676   0.879   3.184
 7584SOL    HW223652   0.646   0.840   3.028
 7585SOL     OW23653   0.977   1.498   6.590
 7585SOL    HW123654   1.050   1.512   6.657
 7585SOL    HW223655   1.004   1.538   6.502
 7586SOL     OW23656   1.882   0.488   2.334
 7586SOL    HW123657   1.860   0.563   2.397
 7586SOL    HW223658   1.945   0.425   2.379
 7587SOL     OW23659   4.093   0.464   0.610
 7587SOL    HW123660   4.146   0.390   0.651
 7587SOL    HW223661   4.155   0.526   0.561
 7588SOL     OW23662   2.376   2.735   4.487
 7588SOL    HW123663   2.382   2.702   4.582
 7588SOL    HW223664   2.410   2.665   4.425
 7589SOL     OW23665   0.644   0.334   2.753
 7589SOL    HW123666   0.717   0.371   2.811
 7589SOL    HW223667   0.555   0.354   2.794
 7590SOL     OW23668   6.841   0.902   0.120
 7590SOL    HW123669   6.799   0.902   0.029
 7590SOL    HW223670   6.818   0.987   0.167
 7591SOL     OW23671   3.793   2.981   4.397
 7591SOL    HW123672   3.825   3.015   4.486
 7591SOL    HW223673   3.703   3.020   4.378
 7592SOL     OW23674   6.587   6.700   4.292
 7592SOL    HW123675   6.590   6.626   4.225
 7592SOL    HW223676   6.586   6.662   4.385
 7593SOL     OW23677   0.640   1.454   5.491
 7593SOL    HW123678   0.706   1.529   5.484
 7593SOL    HW223679   0.613   1.425   5.399
 7594SOL     OW23680   0.340   4.123   0.233
 7594SOL    HW123681   0.380   4.092   0.147
 7594SOL    HW223682   0.260   4.068   0.255
 7595SOL     OW23683   1.118   3.516   6.523
 7595SOL    HW123684   1.096   3.432   6.573
 7595SOL    HW223685   1.208   3.549   6.551
 7596SOL     OW23686   3.035   1.487   5.817
 7596SOL    HW123687   3.034   1.395   5.777
 7596SOL    HW223688   3.012   1.481   5.914
 7597SOL     OW23689   1.282   4.726   1.585
 7597SOL    HW123690   1.328   4.690   1.504
 7597SOL    HW223691   1.183   4.728   1.569
 7598SOL     OW23692   6.216   0.526   2.495
 7598SOL    HW123693   6.166   0.596   2.546
 7598SOL    HW223694   6.215   0.549   2.398
 7599SOL     OW23695   3.479   3.849   1.217
 7599SOL    HW123696   3.450   3.928   1.270
 7599SOL    HW223697   3.431   3.768   1.249
 7600SOL     OW23698   1.794   6.390   4.334
 7600SOL    HW123699   1.710   6.360   4.288
 7600SOL    HW223700   1.786   6.487   4.358
 7601SOL     OW23701   3.064   6.743   2.272
 7601SOL    HW123702   3.082   6.677   2.345
 7601SOL    HW223703   3.145   6.749   2.213
 7602SOL     OW23704   0.427   1.658   0.629
 7602SOL    HW123705   0.454   1.703   0.544
 7602SOL    HW223706   0.353   1.710   0.672
 7603SOL     OW23707   3.768   6.934   5.744
 7603SOL    HW123708   3.793   7.001   5.674
 7603SOL    HW223709   3.823   6.949   5.826
 7604SOL     OW23710   0.783   2.319   5.110
 7604SOL    HW123711   0.833   2.401   5.137
 7604SOL    HW223712   0.727   2.338   5.029
 7605SOL     OW23713   2.297   6.205   6.985
 7605SOL    HW123714   2.241   6.286   6.966
 7605SOL    HW223715   2.289   6.140   6.910
 7606SOL     OW23716   6.646   1.238   2.930
 7606SOL    HW123717   6.623   1.158   2.876
 7606SOL    HW223718   6.564   1.293   2.947
 7607SOL     OW23719   1.785   6.177   5.662
 7607SOL    HW123720   1.780   6.228   5.748
 7607SOL    HW223721   1.756   6.082   5.678
 7608SOL     OW23722   5.731   2.277   6.333
 7608SOL    HW123723   5.750   2.258   6.430
 7608SOL    HW223724   5.812   2.256   6.279
 7609SOL     OW23725   1.828   1.823   4.800
 7609SOL    HW123726   1.842   1.770   4.884
 7609SOL    HW223727   1.740   1.871   4.805
 7610SOL     OW23728   4.165   5.245   4.309
 7610SOL    HW123729   4.115   5.311   4.365
 7610SOL    HW223730   4.212   5.180   4.369
 7611SOL     OW23731   4.561   2.642   0.351
 7611SOL    HW123732   4.654   2.627   0.385
 7611SOL    HW223733   4.515   2.712   0.407
 7612SOL     OW23734   3.944   1.856   3.416
 7612SOL    HW123735   3.865   1.829   3.361
 7612SOL    HW223736   3.950   1.956   3.419
 7613SOL     OW23737   0.779   1.376   0.885
 7613SOL    HW123738   0.722   1.451   0.852
 7613SOL    HW223739   0.796   1.388   0.983
 7614SOL     OW23740   5.183   3.648   0.140
 7614SOL    HW123741   5.123   3.633   0.061
 7614SOL    HW223742   5.278   3.630   0.113
 7615SOL     OW23743   5.911   3.242   5.043
 7615SOL    HW123744   5.832   3.211   4.990
 7615SOL    HW223745   5.882   3.261   5.137
 7616SOL     OW23746   6.063   0.283   3.298
 7616SOL    HW123747   6.079   0.380   3.284
 7616SOL    HW223748   6.139   0.230   3.259
 7617SOL     OW23749   6.220   3.972   3.545
 7617SOL    HW123750   6.267   4.038   3.604
 7617SOL    HW223751   6.140   4.015   3.503
 7618SOL     OW23752   2.435   2.995   0.623
 7618SOL    HW123753   2.379   2.918   0.654
 7618SOL    HW223754   2.449   3.058   0.699
 7619SOL     OW23755   1.376   1.652   4.503
 7619SOL    HW123756   1.455   1.708   4.478
 7619SOL    HW223757   1.356   1.663   4.600
 7620SOL     OW23758   3.766   4.538   0.925
 7620SOL    HW123759   3.862   4.548   0.901
 7620SOL    HW223760   3.715   4.508   0.845
 7621SOL     OW23761   6.284   3.899   6.926
 7621SOL    HW123762   6.189   3.911   6.955
 7621SOL    HW223763   6.286   3.865   6.832
 7622SOL     OW23764   3.359   4.042   1.346
 7622SOL    HW123765   3.422   4.097   1.400
 7622SOL    HW223766   3.280   4.016   1.402
 7623SOL     OW23767   5.163   4.597   1.554
 7623SOL    HW123768   5.099   4.631   1.623
 7623SOL    HW223769   5.152   4.499   1.543
 7624SOL     OW23770   1.188   3.601   2.616
 7624SOL    HW123771   1.183   3.657   2.534
 7624SOL    HW223772   1.141   3.514   2.600
 7625SOL     OW23773   5.200   0.793   1.439
 7625SOL    HW123774   5.158   0.881   1.421
 7625SOL    HW223775   5.131   0.728   1.470
 7626SOL     OW23776   4.404   0.561   6.006
 7626SOL    HW123777   4.435   0.508   6.085
 7626SOL    HW223778   4.474   0.629   5.982
 7627SOL     OW23779   4.115   2.852   6.680
 7627SOL    HW123780   4.099   2.950   6.671
 7627SOL    HW223781   4.124   2.811   6.589
 7628SOL     OW23782   3.717   2.783   0.391
 7628SOL    HW123783   3.703   2.882   0.383
 7628SOL    HW223784   3.670   2.736   0.317
 7629SOL     OW23785   5.738   2.114   2.805
 7629SOL    HW123786   5.668   2.170   2.850
 7629SOL    HW223787   5.778   2.052   2.872
 7630SOL     OW23788   1.004   6.649   4.536
 7630SOL    HW123789   1.063   6.682   4.463
 7630SOL    HW223790   0.909   6.666   4.513
 7631SOL     OW23791   1.189   0.354   5.614
 7631SOL    HW123792   1.256   0.315   5.550
 7631SOL    HW223793   1.103   0.303   5.608
 7632SOL     OW23794   4.516   5.874   6.997
 7632SOL    HW123795   4.557   5.923   0.054
 7632SOL    HW223796   4.442   5.930   6.958
 7633SOL     OW23797   6.405   1.352   1.098
 7633SOL    HW123798   6.479   1.329   1.162
 7633SOL    HW223799   6.440   1.347   1.005
 7634SOL     OW23800   0.025   2.504   6.929
 7634SOL    HW123801   0.022   2.492   0.008
 7634SOL    HW223802   0.026   2.414   6.885
 7635SOL     OW23803   2.210   3.555   5.643
 7635SOL    HW123804   2.287   3.537   5.705
 7635SOL    HW223805   2.240   3.542   5.548
 7636SOL     OW23806   0.051   3.815   4.482
 7636SOL    HW123807   0.008   3.880   4.419
 7636SOL    HW223808   0.142   3.793   4.449
 7637SOL     OW23809   1.197   5.111   4.920
 7637SOL    HW123810   1.260   5.053   4.971
 7637SOL    HW223811   1.116   5.058   4.895
 7638SOL     OW23812   0.592   6.117   1.052
 7638SOL    HW123813   0.499   6.145   1.074
 7638SOL    HW223814   0.600   6.102   0.954
 7639SOL     OW23815   1.567   1.009   0.219
 7639SOL    HW123816   1.635   0.936   0.221
 7639SOL    HW223817   1.490   0.985   0.279
 7640SOL     OW23818   3.252   1.289   0.924
 7640SOL    HW123819   3.231   1.382   0.954
 7640SOL    HW223820   3.207   1.223   0.984
 7641SOL     OW23821   0.286   3.852   3.962
 7641SOL    HW123822   0.315   3.811   4.049
 7641SOL    HW223823   0.357   3.838   3.893
 7642SOL     OW23824   5.714   1.050   3.107
 7642SOL    HW123825   5.615   1.061   3.097
 7642SOL    HW223826   5.732   0.977   3.174
 7643SOL     OW23827   5.257   3.495   3.904
 7643SOL    HW123828   5.273   3.533   3.995
 7643SOL    HW223829   5.327   3.427   3.883
 7644SOL     OW23830   5.417   3.651   1.229
 7644SOL    HW123831   5.504   3.696   1.209
 7644SOL    HW223832   5.342   3.718   1.220
 7645SOL     OW23833   3.353   4.782   0.033
 7645SOL    HW123834   3.417   4.709   0.012
 7645SOL    HW223835   3.260   4.752   0.011
 7646SOL     OW23836   6.228   1.461   0.210
 7646SOL    HW123837   6.298   1.416   0.155
 7646SOL    HW223838   6.150   1.484   0.152
 7647SOL     OW23839   0.196   2.003   4.171
 7647SOL    HW123840   0.135   2.062   4.225
 7647SOL    HW223841   0.291   2.026   4.192
 7648SOL     OW23842   2.530   2.322   1.855
 7648SOL    HW123843   2.604   2.276   1.806
 7648SOL    HW223844   2.448   2.264   1.854
 7649SOL     OW23845   3.835   1.087   6.398
 7649SOL    HW123846   3.884   1.173   6.381
 7649SOL    HW223847   3.756   1.081   6.337
 7650SOL     OW23848   4.139   2.439   0.644
 7650SOL    HW123849   4.149   2.452   0.743
 7650SOL    HW223850   4.046   2.462   0.617
 7651SOL     OW23851   3.581   4.750   6.442
 7651SOL    HW123852   3.647   4.776   6.512
 7651SOL    HW223853   3.509   4.694   6.482
 7652SOL     OW23854   1.403   0.551   3.948
 7652SOL    HW123855   1.391   0.537   4.046
 7652SOL    HW223856   1.500   0.568   3.928
 7653SOL     OW23857   1.890   1.054   6.368
 7653SOL    HW123858   1.875   1.136   6.313
 7653SOL    HW223859   1.889   0.973   6.309
 7654SOL     OW23860   6.014   1.854   5.992
 7654SOL    HW123861   5.970   1.812   6.071
 7654SOL    HW223862   5.945   1.891   5.930
 7655SOL     OW23863   3.180   1.271   3.716
 7655SOL    HW123864   3.119   1.350   3.711
 7655SOL    HW223865   3.211   1.258   3.810
 7656SOL     OW23866   6.491   4.002   0.044
 7656SOL    HW123867   6.410   3.950   0.016
 7656SOL    HW223868   6.463   4.091   0.080
 7657SOL     OW23869   0.847   4.545   4.582
 7657SOL    HW123870   0.863   4.503   4.672
 7657SOL    HW223871   0.772   4.497   4.536
 7658SOL     OW23872   2.442   0.905   1.366
 7658SOL    HW123873   2.366   0.840   1.372
 7658SOL    HW223874   2.474   0.910   1.271
 7659SOL     OW23875   4.672   3.850   5.770
 7659SOL    HW123876   4.607   3.907   5.720
 7659SOL    HW223877   4.765   3.871   5.741
 7660SOL     OW23878   6.898   5.192   5.214
 7660SOL    HW123879   6.816   5.168   5.267
 7660SOL    HW223880   6.918   5.118   5.150
 7661SOL     OW23881   3.916   1.578   5.299
 7661SOL    HW123882   3.825   1.612   5.323
 7661SOL    HW223883   3.938   1.499   5.356
 7662SOL     OW23884   6.815   6.349   1.310
 7662SOL    HW123885   6.908   6.358   1.274
 7662SOL    HW223886   6.750   6.387   1.245
 7663SOL     OW23887   0.224   5.507   5.214
 7663SOL    HW123888   0.256   5.582   5.155
 7663SOL    HW223889   0.280   5.426   5.197
 7664SOL     OW23890   3.731   2.109   2.308
 7664SOL    HW123891   3.687   2.155   2.231
 7664SOL    HW223892   3.670   2.039   2.345
 7665SOL     OW23893   3.680   0.256   5.825
 7665SOL    HW123894   3.637   0.235   5.738
 7665SOL    HW223895   3.641   0.196   5.896
 7666SOL     OW23896   5.337   4.317   3.415
 7666SOL    HW123897   5.301   4.286   3.327
 7666SOL    HW223898   5.360   4.237   3.471
 7667SOL     OW23899   4.238   6.273   2.685
 7667SOL    HW123900   4.310   6.340   2.664
 7667SOL    HW223901   4.252   6.237   2.777
 7668SOL     OW23902   2.324   5.550   0.921
 7668SOL    HW123903   2.336   5.595   0.832
 7668SOL    HW223904   2.227   5.542   0.941
 7669SOL     OW23905   2.188   1.196   6.782
 7669SOL    HW123906   2.130   1.164   6.707
 7669SOL    HW223907   2.143   1.178   6.869
 7670SOL     OW23908   0.748   0.174   1.053
 7670SOL    HW123909   0.738   0.136   1.145
 7670SOL    HW223910   0.659   0.205   1.020
 7671SOL     OW23911   3.332   6.940   0.567
 7671SOL    HW123912   3.362   6.901   0.480
 7671SOL    HW223913   3.377   0.008   0.581
 7672SOL     OW23914   4.957   4.505   2.160
 7672SOL    HW123915   4.885   4.456   2.111
 7672SOL    HW223916   5.046   4.471   2.131
 7673SOL     OW23917   1.756   6.630   4.549
 7673SOL    HW123918   1.843   6.625   4.501
 7673SOL    HW223919   1.770   6.610   4.646
 7674SOL     OW23920   4.800   6.403   4.731
 7674SOL    HW123921   4.814   6.359   4.819
 7674SOL    HW223922   4.885   6.449   4.704
 7675SOL     OW23923   5.175   6.099   3.277
 7675SOL    HW123924   5.088   6.049   3.284
 7675SOL    HW223925   5.206   6.098   3.182
 7676SOL     OW23926   3.717   2.998   5.530
 7676SOL    HW123927   3.620   2.986   5.506
 7676SOL    HW223928   3.751   3.084   5.491
 7677SOL     OW23929   6.439   4.579   0.208
 7677SOL    HW123930   6.519   4.607   0.156
 7677SOL    HW223931   6.401   4.495   0.171
 7678SOL     OW23932   2.323   1.233   5.012
 7678SOL    HW123933   2.405   1.216   5.066
 7678SOL    HW223934   2.275   1.313   5.049
 7679SOL     OW23935   3.735   5.832   5.022
 7679SOL    HW123936   3.718   5.794   4.930
 7679SOL    HW223937   3.809   5.782   5.065
 7680SOL     OW23938   1.824   6.981   4.164
 7680SOL    HW123939   1.893   0.029   4.186
 7680SOL    HW223940   1.865   6.890   4.167
 7681SOL     OW23941   2.128   3.060   6.158
 7681SOL    HW123942   2.147   2.985   6.221
 7681SOL    HW223943   2.206   3.122   6.155
 7682SOL     OW23944   3.090   1.138   2.968
 7682SOL    HW123945   3.107   1.080   2.888
 7682SOL    HW223946   3.174   1.187   2.991
 7683SOL     OW23947   0.071   4.610   4.372
 7683SOL    HW123948   0.022   4.579   4.290
 7683SOL    HW223949   0.164   4.572   4.371
 7684SOL     OW23950   4.905   3.241   1.431
 7684SOL    HW123951   4.831   3.192   1.386
 7684SOL    HW223952   4.993   3.209   1.395
 7685SOL     OW23953   2.675   0.229   0.559
 7685SOL    HW123954   2.696   0.220   0.657
 7685SOL    HW223955   2.698   0.321   0.529
 7686SOL     OW23956   6.596   6.679   5.220
 7686SOL    HW123957   6.689   6.688   5.183
 7686SOL    HW223958   6.530   6.676   5.145
 7687SOL     OW23959   5.495   4.114   6.139
 7687SOL    HW123960   5.579   4.153   6.101
 7687SOL    HW223961   5.436   4.082   6.064
 7688SOL     OW23962   6.711   3.977   6.348
 7688SOL    HW123963   6.745   4.044   6.282
 7688SOL    HW223964   6.747   3.886   6.324
 7689SOL     OW23965   4.538   1.017   1.972
 7689SOL    HW123966   4.601   0.968   2.031
 7689SOL    HW223967   4.585   1.041   1.886
 7690SOL     OW23968   5.815   5.366   1.984
 7690SOL    HW123969   5.849   5.346   2.076
 7690SOL    HW223970   5.825   5.464   1.965
 7691SOL     OW23971   4.994   3.158   3.758
 7691SOL    HW123972   4.954   3.095   3.824
 7691SOL    HW223973   4.942   3.154   3.673
 7692SOL     OW23974   2.815   6.783   2.530
 7692SOL    HW123975   2.892   6.779   2.594
 7692SOL    HW223976   2.816   6.872   2.484
 7693SOL     OW23977   2.960   0.774   1.920
 7693SOL    HW123978   2.891   0.835   1.882
 7693SOL    HW223979   2.944   0.763   2.018
 7694SOL     OW23980   4.685   1.215   5.567
 7694SOL    HW123981   4.602   1.182   5.613
 7694SOL    HW223982   4.721   1.294   5.616
 7695SOL     OW23983   4.404   0.096   3.679
 7695SOL    HW123984   4.395   0.168   3.610
 7695SOL    HW223985   4.424   0.009   3.634
 7696SOL     OW23986   1.881   2.833   5.938
 7696SOL    HW123987   1.866   2.822   6.036
 7696SOL    HW223988   1.971   2.875   5.923
 7697SOL     OW23989   5.350   0.045   3.608
 7697SOL    HW123990   5.357   0.063   3.706
 7697SOL    HW223991   5.257   0.064   3.577
 7698SOL     OW23992   6.182   3.052   1.260
 7698SOL    HW123993   6.173   2.960   1.297
 7698SOL    HW223994   6.094   3.099   1.268
 7699SOL     OW23995   4.859   5.908   5.843
 7699SOL    HW123996   4.790   5.902   5.915
 7699SOL    HW223997   4.934   5.845   5.864
 7700SOL     OW23998   5.004   6.156   2.168
 7700SOL    HW123999   4.911   6.189   2.151
 7700SOL    HW224000   5.070   6.227   2.143
 7701SOL     OW24001   1.409   2.448   6.002
 7701SOL    HW124002   1.402   2.381   6.076
 7701SOL    HW224003   1.357   2.530   6.027
 7702SOL     OW24004   4.542   0.128   4.620
 7702SOL    HW124005   4.505   0.165   4.535
 7702SOL    HW224006   4.476   0.065   4.661
 7703SOL     OW24007   6.869   0.005   5.762
 7703SOL    HW124008   6.861   0.028   5.859
 7703SOL    HW224009   6.809   0.063   5.708
 7704SOL     OW24010   0.832   1.715   4.634
 7704SOL    HW124011   0.782   1.678   4.556
 7704SOL    HW224012   0.768   1.731   4.710
 7705SOL     OW24013   1.281   5.138   7.002
 7705SOL    HW124014   1.233   5.137   0.069
 7705SOL    HW224015   1.345   5.215   7.000
 7706SOL     OW24016   3.785   2.939   2.587
 7706SOL    HW124017   3.821   2.917   2.496
 7706SOL    HW224018   3.690   2.911   2.594
 7707SOL     OW24019   6.936   3.859   0.054
 7707SOL    HW124020   6.845   3.834   0.087
 7707SOL    HW224021   6.993   3.777   0.045
 7708SOL     OW24022   1.965   0.869   3.996
 7708SOL    HW124023   2.050   0.859   3.944
 7708SOL    HW224024   1.983   0.852   4.093
 7709SOL     OW24025   0.149   4.862   1.385
 7709SOL    HW124026   0.149   4.796   1.311
 7709SOL    HW224027   0.105   4.822   1.466
 7710SOL     OW24028   6.831   2.572   0.809
 7710SOL    HW124029   6.897   2.624   0.863
 7710SOL    HW224030   6.877   2.495   0.766
 7711SOL     OW24031   0.254   4.447   4.710
 7711SOL    HW124032   0.167   4.486   4.680
 7711SOL    HW224033   0.301   4.511   4.770
 7712SOL     OW24034   0.143   5.280   5.884
 7712SOL    HW124035   0.235   5.270   5.845
 7712SOL    HW224036   0.146   5.262   5.982
 7713SOL     OW24037   1.291   4.174   0.083
 7713SOL    HW124038   1.249   4.108   0.020
 7713SOL    HW224039   1.251   4.264   0.068
 7714SOL     OW24040   6.452   2.118   4.588
 7714SOL    HW124041   6.452   2.102   4.686
 7714SOL    HW224042   6.454   2.030   4.539
 7715SOL     OW24043   3.787   3.406   5.271
 7715SOL    HW124044   3.725   3.341   5.227
 7715SOL    HW224045   3.848   3.447   5.203
 7716SOL     OW24046   0.977   6.417   6.038
 7716SOL    HW124047   0.951   6.449   6.129
 7716SOL    HW224048   0.978   6.495   5.975
 7717SOL     OW24049   6.995   2.425   6.308
 7717SOL    HW124050   0.035   2.459   6.380
 7717SOL    HW224051   6.968   2.331   6.329
 7718SOL     OW24052   0.807   3.566   3.080
 7718SOL    HW124053   0.766   3.625   3.149
 7718SOL    HW224054   0.837   3.481   3.122
 7719SOL     OW24055   1.914   5.572   4.947
 7719SOL    HW124056   1.840   5.535   5.004
 7719SOL    HW224057   1.896   5.549   4.851
 7720SOL     OW24058   4.648   1.382   6.567
 7720SOL    HW124059   4.593   1.359   6.648
 7720SOL    HW224060   4.706   1.304   6.543
 7721SOL     OW24061   7.017   6.986   2.549
 7721SOL    HW124062   7.009   6.948   2.457
 7721SOL    HW224063   6.934   0.017   2.572
 7722SOL     OW24064   1.171   5.831   3.848
 7722SOL    HW124065   1.106   5.756   3.851
 7722SOL    HW224066   1.155   5.886   3.766
 7723SOL     OW24067   4.625   3.477   6.796
 7723SOL    HW124068   4.713   3.467   6.842
 7723SOL    HW224069   4.638   3.473   6.697
 7724SOL     OW24070   2.005   3.800   0.873
 7724SOL    HW124071   1.910   3.771   0.887
 7724SOL    HW224072   2.059   3.775   0.953
 7725SOL     OW24073   5.643   2.714   4.552
 7725SOL    HW124074   5.693   2.674   4.629
 7725SOL    HW224075   5.673   2.672   4.467
 7726SOL     OW24076   1.233   3.155   6.062
 7726SOL    HW124077   1.240   3.055   6.061
 7726SOL    HW224078   1.300   3.194   5.999
 7727SOL     OW24079   4.043   1.098   2.092
 7727SOL    HW124080   4.122   1.148   2.055
 7727SOL    HW224081   3.984   1.162   2.142
 7728SOL     OW24082   2.202   3.914   4.593
 7728SOL    HW124083   2.195   3.973   4.673
 7728SOL    HW224084   2.199   3.970   4.510
 7729SOL     OW24085   6.412   1.369   2.920
 7729SOL    HW124086   6.365   1.412   2.998
 7729SOL    HW224087   6.358   1.291   2.888
 7730SOL     OW24088   6.553   4.419   5.007
 7730SOL    HW124089   6.551   4.423   5.106
 7730SOL    HW224090   6.479   4.359   4.975
 7731SOL     OW24091   6.565   6.770   6.299
 7731SOL    HW124092   6.613   6.683   6.295
 7731SOL    HW224093   6.622   6.837   6.346
 7732SOL     OW24094   3.783   0.132   6.498
 7732SOL    HW124095   3.776   0.105   6.402
 7732SOL    HW224096   3.692   0.150   6.534
 7733SOL     OW24097   6.446   5.424   1.712
 7733SOL    HW124098   6.524   5.439   1.652
 7733SOL    HW224099   6.412   5.331   1.700
 7734SOL     OW24100   3.513   4.033   3.683
 7734SOL    HW124101   3.425   4.080   3.672
 7734SOL    HW224102   3.514   3.984   3.770
 7735SOL     OW24103   0.648   6.759   0.992
 7735SOL    HW124104   0.690   6.669   1.010
 7735SOL    HW224105   0.677   6.791   0.901
 7736SOL     OW24106   1.358   2.706   0.076
 7736SOL    HW124107   1.282   2.766   0.049
 7736SOL    HW224108   1.323   2.634   0.136
 7737SOL     OW24109   4.473   4.158   0.099
 7737SOL    HW124110   4.557   4.197   0.136
 7737SOL    HW224111   4.471   4.171   7.020
 7738SOL     OW24112   2.173   0.620   5.262
 7738SOL    HW124113   2.110   0.683   5.308
 7738SOL    HW224114   2.267   0.639   5.291
 7739SOL     OW24115   2.103   2.039   0.699
 7739SOL    HW124116   2.152   2.054   0.784
 7739SOL    HW224117   2.130   2.108   0.632
 7740SOL     OW24118   2.039   0.582   4.778
 7740SOL    HW124119   2.083   0.542   4.858
 7740SOL    HW224120   2.048   0.682   4.781
 7741SOL     OW24121   0.726   4.786   6.119
 7741SOL    HW124122   0.674   4.800   6.035
 7741SOL    HW224123   0.823   4.784   6.099
 7742SOL     OW24124   4.536   2.163   3.954
 7742SOL    HW124125   4.584   2.154   3.867
 7742SOL    HW224126   4.493   2.252   3.960
 7743SOL     OW24127   4.078   1.814   6.062
 7743SOL    HW124128   4.055   1.720   6.084
 7743SOL    HW224129   4.020   1.876   6.115
 7744SOL     OW24130   1.465   6.627   4.690
 7744SOL    HW124131   1.512   6.672   4.766
 7744SOL    HW224132   1.513   6.647   4.604
 7745SOL     OW24133   3.420   6.741   0.808
 7745SOL    HW124134   3.371   6.823   0.778
 7745SOL    HW224135   3.391   6.716   0.900
 7746SOL     OW24136   0.928   5.771   1.370
 7746SOL    HW124137   0.881   5.760   1.282
 7746SOL    HW224138   0.862   5.796   1.440
 7747SOL     OW24139   0.421   5.867   1.123
 7747SOL    HW124140   0.389   5.775   1.143
 7747SOL    HW224141   0.497   5.863   1.058
 7748SOL     OW24142   4.559   1.920   6.045
 7748SOL    HW124143   4.650   1.912   6.005
 7748SOL    HW224144   4.542   2.015   6.070
 7749SOL     OW24145   4.011   3.885   3.450
 7749SOL    HW124146   3.991   3.898   3.353
 7749SOL    HW224147   4.094   3.831   3.461
 7750SOL     OW24148   5.251   4.602   5.414
 7750SOL    HW124149   5.299   4.652   5.486
 7750SOL    HW224150   5.168   4.560   5.453
 7751SOL     OW24151   0.053   1.762   4.332
 7751SOL    HW124152   0.119   1.834   4.347
 7751SOL    HW224153   0.002   1.744   4.416
 7752SOL     OW24154   6.198   5.317   5.226
 7752SOL    HW124155   6.261   5.356   5.292
 7752SOL    HW224156   6.235   5.230   5.192
 7753SOL     OW24157   2.733   0.861   5.070
 7753SOL    HW124158   2.744   0.936   5.136
 7753SOL    HW224159   2.636   0.836   5.063
 7754SOL     OW24160   6.443   0.758   1.566
 7754SOL    HW124161   6.478   0.813   1.642
 7754SOL    HW224162   6.371   0.808   1.518
 7755SOL     OW24163   1.114   5.921   5.267
 7755SOL    HW124164   1.124   5.860   5.346
 7755SOL    HW224165   1.074   5.870   5.191
 7756SOL     OW24166   3.845   5.759   3.125
 7756SOL    HW124167   3.804   5.749   3.034
 7756SOL    HW224168   3.774   5.747   3.195
 7757SOL     OW24169   4.000   6.514   5.993
 7757SOL    HW124170   3.988   6.557   5.904
 7757SOL    HW224171   3.927   6.446   6.007
 7758SOL     OW24172   3.161   2.630   6.399
 7758SOL    HW124173   3.075   2.583   6.420
 7758SOL    HW224174   3.169   2.711   6.456
 7759SOL     OW24175   2.115   0.960   4.973
 7759SOL    HW124176   2.103   0.997   5.065
 7759SOL    HW224177   2.157   1.030   4.914
 7760SOL     OW24178   5.153   1.719   3.517
 7760SOL    HW124179   5.159   1.675   3.428
 7760SOL    HW224180   5.108   1.657   3.582
 7761SOL     OW24181   4.160   0.005   6.331
 7761SOL    HW124182   4.123   0.056   6.253
 7761SOL    HW224183   4.087   7.012   6.399
 7762SOL     OW24184   2.229   2.063   0.939
 7762SOL    HW124185   2.268   2.156   0.943
 7762SOL    HW224186   2.209   2.032   1.032
 7763SOL     OW24187   2.359   2.319   0.948
 7763SOL    HW124188   2.282   2.383   0.941
 7763SOL    HW224189   2.424   2.352   1.017
 7764SOL     OW24190   4.057   3.534   2.787
 7764SOL    HW124191   4.123   3.501   2.720
 7764SOL    HW224192   3.972   3.481   2.779
 7765SOL     OW24193   6.857   1.922   2.332
 7765SOL    HW124194   6.926   1.918   2.405
 7765SOL    HW224195   6.793   1.997   2.350
 7766SOL     OW24196   6.836   3.537   0.062
 7766SOL    HW124197   6.789   3.618   0.029
 7766SOL    HW224198   6.837   3.538   0.162
 7767SOL     OW24199   5.842   4.181   5.316
 7767SOL    HW124200   5.938   4.192   5.344
 7767SOL    HW224201   5.825   4.237   5.234
 7768SOL     OW24202   4.027   5.637   2.035
 7768SOL    HW124203   4.124   5.656   2.055
 7768SOL    HW224204   3.980   5.723   2.015
 7769SOL     OW24205   6.165   1.697   1.883
 7769SOL    HW124206   6.170   1.613   1.830
 7769SOL    HW224207   6.248   1.752   1.866
 7770SOL     OW24208   3.453   5.622   1.691
 7770SOL    HW124209   3.421   5.704   1.642
 7770SOL    HW224210   3.519   5.573   1.635
 7771SOL     OW24211   1.994   1.576   4.588
 7771SOL    HW124212   2.084   1.605   4.620
 7771SOL    HW224213   1.967   1.492   4.634
 7772SOL     OW24214   5.475   1.038   4.730
 7772SOL    HW124215   5.386   0.994   4.742
 7772SOL    HW224216   5.490   1.104   4.804
 7773SOL     OW24217   3.989   4.408   5.303
 7773SOL    HW124218   4.081   4.447   5.305
 7773SOL    HW224219   3.926   4.472   5.258
 7774SOL     OW24220   4.700   1.769   6.261
 7774SOL    HW124221   4.736   1.680   6.232
 7774SOL    HW224222   4.664   1.818   6.182
 7775SOL     OW24223   3.112   0.051   2.192
 7775SOL    HW124224   3.168   6.997   2.228
 7775SOL    HW224225   3.170   0.130   2.170
 7776SOL     OW24226   3.735   3.571   0.725
 7776SOL    HW124227   3.681   3.555   0.807
 7776SOL    HW224228   3.681   3.624   0.659
 7777SOL     OW24229   1.497   0.704   6.828
 7777SOL    HW124230   1.552   0.620   6.825
 7777SOL    HW224231   1.556   0.783   6.815
 7778SOL     OW24232   5.495   0.990   1.146
 7778SOL    HW124233   5.445   1.076   1.137
 7778SOL    HW224234   5.436   0.914   1.117
 7779SOL     OW24235   3.583   3.444   6.975
 7779SOL    HW124236   3.624   3.442   6.884
 7779SOL    HW224237   3.635   3.385   0.017
 7780SOL     OW24238   1.186   0.138   4.717
 7780SOL    HW124239   1.171   0.175   4.808
 7780SOL    HW224240   1.099   0.129   4.669
 7781SOL     OW24241   1.619   5.010   5.032
 7781SOL    HW124242   1.705   4.965   5.009
 7781SOL    HW224243   1.638   5.094   5.083
 7782SOL     OW24244   3.262   4.442   6.780
 7782SOL    HW124245   3.179   4.410   6.735
 7782SOL    HW224246   3.329   4.368   6.782
 7783SOL     OW24247   3.277   5.300   6.349
 7783SOL    HW124248   3.312   5.219   6.301
 7783SOL    HW224249   3.183   5.317   6.322
 7784SOL     OW24250   0.076   2.932   6.921
 7784SOL    HW124251   0.153   2.940   6.983
 7784SOL    HW224252   0.010   3.006   6.940
 7785SOL     OW24253   2.331   5.830   4.539
 7785SOL    HW124254   2.288   5.751   4.583
 7785SOL    HW224255   2.419   5.848   4.583
 7786SOL     OW24256   3.229   4.116   4.328
 7786SOL    HW124257   3.315   4.136   4.375
 7786SOL    HW224258   3.166   4.071   4.392
 7787SOL     OW24259   2.714   2.521   5.447
 7787SOL    HW124260   2.755   2.610   5.425
 7787SOL    HW224261   2.763   2.480   5.523
 7788SOL     OW24262   0.717   1.300   0.398
 7788SOL    HW124263   0.734   1.269   0.305
 7788SOL    HW224264   0.733   1.399   0.404
 7789SOL     OW24265   2.067   0.099   1.335
 7789SOL    HW124266   2.116   0.183   1.358
 7789SOL    HW224267   2.126   0.020   1.352
 7790SOL     OW24268   6.613   3.838   2.817
 7790SOL    HW124269   6.658   3.895   2.886
 7790SOL    HW224270   6.640   3.869   2.726
 7791SOL     OW24271   1.260   4.740   4.709
 7791SOL    HW124272   1.206   4.702   4.784
 7791SOL    HW224273   1.216   4.824   4.676
 7792SOL     OW24274   2.777   5.630   6.086
 7792SOL    HW124275   2.819   5.604   5.999
 7792SOL    HW224276   2.681   5.653   6.071
 7793SOL     OW24277   0.565   0.544   6.544
 7793SOL    HW124278   0.661   0.538   6.570
 7793SOL    HW224279   0.511   0.578   6.622
 7794SOL     OW24280   5.221   5.837   3.836
 7794SOL    HW124281   5.277   5.755   3.843
 7794SOL    HW224282   5.272   5.909   3.790
 7795SOL     OW24283   1.922   5.205   5.303
 7795SOL    HW124284   2.002   5.264   5.288
 7795SOL    HW224285   1.850   5.228   5.238
 7796SOL     OW24286   3.896   3.391   3.680
 7796SOL    HW124287   3.959   3.321   3.646
 7796SOL    HW224288   3.948   3.466   3.720
 7797SOL     OW24289   1.035   0.426   2.777
 7797SOL    HW124290   1.113   0.368   2.750
 7797SOL    HW224291   0.970   0.430   2.701
 7798SOL     OW24292   4.341   5.880   6.593
 7798SOL    HW124293   4.363   5.938   6.672
 7798SOL    HW224294   4.369   5.786   6.612
 7799SOL     OW24295   6.256   4.767   1.333
 7799SOL    HW124296   6.353   4.743   1.345
 7799SOL    HW224297   6.200   4.688   1.356
 7800SOL     OW24298   0.749   6.027   2.176
 7800SOL    HW124299   0.814   6.068   2.240
 7800SOL    HW224300   0.656   6.037   2.212
 7801SOL     OW24301   3.912   2.577   6.183
 7801SOL    HW124302   3.995   2.618   6.222
 7801SOL    HW224303   3.929   2.480   6.165
 7802SOL     OW24304   5.643   2.158   1.242
 7802SOL    HW124305   5.727   2.152   1.188
 7802SOL    HW224306   5.660   2.215   1.323
 7803SOL     OW24307   3.572   4.252   5.511
 7803SOL    HW124308   3.567   4.348   5.481
 7803SOL    HW224309   3.666   4.219   5.499
 7804SOL     OW24310   5.013   1.640   6.326
 7804SOL    HW124311   4.920   1.606   6.341
 7804SOL    HW224312   5.067   1.571   6.278
 7805SOL     OW24313   5.138   3.880   1.874
 7805SOL    HW124314   5.047   3.920   1.877
 7805SOL    HW224315   5.155   3.829   1.959
 7806SOL     OW24316   4.927   2.985   6.582
 7806SOL    HW124317   4.865   2.933   6.524
 7806SOL    HW224318   4.912   3.083   6.568
 7807SOL     OW24319   0.280   3.956   6.636
 7807SOL    HW124320   0.199   3.962   6.694
 7807SOL    HW224321   0.253   3.948   6.540
 7808SOL     OW24322   0.692   1.698   4.891
 7808SOL    HW124323   0.683   1.798   4.894
 7808SOL    HW224324   0.601   1.657   4.896
 7809SOL     OW24325   1.994   5.700   5.959
 7809SOL    HW124326   1.938   5.620   5.936
 7809SOL    HW224327   2.090   5.672   5.962
 7810SOL     OW24328   2.555   1.279   6.986
 7810SOL    HW124329   2.474   1.257   0.021
 7810SOL    HW224330   2.635   1.284   0.025
 7811SOL     OW24331   6.995   4.270   4.230
 7811SOL    HW124332   0.068   4.251   4.202
 7811SOL    HW224333   6.969   4.362   4.201
 7812SOL     OW24334   0.840   1.466   3.761
 7812SOL    HW124335   0.823   1.515   3.847
 7812SOL    HW224336   0.894   1.524   3.700
 7813SOL     OW24337   6.359   2.649   0.778
 7813SOL    HW124338   6.369   2.650   0.678
 7813SOL    HW224339   6.262   2.649   0.802
 7814SOL     OW24340   1.824   3.493   3.812
 7814SOL    HW124341   1.834   3.418   3.878
 7814SOL    HW224342   1.729   3.497   3.780
 7815SOL     OW24343   6.736   1.731   6.018
 7815SOL    HW124344   6.727   1.825   6.049
 7815SOL    HW224345   6.649   1.683   6.031
 7816SOL     OW24346   1.227   4.007   5.061
 7816SOL    HW124347   1.145   3.954   5.078
 7816SOL    HW224348   1.204   4.091   5.012
 7817SOL     OW24349   5.249   3.525   4.956
 7817SOL    HW124350   5.312   3.587   4.909
 7817SOL    HW224351   5.290   3.434   4.963
 7818SOL     OW24352   5.293   5.319   2.653
 7818SOL    HW124353   5.322   5.320   2.558
 7818SOL    HW224354   5.266   5.226   2.679
 7819SOL     OW24355   6.707   1.231   1.705
 7819SOL    HW124356   6.748   1.176   1.632
 7819SOL    HW224357   6.608   1.230   1.696
 7820SOL     OW24358   2.023   0.170   6.263
 7820SOL    HW124359   1.964   0.195   6.340
 7820SOL    HW224360   2.016   0.071   6.247
 7821SOL     OW24361   3.001   5.479   1.474
 7821SOL    HW124362   2.962   5.570   1.488
 7821SOL    HW224363   2.995   5.426   1.559
 7822SOL     OW24364   1.469   5.660   5.257
 7822SOL    HW124365   1.451   5.758   5.254
 7822SOL    HW224366   1.537   5.640   5.327
 7823SOL     OW24367   1.428   4.336   5.089
 7823SOL    HW124368   1.358   4.308   5.025
 7823SOL    HW224369   1.405   4.304   5.181
 7824SOL     OW24370   0.488   3.418   5.607
 7824SOL    HW124371   0.417   3.485   5.630
 7824SOL    HW224372   0.574   3.445   5.650
 7825SOL     OW24373   3.155   1.176   6.636
 7825SOL    HW124374   3.248   1.164   6.602
 7825SOL    HW224375   3.158   1.214   6.729
 7826SOL     OW24376   0.697   3.280   5.847
 7826SOL    HW124377   0.712   3.182   5.854
 7826SOL    HW224378   0.646   3.312   5.927
 7827SOL     OW24379   6.665   5.557   4.860
 7827SOL    HW124380   6.758   5.539   4.830
 7827SOL    HW224381   6.604   5.562   4.781
 7828SOL     OW24382   0.428   4.885   0.295
 7828SOL    HW124383   0.333   4.890   0.325
 7828SOL    HW224384   0.489   4.909   0.371
 7829SOL     OW24385   3.797   3.296   0.808
 7829SOL    HW124386   3.815   3.382   0.760
 7829SOL    HW224387   3.704   3.297   0.844
 7830SOL     OW24388   2.490   5.158   3.653
 7830SOL    HW124389   2.404   5.203   3.677
 7830SOL    HW224390   2.496   5.147   3.554
 7831SOL     OW24391   1.691   0.494   6.801
 7831SOL    HW124392   1.661   0.399   6.792
 7831SOL    HW224393   1.789   0.501   6.782
 7832SOL     OW24394   6.201   1.079   4.391
 7832SOL    HW124395   6.171   1.043   4.480
 7832SOL    HW224396   6.151   1.163   4.370
 7833SOL     OW24397   1.705   0.460   3.151
 7833SOL    HW124398   1.768   0.530   3.186
 7833SOL    HW224399   1.707   0.462   3.051
 7834SOL     OW24400   6.180   3.558   5.240
 7834SOL    HW124401   6.087   3.555   5.277
 7834SOL    HW224402   6.231   3.478   5.269
 7835SOL     OW24403   4.221   2.521   5.531
 7835SOL    HW124404   4.286   2.499   5.458
 7835SOL    HW224405   4.173   2.439   5.559
 7836SOL     OW24406   3.357   3.464   3.847
 7836SOL    HW124407   3.275   3.467   3.903
 7836SOL    HW224408   3.331   3.463   3.750
 7837SOL     OW24409   0.012   5.828   0.221
 7837SOL    HW124410   0.071   5.860   0.147
 7837SOL    HW224411   6.966   5.900   0.245
 7838SOL     OW24412   4.528   5.756   2.610
 7838SOL    HW124413   4.590   5.818   2.562
 7838SOL    HW224414   4.444   5.805   2.634
 7839SOL     OW24415   6.253   2.752   3.985
 7839SOL    HW124416   6.165   2.758   3.939
 7839SOL    HW224417   6.241   2.771   4.083
 7840SOL     OW24418   1.814   3.155   4.318
 7840SOL    HW124419   1.911   3.140   4.335
 7840SOL    HW224420   1.782   3.233   4.373
 7841SOL     OW24421   3.536   1.757   6.804
 7841SOL    HW124422   3.509   1.851   6.825
 7841SOL    HW224423   3.627   1.757   6.762
 7842SOL     OW24424   0.981   0.679   1.567
 7842SOL    HW124425   0.920   0.613   1.523
 7842SOL    HW224426   1.065   0.687   1.513
 7843SOL     OW24427   0.025   6.294   3.213
 7843SOL    HW124428   6.962   6.239   3.217
 7843SOL    HW224429   0.047   6.315   3.118
 7844SOL     OW24430   3.938   0.830   2.507
 7844SOL    HW124431   3.855   0.782   2.480
 7844SOL    HW224432   3.975   0.879   2.429
 7845SOL     OW24433   7.011   2.801   0.870
 7845SOL    HW124434   6.979   2.856   0.794
 7845SOL    HW224435   6.940   2.797   0.941
 7846SOL     OW24436   1.138   1.147   0.529
 7846SOL    HW124437   1.208   1.096   0.579
 7846SOL    HW224438   1.077   1.192   0.594
 7847SOL     OW24439   5.222   4.355   5.716
 7847SOL    HW124440   5.234   4.410   5.798
 7847SOL    HW224441   5.200   4.261   5.741
 7848SOL     OW24442   3.838   4.411   1.165
 7848SOL    HW124443   3.832   4.312   1.152
 7848SOL    HW224444   3.812   4.457   1.080
 7849SOL     OW24445   4.453   4.864   6.791
 7849SOL    HW124446   4.533   4.916   6.761
 7849SOL    HW224447   4.434   4.886   6.887
 7850SOL     OW24448   0.053   1.206   4.043
 7850SOL    HW124449   0.134   1.210   4.102
 7850SOL    HW224450   6.994   1.240   4.092
 7851SOL     OW24451   0.062   4.680   1.200
 7851SOL    HW124452   0.003   4.736   1.143
 7851SOL    HW224453   0.020   4.590   1.213
 7852SOL     OW24454   1.184   2.645   6.580
 7852SOL    HW124455   1.176   2.569   6.515
 7852SOL    HW224456   1.259   2.704   6.553
 7853SOL     OW24457   4.088   2.981   1.785
 7853SOL    HW124458   4.046   3.067   1.756
 7853SOL    HW224459   4.185   2.982   1.763
 7854SOL     OW24460   4.794   1.824   6.875
 7854SOL    HW124461   4.720   1.811   6.940
 7854SOL    HW224462   4.812   1.739   6.827
 7855SOL     OW24463   5.031   6.861   4.353
 7855SOL    HW124464   4.985   6.799   4.290
 7855SOL    HW224465   5.125   6.829   4.368
 7856SOL     OW24466   2.038   6.632   4.462
 7856SOL    HW124467   2.131   6.598   4.471
 7856SOL    HW224468   2.020   6.654   4.366
 7857SOL     OW24469   6.090   4.563   1.378
 7857SOL    HW124470   6.043   4.486   1.334
 7857SOL    HW224471   6.097   4.546   1.476
 7858SOL     OW24472   6.656   4.580   6.433
 7858SOL    HW124473   6.642   4.651   6.503
 7858SOL    HW224474   6.754   4.563   6.422
 7859SOL     OW24475   5.268   1.929   0.683
 7859SOL    HW124476   5.247   1.904   0.589
 7859SOL    HW224477   5.274   2.029   0.690
 7860SOL     OW24478   2.692   1.753   4.686
 7860SOL    HW124479   2.639   1.669   4.678
 7860SOL    HW224480   2.781   1.741   4.644
 7861SOL     OW24481   2.233   6.770   0.371
 7861SOL    HW124482   2.303   6.737   0.435
 7861SOL    HW224483   2.196   6.692   0.320
 7862SOL     OW24484   1.988   5.577   6.858
 7862SOL    HW124485   2.031   5.613   6.940
 7862SOL    HW224486   2.053   5.579   6.782
 7863SOL     OW24487   1.023   4.201   3.529
 7863SOL    HW124488   0.956   4.220   3.600
 7863SOL    HW224489   0.987   4.133   3.466
 7864SOL     OW24490   1.993   6.364   5.566
 7864SOL    HW124491   2.085   6.359   5.528
 7864SOL    HW224492   1.953   6.272   5.568
 7865SOL     OW24493   5.338   4.262   3.128
 7865SOL    HW124494   5.400   4.228   3.058
 7865SOL    HW224495   5.356   4.359   3.144
 7866SOL     OW24496   0.488   0.946   6.047
 7866SOL    HW124497   0.456   0.903   5.962
 7866SOL    HW224498   0.497   1.045   6.032
 7867SOL     OW24499   4.558   4.919   3.613
 7867SOL    HW124500   4.567   5.004   3.560
 7867SOL    HW224501   4.572   4.939   3.710
 7868SOL     OW24502   2.859   6.479   1.377
 7868SOL    HW124503   2.884   6.443   1.467
 7868SOL    HW224504   2.889   6.416   1.306
 7869SOL     OW24505   5.975   4.575   6.722
 7869SOL    HW124506   6.073   4.591   6.712
 7869SOL    HW224507   5.929   4.594   6.635
 7870SOL     OW24508   5.686   6.171   4.348
 7870SOL    HW124509   5.764   6.108   4.341
 7870SOL    HW224510   5.601   6.121   4.334
 7871SOL     OW24511   4.982   1.483   0.273
 7871SOL    HW124512   5.021   1.554   0.332
 7871SOL    HW224513   4.934   1.416   0.329
 7872SOL     OW24514   1.691   5.672   3.131
 7872SOL    HW124515   1.748   5.748   3.099
 7872SOL    HW224516   1.739   5.624   3.205
 7873SOL     OW24517   4.863   2.087   6.883
 7873SOL    HW124518   4.956   2.102   6.917
 7873SOL    HW224519   4.843   1.989   6.883
 7874SOL     OW24520   6.065   2.611   0.804
 7874SOL    HW124521   6.031   2.549   0.875
 7874SOL    HW224522   6.001   2.687   0.793
 7875SOL     OW24523   5.936   4.473   5.958
 7875SOL    HW124524   5.918   4.555   5.903
 7875SOL    HW224525   5.992   4.410   5.904
 7876SOL     OW24526   0.972   0.098   3.948
 7876SOL    HW124527   1.017   0.109   4.037
 7876SOL    HW224528   0.895   0.162   3.941
 7877SOL     OW24529   0.233   3.073   3.592
 7877SOL    HW124530   0.176   2.992   3.575
 7877SOL    HW224531   0.185   3.155   3.561
 7878SOL     OW24532   4.308   5.342   3.199
 7878SOL    HW124533   4.313   5.440   3.216
 7878SOL    HW224534   4.298   5.325   3.101
 7879SOL     OW24535   3.014   4.853   3.020
 7879SOL    HW124536   2.991   4.844   3.117
 7879SOL    HW224537   2.954   4.795   2.966
 7880SOL     OW24538   1.106   4.471   2.080
 7880SOL    HW124539   1.095   4.557   2.030
 7880SOL    HW224540   1.044   4.470   2.159
 7881SOL     OW24541   4.718   4.117   3.540
 7881SOL    HW124542   4.733   4.118   3.441
 7881SOL    HW224543   4.634   4.168   3.561
 7882SOL     OW24544   0.963   3.466   0.035
 7882SOL    HW124545   0.894   3.394   0.049
 7882SOL    HW224546   0.990   3.503   0.123
 7883SOL     OW24547   0.504   0.876   5.290
 7883SOL    HW124548   0.573   0.875   5.218
 7883SOL    HW224549   0.519   0.800   5.353
 7884SOL     OW24550   1.132   2.548   4.739
 7884SOL    HW124551   1.180   2.635   4.732
 7884SOL    HW224552   1.072   2.535   4.660
 7885SOL     OW24553   6.585   6.221   6.545
 7885SOL    HW124554   6.543   6.178   6.625
 7885SOL    HW224555   6.522   6.289   6.507
 7886SOL     OW24556   5.143   4.445   0.627
 7886SOL    HW124557   5.088   4.504   0.568
 7886SOL    HW224558   5.236   4.480   0.634
 7887SOL     OW24559   4.878   2.740   6.152
 7887SOL    HW124560   4.901   2.662   6.210
 7887SOL    HW224561   4.862   2.821   6.209
 7888SOL     OW24562   5.553   6.841   4.648
 7888SOL    HW124563   5.578   6.758   4.698
 7888SOL    HW224564   5.565   6.826   4.550
 7889SOL     OW24565   0.598   4.982   2.685
 7889SOL    HW124566   0.613   5.055   2.617
 7889SOL    HW224567   0.561   5.022   2.769
 7890SOL     OW24568   2.078   2.735   2.545
 7890SOL    HW124569   2.049   2.747   2.450
 7890SOL    HW224570   2.177   2.748   2.551
 7891SOL     OW24571   1.053   4.893   2.830
 7891SOL    HW124572   1.074   4.804   2.872
 7891SOL    HW224573   1.135   4.927   2.783
 7892SOL     OW24574   2.172   2.555   6.171
 7892SOL    HW124575   2.248   2.493   6.153
 7892SOL    HW224576   2.151   2.607   6.088
 7893SOL     OW24577   6.219   6.416   1.711
 7893SOL    HW124578   6.128   6.451   1.691
 7893SOL    HW224579   6.278   6.491   1.741
 7894SOL     OW24580   2.803   0.116   1.708
 7894SOL    HW124581   2.845   0.026   1.696
 7894SOL    HW224582   2.729   0.110   1.774
 7895SOL     OW24583   6.808   1.217   3.354
 7895SOL    HW124584   6.839   1.186   3.264
 7895SOL    HW224585   6.797   1.139   3.415
 7896SOL     OW24586   4.273   1.498   6.272
 7896SOL    HW124587   4.292   1.402   6.253
 7896SOL    HW224588   4.352   1.541   6.315
 7897SOL     OW24589   2.842   2.837   6.486
 7897SOL    HW124590   2.857   2.827   6.388
 7897SOL    HW224591   2.790   2.759   6.520
 7898SOL     OW24592   4.439   2.328   3.371
 7898SOL    HW124593   4.380   2.256   3.407
 7898SOL    HW224594   4.509   2.351   3.439
 7899SOL     OW24595   4.620   1.137   3.261
 7899SOL    HW124596   4.692   1.201   3.235
 7899SOL    HW224597   4.558   1.124   3.184
 7900SOL     OW24598   1.352   5.047   0.934
 7900SOL    HW124599   1.351   5.138   0.974
 7900SOL    HW224600   1.400   4.984   0.995
 7901SOL     OW24601   5.689   5.359   0.919
 7901SOL    HW124602   5.621   5.318   0.980
 7901SOL    HW224603   5.715   5.292   0.849
 7902SOL     OW24604   4.956   5.073   6.366
 7902SOL    HW124605   5.027   5.138   6.340
 7902SOL    HW224606   4.941   5.008   6.291
 7903SOL     OW24607   0.298   2.684   0.157
 7903SOL    HW124608   0.252   2.770   0.137
 7903SOL    HW224609   0.360   2.660   0.082
 7904SOL     OW24610   6.643   1.391   2.522
 7904SOL    HW124611   6.650   1.424   2.428
 7904SOL    HW224612   6.698   1.308   2.533
 7905SOL     OW24613   2.727   1.952   1.065
 7905SOL    HW124614   2.660   1.893   1.110
 7905SOL    HW224615   2.680   2.012   0.999
 7906SOL     OW24616   0.266   5.461   0.200
 7906SOL    HW124617   0.353   5.452   0.152
 7906SOL    HW224618   0.224   5.371   0.211
 7907SOL     OW24619   5.828   2.887   1.994
 7907SOL    HW124620   5.925   2.911   1.998
 7907SOL    HW224621   5.798   2.854   2.083
 7908SOL     OW24622   6.165   1.630   2.983
 7908SOL    HW124623   6.221   1.660   3.061
 7908SOL    HW224624   6.087   1.578   3.017
 7909SOL     OW24625   4.626   5.637   5.341
 7909SOL    HW124626   4.580   5.724   5.324
 7909SOL    HW224627   4.557   5.566   5.355
 7910SOL     OW24628   5.691   3.876   6.000
 7910SOL    HW124629   5.756   3.812   5.959
 7910SOL    HW224630   5.724   3.970   5.988
 7911SOL     OW24631   0.012   4.610   6.989
 7911SOL    HW124632   0.104   4.618   0.008
 7911SOL    HW224633   6.980   4.693   7.008
 7912SOL     OW24634   0.132   5.183   5.585
 7912SOL    HW124635   0.106   5.136   5.670
 7912SOL    HW224636   0.078   5.267   5.577
 7913SOL     OW24637   0.860   6.232   6.688
 7913SOL    HW124638   0.792   6.239   6.615
 7913SOL    HW224639   0.883   6.324   6.721
 7914SOL     OW24640   6.986   3.343   2.216
 7914SOL    HW124641   7.009   3.439   2.232
 7914SOL    HW224642   0.047   3.287   2.232
 7915SOL     OW24643   4.355   0.767   2.011
 7915SOL    HW124644   4.297   0.781   1.931
 7915SOL    HW224645   4.419   0.843   2.020
 7916SOL     OW24646   4.517   3.672   5.577
 7916SOL    HW124647   4.539   3.676   5.674
 7916SOL    HW224648   4.514   3.576   5.548
 7917SOL     OW24649   3.587   4.077   3.285
 7917SOL    HW124650   3.641   4.103   3.365
 7917SOL    HW224651   3.498   4.043   3.315
 7918SOL     OW24652   6.169   2.353   2.040
 7918SOL    HW124653   6.137   2.412   1.966
 7918SOL    HW224654   6.160   2.258   2.012
 7919SOL     OW24655   6.202   4.683   2.117
 7919SOL    HW124656   6.210   4.726   2.027
 7919SOL    HW224657   6.157   4.746   2.180
 7920SOL     OW24658   0.519   6.295   2.152
 7920SOL    HW124659   0.479   6.370   2.204
 7920SOL    HW224660   0.489   6.300   2.057
 7921SOL     OW24661   2.838   6.462   2.102
 7921SOL    HW124662   2.891   6.418   2.175
 7921SOL    HW224663   2.857   6.416   2.016
 7922SOL     OW24664   0.786   4.919   6.342
 7922SOL    HW124665   0.827   4.998   6.297
 7922SOL    HW224666   0.771   4.847   6.274
 7923SOL     OW24667   0.900   1.765   2.974
 7923SOL    HW124668   0.954   1.826   3.033
 7923SOL    HW224669   0.904   1.672   3.010
 7924SOL     OW24670   2.588   1.177   3.609
 7924SOL    HW124671   2.603   1.220   3.698
 7924SOL    HW224672   2.523   1.232   3.556
 7925SOL     OW24673   0.517   1.198   6.369
 7925SOL    HW124674   0.572   1.194   6.452
 7925SOL    HW224675   0.476   1.109   6.352
 7926SOL     OW24676   3.418   6.956   1.675
 7926SOL    HW124677   3.358   6.994   1.744
 7926SOL    HW224678   3.512   6.988   1.690
 7927SOL     OW24679   4.971   4.382   4.362
 7927SOL    HW124680   4.884   4.429   4.377
 7927SOL    HW224681   4.988   4.373   4.264
 7928SOL     OW24682   1.125   4.836   6.945
 7928SOL    HW124683   1.061   4.910   6.966
 7928SOL    HW224684   1.088   4.750   6.981
 7929SOL     OW24685   3.982   3.966   4.458
 7929SOL    HW124686   4.043   3.946   4.381
 7929SOL    HW224687   3.990   3.893   4.526
 7930SOL     OW24688   5.380   5.973   4.058
 7930SOL    HW124689   5.372   6.054   4.000
 7930SOL    HW224690   5.433   5.903   4.011
 7931SOL     OW24691   2.199   3.166   0.056
 7931SOL    HW124692   2.184   3.158   6.978
 7931SOL    HW224693   2.283   3.117   0.081
 7932SOL     OW24694   3.126   6.607   1.193
 7932SOL    HW124695   3.106   6.674   1.265
 7932SOL    HW224696   3.217   6.624   1.156
 7933SOL     OW24697   1.201   1.151   6.163
 7933SOL    HW124698   1.130   1.214   6.195
 7933SOL    HW224699   1.271   1.201   6.113
 7934SOL     OW24700   4.049   2.903   5.590
 7934SOL    HW124701   4.117   2.840   5.628
 7934SOL    HW224702   4.063   2.994   5.628
 7935SOL     OW24703   4.947   6.042   1.475
 7935SOL    HW124704   5.004   6.119   1.504
 7935SOL    HW224705   4.911   5.994   1.555
 7936SOL     OW24706   4.349   5.772   3.006
 7936SOL    HW124707   4.320   5.680   2.979
 7936SOL    HW224708   4.269   5.828   3.027
 7937SOL     OW24709   6.497   6.853   6.049
 7937SOL    HW124710   6.398   6.862   6.062
 7937SOL    HW224711   6.539   6.816   6.132
 7938SOL     OW24712   5.869   4.815   4.168
 7938SOL    HW124713   5.906   4.846   4.255
 7938SOL    HW224714   5.769   4.808   4.174
 7939SOL     OW24715   0.464   0.041   4.580
 7939SOL    HW124716   0.374   0.044   4.537
 7939SOL    HW224717   0.496   6.967   4.586
 7940SOL     OW24718   1.709   5.993   0.641
 7940SOL    HW124719   1.748   6.068   0.589
 7940SOL    HW224720   1.757   5.908   0.619
 7941SOL     OW24721   0.004   0.662   0.475
 7941SOL    HW124722   7.009   0.688   0.571
 7941SOL    HW224723   0.062   0.581   0.472
 7942SOL     OW24724   1.364   1.361   1.068
 7942SOL    HW124725   1.387   1.438   1.127
 7942SOL    HW224726   1.305   1.391   0.994
 7943SOL     OW24727   5.823   1.993   0.068
 7943SOL    HW124728   5.733   1.955   0.089
 7943SOL    HW224729   5.821   2.035   6.997
 7944SOL     OW24730   0.116   3.853   2.424
 7944SOL    HW124731   0.159   3.768   2.391
 7944SOL    HW224732   0.020   3.835   2.444
 7945SOL     OW24733   5.502   6.942   1.083
 7945SOL    HW124734   5.495   0.018   1.058
 7945SOL    HW224735   5.490   6.885   1.001
 7946SOL     OW24736   1.227   1.904   6.212
 7946SOL    HW124737   1.301   1.898   6.280
 7946SOL    HW224738   1.141   1.925   6.258
 7947SOL     OW24739   4.547   4.963   5.807
 7947SOL    HW124740   4.572   5.056   5.832
 7947SOL    HW224741   4.510   4.915   5.887
 7948SOL     OW24742   0.719   4.986   6.629
 7948SOL    HW124743   0.703   4.941   6.541
 7948SOL    HW224744   0.748   4.918   6.696
 7949SOL     OW24745   6.534   3.924   3.970
 7949SOL    HW124746   6.508   3.834   3.935
 7949SOL    HW224747   6.456   3.967   4.014
 7950SOL     OW24748   3.506   4.929   4.296
 7950SOL    HW124749   3.580   4.952   4.232
 7950SOL    HW224750   3.421   4.915   4.245
 7951SOL     OW24751   3.470   3.415   0.670
 7951SOL    HW124752   3.409   3.342   0.701
 7951SOL    HW224753   3.541   3.377   0.611
 7952SOL     OW24754   5.038   5.040   0.038
 7952SOL    HW124755   5.030   5.038   0.138
 7952SOL    HW224756   5.023   4.948   0.002
 7953SOL     OW24757   2.140   3.002   3.208
 7953SOL    HW124758   2.160   3.099   3.222
 7953SOL    HW224759   2.188   2.970   3.127
 7954SOL     OW24760   5.245   5.585   4.668
 7954SOL    HW124761   5.195   5.502   4.693
 7954SOL    HW224762   5.186   5.645   4.615
 7955SOL     OW24763   1.291   0.195   6.247
 7955SOL    HW124764   1.313   0.291   6.269
 7955SOL    HW224765   1.375   0.145   6.229
 7956SOL     OW24766   6.090   0.368   3.863
 7956SOL    HW124767   6.094   0.268   3.864
 7956SOL    HW224768   6.006   0.397   3.818
 7957SOL     OW24769   0.955   2.599   0.997
 7957SOL    HW124770   1.021   2.673   0.992
 7957SOL    HW224771   0.869   2.633   1.035
 7958SOL     OW24772   1.539   5.381   3.371
 7958SOL    HW124773   1.634   5.391   3.343
 7958SOL    HW224774   1.494   5.470   3.369
 7959SOL     OW24775   4.527   4.973   0.678
 7959SOL    HW124776   4.550   5.069   0.692
 7959SOL    HW224777   4.494   4.959   0.585
 7960SOL     OW24778   2.081   2.664   0.744
 7960SOL    HW124779   2.155   2.644   0.808
 7960SOL    HW224780   2.045   2.755   0.763
 7961SOL     OW24781   1.717   5.606   6.813
 7961SOL    HW124782   1.686   5.701   6.813
 7961SOL    HW224783   1.817   5.605   6.820
 7962SOL     OW24784   1.582   0.176   2.250
 7962SOL    HW124785   1.611   0.270   2.268
 7962SOL    HW224786   1.501   0.155   2.306
 7963SOL     OW24787   0.971   6.831   4.766
 7963SOL    HW124788   1.028   6.776   4.705
 7963SOL    HW224789   0.989   6.804   4.861
 7964SOL     OW24790   6.555   5.586   3.493
 7964SOL    HW124791   6.526   5.526   3.419
 7964SOL    HW224792   6.486   5.584   3.566
 7965SOL     OW24793   6.005   2.083   0.557
 7965SOL    HW124794   5.925   2.022   0.561
 7965SOL    HW224795   5.978   2.170   0.516
 7966SOL     OW24796   6.542   6.354   3.616
 7966SOL    HW124797   6.584   6.278   3.666
 7966SOL    HW224798   6.613   6.403   3.566
 7967SOL     OW24799   2.886   6.801   3.268
 7967SOL    HW124800   2.932   6.888   3.249
 7967SOL    HW224801   2.818   6.814   3.340
 7968SOL     OW24802   2.268   0.669   1.313
 7968SOL    HW124803   2.205   0.628   1.379
 7968SOL    HW224804   2.362   0.639   1.333
 7969SOL     OW24805   3.313   1.826   3.486
 7969SOL    HW124806   3.246   1.752   3.486
 7969SOL    HW224807   3.390   1.800   3.427
 7970SOL     OW24808   0.690   4.956   3.236
 7970SOL    HW124809   0.603   4.935   3.192
 7970SOL    HW224810   0.765   4.922   3.180
 7971SOL     OW24811   2.635   1.582   1.886
 7971SOL    HW124812   2.614   1.668   1.932
 7971SOL    HW224813   2.690   1.524   1.947
 7972SOL     OW24814   0.590   5.101   1.756
 7972SOL    HW124815   0.615   5.098   1.659
 7972SOL    HW224816   0.629   5.022   1.803
 7973SOL     OW24817   4.448   2.092   2.722
 7973SOL    HW124818   4.459   2.010   2.666
 7973SOL    HW224819   4.514   2.161   2.694
 7974SOL     OW24820   5.539   6.822   3.934
 7974SOL    HW124821   5.463   6.784   3.880
 7974SOL    HW224822   5.523   6.802   4.031
 7975SOL     OW24823   2.259   0.782   2.758
 7975SOL    HW124824   2.251   0.866   2.812
 7975SOL    HW224825   2.329   0.794   2.688
 7976SOL     OW24826   0.530   6.472   6.155
 7976SOL    HW124827   0.501   6.379   6.131
 7976SOL    HW224828   0.469   6.509   6.225
 7977SOL     OW24829   4.763   6.383   1.720
 7977SOL    HW124830   4.811   6.298   1.744
 7977SOL    HW224831   4.665   6.366   1.714
 7978SOL     OW24832   3.785   2.614   5.936
 7978SOL    HW124833   3.701   2.561   5.946
 7978SOL    HW224834   3.838   2.606   6.021
 7979SOL     OW24835   4.647   6.815   4.524
 7979SOL    HW124836   4.698   6.736   4.490
 7979SOL    HW224837   4.711   6.888   4.547
 7980SOL     OW24838   2.316   0.360   2.148
 7980SOL    HW124839   2.316   0.445   2.095
 7980SOL    HW224840   2.406   0.317   2.142
 7981SOL     OW24841   1.226   6.182   2.860
 7981SOL    HW124842   1.245   6.271   2.899
 7981SOL    HW224843   1.159   6.134   2.918
 7982SOL     OW24844   0.301   2.284   0.606
 7982SOL    HW124845   0.364   2.361   0.594
 7982SOL    HW224846   0.237   2.281   0.530
 7983SOL     OW24847   4.643   2.604   2.213
 7983SOL    HW124848   4.672   2.689   2.258
 7983SOL    HW224849   4.638   2.531   2.282
 7984SOL     OW24850   6.858   0.476   0.249
 7984SOL    HW124851   6.873   0.571   0.276
 7984SOL    HW224852   6.917   0.416   0.304
 7985SOL     OW24853   0.353   1.068   1.061
 7985SOL    HW124854   0.352   0.970   1.043
 7985SOL    HW224855   0.448   1.098   1.075
 7986SOL     OW24856   4.485   2.744   6.990
 7986SOL    HW124857   4.575   2.737   6.948
 7986SOL    HW224858   4.487   2.702   0.061
 7987SOL     OW24859   0.721   2.647   4.586
 7987SOL    HW124860   0.745   2.738   4.553
 7987SOL    HW224861   0.643   2.652   4.648
 7988SOL     OW24862   2.671   2.137   5.695
 7988SOL    HW124863   2.711   2.058   5.740
 7988SOL    HW224864   2.664   2.121   5.597
 7989SOL     OW24865   3.412   3.486   5.574
 7989SOL    HW124866   3.469   3.496   5.492
 7989SOL    HW224867   3.363   3.572   5.591
 7990SOL     OW24868   2.045   2.732   4.907
 7990SOL    HW124869   2.097   2.777   4.979
 7990SOL    HW224870   2.099   2.656   4.870
 7991SOL     OW24871   0.385   3.384   4.912
 7991SOL    HW124872   0.378   3.342   4.822
 7991SOL    HW224873   0.478   3.374   4.946
 7992SOL     OW24874   2.277   0.593   0.623
 7992SOL    HW124875   2.276   0.681   0.670
 7992SOL    HW224876   2.204   0.592   0.554
 7993SOL     OW24877   2.268   6.848   6.243
 7993SOL    HW124878   2.187   6.878   6.192
 7993SOL    HW224879   2.241   6.784   6.314
 7994SOL     OW24880   5.702   0.846   4.168
 7994SOL    HW124881   5.775   0.778   4.169
 7994SOL    HW224882   5.709   0.904   4.249
 7995SOL     OW24883   4.249   5.700   3.358
 7995SOL    HW124884   4.215   5.746   3.276
 7995SOL    HW224885   4.215   5.748   3.439
 7996SOL     OW24886   3.945   0.982   5.219
 7996SOL    HW124887   3.881   1.057   5.200
 7996SOL    HW224888   3.989   0.953   5.134
 7997SOL     OW24889   5.588   2.680   2.423
 7997SOL    HW124890   5.514   2.724   2.474
 7997SOL    HW224891   5.552   2.600   2.374
 7998SOL     OW24892   5.955   5.002   6.777
 7998SOL    HW124893   5.938   5.096   6.806
 7998SOL    HW224894   5.894   4.940   6.826
 7999SOL     OW24895   1.356   0.732   5.537
 7999SOL    HW124896   1.340   0.696   5.629
 7999SOL    HW224897   1.454   0.744   5.522
 8000SOL     OW24898   5.744   0.214   5.775
 8000SOL    HW124899   5.842   0.197   5.780
 8000SOL    HW224900   5.724   0.267   5.692
 8001SOL     OW24901   2.637   6.528   1.185
 8001SOL    HW124902   2.572   6.503   1.257
 8001SOL    HW224903   2.729   6.498   1.210
 8002SOL     OW24904   5.334   3.008   5.668
 8002SOL    HW124905   5.244   2.985   5.631
 8002SOL    HW224906   5.328   3.096   5.716
 8003SOL     OW24907   3.961   5.685   3.898
 8003SOL    HW124908   3.928   5.726   3.984
 8003SOL    HW224909   3.883   5.658   3.842
 8004SOL     OW24910   1.169   3.966   2.601
 8004SOL    HW124911   1.246   4.012   2.556
 8004SOL    HW224912   1.183   3.967   2.700
 8005SOL     OW24913   3.049   0.729   2.357
 8005SOL    HW124914   3.123   0.721   2.289
 8005SOL    HW224915   3.072   0.675   2.438
 8006SOL     OW24916   3.640   6.404   0.810
 8006SOL    HW124917   3.697   6.357   0.742
 8006SOL    HW224918   3.688   6.485   0.843
 8007SOL     OW24919   0.546   0.953   4.191
 8007SOL    HW124920   0.520   0.894   4.268
 8007SOL    HW224921   0.485   0.936   4.113
 8008SOL     OW24922   5.853   5.391   0.546
 8008SOL    HW124923   5.926   5.331   0.513
 8008SOL    HW224924   5.883   5.437   0.630
 8009SOL     OW24925   6.903   6.954   3.964
 8009SOL    HW124926   6.964   6.971   4.042
 8009SOL    HW224927   6.879   0.022   3.922
 8010SOL     OW24928   1.937   2.930   0.010
 8010SOL    HW124929   1.905   3.014   0.054
 8010SOL    HW224930   1.862   2.864   0.006
 8011SOL     OW24931   2.254   2.619   0.993
 8011SOL    HW124932   2.194   2.674   1.051
 8011SOL    HW224933   2.327   2.578   1.049
 8012SOL     OW24934   2.997   0.039   3.228
 8012SOL    HW124935   3.011   0.098   3.308
 8012SOL    HW224936   3.085   0.021   3.184
 8013SOL     OW24937   6.169   5.484   4.958
 8013SOL    HW124938   6.262   5.463   4.929
 8013SOL    HW224939   6.145   5.428   5.038
 8014SOL     OW24940   2.074   0.522   6.913
 8014SOL    HW124941   2.022   0.486   6.835
 8014SOL    HW224942   2.171   0.528   6.888
 8015SOL     OW24943   1.639   2.253   6.611
 8015SOL    HW124944   1.644   2.288   6.517
 8015SOL    HW224945   1.676   2.322   6.674
 8016SOL     OW24946   3.374   6.688   1.126
 8016SOL    HW124947   3.441   6.617   1.146
 8016SOL    HW224948   3.368   6.752   1.202
 8017SOL     OW24949   5.826   4.376   5.111
 8017SOL    HW124950   5.839   4.441   5.185
 8017SOL    HW224951   5.906   4.376   5.051
 8018SOL     OW24952   5.405   2.789   4.652
 8018SOL    HW124953   5.494   2.779   4.607
 8018SOL    HW224954   5.367   2.699   4.672
 8019SOL     OW24955   2.580   4.935   1.471
 8019SOL    HW124956   2.661   4.990   1.452
 8019SOL    HW224957   2.595   4.842   1.438
 8020SOL     OW24958   6.065   6.281   6.268
 8020SOL    HW124959   5.970   6.308   6.252
 8020SOL    HW224960   6.078   6.258   6.364
 8021SOL     OW24961   0.655   0.846   0.959
 8021SOL    HW124962   0.670   0.747   0.962
 8021SOL    HW224963   0.562   0.865   0.929
 8022SOL     OW24964   4.479   5.588   3.242
 8022SOL    HW124965   4.489   5.612   3.146
 8022SOL    HW224966   4.415   5.652   3.285
 8023SOL     OW24967   6.209   6.540   4.002
 8023SOL    HW124968   6.150   6.599   3.946
 8023SOL    HW224969   6.293   6.521   3.952
 8024SOL     OW24970   4.870   5.320   4.501
 8024SOL    HW124971   4.843   5.415   4.515
 8024SOL    HW224972   4.789   5.263   4.490
 8025SOL     OW24973   3.173   5.824   0.557
 8025SOL    HW124974   3.226   5.801   0.476
 8025SOL    HW224975   3.233   5.828   0.637
 8026SOL     OW24976   1.972   2.967   0.801
 8026SOL    HW124977   1.944   2.920   0.885
 8026SOL    HW224978   1.907   2.947   0.728
 8027SOL     OW24979   4.950   3.603   6.075
 8027SOL    HW124980   5.041   3.569   6.098
 8027SOL    HW224981   4.951   3.702   6.069
 8028SOL     OW24982   5.184   5.265   0.395
 8028SOL    HW124983   5.191   5.339   0.329
 8028SOL    HW224984   5.242   5.285   0.474
 8029SOL     OW24985   3.013   4.595   0.585
 8029SOL    HW124986   2.930   4.540   0.592
 8029SOL    HW224987   2.989   4.691   0.580
 8030SOL     OW24988   5.625   3.799   6.846
 8030SOL    HW124989   5.567   3.865   6.894
 8030SOL    HW224990   5.718   3.804   6.881
 8031SOL     OW24991   3.645   5.980   1.514
 8031SOL    HW124992   3.713   5.999   1.443
 8031SOL    HW224993   3.646   6.054   1.582
 8032SOL     OW24994   4.751   4.928   5.634
 8032SOL    HW124995   4.802   4.844   5.649
 8032SOL    HW224996   4.676   4.935   5.700
 8033SOL     OW24997   6.192   2.486   0.569
 8033SOL    HW124998   6.145   2.519   0.650
 8033SOL    HW224999   6.222   2.391   0.584
 8034SOL     OW25000   5.935   1.091   5.107
 8034SOL    HW125001   5.891   1.033   5.039
 8034SOL    HW225002   5.925   1.187   5.080
 8035SOL     OW25003   5.668   5.802   0.285
 8035SOL    HW125004   5.701   5.709   0.302
 8035SOL    HW225005   5.701   5.863   0.357
 8036SOL     OW25006   1.750   4.207   1.302
 8036SOL    HW125007   1.819   4.162   1.358
 8036SOL    HW225008   1.663   4.210   1.352
 8037SOL     OW25009   1.836   3.609   0.990
 8037SOL    HW125010   1.837   3.517   0.950
 8037SOL    HW225011   1.924   3.628   1.032
 8038SOL     OW25012   6.772   1.633   3.707
 8038SOL    HW125013   6.833   1.682   3.770
 8038SOL    HW225014   6.754   1.541   3.742
 8039SOL     OW25015   2.896   6.811   4.731
 8039SOL    HW125016   2.867   6.890   4.786
 8039SOL    HW225017   2.838   6.802   4.651
 8040SOL     OW25018   6.603   5.803   1.096
 8040SOL    HW125019   6.632   5.788   1.001
 8040SOL    HW225020   6.676   5.850   1.146
 8041SOL     OW25021   3.877   2.037   0.591
 8041SOL    HW125022   3.956   2.040   0.530
 8041SOL    HW225023   3.793   2.049   0.538
 8042SOL     OW25024   2.571   3.694   0.906
 8042SOL    HW125025   2.580   3.735   0.997
 8042SOL    HW225026   2.659   3.654   0.878
 8043SOL     OW25027   2.532   0.207   1.598
 8043SOL    HW125028   2.571   0.125   1.555
 8043SOL    HW225029   2.605   0.260   1.640
 8044SOL     OW25030   3.289   4.091   1.673
 8044SOL    HW125031   3.267   4.088   1.770
 8044SOL    HW225032   3.376   4.139   1.660
 8045SOL     OW25033   6.288   3.023   3.743
 8045SOL    HW125034   6.296   2.992   3.838
 8045SOL    HW225035   6.341   2.963   3.684
 8046SOL     OW25036   0.178   5.304   6.162
 8046SOL    HW125037   0.147   5.283   6.255
 8046SOL    HW225038   0.141   5.393   6.134
 8047SOL     OW25039   2.954   6.016   4.266
 8047SOL    HW125040   2.942   6.074   4.186
 8047SOL    HW225041   2.890   5.939   4.262
 8048SOL     OW25042   6.456   0.725   5.822
 8048SOL    HW125043   6.534   0.667   5.801
 8048SOL    HW225044   6.451   0.800   5.755
 8049SOL     OW25045   1.471   5.961   0.445
 8049SOL    HW125046   1.541   5.987   0.510
 8049SOL    HW225047   1.455   5.862   0.450
 8050SOL     OW25048   0.891   3.033   1.183
 8050SOL    HW125049   0.866   3.024   1.086
 8050SOL    HW225050   0.902   2.942   1.223
 8051SOL     OW25051   3.480   1.626   4.005
 8051SOL    HW125052   3.507   1.711   3.960
 8051SOL    HW225053   3.385   1.634   4.036
 8052SOL     OW25054   3.359   1.967   2.944
 8052SOL    HW125055   3.308   2.014   3.016
 8052SOL    HW225056   3.400   2.034   2.882
 8053SOL     OW25057   3.838   3.305   1.957
 8053SOL    HW125058   3.844   3.403   1.978
 8053SOL    HW225059   3.887   3.253   2.027
 8054SOL     OW25060   4.562   5.737   4.144
 8054SOL    HW125061   4.506   5.791   4.207
 8054SOL    HW225062   4.592   5.794   4.068
 8055SOL     OW25063   1.225   0.006   5.115
 8055SOL    HW125064   1.294   0.069   5.078
 8055SOL    HW225065   1.270   6.940   5.140
 8056SOL     OW25066   4.078   1.535   3.258
 8056SOL    HW125067   4.142   1.505   3.187
 8056SOL    HW225068   3.986   1.500   3.237
 8057SOL     OW25069   3.877   0.035   3.772
 8057SOL    HW125070   3.893   0.088   3.688
 8057SOL    HW225071   3.832   0.094   3.839
 8058SOL     OW25072   2.252   6.976   3.402
 8058SOL    HW125073   2.263   7.004   3.497
 8058SOL    HW225074   2.339   6.986   3.354
 8059SOL     OW25075   2.637   1.399   4.078
 8059SOL    HW125076   2.691   1.389   4.161
 8059SOL    HW225077   2.576   1.478   4.087
 8060SOL     OW25078   0.461   1.966   5.208
 8060SOL    HW125079   0.553   1.937   5.234
 8060SOL    HW225080   0.400   1.887   5.205
 8061SOL     OW25081   0.163   5.666   1.750
 8061SOL    HW125082   0.231   5.694   1.818
 8061SOL    HW225083   0.071   5.682   1.785
 8062SOL     OW25084   2.079   3.573   2.237
 8062SOL    HW125085   2.119   3.663   2.256
 8062SOL    HW225086   2.107   3.543   2.146
 8063SOL     OW25087   2.590   3.324   0.104
 8063SOL    HW125088   2.648   3.362   0.033
 8063SOL    HW225089   2.529   3.395   0.139
 8064SOL     OW25090   6.129   2.933   0.053
 8064SOL    HW125091   6.170   2.853   0.096
 8064SOL    HW225092   6.046   2.959   0.102
 8065SOL     OW25093   4.430   6.994   6.270
 8065SOL    HW125094   4.343   6.992   6.320
 8065SOL    HW225095   4.414   6.971   6.174
 8066SOL     OW25096   2.465   0.512   1.794
 8066SOL    HW125097   2.373   0.503   1.833
 8066SOL    HW225098   2.531   0.465   1.852
 8067SOL     OW25099   4.938   1.801   2.050
 8067SOL    HW125100   4.919   1.714   2.004
 8067SOL    HW225101   4.973   1.867   1.984
 8068SOL     OW25102   6.869   4.614   3.877
 8068SOL    HW125103   6.908   4.661   3.798
 8068SOL    HW225104   6.827   4.529   3.848
 8069SOL     OW25105   1.489   6.061   2.161
 8069SOL    HW125106   1.587   6.041   2.168
 8069SOL    HW225107   1.473   6.157   2.186
 8070SOL     OW25108   3.479   0.316   2.343
 8070SOL    HW125109   3.561   0.343   2.294
 8070SOL    HW225110   3.487   0.219   2.369
 8071SOL     OW25111   3.707   6.284   0.475
 8071SOL    HW125112   3.748   6.374   0.484
 8071SOL    HW225113   3.769   6.223   0.425
 8072SOL     OW25114   5.382   0.702   2.210
 8072SOL    HW125115   5.479   0.687   2.229
 8072SOL    HW225116   5.373   0.756   2.126
 8073SOL     OW25117   4.474   6.697   5.775
 8073SOL    HW125118   4.489   6.738   5.865
 8073SOL    HW225119   4.376   6.686   5.760
 8074SOL     OW25120   2.892   4.034   6.958
 8074SOL    HW125121   2.918   4.130   6.961
 8074SOL    HW225122   2.913   3.990   0.025
 8075SOL     OW25123   5.895   1.505   2.606
 8075SOL    HW125124   5.947   1.467   2.530
 8075SOL    HW225125   5.946   1.492   2.692
 8076SOL     OW25126   5.193   2.535   6.159
 8076SOL    HW125127   5.160   2.553   6.252
 8076SOL    HW225128   5.292   2.524   6.161
 8077SOL     OW25129   1.403   0.451   0.343
 8077SOL    HW125130   1.390   0.356   0.370
 8077SOL    HW225131   1.485   0.488   0.388
 8078SOL     OW25132   5.865   3.259   0.390
 8078SOL    HW125133   5.797   3.196   0.354
 8078SOL    HW225134   5.831   3.353   0.382
 8079SOL     OW25135   0.696   1.722   1.742
 8079SOL    HW125136   0.686   1.734   1.840
 8079SOL    HW225137   0.786   1.684   1.721
 8080SOL     OW25138   3.497   5.330   0.511
 8080SOL    HW125139   3.419   5.392   0.501
 8080SOL    HW225140   3.463   5.238   0.530
 8081SOL     OW25141   6.104   1.057   5.594
 8081SOL    HW125142   6.043   1.049   5.515
 8081SOL    HW225143   6.112   0.968   5.638
 8082SOL     OW25144   6.185   3.417   4.282
 8082SOL    HW125145   6.210   3.513   4.296
 8082SOL    HW225146   6.239   3.359   4.343
 8083SOL     OW25147   5.735   2.296   4.272
 8083SOL    HW125148   5.812   2.232   4.264
 8083SOL    HW225149   5.754   2.378   4.217
 8084SOL     OW25150   6.868   7.016   1.292
 8084SOL    HW125151   6.885   6.971   1.204
 8084SOL    HW225152   6.878   6.950   1.366
 8085SOL     OW25153   6.716   1.732   0.807
 8085SOL    HW125154   6.783   1.727   0.882
 8085SOL    HW225155   6.762   1.714   0.720
 8086SOL     OW25156   3.211   6.200   6.029
 8086SOL    HW125157   3.274   6.208   5.951
 8086SOL    HW225158   3.242   6.129   6.091
 8087SOL     OW25159   2.725   3.021   0.993
 8087SOL    HW125160   2.821   3.018   1.018
 8087SOL    HW225161   2.708   3.102   0.936
 8088SOL     OW25162   4.511   0.460   2.314
 8088SOL    HW125163   4.433   0.520   2.298
 8088SOL    HW225164   4.479   0.373   2.351
 8089SOL     OW25165   5.782   2.907   0.481
 8089SOL    HW125166   5.780   2.899   0.580
 8089SOL    HW225167   5.704   2.962   0.450
 8090SOL     OW25168   4.440   2.319   5.016
 8090SOL    HW125169   4.348   2.349   5.042
 8090SOL    HW225170   4.435   2.262   4.934
 8091SOL     OW25171   2.969   5.088   5.832
 8091SOL    HW125172   3.053   5.131   5.798
 8091SOL    HW225173   2.913   5.158   5.877
 8092SOL     OW25174   0.123   1.844   3.712
 8092SOL    HW125175   0.145   1.934   3.751
 8092SOL    HW225176   0.205   1.806   3.669
 8093SOL     OW25177   5.616   5.600   1.086
 8093SOL    HW125178   5.650   5.518   1.040
 8093SOL    HW225179   5.586   5.576   1.179
 8094SOL     OW25180   1.285   4.023   4.434
 8094SOL    HW125181   1.233   3.937   4.434
 8094SOL    HW225182   1.295   4.055   4.529
 8095SOL     OW25183   6.078   3.500   4.646
 8095SOL    HW125184   6.132   3.434   4.699
 8095SOL    HW225185   5.985   3.504   4.683
 8096SOL     OW25186   3.713   0.301   0.447
 8096SOL    HW125187   3.703   0.326   0.351
 8096SOL    HW225188   3.731   0.384   0.501
 8097SOL     OW25189   4.255   1.009   4.654
 8097SOL    HW125190   4.305   1.026   4.569
 8097SOL    HW225191   4.222   0.914   4.654
 8098SOL     OW25192   2.823   0.934   4.256
 8098SOL    HW125193   2.818   0.926   4.356
 8098SOL    HW225194   2.737   0.970   4.221
 8099SOL     OW25195   5.122   6.437   4.932
 8099SOL    HW125196   5.156   6.530   4.947
 8099SOL    HW225197   5.022   6.438   4.930
 8100SOL     OW25198   0.533   5.992   0.694
 8100SOL    HW125199   0.620   5.969   0.650
 8100SOL    HW225200   0.479   6.051   0.634
 8101SOL     OW25201   0.677   5.371   2.714
 8101SOL    HW125202   0.618   5.437   2.760
 8101SOL    HW225203   0.748   5.420   2.662
 8102SOL     OW25204   0.368   6.878   6.706
 8102SOL    HW125205   0.392   6.860   6.611
 8102SOL    HW225206   0.296   6.814   6.734
 8103SOL     OW25207   2.545   1.720   2.471
 8103SOL    HW125208   2.634   1.676   2.484
 8103SOL    HW225209   2.552   1.817   2.496
 8104SOL     OW25210   2.662   6.051   6.062
 8104SOL    HW125211   2.725   5.999   6.119
 8104SOL    HW225212   2.712   6.095   5.987
 8105SOL     OW25213   1.978   2.582   2.745
 8105SOL    HW125214   2.020   2.646   2.681
 8105SOL    HW225215   1.991   2.615   2.839
 8106SOL     OW25216   0.472   3.928   5.149
 8106SOL    HW125217   0.408   3.928   5.226
 8106SOL    HW225218   0.522   3.841   5.148
 8107SOL     OW25219   1.216   5.815   6.132
 8107SOL    HW125220   1.196   5.889   6.068
 8107SOL    HW225221   1.313   5.820   6.159
 8108SOL     OW25222   2.095   3.458   5.091
 8108SOL    HW125223   2.123   3.537   5.036
 8108SOL    HW225224   2.172   3.395   5.101
 8109SOL     OW25225   1.303   5.472   5.380
 8109SOL    HW125226   1.365   5.532   5.329
 8109SOL    HW225227   1.295   5.384   5.333
 8110SOL     OW25228   1.515   4.615   0.878
 8110SOL    HW125229   1.549   4.522   0.889
 8110SOL    HW225230   1.591   4.679   0.887
 8111SOL     OW25231   2.817   5.795   4.196
 8111SOL    HW125232   2.877   5.733   4.145
 8111SOL    HW225233   2.726   5.794   4.156
 8112SOL     OW25234   4.059   0.895   4.962
 8112SOL    HW125235   4.157   0.901   4.981
 8112SOL    HW225236   4.023   0.809   4.997
 8113SOL     OW25237   4.154   2.970   6.059
 8113SOL    HW125238   4.063   2.934   6.035
 8113SOL    HW225239   4.211   2.895   6.094
 8114SOL     OW25240   3.163   3.933   1.498
 8114SOL    HW125241   3.063   3.925   1.508
 8114SOL    HW225242   3.198   3.998   1.565
 8115SOL     OW25243   3.832   2.289   0.760
 8115SOL    HW125244   3.745   2.290   0.711
 8115SOL    HW225245   3.885   2.208   0.734
 8116SOL     OW25246   4.841   0.967   5.822
 8116SOL    HW125247   4.912   1.002   5.761
 8116SOL    HW225248   4.778   0.910   5.769
 8117SOL     OW25249   2.472   1.983   6.251
 8117SOL    HW125250   2.508   2.067   6.211
 8117SOL    HW225251   2.377   1.970   6.221
 8118SOL     OW25252   1.219   2.428   4.115
 8118SOL    HW125253   1.228   2.337   4.154
 8118SOL    HW225254   1.203   2.421   4.016
 8119SOL     OW25255   1.122   6.010   1.812
 8119SOL    HW125256   1.084   6.102   1.802
 8119SOL    HW225257   1.185   5.991   1.736
 8120SOL     OW25258   4.729   4.095   1.771
 8120SOL    HW125259   4.638   4.112   1.808
 8120SOL    HW225260   4.723   4.030   1.695
 8121SOL     OW25261   6.531   6.509   3.329
 8121SOL    HW125262   6.604   6.450   3.364
 8121SOL    HW225263   6.517   6.586   3.392
 8122SOL     OW25264   0.778   5.955   1.188
 8122SOL    HW125265   0.691   5.986   1.149
 8122SOL    HW225266   0.851   5.966   1.121
 8123SOL     OW25267   0.574   5.638   0.317
 8123SOL    HW125268   0.534   5.682   0.237
 8123SOL    HW225269   0.545   5.687   0.399
 8124SOL     OW25270   0.719   5.981   3.189
 8124SOL    HW125271   0.661   6.051   3.231
 8124SOL    HW225272   0.815   6.003   3.205
 8125SOL     OW25273   5.956   5.459   2.691
 8125SOL    HW125274   5.997   5.461   2.782
 8125SOL    HW225275   6.021   5.418   2.627
 8126SOL     OW25276   6.680   4.661   2.519
 8126SOL    HW125277   6.761   4.668   2.578
 8126SOL    HW225278   6.614   4.731   2.545
 8127SOL     OW25279   3.610   4.687   1.068
 8127SOL    HW125280   3.680   4.655   1.005
 8127SOL    HW225281   3.520   4.655   1.037
 8128SOL     OW25282   3.684   2.222   5.380
 8128SOL    HW125283   3.593   2.249   5.412
 8128SOL    HW225284   3.749   2.296   5.400
 8129SOL     OW25285   4.866   6.159   6.904
 8129SOL    HW125286   4.888   6.090   6.973
 8129SOL    HW225287   4.783   6.132   6.856
 8130SOL     OW25288   1.106   6.906   0.613
 8130SOL    HW125289   1.132   6.967   0.538
 8130SOL    HW225290   1.184   6.895   0.675
 8131SOL     OW25291   1.417   1.103   0.604
 8131SOL    HW125292   1.510   1.140   0.600
 8131SOL    HW225293   1.405   1.035   0.531
 8132SOL     OW25294   6.149   4.496   2.957
 8132SOL    HW125295   6.187   4.519   3.047
 8132SOL    HW225296   6.220   4.454   2.900
 8133SOL     OW25297   0.700   5.720   1.860
 8133SOL    HW125298   0.609   5.683   1.841
 8133SOL    HW225299   0.770   5.657   1.825
 8134SOL     OW25300   2.017   2.765   2.278
 8134SOL    HW125301   2.064   2.800   2.197
 8134SOL    HW225302   1.931   2.721   2.250
 8135SOL     OW25303   3.862   5.964   2.592
 8135SOL    HW125304   3.922   6.044   2.596
 8135SOL    HW225305   3.886   5.900   2.665
 8136SOL     OW25306   2.897   6.351   1.821
 8136SOL    HW125307   2.910   6.254   1.802
 8136SOL    HW225308   2.824   6.388   1.764
 8137SOL     OW25309   3.385   3.315   4.957
 8137SOL    HW125310   3.458   3.292   5.021
 8137SOL    HW225311   3.296   3.306   5.003
 8138SOL     OW25312   4.990   0.746   3.698
 8138SOL    HW125313   5.069   0.728   3.756
 8138SOL    HW225314   4.934   0.817   3.739
 8139SOL     OW25315   1.814   3.124   4.714
 8139SOL    HW125316   1.806   3.191   4.788
 8139SOL    HW225317   1.897   3.142   4.661
 8140SOL     OW25318   4.530   1.080   0.994
 8140SOL    HW125319   4.445   1.126   0.969
 8140SOL    HW225320   4.512   1.013   1.065
 8141SOL     OW25321   6.022   0.199   5.365
 8141SOL    HW125322   5.975   0.287   5.375
 8141SOL    HW225323   6.119   0.211   5.386
 8142SOL     OW25324   2.488   5.332   0.710
 8142SOL    HW125325   2.483   5.329   0.810
 8142SOL    HW225326   2.442   5.413   0.676
 8143SOL     OW25327   5.592   4.755   0.659
 8143SOL    HW125328   5.624   4.796   0.744
 8143SOL    HW225329   5.615   4.814   0.582
 8144SOL     OW25330   0.763   5.840   0.600
 8144SOL    HW125331   0.853   5.821   0.639
 8144SOL    HW225332   0.700   5.765   0.623
 8145SOL     OW25333   5.519   5.718   0.076
 8145SOL    HW125334   5.590   5.732   0.145
 8145SOL    HW225335   5.522   5.793   0.009
 8146SOL     OW25336   6.652   6.672   4.819
 8146SOL    HW125337   6.679   6.764   4.849
 8146SOL    HW225338   6.573   6.641   4.872
 8147SOL     OW25339   1.679   0.785   6.054
 8147SOL    HW125340   1.656   0.882   6.046
 8147SOL    HW225341   1.641   0.735   5.976
 8148SOL     OW25342   4.546   3.974   0.504
 8148SOL    HW125343   4.575   3.966   0.600
 8148SOL    HW225344   4.536   4.070   0.480
 8149SOL     OW25345   0.928   0.232   5.617
 8149SOL    HW125346   0.953   0.142   5.580
 8149SOL    HW225347   0.862   0.276   5.555
 8150SOL     OW25348   0.233   3.781   0.671
 8150SOL    HW125349   0.239   3.693   0.718
 8150SOL    HW225350   0.192   3.848   0.732
 8151SOL     OW25351   6.491   5.607   3.104
 8151SOL    HW125352   6.485   5.570   3.011
 8151SOL    HW225353   6.578   5.656   3.115
 8152SOL     OW25354   4.969   1.364   2.729
 8152SOL    HW125355   4.965   1.462   2.710
 8152SOL    HW225356   5.029   1.347   2.807
 8153SOL     OW25357   0.121   1.840   2.212
 8153SOL    HW125358   0.072   1.846   2.124
 8153SOL    HW225359   0.191   1.911   2.216
 8154SOL     OW25360   1.636   1.241   2.453
 8154SOL    HW125361   1.679   1.175   2.514
 8154SOL    HW225362   1.630   1.330   2.498
 8155SOL     OW25363   1.847   4.921   3.564
 8155SOL    HW125364   1.770   4.949   3.506
 8155SOL    HW225365   1.859   4.822   3.559
 8156SOL     OW25366   0.560   4.328   0.789
 8156SOL    HW125367   0.492   4.385   0.742
 8156SOL    HW225368   0.639   4.315   0.729
 8157SOL     OW25369   6.983   4.475   4.706
 8157SOL    HW125370   6.945   4.552   4.655
 8157SOL    HW225371   6.951   4.389   4.665
 8158SOL     OW25372   5.789   5.888   6.814
 8158SOL    HW125373   5.840   5.973   6.799
 8158SOL    HW225374   5.851   5.810   6.804
 8159SOL     OW25375   2.508   0.160   5.156
 8159SOL    HW125376   2.460   0.247   5.166
 8159SOL    HW225377   2.605   0.178   5.135
 8160SOL     OW25378   5.553   1.434   1.925
 8160SOL    HW125379   5.561   1.528   1.957
 8160SOL    HW225380   5.457   1.412   1.910
 8161SOL     OW25381   5.997   2.619   1.794
 8161SOL    HW125382   5.916   2.565   1.818
 8161SOL    HW225383   6.075   2.558   1.782
 8162SOL     OW25384   0.623   5.513   5.049
 8162SOL    HW125385   0.574   5.585   5.099
 8162SOL    HW225386   0.710   5.493   5.094
 8163SOL     OW25387   4.323   4.855   5.694
 8163SOL    HW125388   4.333   4.757   5.677
 8163SOL    HW225389   4.410   4.893   5.726
 8164SOL     OW25390   5.854   1.858   0.501
 8164SOL    HW125391   5.890   1.786   0.442
 8164SOL    HW225392   5.763   1.885   0.469
 8165SOL     OW25393   0.505   1.586   6.378
 8165SOL    HW125394   0.515   1.569   6.476
 8165SOL    HW225395   0.568   1.526   6.328
 8166SOL     OW25396   1.729   2.033   5.462
 8166SOL    HW125397   1.650   2.083   5.426
 8166SOL    HW225398   1.803   2.097   5.483
 8167SOL     OW25399   1.989   2.943   3.596
 8167SOL    HW125400   1.960   3.023   3.648
 8167SOL    HW225401   2.089   2.941   3.591
 8168SOL     OW25402   1.780   0.020   2.377
 8168SOL    HW125403   1.753   6.958   2.426
 8168SOL    HW225404   1.699   0.063   2.337
 8169SOL     OW25405   5.070   3.247   0.612
 8169SOL    HW125406   5.116   3.327   0.573
 8169SOL    HW225407   5.120   3.165   0.586
 8170SOL     OW25408   6.880   5.181   2.529
 8170SOL    HW125409   6.819   5.125   2.585
 8170SOL    HW225410   6.959   5.127   2.500
 8171SOL     OW25411   2.529   1.372   1.018
 8171SOL    HW125412   2.535   1.438   1.092
 8171SOL    HW225413   2.493   1.285   1.052
 8172SOL     OW25414   1.728   2.747   0.721
 8172SOL    HW125415   1.689   2.686   0.790
 8172SOL    HW225416   1.726   2.703   0.631
 8173SOL     OW25417   5.818   0.779   1.750
 8173SOL    HW125418   5.868   0.758   1.666
 8173SOL    HW225419   5.880   0.774   1.828
 8174SOL     OW25420   2.709   6.335   3.802
 8174SOL    HW125421   2.738   6.285   3.720
 8174SOL    HW225422   2.616   6.369   3.789
 8175SOL     OW25423   0.907   2.067   6.000
 8175SOL    HW125424   0.888   1.972   5.975
 8175SOL    HW225425   0.824   2.111   6.034
 8176SOL     OW25426   2.735   4.618   0.221
 8176SOL    HW125427   2.756   4.700   0.274
 8176SOL    HW225428   2.639   4.592   0.234
 8177SOL     OW25429   3.051   1.199   4.130
 8177SOL    HW125430   2.966   1.196   4.076
 8177SOL    HW225431   3.031   1.175   4.225
 8178SOL     OW25432   2.863   6.378   0.845
 8178SOL    HW125433   2.825   6.466   0.873
 8178SOL    HW225434   2.799   6.305   0.871
 8179SOL     OW25435   5.686   0.792   3.501
 8179SOL    HW125436   5.725   0.706   3.466
 8179SOL    HW225437   5.604   0.771   3.555
 8180SOL     OW25438   5.097   6.017   0.451
 8180SOL    HW125439   5.151   6.039   0.369
 8180SOL    HW225440   5.119   6.083   0.523
 8181SOL     OW25441   6.887   0.436   6.862
 8181SOL    HW125442   6.901   0.498   6.785
 8181SOL    HW225443   6.790   0.431   6.884
 8182SOL     OW25444   3.194   3.699   3.964
 8182SOL    HW125445   3.166   3.737   4.052
 8182SOL    HW225446   3.292   3.680   3.965
 8183SOL     OW25447   6.891   0.792   5.621
 8183SOL    HW125448   6.940   0.764   5.539
 8183SOL    HW225449   6.862   0.887   5.612
 8184SOL     OW25450   0.136   5.892   6.117
 8184SOL    HW125451   0.107   5.982   6.084
 8184SOL    HW225452   0.079   5.865   6.195
 8185SOL     OW25453   0.075   6.270   5.786
 8185SOL    HW125454   0.153   6.332   5.794
 8185SOL    HW225455   0.032   6.281   5.696
 8186SOL     OW25456   1.703   5.265   6.810
 8186SOL    HW125457   1.684   5.190   6.746
 8186SOL    HW225458   1.765   5.233   6.882
 8187SOL     OW25459   1.412   0.284   5.414
 8187SOL    HW125460   1.476   0.302   5.489
 8187SOL    HW225461   1.396   0.369   5.364
 8188SOL     OW25462   1.670   3.076   2.726
 8188SOL    HW125463   1.712   3.025   2.650
 8188SOL    HW225464   1.583   3.034   2.750
 8189SOL     OW25465   5.704   5.221   3.588
 8189SOL    HW125466   5.795   5.234   3.628
 8189SOL    HW225467   5.656   5.148   3.637
 8190SOL     OW25468   6.403   4.202   3.040
 8190SOL    HW125469   6.400   4.177   3.137
 8190SOL    HW225470   6.496   4.229   3.015
 8191SOL     OW25471   4.335   5.183   1.275
 8191SOL    HW125472   4.243   5.216   1.297
 8191SOL    HW225473   4.341   5.086   1.294
 8192SOL     OW25474   0.649   6.226   3.329
 8192SOL    HW125475   0.712   6.298   3.357
 8192SOL    HW225476   0.607   6.251   3.242
 8193SOL     OW25477   0.936   4.811   4.191
 8193SOL    HW125478   0.886   4.874   4.131
 8193SOL    HW225479   1.032   4.808   4.163
 8194SOL     OW25480   4.587   0.198   1.765
 8194SOL    HW125481   4.520   0.127   1.745
 8194SOL    HW225482   4.546   0.268   1.824
 8195SOL     OW25483   6.288   0.351   4.057
 8195SOL    HW125484   6.211   0.361   3.994
 8195SOL    HW225485   6.257   0.304   4.140
 8196SOL     OW25486   4.636   1.100   1.695
 8196SOL    HW125487   4.682   1.102   1.606
 8196SOL    HW225488   4.626   1.194   1.729
 8197SOL     OW25489   3.628   2.093   3.138
 8197SOL    HW125490   3.585   2.007   3.165
 8197SOL    HW225491   3.632   2.098   3.038
 8198SOL     OW25492   1.260   5.917   1.583
 8198SOL    HW125493   1.281   6.009   1.549
 8198SOL    HW225494   1.237   5.858   1.506
 8199SOL     OW25495   5.546   2.784   0.649
 8199SOL    HW125496   5.625   2.774   0.589
 8199SOL    HW225497   5.554   2.870   0.700
 8200SOL     OW25498   4.575   3.233   0.869
 8200SOL    HW125499   4.485   3.230   0.825
 8200SOL    HW225500   4.645   3.254   0.801
 8201SOL     OW25501   6.188   6.834   5.505
 8201SOL    HW125502   6.210   6.808   5.411
 8201SOL    HW225503   6.173   6.751   5.560
 8202SOL     OW25504   0.781   6.396   2.168
 8202SOL    HW125505   0.836   6.358   2.094
 8202SOL    HW225506   0.687   6.363   2.160
 8203SOL     OW25507   1.632   3.690   1.162
 8203SOL    HW125508   1.656   3.785   1.143
 8203SOL    HW225509   1.701   3.629   1.122
 8204SOL     OW25510   2.882   2.814   0.802
 8204SOL    HW125511   2.787   2.793   0.779
 8204SOL    HW225512   2.938   2.733   0.790
 8205SOL     OW25513   0.790   3.833   6.991
 8205SOL    HW125514   0.823   3.927   7.002
 8205SOL    HW225515   0.779   3.813   6.894
 8206SOL     OW25516   3.090   0.633   0.889
 8206SOL    HW125517   3.025   0.706   0.871
 8206SOL    HW225518   3.041   0.546   0.898
 8207SOL     OW25519   3.752   4.089   4.548
 8207SOL    HW125520   3.833   4.071   4.491
 8207SOL    HW225521   3.778   4.086   4.644
 8208SOL     OW25522   1.827   0.684   0.328
 8208SOL    HW125523   1.825   0.784   0.333
 8208SOL    HW225524   1.886   0.656   0.253
 8209SOL     OW25525   6.197   1.600   4.829
 8209SOL    HW125526   6.217   1.502   4.832
 8209SOL    HW225527   6.145   1.622   4.747
 8210SOL     OW25528   1.867   2.711   6.736
 8210SOL    HW125529   1.942   2.767   6.771
 8210SOL    HW225530   1.799   2.697   6.808
 8211SOL     OW25531   3.908   4.961   1.655
 8211SOL    HW125532   3.898   4.889   1.724
 8211SOL    HW225533   3.823   5.012   1.648
 8212SOL     OW25534   1.796   2.876   3.111
 8212SOL    HW125535   1.822   2.902   3.204
 8212SOL    HW225536   1.840   2.938   3.046
 8213SOL     OW25537   6.552   5.101   1.291
 8213SOL    HW125538   6.567   5.195   1.261
 8213SOL    HW225539   6.640   5.059   1.314
 8214SOL     OW25540   5.497   3.895   3.693
 8214SOL    HW125541   5.567   3.932   3.755
 8214SOL    HW225542   5.537   3.825   3.635
 8215SOL     OW25543   3.471   5.135   3.137
 8215SOL    HW125544   3.440   5.128   3.042
 8215SOL    HW225545   3.418   5.207   3.183
 8216SOL     OW25546   5.287   4.127   4.089
 8216SOL    HW125547   5.199   4.103   4.049
 8216SOL    HW225548   5.347   4.047   4.088
 8217SOL     OW25549   2.177   5.723   0.556
 8217SOL    HW125550   2.128   5.780   0.490
 8217SOL    HW225551   2.162   5.758   0.648
 8218SOL     OW25552   6.239   2.236   0.015
 8218SOL    HW125553   6.304   2.309   7.013
 8218SOL    HW225554   6.289   2.150   0.029
 8219SOL     OW25555   5.630   1.716   6.848
 8219SOL    HW125556   5.629   1.637   6.787
 8219SOL    HW225557   5.552   1.776   6.826
 8220SOL     OW25558   4.167   3.589   1.821
 8220SOL    HW125559   4.219   3.609   1.738
 8220SOL    HW225560   4.116   3.670   1.849
 8221SOL     OW25561   5.276   6.087   3.012
 8221SOL    HW125562   5.231   6.117   2.927
 8221SOL    HW225563   5.364   6.045   2.990
 8222SOL     OW25564   6.313   2.196   1.806
 8222SOL    HW125565   6.383   2.195   1.735
 8222SOL    HW225566   6.356   2.187   1.896
 8223SOL     OW25567   0.463   5.362   6.053
 8223SOL    HW125568   0.371   5.362   6.092
 8223SOL    HW225569   0.518   5.290   6.096
 8224SOL     OW25570   1.441   3.218   3.687
 8224SOL    HW125571   1.424   3.295   3.625
 8224SOL    HW225572   1.540   3.205   3.697
 8225SOL     OW25573   5.071   1.699   0.481
 8225SOL    HW125574   5.134   1.665   0.551
 8225SOL    HW225575   4.990   1.737   0.525
 8226SOL     OW25576   4.447   0.289   0.357
 8226SOL    HW125577   4.513   0.354   0.319
 8226SOL    HW225578   4.431   0.310   0.453
 8227SOL     OW25579   6.165   3.358   2.796
 8227SOL    HW125580   6.122   3.268   2.805
 8227SOL    HW225581   6.102   3.420   2.749
 8228SOL     OW25582   0.131   2.741   4.792
 8228SOL    HW125583   0.155   2.645   4.805
 8228SOL    HW225584   0.204   2.786   4.739
 8229SOL     OW25585   3.640   5.216   0.812
 8229SOL    HW125586   3.648   5.123   0.850
 8229SOL    HW225587   3.547   5.229   0.777
 8230SOL     OW25588   5.150   0.102   4.032
 8230SOL    HW125589   5.180   0.194   4.060
 8230SOL    HW225590   5.051   0.097   4.036
 8231SOL     OW25591   4.440   6.132   0.717
 8231SOL    HW125592   4.390   6.174   0.641
 8231SOL    HW225593   4.459   6.201   0.786
 8232SOL     OW25594   2.731   2.254   6.544
 8232SOL    HW125595   2.807   2.259   6.480
 8232SOL    HW225596   2.683   2.167   6.533
 8233SOL     OW25597   0.273   5.602   6.835
 8233SOL    HW125598   0.369   5.613   6.811
 8233SOL    HW225599   0.231   5.692   6.847
 8234SOL     OW25600   3.692   2.440   6.750
 8234SOL    HW125601   3.752   2.476   6.679
 8234SOL    HW225602   3.687   2.505   6.826
 8235SOL     OW25603   4.587   2.227   0.374
 8235SOL    HW125604   4.556   2.277   0.293
 8235SOL    HW225605   4.622   2.137   0.347
 8236SOL     OW25606   5.619   2.706   1.081
 8236SOL    HW125607   5.574   2.670   1.163
 8236SOL    HW225608   5.597   2.803   1.071
 8237SOL     OW25609   4.169   6.073   5.380
 8237SOL    HW125610   4.110   6.026   5.446
 8237SOL    HW225611   4.265   6.058   5.404
 8238SOL     OW25612   1.732   1.247   6.149
 8238SOL    HW125613   1.667   1.307   6.197
 8238SOL    HW225614   1.805   1.302   6.110
 8239SOL     OW25615   6.930   1.748   6.433
 8239SOL    HW125616   6.898   1.819   6.370
 8239SOL    HW225617   6.883   1.758   6.521
 8240SOL     OW25618   3.702   3.814   3.224
 8240SOL    HW125619   3.680   3.908   3.251
 8240SOL    HW225620   3.658   3.794   3.136
 8241SOL     OW25621   4.727   6.912   1.204
 8241SOL    HW125622   4.632   6.934   1.227
 8241SOL    HW225623   4.755   6.967   1.125
 8242SOL     OW25624   0.790   4.194   5.708
 8242SOL    HW125625   0.880   4.182   5.667
 8242SOL    HW225626   0.792   4.271   5.771
 8243SOL     OW25627   1.193   3.499   4.698
 8243SOL    HW125628   1.136   3.419   4.718
 8243SOL    HW225629   1.234   3.489   4.607
 8244SOL     OW25630   0.952   6.103   4.552
 8244SOL    HW125631   0.868   6.157   4.544
 8244SOL    HW225632   0.983   6.076   4.461
 8245SOL     OW25633   3.963   2.871   0.691
 8245SOL    HW125634   3.952   2.774   0.669
 8245SOL    HW225635   3.875   2.918   0.683
 8246SOL     OW25636   4.935   3.901   5.564
 8246SOL    HW125637   4.872   3.848   5.506
 8246SOL    HW225638   4.991   3.838   5.618
 8247SOL     OW25639   1.036   6.972   1.655
 8247SOL    HW125640   1.070   0.039   1.621
 8247SOL    HW225641   0.940   6.983   1.682
 8248SOL     OW25642   6.867   4.125   3.404
 8248SOL    HW125643   6.912   4.184   3.471
 8248SOL    HW225644   6.901   4.148   3.312
 8249SOL     OW25645   1.626   4.989   3.412
 8249SOL    HW125646   1.546   5.050   3.409
 8249SOL    HW225647   1.603   4.901   3.371
 8250SOL     OW25648   4.079   3.830   2.283
 8250SOL    HW125649   4.032   3.795   2.364
 8250SOL    HW225650   4.159   3.883   2.311
 8251SOL     OW25651   6.115   1.680   5.078
 8251SOL    HW125652   6.155   1.636   4.997
 8251SOL    HW225653   6.114   1.779   5.066
 8252SOL     OW25654   1.443   3.665   4.695
 8252SOL    HW125655   1.363   3.662   4.755
 8252SOL    HW225656   1.481   3.573   4.686
 8253SOL     OW25657   3.043   2.821   5.658
 8253SOL    HW125658   2.978   2.747   5.639
 8253SOL    HW225659   3.094   2.799   5.742
 8254SOL     OW25660   3.977   6.093   3.708
 8254SOL    HW125661   3.883   6.126   3.704
 8254SOL    HW225662   4.011   6.101   3.802
 8255SOL     OW25663   4.435   5.152   3.509
 8255SOL    HW125664   4.451   5.246   3.540
 8255SOL    HW225665   4.351   5.149   3.456
 8256SOL     OW25666   6.703   2.054   3.812
 8256SOL    HW125667   6.725   2.136   3.760
 8256SOL    HW225668   6.761   2.048   3.893
 8257SOL     OW25669   6.510   4.326   3.923
 8257SOL    HW125670   6.553   4.269   3.853
 8257SOL    HW225671   6.411   4.311   3.922
 8258SOL     OW25672   4.568   1.827   7.009
 8258SOL    HW125673   4.503   1.813   6.935
 8258SOL    HW225674   4.519   1.857   0.071
 8259SOL     OW25675   3.813   1.500   1.822
 8259SOL    HW125676   3.767   1.506   1.910
 8259SOL    HW225677   3.905   1.539   1.830
 8260SOL     OW25678   2.906   6.198   0.591
 8260SOL    HW125679   2.995   6.159   0.570
 8260SOL    HW225680   2.834   6.136   0.559
 8261SOL     OW25681   5.578   1.331   1.187
 8261SOL    HW125682   5.492   1.287   1.162
 8261SOL    HW225683   5.568   1.378   1.275
 8262SOL     OW25684   1.050   2.382   0.557
 8262SOL    HW125685   1.094   2.430   0.632
 8262SOL    HW225686   1.060   2.436   0.473
 8263SOL     OW25687   6.140   0.946   0.374
 8263SOL    HW125688   6.147   1.045   0.377
 8263SOL    HW225689   6.195   0.905   0.447
 8264SOL     OW25690   1.703   4.674   2.554
 8264SOL    HW125691   1.730   4.638   2.464
 8264SOL    HW225692   1.609   4.708   2.549
 8265SOL     OW25693   1.999   0.790   1.567
 8265SOL    HW125694   1.955   0.839   1.643
 8265SOL    HW225695   2.044   0.855   1.507
 8266SOL     OW25696   3.659   0.494   3.197
 8266SOL    HW125697   3.580   0.518   3.141
 8266SOL    HW225698   3.735   0.555   3.176
 8267SOL     OW25699   0.476   3.332   0.916
 8267SOL    HW125700   0.541   3.291   0.853
 8267SOL    HW225701   0.425   3.260   0.963
 8268SOL     OW25702   3.241   5.881   5.950
 8268SOL    HW125703   3.242   5.903   5.853
 8268SOL    HW225704   3.321   5.922   5.994
 8269SOL     OW25705   5.776   1.571   1.374
 8269SOL    HW125706   5.815   1.614   1.456
 8269SOL    HW225707   5.677   1.560   1.386
 8270SOL     OW25708   3.182   6.300   3.975
 8270SOL    HW125709   3.251   6.288   3.904
 8270SOL    HW225710   3.101   6.246   3.953
 8271SOL     OW25711   6.845   2.190   1.799
 8271SOL    HW125712   6.940   2.189   1.767
 8271SOL    HW225713   6.815   2.096   1.816
 8272SOL     OW25714   3.541   1.136   3.731
 8272SOL    HW125715   3.631   1.169   3.759
 8272SOL    HW225716   3.533   1.139   3.631
 8273SOL     OW25717   2.143   6.568   1.082
 8273SOL    HW125718   2.173   6.497   1.146
 8273SOL    HW225719   2.220   6.628   1.060
 8274SOL     OW25720   5.316   5.016   3.397
 8274SOL    HW125721   5.255   5.024   3.476
 8274SOL    HW225722   5.407   4.989   3.428
 8275SOL     OW25723   4.895   2.298   6.317
 8275SOL    HW125724   4.848   2.241   6.250
 8275SOL    HW225725   4.848   2.291   6.406
 8276SOL     OW25726   0.406   2.165   3.094
 8276SOL    HW125727   0.373   2.198   3.182
 8276SOL    HW225728   0.328   2.145   3.034
 8277SOL     OW25729   6.496   0.245   6.843
 8277SOL    HW125730   6.419   0.236   6.906
 8277SOL    HW225731   6.462   0.276   6.754
 8278SOL     OW25732   1.917   2.438   0.412
 8278SOL    HW125733   1.974   2.389   0.479
 8278SOL    HW225734   1.835   2.473   0.457
 8279SOL     OW25735   6.619   6.151   3.800
 8279SOL    HW125736   6.558   6.123   3.874
 8279SOL    HW225737   6.701   6.193   3.839
 8280SOL     OW25738   2.664   2.673   5.987
 8280SOL    HW125739   2.759   2.644   5.974
 8280SOL    HW225740   2.603   2.606   5.943
 8281SOL     OW25741   6.180   5.541   2.124
 8281SOL    HW125742   6.155   5.445   2.140
 8281SOL    HW225743   6.205   5.584   2.211
 8282SOL     OW25744   5.419   2.390   5.381
 8282SOL    HW125745   5.391   2.317   5.444
 8282SOL    HW225746   5.369   2.474   5.403
 8283SOL     OW25747   1.714   4.167   5.810
 8283SOL    HW125748   1.768   4.138   5.731
 8283SOL    HW225749   1.619   4.181   5.781
 8284SOL     OW25750   6.789   4.512   1.644
 8284SOL    HW125751   6.777   4.433   1.705
 8284SOL    HW225752   6.743   4.592   1.683
 8285SOL     OW25753   3.747   3.707   4.322
 8285SOL    HW125754   3.775   3.790   4.371
 8285SOL    HW225755   3.660   3.724   4.276
 8286SOL     OW25756   6.508   2.206   5.958
 8286SOL    HW125757   6.518   2.305   5.949
 8286SOL    HW225758   6.434   2.186   6.022
 8287SOL     OW25759   1.317   5.313   4.751
 8287SOL    HW125760   1.278   5.258   4.825
 8287SOL    HW225761   1.306   5.264   4.665
 8288SOL     OW25762   2.893   2.158   2.938
 8288SOL    HW125763   2.863   2.064   2.919
 8288SOL    HW225764   2.910   2.168   3.036
 8289SOL     OW25765   0.280   6.179   6.849
 8289SOL    HW125766   0.258   6.236   6.929
 8289SOL    HW225767   0.331   6.234   6.783
 8290SOL     OW25768   6.722   2.704   0.598
 8290SOL    HW125769   6.772   2.658   0.671
 8290SOL    HW225770   6.718   2.802   0.617
 8291SOL     OW25771   4.583   0.036   0.941
 8291SOL    HW125772   4.633   0.083   1.014
 8291SOL    HW225773   4.648   7.016   0.877
 8292SOL     OW25774   3.361   6.915   6.580
 8292SOL    HW125775   3.332   6.963   6.662
 8292SOL    HW225776   3.421   6.839   6.605
 8293SOL     OW25777   5.227   5.757   5.019
 8293SOL    HW125778   5.240   5.753   5.118
 8293SOL    HW225779   5.302   5.709   4.974
 8294SOL     OW25780   5.550   2.608   0.384
 8294SOL    HW125781   5.456   2.616   0.416
 8294SOL    HW225782   5.574   2.512   0.373
 8295SOL     OW25783   5.235   3.441   0.458
 8295SOL    HW125784   5.330   3.468   0.448
 8295SOL    HW225785   5.197   3.419   0.368
 8296SOL     OW25786   1.566   5.721   0.258
 8296SOL    HW125787   1.502   5.704   0.332
 8296SOL    HW225788   1.659   5.710   0.291
 8297SOL     OW25789   0.536   2.562   2.939
 8297SOL    HW125790   0.452   2.508   2.939
 8297SOL    HW225791   0.588   2.543   2.856
 8298SOL     OW25792   4.480   1.421   1.438
 8298SOL    HW125793   4.565   1.469   1.414
 8298SOL    HW225794   4.436   1.469   1.514
 8299SOL     OW25795   6.537   2.267   1.659
 8299SOL    HW125796   6.534   2.315   1.572
 8299SOL    HW225797   6.622   2.213   1.664
 8300SOL     OW25798   0.546   4.625   3.430
 8300SOL    HW125799   0.544   4.527   3.409
 8300SOL    HW225800   0.606   4.641   3.509
 8301SOL     OW25801   3.644   3.204   6.743
 8301SOL    HW125802   3.705   3.186   6.820
 8301SOL    HW225803   3.568   3.262   6.773
 8302SOL     OW25804   5.703   5.779   6.438
 8302SOL    HW125805   5.649   5.805   6.519
 8302SOL    HW225806   5.665   5.695   6.399
 8303SOL     OW25807   0.140   0.760   5.011
 8303SOL    HW125808   0.068   0.702   4.972
 8303SOL    HW225809   0.101   0.819   5.082
 8304SOL     OW25810   0.287   3.582   6.763
 8304SOL    HW125811   0.382   3.574   6.734
 8304SOL    HW225812   0.281   3.649   6.838
 8305SOL     OW25813   3.279   6.169   3.204
 8305SOL    HW125814   3.282   6.237   3.277
 8305SOL    HW225815   3.280   6.215   3.115
 8306SOL     OW25816   0.870   3.324   4.345
 8306SOL    HW125817   0.897   3.358   4.436
 8306SOL    HW225818   0.855   3.402   4.284
 8307SOL     OW25819   3.045   5.766   1.483
 8307SOL    HW125820   3.030   5.760   1.581
 8307SOL    HW225821   3.009   5.853   1.449
 8308SOL     OW25822   4.007   6.455   2.664
 8308SOL    HW125823   4.057   6.375   2.697
 8308SOL    HW225824   4.008   6.526   2.734
 8309SOL     OW25825   4.841   5.960   2.313
 8309SOL    HW125826   4.776   6.000   2.378
 8309SOL    HW225827   4.886   6.033   2.262
 8310SOL     OW25828   0.015   4.246   0.271
 8310SOL    HW125829   6.997   4.277   0.184
 8310SOL    HW225830   0.031   4.148   0.268
 8311SOL     OW25831   6.531   0.446   0.654
 8311SOL    HW125832   6.438   0.478   0.670
 8311SOL    HW225833   6.538   0.408   0.562
 8312SOL     OW25834   5.429   6.763   1.432
 8312SOL    HW125835   5.492   6.703   1.481
 8312SOL    HW225836   5.438   6.856   1.467
 8313SOL     OW25837   3.548   0.984   2.767
 8313SOL    HW125838   3.617   0.979   2.839
 8313SOL    HW225839   3.480   1.054   2.792
 8314SOL     OW25840   6.332   6.924   3.295
 8314SOL    HW125841   6.273   6.950   3.372
 8314SOL    HW225842   6.427   6.923   3.325
 8315SOL     OW25843   4.495   4.276   6.435
 8315SOL    HW125844   4.540   4.365   6.431
 8315SOL    HW225845   4.526   4.226   6.515
 8316SOL     OW25846   2.099   4.979   6.457
 8316SOL    HW125847   2.067   4.980   6.363
 8316SOL    HW225848   2.187   5.026   6.463
 8317SOL     OW25849   2.158   4.097   2.031
 8317SOL    HW125850   2.240   4.122   1.980
 8317SOL    HW225851   2.084   4.159   2.006
 8318SOL     OW25852   3.766   1.387   5.482
 8318SOL    HW125853   3.694   1.431   5.428
 8318SOL    HW225854   3.755   1.412   5.578
 8319SOL     OW25855   3.446   0.939   4.778
 8319SOL    HW125856   3.534   0.913   4.818
 8319SOL    HW225857   3.400   1.004   4.838
 8320SOL     OW25858   3.561   4.561   1.600
 8320SOL    HW125859   3.579   4.463   1.611
 8320SOL    HW225860   3.604   4.611   1.675
 8321SOL     OW25861   0.692   0.939   1.425
 8321SOL    HW125862   0.657   1.026   1.459
 8321SOL    HW225863   0.777   0.916   1.473
 8322SOL     OW25864   6.125   6.763   6.934
 8322SOL    HW125865   6.045   6.792   6.880
 8322SOL    HW225866   6.096   6.700   7.005
 8323SOL     OW25867   1.402   1.931   1.546
 8323SOL    HW125868   1.381   1.946   1.449
 8323SOL    HW225869   1.500   1.919   1.558
 8324SOL     OW25870   6.678   0.810   2.022
 8324SOL    HW125871   6.686   0.841   2.117
 8324SOL    HW225872   6.757   0.842   1.970
 8325SOL     OW25873   3.428   3.205   3.844
 8325SOL    HW125874   3.526   3.224   3.835
 8325SOL    HW225875   3.377   3.291   3.841
 8326SOL     OW25876   3.836   3.404   5.746
 8326SOL    HW125877   3.832   3.346   5.827
 8326SOL    HW225878   3.819   3.348   5.664
 8327SOL     OW25879   5.242   2.215   5.783
 8327SOL    HW125880   5.217   2.259   5.870
 8327SOL    HW225881   5.337   2.185   5.787
 8328SOL     OW25882   2.573   2.468   5.209
 8328SOL    HW125883   2.631   2.514   5.276
 8328SOL    HW225884   2.529   2.389   5.251
 8329SOL     OW25885   0.300   3.340   5.242
 8329SOL    HW125886   0.343   3.430   5.240
 8329SOL    HW225887   0.370   3.269   5.230
 8330SOL     OW25888   2.851   6.450   6.600
 8330SOL    HW125889   2.822   6.357   6.575
 8330SOL    HW225890   2.820   6.471   6.692
 8331SOL     OW25891   2.430   0.088   0.488
 8331SOL    HW125892   2.515   0.139   0.497
 8331SOL    HW225893   2.353   0.151   0.488
 8332SOL     OW25894   5.250   5.801   2.754
 8332SOL    HW125895   5.301   5.720   2.784
 8332SOL    HW225896   5.180   5.824   2.822
 8333SOL     OW25897   0.782   5.892   6.228
 8333SOL    HW125898   0.811   5.812   6.280
 8333SOL    HW225899   0.823   5.974   6.266
 8334SOL     OW25900   6.194   1.614   3.643
 8334SOL    HW125901   6.217   1.528   3.688
 8334SOL    HW225902   6.277   1.666   3.626
 8335SOL     OW25903   5.288   6.715   5.847
 8335SOL    HW125904   5.235   6.667   5.777
 8335SOL    HW225905   5.236   6.795   5.877
 8336SOL     OW25906   0.450   1.700   2.407
 8336SOL    HW125907   0.432   1.792   2.373
 8336SOL    HW225908   0.390   1.680   2.485
 8337SOL     OW25909   0.459   6.531   2.563
 8337SOL    HW125910   0.476   6.454   2.624
 8337SOL    HW225911   0.546   6.572   2.536
 8338SOL     OW25912   1.771   4.712   0.910
 8338SOL    HW125913   1.849   4.649   0.916
 8338SOL    HW225914   1.796   4.790   0.853
 8339SOL     OW25915   5.559   1.652   2.819
 8339SOL    HW125916   5.604   1.680   2.735
 8339SOL    HW225917   5.617   1.674   2.897
 8340SOL     OW25918   5.055   3.446   0.254
 8340SOL    HW125919   4.977   3.470   0.312
 8340SOL    HW225920   5.093   3.529   0.214
 8341SOL     OW25921   2.136   6.234   0.785
 8341SOL    HW125922   2.140   6.165   0.712
 8341SOL    HW225923   2.041   6.262   0.799
 8342SOL     OW25924   4.245   0.778   0.513
 8342SOL    HW125925   4.167   0.771   0.452
 8342SOL    HW225926   4.240   0.864   0.564
 8343SOL     OW25927   1.710   5.391   6.092
 8343SOL    HW125928   1.655   5.470   6.064
 8343SOL    HW225929   1.693   5.314   6.030
 8344SOL     OW25930   3.927   6.373   5.612
 8344SOL    HW125931   4.023   6.363   5.584
 8344SOL    HW225932   3.867   6.347   5.537
 8345SOL     OW25933   6.275   1.169   2.481
 8345SOL    HW125934   6.189   1.220   2.471
 8345SOL    HW225935   6.323   1.202   2.563
 8346SOL     OW25936   3.041   5.696   1.742
 8346SOL    HW125937   3.125   5.731   1.784
 8346SOL    HW225938   3.002   5.625   1.801
 8347SOL     OW25939   3.396   5.941   4.825
 8347SOL    HW125940   3.415   5.869   4.892
 8347SOL    HW225941   3.385   5.899   4.735
 8348SOL     OW25942   1.847   0.297   0.189
 8348SOL    HW125943   1.894   0.263   0.108
 8348SOL    HW225944   1.759   0.338   0.163
 8349SOL     OW25945   5.525   5.051   1.693
 8349SOL    HW125946   5.431   5.081   1.711
 8349SOL    HW225947   5.589   5.116   1.734
 8350SOL     OW25948   6.127   0.911   4.614
 8350SOL    HW125949   6.032   0.888   4.591
 8350SOL    HW225950   6.185   0.832   4.596
 8351SOL     OW25951   3.492   6.061   2.960
 8351SOL    HW125952   3.587   6.040   2.937
 8351SOL    HW225953   3.472   6.025   3.051
 8352SOL     OW25954   0.033   6.527   1.931
 8352SOL    HW125955   0.117   6.508   1.982
 8352SOL    HW225956   7.004   6.602   1.974
 8353SOL     OW25957   0.410   3.408   2.212
 8353SOL    HW125958   0.503   3.437   2.188
 8353SOL    HW225959   0.413   3.342   2.287
 8354SOL     OW25960   2.342   0.851   0.048
 8354SOL    HW125961   2.390   0.929   0.087
 8354SOL    HW225962   2.332   0.864   6.970
 8355SOL     OW25963   3.189   1.008   0.080
 8355SOL    HW125964   3.220   0.976   0.169
 8355SOL    HW225965   3.195   0.934   0.013
 8356SOL     OW25966   2.353   5.541   6.990
 8356SOL    HW125967   2.360   5.588   0.058
 8356SOL    HW225968   2.379   5.445   7.001
 8357SOL     OW25969   4.786   5.542   4.169
 8357SOL    HW125970   4.845   5.575   4.095
 8357SOL    HW225971   4.763   5.446   4.154
 8358SOL     OW25972   2.377   2.635   5.656
 8358SOL    HW125973   2.405   2.698   5.584
 8358SOL    HW225974   2.409   2.543   5.633
 8359SOL     OW25975   4.352   4.927   4.083
 8359SOL    HW125976   4.288   4.857   4.115
 8359SOL    HW225977   4.301   5.007   4.052
 8360SOL     OW25978   4.506   0.188   3.418
 8360SOL    HW125979   4.522   0.170   3.321
 8360SOL    HW225980   4.585   0.158   3.471
 8361SOL     OW25981   1.843   0.599   2.601
 8361SOL    HW125982   1.760   0.654   2.597
 8361SOL    HW225983   1.856   0.565   2.695
 8362SOL     OW25984   2.506   2.368   0.296
 8362SOL    HW125985   2.407   2.378   0.308
 8362SOL    HW225986   2.532   2.406   0.207
 8363SOL     OW25987   0.201   3.087   0.693
 8363SOL    HW125988   0.257   3.162   0.658
 8363SOL    HW225989   0.133   3.123   0.756
 8364SOL     OW25990   6.173   3.886   3.879
 8364SOL    HW125991   6.237   3.919   3.949
 8364SOL    HW225992   6.084   3.929   3.894
 8365SOL     OW25993   2.319   3.439   6.199
 8365SOL    HW125994   2.221   3.460   6.198
 8365SOL    HW225995   2.365   3.491   6.127
 8366SOL     OW25996   2.834   6.453   3.019
 8366SOL    HW125997   2.821   6.544   2.978
 8366SOL    HW225998   2.772   6.443   3.098
 8367SOL     OW25999   5.714   5.649   3.769
 8367SOL    HW126000   5.650   5.650   3.846
 8367SOL    HW226001   5.807   5.634   3.803
 8368SOL     OW26002   3.253   5.005   6.727
 8368SOL    HW126003   3.212   5.092   6.701
 8368SOL    HW226004   3.276   5.007   6.825
 8369SOL     OW26005   2.283   1.077   0.967
 8369SOL    HW126006   2.305   1.152   0.903
 8369SOL    HW226007   2.360   1.063   1.029
 8370SOL     OW26008   1.303   1.698   6.523
 8370SOL    HW126009   1.228   1.685   6.459
 8370SOL    HW226010   1.272   1.754   6.600
 8371SOL     OW26011   1.903   3.299   0.646
 8371SOL    HW126012   1.863   3.250   0.569
 8371SOL    HW226013   1.979   3.355   0.614
 8372SOL     OW26014   0.138   0.924   2.214
 8372SOL    HW126015   0.134   1.017   2.251
 8372SOL    HW226016   0.192   0.923   2.130
 8373SOL     OW26017   1.601   6.742   5.200
 8373SOL    HW126018   1.656   6.822   5.173
 8373SOL    HW226019   1.654   6.686   5.264
 8374SOL     OW26020   6.427   6.904   6.688
 8374SOL    HW126021   6.456   6.810   6.674
 8374SOL    HW226022   6.501   6.957   6.729
 8375SOL     OW26023   3.536   0.276   6.832
 8375SOL    HW126024   3.488   0.260   6.918
 8375SOL    HW226025   3.541   0.374   6.814
 8376SOL     OW26026   3.238   0.562   4.840
 8376SOL    HW126027   3.205   0.653   4.814
 8376SOL    HW226028   3.202   0.539   4.931
 8377SOL     OW26029   5.569   4.318   0.948
 8377SOL    HW126030   5.555   4.279   0.857
 8377SOL    HW226031   5.560   4.246   1.017
 8378SOL     OW26032   5.010   2.654   3.746
 8378SOL    HW126033   5.068   2.729   3.712
 8378SOL    HW226034   5.050   2.617   3.830
 8379SOL     OW26035   6.031   2.529   2.454
 8379SOL    HW126036   6.027   2.614   2.507
 8379SOL    HW226037   5.954   2.526   2.390
 8380SOL     OW26038   4.605   1.736   3.596
 8380SOL    HW126039   4.666   1.719   3.519
 8380SOL    HW226040   4.656   1.729   3.681
 8381SOL     OW26041   2.136   5.662   4.668
 8381SOL    HW126042   2.106   5.722   4.741
 8381SOL    HW226043   2.182   5.581   4.707
 8382SOL     OW26044   1.578   2.868   2.272
 8382SOL    HW126045   1.531   2.946   2.314
 8382SOL    HW226046   1.513   2.816   2.217
 8383SOL     OW26047   2.719   2.426   6.228
 8383SOL    HW126048   2.698   2.350   6.166
 8383SOL    HW226049   2.638   2.481   6.243
 8384SOL     OW26050   0.566   6.812   2.059
 8384SOL    HW126051   0.521   6.877   1.999
 8384SOL    HW226052   0.498   6.759   2.109
 8385SOL     OW26053   5.290   2.068   1.033
 8385SOL    HW126054   5.295   2.163   1.001
 8385SOL    HW226055   5.277   2.067   1.132
 8386SOL     OW26056   0.895   4.483   2.757
 8386SOL    HW126057   0.993   4.481   2.734
 8386SOL    HW226058   0.866   4.391   2.784
 8387SOL     OW26059   0.283   2.217   1.183
 8387SOL    HW126060   0.273   2.124   1.217
 8387SOL    HW226061   0.313   2.215   1.088
 8388SOL     OW26062   1.542   6.809   2.833
 8388SOL    HW126063   1.453   6.777   2.800
 8388SOL    HW226064   1.530   6.896   2.882
 8389SOL     OW26065   5.035   2.716   2.393
 8389SOL    HW126066   5.097   2.672   2.328
 8389SOL    HW226067   5.068   2.809   2.412
 8390SOL     OW26068   5.345   1.309   5.880
 8390SOL    HW126069   5.398   1.309   5.965
 8390SOL    HW226070   5.407   1.323   5.803
 8391SOL     OW26071   6.549   0.098   1.363
 8391SOL    HW126072   6.629   0.127   1.416
 8391SOL    HW226073   6.579   0.062   1.275
 8392SOL     OW26074   5.223   3.090   4.879
 8392SOL    HW126075   5.240   3.069   4.782
 8392SOL    HW226076   5.298   3.054   4.934
 8393SOL     OW26077   5.438   0.719   1.317
 8393SOL    HW126078   5.505   0.704   1.390
 8393SOL    HW226079   5.346   0.725   1.358
 8394SOL     OW26080   5.437   3.292   1.769
 8394SOL    HW126081   5.380   3.366   1.733
 8394SOL    HW226082   5.528   3.326   1.791
 8395SOL     OW26083   1.656   1.361   4.553
 8395SOL    HW126084   1.574   1.361   4.496
 8395SOL    HW226085   1.698   1.452   4.553
 8396SOL     OW26086   4.096   5.469   4.445
 8396SOL    HW126087   4.188   5.504   4.463
 8396SOL    HW226088   4.037   5.545   4.416
 8397SOL     OW26089   5.965   0.960   2.543
 8397SOL    HW126090   6.032   1.030   2.565
 8397SOL    HW226091   5.876   1.003   2.527
 8398SOL     OW26092   4.282   2.107   6.166
 8398SOL    HW126093   4.273   2.148   6.257
 8398SOL    HW226094   4.282   2.007   6.175
 8399SOL     OW26095   6.833   5.118   0.855
 8399SOL    HW126096   6.787   5.058   0.921
 8399SOL    HW226097   6.860   5.065   0.775
 8400SOL     OW26098   1.503   2.151   4.724
 8400SOL    HW126099   1.587   2.204   4.719
 8400SOL    HW226100   1.424   2.211   4.706
 8401SOL     OW26101   2.876   6.801   6.041
 8401SOL    HW126102   2.925   6.816   5.954
 8401SOL    HW226103   2.936   6.823   6.117
 8402SOL     OW26104   3.645   0.511   6.082
 8402SOL    HW126105   3.608   0.546   6.168
 8402SOL    HW226106   3.745   0.505   6.089
 8403SOL     OW26107   6.070   4.942   4.414
 8403SOL    HW126108   6.088   5.002   4.492
 8403SOL    HW226109   6.140   4.872   4.408
 8404SOL     OW26110   0.802   1.951   6.560
 8404SOL    HW126111   0.745   1.981   6.636
 8404SOL    HW226112   0.756   1.972   6.473
 8405SOL     OW26113   3.807   0.588   5.655
 8405SOL    HW126114   3.833   0.522   5.726
 8405SOL    HW226115   3.847   0.677   5.677
 8406SOL     OW26116   4.899   6.964   6.004
 8406SOL    HW126117   4.826   6.925   6.060
 8406SOL    HW226118   4.903   0.043   6.018
 8407SOL     OW26119   3.269   0.038   4.265
 8407SOL    HW126120   3.245   0.116   4.323
 8407SOL    HW226121   3.364   0.047   4.235
 8408SOL     OW26122   3.629   1.519   1.599
 8408SOL    HW126123   3.679   1.510   1.685
 8408SOL    HW226124   3.572   1.601   1.602
 8409SOL     OW26125   4.142   2.252   2.096
 8409SOL    HW126126   4.089   2.189   2.153
 8409SOL    HW226127   4.204   2.305   2.153
 8410SOL     OW26128   6.724   1.699   1.641
 8410SOL    HW126129   6.638   1.750   1.634
 8410SOL    HW226130   6.708   1.614   1.692
 8411SOL     OW26131   1.878   5.155   0.799
 8411SOL    HW126132   1.800   5.217   0.800
 8411SOL    HW226133   1.958   5.202   0.835
 8412SOL     OW26134   2.649   2.523   6.570
 8412SOL    HW126135   2.688   2.433   6.551
 8412SOL    HW226136   2.558   2.529   6.528
 8413SOL     OW26137   4.452   5.900   4.776
 8413SOL    HW126138   4.411   5.972   4.721
 8413SOL    HW226139   4.390   5.822   4.781
 8414SOL     OW26140   1.522   0.678   1.255
 8414SOL    HW126141   1.564   0.746   1.315
 8414SOL    HW226142   1.582   0.661   1.177
 8415SOL     OW26143   2.505   1.040   5.730
 8415SOL    HW126144   2.575   1.014   5.797
 8415SOL    HW226145   2.550   1.067   5.644
 8416SOL     OW26146   6.575   1.840   5.401
 8416SOL    HW126147   6.535   1.860   5.311
 8416SOL    HW226148   6.670   1.869   5.402
 8417SOL     OW26149   1.543   3.640   5.384
 8417SOL    HW126150   1.480   3.648   5.461
 8417SOL    HW226151   1.615   3.573   5.406
 8418SOL     OW26152   0.524   6.067   2.357
 8418SOL    HW126153   0.537   6.089   2.453
 8418SOL    HW226154   0.484   6.146   2.310
 8419SOL     OW26155   4.163   1.877   4.245
 8419SOL    HW126156   4.147   1.943   4.318
 8419SOL    HW226157   4.127   1.788   4.271
 8420SOL     OW26158   3.147   0.406   1.840
 8420SOL    HW126159   3.111   0.317   1.813
 8420SOL    HW226160   3.212   0.438   1.771
 8421SOL     OW26161   4.590   6.735   6.496
 8421SOL    HW126162   4.499   6.742   6.454
 8421SOL    HW226163   4.652   6.689   6.432
 8422SOL     OW26164   5.291   2.306   3.107
 8422SOL    HW126165   5.263   2.304   3.011
 8422SOL    HW226166   5.236   2.373   3.157
 8423SOL     OW26167   6.856   5.294   6.356
 8423SOL    HW126168   6.839   5.310   6.258
 8423SOL    HW226169   6.782   5.334   6.410
 8424SOL     OW26170   2.715   0.571   4.174
 8424SOL    HW126171   2.796   0.628   4.188
 8424SOL    HW226172   2.682   0.581   4.080
 8425SOL     OW26173   3.600   4.085   2.561
 8425SOL    HW126174   3.595   4.107   2.464
 8425SOL    HW226175   3.527   4.132   2.610
 8426SOL     OW26176   3.876   2.982   1.971
 8426SOL    HW126177   3.947   2.954   1.906
 8426SOL    HW226178   3.919   3.020   2.053
 8427SOL     OW26179   3.532   3.814   3.859
 8427SOL    HW126180   3.616   3.764   3.879
 8427SOL    HW226181   3.481   3.766   3.787
 8428SOL     OW26182   6.578   6.993   1.125
 8428SOL    HW126183   6.521   6.971   1.046
 8428SOL    HW226184   6.593   6.911   1.180
 8429SOL     OW26185   2.614   6.108   5.661
 8429SOL    HW126186   2.517   6.096   5.637
 8429SOL    HW226187   2.670   6.088   5.580
 8430SOL     OW26188   4.148   6.743   4.953
 8430SOL    HW126189   4.075   6.800   4.989
 8430SOL    HW226190   4.141   6.740   4.853
 8431SOL     OW26191   2.524   3.467   6.375
 8431SOL    HW126192   2.582   3.501   6.301
 8431SOL    HW226193   2.432   3.451   6.339
 8432SOL     OW26194   6.407   5.019   6.213
 8432SOL    HW126195   6.488   4.974   6.252
 8432SOL    HW226196   6.376   4.968   6.133
 8433SOL     OW26197   5.400   2.575   1.205
 8433SOL    HW126198   5.330   2.644   1.186
 8433SOL    HW226199   5.412   2.516   1.124
 8434SOL     OW26200   2.714   5.968   5.431
 8434SOL    HW126201   2.757   5.879   5.438
 8434SOL    HW226202   2.749   6.016   5.351
 8435SOL     OW26203   5.004   1.644   3.030
 8435SOL    HW126204   5.000   1.721   2.966
 8435SOL    HW226205   5.036   1.563   2.981
 8436SOL     OW26206   2.295   5.675   2.461
 8436SOL    HW126207   2.298   5.578   2.437
 8436SOL    HW226208   2.263   5.728   2.382
 8437SOL     OW26209   1.078   4.722   2.430
 8437SOL    HW126210   1.072   4.663   2.510
 8437SOL    HW226211   1.163   4.703   2.381
 8438SOL     OW26212   1.207   4.053   2.145
 8438SOL    HW126213   1.147   4.111   2.200
 8438SOL    HW226214   1.171   3.960   2.142
 8439SOL     OW26215   5.897   4.938   3.018
 8439SOL    HW126216   5.875   5.016   2.959
 8439SOL    HW226217   5.840   4.941   3.100
 8440SOL     OW26218   2.282   1.353   2.881
 8440SOL    HW126219   2.249   1.444   2.860
 8440SOL    HW226220   2.218   1.307   2.943
 8441SOL     OW26221   6.198   1.304   4.714
 8441SOL    HW126222   6.201   1.279   4.811
 8441SOL    HW226223   6.284   1.276   4.671
 8442SOL     OW26224   3.126   1.312   6.902
 8442SOL    HW126225   3.132   1.399   6.951
 8442SOL    HW226226   3.217   1.273   6.891
 8443SOL     OW26227   0.918   4.012   3.379
 8443SOL    HW126228   0.967   3.953   3.315
 8443SOL    HW226229   0.871   3.956   3.448
 8444SOL     OW26230   5.141   5.139   4.616
 8444SOL    HW126231   5.064   5.134   4.552
 8444SOL    HW226232   5.124   5.077   4.693
 8445SOL     OW26233   4.469   5.973   6.363
 8445SOL    HW126234   4.472   5.885   6.315
 8445SOL    HW226235   4.459   5.956   6.461
 8446SOL     OW26236   0.157   5.308   4.803
 8446SOL    HW126237   0.092   5.342   4.871
 8446SOL    HW226238   0.213   5.384   4.770
 8447SOL     OW26239   3.957   2.138   3.456
 8447SOL    HW126240   3.974   2.187   3.371
 8447SOL    HW226241   4.017   2.174   3.528
 8448SOL     OW26242   3.348   6.291   2.962
 8448SOL    HW126243   3.406   6.214   2.937
 8448SOL    HW226244   3.365   6.367   2.899
 8449SOL     OW26245   2.148   2.170   3.368
 8449SOL    HW126246   2.165   2.234   3.443
 8449SOL    HW226247   2.091   2.095   3.400
 8450SOL     OW26248   0.363   1.272   6.656
 8450SOL    HW126249   0.267   1.294   6.670
 8450SOL    HW226250   0.380   1.177   6.678
 8451SOL     OW26251   4.660   2.637   0.939
 8451SOL    HW126252   4.599   2.561   0.917
 8451SOL    HW226253   4.705   2.621   1.026
 8452SOL     OW26254   4.934   1.870   5.581
 8452SOL    HW126255   4.844   1.853   5.540
 8452SOL    HW226256   4.987   1.929   5.521
 8453SOL     OW26257   0.254   6.266   0.779
 8453SOL    HW126258   0.288   6.226   0.694
 8453SOL    HW226259   0.259   6.198   0.852
 8454SOL     OW26260   6.758   3.906   6.829
 8454SOL    HW126261   6.795   3.935   6.918
 8454SOL    HW226262   6.690   3.835   6.843
 8455SOL     OW26263   0.244   1.400   2.795
 8455SOL    HW126264   0.194   1.428   2.878
 8455SOL    HW226265   0.308   1.326   2.818
 8456SOL     OW26266   6.075   0.866   3.570
 8456SOL    HW126267   5.998   0.907   3.521
 8456SOL    HW226268   6.152   0.855   3.508
 8457SOL     OW26269   6.538   0.173   5.381
 8457SOL    HW126270   6.530   0.074   5.364
 8457SOL    HW226271   6.601   0.213   5.315
 8458SOL     OW26272   0.098   6.761   6.681
 8458SOL    HW126273   0.129   6.706   6.603
 8458SOL    HW226274   0.022   6.715   6.727
 8459SOL     OW26275   1.577   6.057   3.478
 8459SOL    HW126276   1.530   5.970   3.494
 8459SOL    HW226277   1.676   6.042   3.480
 8460SOL     OW26278   3.293   4.102   3.190
 8460SOL    HW126279   3.390   4.124   3.200
 8460SOL    HW226280   3.277   4.059   3.102
 8461SOL     OW26281   6.405   3.658   4.002
 8461SOL    HW126282   6.317   3.673   3.957
 8461SOL    HW226283   6.392   3.659   4.101
 8462SOL     OW26284   2.270   2.950   1.603
 8462SOL    HW126285   2.369   2.954   1.614
 8462SOL    HW226286   2.230   2.902   1.681
 8463SOL     OW26287   5.349   0.835   1.676
 8463SOL    HW126288   5.399   0.921   1.667
 8463SOL    HW226289   5.280   0.829   1.603
 8464SOL     OW26290   6.666   1.578   4.925
 8464SOL    HW126291   6.611   1.501   4.958
 8464SOL    HW226292   6.715   1.550   4.842
 8465SOL     OW26293   1.788   2.092   0.006
 8465SOL    HW126294   1.828   2.110   0.096
 8465SOL    HW226295   1.777   2.179   6.978
 8466SOL     OW26296   0.232   0.065   3.998
 8466SOL    HW126297   0.172   0.005   4.050
 8466SOL    HW226298   0.214   0.160   4.023
 8467SOL     OW26299   3.212   5.544   0.792
 8467SOL    HW126300   3.143   5.498   0.848
 8467SOL    HW226301   3.198   5.643   0.796
 8468SOL     OW26302   4.914   1.867   0.601
 8468SOL    HW126303   4.821   1.903   0.592
 8468SOL    HW226304   4.947   1.884   0.694
 8469SOL     OW26305   3.911   2.615   6.602
 8469SOL    HW126306   3.918   2.709   6.635
 8469SOL    HW226307   4.001   2.572   6.603
 8470SOL     OW26308   1.376   3.057   6.798
 8470SOL    HW126309   1.473   3.061   6.822
 8470SOL    HW226310   1.324   3.120   6.855
 8471SOL     OW26311   4.230   1.453   4.005
 8471SOL    HW126312   4.280   1.529   3.962
 8471SOL    HW226313   4.193   1.393   3.935
 8472SOL     OW26314   1.002   6.553   3.309
 8472SOL    HW126315   1.077   6.588   3.252
 8472SOL    HW226316   0.937   6.502   3.252
 8473SOL     OW26317   6.438   5.648   0.136
 8473SOL    HW126318   6.390   5.601   0.062
 8473SOL    HW226319   6.413   5.608   0.224
 8474SOL     OW26320   4.165   4.870   0.546
 8474SOL    HW126321   4.222   4.943   0.507
 8474SOL    HW226322   4.079   4.909   0.579
 8475SOL     OW26323   4.309   1.269   3.513
 8475SOL    HW126324   4.315   1.364   3.544
 8475SOL    HW226325   4.352   1.209   3.580
 8476SOL     OW26326   4.954   0.918   2.674
 8476SOL    HW126327   5.031   0.859   2.648
 8476SOL    HW226328   4.870   0.881   2.636
 8477SOL     OW26329   2.659   1.248   2.258
 8477SOL    HW126330   2.673   1.331   2.205
 8477SOL    HW226331   2.563   1.222   2.256
 8478SOL     OW26332   1.553   0.323   5.664
 8478SOL    HW126333   1.647   0.320   5.630
 8478SOL    HW226334   1.542   0.254   5.735
 8479SOL     OW26335   4.575   1.212   2.168
 8479SOL    HW126336   4.560   1.127   2.118
 8479SOL    HW226337   4.634   1.272   2.115
 8480SOL     OW26338   1.237   1.182   1.267
 8480SOL    HW126339   1.259   1.246   1.194
 8480SOL    HW226340   1.191   1.230   1.342
 8481SOL     OW26341   3.663   6.660   4.356
 8481SOL    HW126342   3.762   6.665   4.338
 8481SOL    HW226343   3.637   6.564   4.370
 8482SOL     OW26344   0.483   0.347   1.980
 8482SOL    HW126345   0.578   0.321   1.997
 8482SOL    HW226346   0.466   0.436   2.021
 8483SOL     OW26347   4.623   5.992   2.034
 8483SOL    HW126348   4.556   5.948   2.095
 8483SOL    HW226349   4.702   5.932   2.023
 8484SOL     OW26350   0.538   4.635   4.560
 8484SOL    HW126351   0.455   4.687   4.578
 8484SOL    HW226352   0.574   4.659   4.470
 8485SOL     OW26353   2.584   3.106   5.950
 8485SOL    HW126354   2.675   3.145   5.939
 8485SOL    HW226355   2.589   3.026   6.010
 8486SOL     OW26356   4.149   0.670   2.598
 8486SOL    HW126357   4.213   0.731   2.551
 8486SOL    HW226358   4.061   0.670   2.550
 8487SOL     OW26359   4.426   6.795   1.391
 8487SOL    HW126360   4.330   6.805   1.417
 8487SOL    HW226361   4.468   6.724   1.447
 8488SOL     OW26362   5.108   2.968   4.434
 8488SOL    HW126363   5.126   3.014   4.347
 8488SOL    HW226364   5.010   2.974   4.455
 8489SOL     OW26365   4.412   5.027   3.038
 8489SOL    HW126366   4.374   5.103   2.984
 8489SOL    HW226367   4.476   5.063   3.105
 8490SOL     OW26368   3.924   5.462   2.554
 8490SOL    HW126369   3.975   5.385   2.517
 8490SOL    HW226370   3.986   5.521   2.606
 8491SOL     OW26371   1.982   0.847   1.859
 8491SOL    HW126372   1.948   0.753   1.848
 8491SOL    HW226373   1.908   0.905   1.893
 8492SOL     OW26374   5.688   3.807   4.587
 8492SOL    HW126375   5.655   3.826   4.679
 8492SOL    HW226376   5.733   3.888   4.550
 8493SOL     OW26377   3.413   2.144   0.507
 8493SOL    HW126378   3.350   2.092   0.565
 8493SOL    HW226379   3.363   2.215   0.459
 8494SOL     OW26380   3.654   5.804   0.258
 8494SOL    HW126381   3.609   5.848   0.181
 8494SOL    HW226382   3.752   5.795   0.239
 8495SOL     OW26383   0.253   2.998   0.076
 8495SOL    HW126384   0.268   3.011   0.174
 8495SOL    HW226385   0.335   3.024   0.025
 8496SOL     OW26386   6.726   2.998   3.340
 8496SOL    HW126387   6.718   3.078   3.281
 8496SOL    HW226388   6.738   2.916   3.284
 8497SOL     OW26389   6.112   5.320   3.301
 8497SOL    HW126390   6.018   5.288   3.309
 8497SOL    HW226391   6.113   5.420   3.291
 8498SOL     OW26392   6.721   0.962   0.639
 8498SOL    HW126393   6.817   0.971   0.613
 8498SOL    HW226394   6.708   0.878   0.692
 8499SOL     OW26395   3.128   3.944   6.217
 8499SOL    HW126396   3.100   4.021   6.275
 8499SOL    HW226397   3.147   3.977   6.125
 8500SOL     OW26398   3.166   0.843   6.368
 8500SOL    HW126399   3.226   0.920   6.349
 8500SOL    HW226400   3.196   0.796   6.452
 8501SOL     OW26401   2.492   4.499   5.935
 8501SOL    HW126402   2.454   4.515   6.026
 8501SOL    HW226403   2.421   4.462   5.875
 8502SOL     OW26404   0.211   0.376   1.896
 8502SOL    HW126405   0.191   0.307   1.826
 8502SOL    HW226406   0.305   0.363   1.930
 8503SOL     OW26407   3.183   5.794   3.230
 8503SOL    HW126408   3.134   5.865   3.280
 8503SOL    HW226409   3.148   5.704   3.258
 8504SOL     OW26410   0.766   5.715   3.082
 8504SOL    HW126411   0.739   5.809   3.065
 8504SOL    HW226412   0.747   5.691   3.178
 8505SOL     OW26413   4.951   2.937   3.951
 8505SOL    HW126414   4.932   3.000   4.026
 8505SOL    HW226415   5.035   2.887   3.970
 8506SOL     OW26416   1.079   6.636   0.624
 8506SOL    HW126417   1.058   6.631   0.722
 8506SOL    HW226418   1.091   6.731   0.597
 8507SOL     OW26419   2.017   0.879   4.626
 8507SOL    HW126420   1.964   0.864   4.543
 8507SOL    HW226421   2.098   0.933   4.605
 8508SOL     OW26422   0.969   3.206   6.121
 8508SOL    HW126423   0.978   3.289   6.067
 8508SOL    HW226424   1.055   3.186   6.167
 8509SOL     OW26425   5.967   2.228   4.578
 8509SOL    HW126426   5.954   2.164   4.503
 8509SOL    HW226427   5.947   2.321   4.547
 8510SOL     OW26428   4.905   0.306   2.819
 8510SOL    HW126429   4.892   0.225   2.762
 8510SOL    HW226430   4.964   0.283   2.896
 8511SOL     OW26431   0.183   4.731   1.996
 8511SOL    HW126432   0.177   4.633   2.016
 8511SOL    HW226433   0.272   4.766   2.028
 8512SOL     OW26434   4.171   2.025   0.428
 8512SOL    HW126435   4.111   2.061   0.357
 8512SOL    HW226436   4.225   2.099   0.468
 8513SOL     OW26437   0.305   4.280   1.452
 8513SOL    HW126438   0.309   4.205   1.519
 8513SOL    HW226439   0.287   4.366   1.499
 8514SOL     OW26440   2.364   2.381   6.135
 8514SOL    HW126441   2.359   2.339   6.226
 8514SOL    HW226442   2.411   2.319   6.073
 8515SOL     OW26443   1.546   0.339   1.136
 8515SOL    HW126444   1.509   0.431   1.147
 8515SOL    HW226445   1.588   0.331   1.046
 8516SOL     OW26446   5.335   2.108   3.891
 8516SOL    HW126447   5.308   2.060   3.975
 8516SOL    HW226448   5.283   2.070   3.814
 8517SOL     OW26449   1.856   1.930   6.017
 8517SOL    HW126450   1.827   1.882   5.934
 8517SOL    HW226451   1.852   1.867   6.095
 8518SOL     OW26452   5.342   4.714   0.166
 8518SOL    HW126453   5.345   4.789   0.232
 8518SOL    HW226454   5.265   4.654   0.187
 8519SOL     OW26455   1.353   3.159   0.964
 8519SOL    HW126456   1.293   3.140   1.043
 8519SOL    HW226457   1.422   3.087   0.958
 8520SOL     OW26458   3.912   3.770   6.094
 8520SOL    HW126459   3.992   3.823   6.123
 8520SOL    HW226460   3.943   3.685   6.052
 8521SOL     OW26461   2.063   6.610   5.672
 8521SOL    HW126462   2.048   6.528   5.616
 8521SOL    HW226463   2.013   6.687   5.633
 8522SOL     OW26464   0.663   7.017   0.474
 8522SOL    HW126465   0.581   0.043   0.441
 8522SOL    HW226466   0.739   0.015   0.412
 8523SOL     OW26467   3.108   1.515   0.048
 8523SOL    HW126468   3.072   1.596   0.003
 8523SOL    HW226469   3.047   1.488   0.122
 8524SOL     OW26470   1.912   5.718   4.523
 8524SOL    HW126471   1.995   5.689   4.572
 8524SOL    HW226472   1.937   5.786   4.454
 8525SOL     OW26473   6.185   4.437   1.929
 8525SOL    HW126474   6.273   4.418   1.886
 8525SOL    HW226475   6.194   4.517   1.989
 8526SOL     OW26476   0.742   5.213   0.658
 8526SOL    HW126477   0.794   5.220   0.573
 8526SOL    HW226478   0.804   5.199   0.735
 8527SOL     OW26479   3.071   0.944   5.283
 8527SOL    HW126480   3.079   0.985   5.193
 8527SOL    HW226481   3.079   0.844   5.276
 8528SOL     OW26482   5.323   1.465   0.441
 8528SOL    HW126483   5.375   1.417   0.369
 8528SOL    HW226484   5.280   1.397   0.500
 8529SOL     OW26485   0.945   6.105   6.282
 8529SOL    HW126486   0.887   6.186   6.287
 8529SOL    HW226487   1.033   6.131   6.241
 8530SOL     OW26488   2.925   3.735   3.960
 8530SOL    HW126489   2.870   3.658   3.927
 8530SOL    HW226490   3.021   3.719   3.936
 8531SOL     OW26491   6.735   5.245   4.265
 8531SOL    HW126492   6.740   5.270   4.362
 8531SOL    HW226493   6.678   5.311   4.216
 8532SOL     OW26494   2.570   4.906   5.746
 8532SOL    HW126495   2.586   4.901   5.844
 8532SOL    HW226496   2.495   4.969   5.727
 8533SOL     OW26497   2.556   6.333   5.797
 8533SOL    HW126498   2.614   6.258   5.766
 8533SOL    HW226499   2.461   6.313   5.776
 8534SOL     OW26500   2.256   2.381   3.555
 8534SOL    HW126501   2.332   2.446   3.566
 8534SOL    HW226502   2.170   2.427   3.576
 8535SOL     OW26503   6.419   0.349   2.513
 8535SOL    HW126504   6.351   0.420   2.534
 8535SOL    HW226505   6.507   0.374   2.556
 8536SOL     OW26506   0.886   1.623   5.103
 8536SOL    HW126507   0.906   1.703   5.160
 8536SOL    HW226508   0.818   1.647   5.035
 8537SOL     OW26509   6.976   1.160   2.683
 8537SOL    HW126510   0.032   1.099   2.661
 8537SOL    HW226511   6.991   1.250   2.643
 8538SOL     OW26512   0.777   2.455   0.076
 8538SOL    HW126513   0.779   2.402   0.161
 8538SOL    HW226514   0.725   2.406   0.007
 8539SOL     OW26515   5.541   2.473   2.802
 8539SOL    HW126516   5.443   2.461   2.782
 8539SOL    HW226517   5.551   2.522   2.888
 8540SOL     OW26518   3.574   0.110   0.569
 8540SOL    HW126519   3.597   0.185   0.506
 8540SOL    HW226520   3.605   0.134   0.661
 8541SOL     OW26521   1.780   2.879   4.629
 8541SOL    HW126522   1.787   2.975   4.653
 8541SOL    HW226523   1.757   2.825   4.711
 8542SOL     OW26524   3.400   5.002   1.084
 8542SOL    HW126525   3.423   4.942   1.007
 8542SOL    HW226526   3.362   4.948   1.159
 8543SOL     OW26527   2.297   2.208   6.351
 8543SOL    HW126528   2.335   2.124   6.391
 8543SOL    HW226529   2.202   2.192   6.323
 8544SOL     OW26530   6.389   2.759   3.658
 8544SOL    HW126531   6.300   2.715   3.646
 8544SOL    HW226532   6.461   2.690   3.653
 8545SOL     OW26533   4.872   6.467   5.061
 8545SOL    HW126534   4.893   6.549   5.114
 8545SOL    HW226535   4.895   6.386   5.116
 8546SOL     OW26536   4.310   1.828   6.279
 8546SOL    HW126537   4.296   1.733   6.252
 8546SOL    HW226538   4.407   1.845   6.297
 8547SOL     OW26539   0.666   4.562   2.935
 8547SOL    HW126540   0.676   4.530   3.029
 8547SOL    HW226541   0.745   4.531   2.881
 8548SOL     OW26542   6.256   1.218   5.419
 8548SOL    HW126543   6.209   1.144   5.468
 8548SOL    HW226544   6.222   1.223   5.325
 8549SOL     OW26545   5.672   3.191   4.905
 8549SOL    HW126546   5.641   3.275   4.860
 8549SOL    HW226547   5.665   3.114   4.842
 8550SOL     OW26548   0.876   3.962   6.494
 8550SOL    HW126549   0.971   3.985   6.473
 8550SOL    HW226550   0.851   4.002   6.582
 8551SOL     OW26551   3.053   3.982   1.128
 8551SOL    HW126552   3.105   3.999   1.045
 8551SOL    HW226553   3.101   4.020   1.206
 8552SOL     OW26554   3.156   6.627   4.345
 8552SOL    HW126555   3.185   6.689   4.417
 8552SOL    HW226556   3.206   6.646   4.261
 8553SOL     OW26557   6.070   4.974   0.196
 8553SOL    HW126558   6.133   4.993   0.120
 8553SOL    HW226559   6.108   4.900   0.252
 8554SOL     OW26560   6.386   4.099   6.732
 8554SOL    HW126561   6.459   4.057   6.677
 8554SOL    HW226562   6.370   4.043   6.813
 8555SOL     OW26563   0.813   6.899   4.426
 8555SOL    HW126564   0.814   6.992   4.389
 8555SOL    HW226565   0.742   6.846   4.379
 8556SOL     OW26566   6.422   0.562   4.230
 8556SOL    HW126567   6.402   0.495   4.159
 8556SOL    HW226568   6.344   0.622   4.243
 8557SOL     OW26569   0.473   0.967   0.386
 8557SOL    HW126570   0.550   0.916   0.348
 8557SOL    HW226571   0.436   0.918   0.465
 8558SOL     OW26572   0.819   5.508   1.748
 8558SOL    HW126573   0.839   5.517   1.650
 8558SOL    HW226574   0.903   5.484   1.796
 8559SOL     OW26575   0.446   1.437   5.925
 8559SOL    HW126576   0.496   1.390   5.997
 8559SOL    HW226577   0.453   1.385   5.840
 8560SOL     OW26578   6.588   2.383   6.311
 8560SOL    HW126579   6.682   2.406   6.287
 8560SOL    HW226580   6.587   2.307   6.375
 8561SOL     OW26581   4.976   6.750   5.122
 8561SOL    HW126582   5.067   6.756   5.163
 8561SOL    HW226583   4.959   6.832   5.067
 8562SOL     OW26584   3.619   6.917   4.487
 8562SOL    HW126585   3.556   6.967   4.428
 8562SOL    HW226586   3.652   6.836   4.439
 8563SOL     OW26587   2.670   2.912   6.115
 8563SOL    HW126588   2.665   2.827   6.063
 8563SOL    HW226589   2.596   2.916   6.181
 8564SOL     OW26590   0.148   0.066   3.732
 8564SOL    HW126591   0.058   0.106   3.716
 8564SOL    HW226592   0.185   0.101   3.818
 8565SOL     OW26593   4.492   0.309   1.995
 8565SOL    HW126594   4.394   0.325   2.008
 8565SOL    HW226595   4.542   0.394   2.008
 8566SOL     OW26596   2.081   3.846   3.082
 8566SOL    HW126597   2.122   3.933   3.056
 8566SOL    HW226598   2.111   3.775   3.019
 8567SOL     OW26599   5.185   6.286   0.575
 8567SOL    HW126600   5.205   6.212   0.639
 8567SOL    HW226601   5.259   6.293   0.507
 8568SOL     OW26602   5.830   1.651   0.314
 8568SOL    HW126603   5.754   1.645   0.249
 8568SOL    HW226604   5.865   1.559   0.333
 8569SOL     OW26605   4.219   1.843   5.475
 8569SOL    HW126606   4.273   1.914   5.521
 8569SOL    HW226607   4.126   1.843   5.512
 8570SOL     OW26608   0.823   4.799   6.784
 8570SOL    HW126609   0.728   4.771   6.791
 8570SOL    HW226610   0.882   4.723   6.813
 8571SOL     OW26611   6.978   4.735   4.584
 8571SOL    HW126612   0.002   4.708   4.498
 8571SOL    HW226613   0.025   4.732   4.658
 8572SOL     OW26614   3.133   4.832   5.486
 8572SOL    HW126615   3.227   4.861   5.505
 8572SOL    HW226616   3.081   4.909   5.449
 8573SOL     OW26617   4.344   6.060   4.577
 8573SOL    HW126618   4.321   6.038   4.482
 8573SOL    HW226619   4.266   6.106   4.620
 8574SOL     OW26620   0.531   3.613   4.395
 8574SOL    HW126621   0.533   3.516   4.421
 8574SOL    HW226622   0.623   3.652   4.406
 8575SOL     OW26623   3.071   3.168   6.437
 8575SOL    HW126624   3.169   3.153   6.424
 8575SOL    HW226625   3.022   3.143   6.354
 8576SOL     OW26626   1.892   0.086   1.651
 8576SOL    HW126627   1.823   0.158   1.663
 8576SOL    HW226628   1.848   7.017   1.661
 8577SOL     OW26629   6.833   5.358   3.277
 8577SOL    HW126630   6.800   5.383   3.186
 8577SOL    HW226631   6.914   5.413   3.299
 8578SOL     OW26632   4.607   6.847   3.884
 8578SOL    HW126633   4.611   6.832   3.983
 8578SOL    HW226634   4.696   6.830   3.843
 8579SOL     OW26635   0.515   5.612   3.254
 8579SOL    HW126636   0.592   5.585   3.311
 8579SOL    HW226637   0.478   5.699   3.288
 8580SOL     OW26638   3.166   4.325   5.907
 8580SOL    HW126639   3.197   4.390   5.976
 8580SOL    HW226640   3.189   4.359   5.816
 8581SOL     OW26641   3.244   2.836   0.628
 8581SOL    HW126642   3.287   2.768   0.569
 8581SOL    HW226643   3.314   2.880   0.684
 8582SOL     OW26644   4.885   4.087   1.126
 8582SOL    HW126645   4.834   4.056   1.206
 8582SOL    HW226646   4.845   4.172   1.091
 8583SOL     OW26647   5.295   0.549   5.911
 8583SOL    HW126648   5.309   0.645   5.935
 8583SOL    HW226649   5.262   0.499   5.991
 8584SOL     OW26650   0.304   5.556   6.448
 8584SOL    HW126651   0.383   5.528   6.502
 8584SOL    HW226652   0.230   5.490   6.459
 8585SOL     OW26653   1.009   0.951   0.900
 8585SOL    HW126654   0.980   1.036   0.857
 8585SOL    HW226655   1.071   0.902   0.839
 8586SOL     OW26656   4.155   5.178   4.038
 8586SOL    HW126657   4.164   5.211   4.132
 8586SOL    HW226658   4.135   5.255   3.978
 8587SOL     OW26659   0.121   1.842   1.355
 8587SOL    HW126660   0.101   1.825   1.259
 8587SOL    HW226661   0.058   1.790   1.413
 8588SOL     OW26662   4.003   2.069   0.185
 8588SOL    HW126663   4.054   2.134   0.128
 8588SOL    HW226664   3.956   2.003   0.127
 8589SOL     OW26665   2.953   1.748   4.599
 8589SOL    HW126666   3.016   1.705   4.534
 8589SOL    HW226667   3.000   1.767   4.685
 8590SOL     OW26668   6.178   4.834   5.659
 8590SOL    HW126669   6.225   4.877   5.582
 8590SOL    HW226670   6.182   4.894   5.739
 8591SOL     OW26671   1.119   2.782   6.961
 8591SOL    HW126672   1.167   2.775   6.874
 8591SOL    HW226673   1.024   2.753   6.950
 8592SOL     OW26674   6.576   5.678   6.453
 8592SOL    HW126675   6.521   5.751   6.413
 8592SOL    HW226676   6.611   5.709   6.542
 8593SOL     OW26677   0.383   0.083   3.019
 8593SOL    HW126678   0.413   0.123   2.932
 8593SOL    HW226679   0.463   0.064   3.076
 8594SOL     OW26680   2.978   3.620   3.462
 8594SOL    HW126681   3.024   3.563   3.530
 8594SOL    HW226682   3.033   3.624   3.379
 8595SOL     OW26683   1.963   2.685   1.579
 8595SOL    HW126684   2.031   2.612   1.579
 8595SOL    HW226685   1.929   2.700   1.486
 8596SOL     OW26686   6.577   4.402   2.592
 8596SOL    HW126687   6.541   4.341   2.522
 8596SOL    HW226688   6.576   4.496   2.558
 8597SOL     OW26689   2.291   1.631   0.739
 8597SOL    HW126690   2.342   1.652   0.656
 8597SOL    HW226691   2.309   1.700   0.808
 8598SOL     OW26692   5.320   4.162   0.817
 8598SOL    HW126693   5.395   4.179   0.753
 8598SOL    HW226694   5.343   4.086   0.877
 8599SOL     OW26695   1.416   3.136   1.774
 8599SOL    HW126696   1.455   3.116   1.684
 8599SOL    HW226697   1.466   3.084   1.844
 8600SOL     OW26698   6.071   3.362   6.056
 8600SOL    HW126699   6.167   3.334   6.064
 8600SOL    HW226700   6.012   3.289   6.089
 8601SOL     OW26701   0.235   0.684   4.729
 8601SOL    HW126702   0.313   0.628   4.760
 8601SOL    HW226703   0.237   0.772   4.776
 8602SOL     OW26704   2.349   6.033   2.137
 8602SOL    HW126705   2.382   6.126   2.124
 8602SOL    HW226706   2.300   6.003   2.055
 8603SOL     OW26707   4.561   3.811   1.267
 8603SOL    HW126708   4.644   3.865   1.282
 8603SOL    HW226709   4.576   3.718   1.302
 8604SOL     OW26710   5.386   2.181   2.725
 8604SOL    HW126711   5.466   2.130   2.692
 8604SOL    HW226712   5.335   2.125   2.790
 8605SOL     OW26713   2.741   6.768   2.232
 8605SOL    HW126714   2.816   6.813   2.281
 8605SOL    HW226715   2.735   6.672   2.260
 8606SOL     OW26716   4.176   5.009   5.922
 8606SOL    HW126717   4.225   5.022   5.835
 8606SOL    HW226718   4.117   4.929   5.915
 8607SOL     OW26719   3.247   6.020   1.709
 8607SOL    HW126720   3.242   5.937   1.653
 8607SOL    HW226721   3.270   5.995   1.803
 8608SOL     OW26722   5.286   6.385   2.458
 8608SOL    HW126723   5.239   6.467   2.425
 8608SOL    HW226724   5.224   6.307   2.452
 8609SOL     OW26725   4.471   0.489   6.258
 8609SOL    HW126726   4.570   0.500   6.258
 8609SOL    HW226727   4.447   0.406   6.309
 8610SOL     OW26728   0.392   6.735   4.519
 8610SOL    HW126729   0.477   6.742   4.572
 8610SOL    HW226730   0.318   6.781   4.568
 8611SOL     OW26731   1.570   2.098   3.413
 8611SOL    HW126732   1.489   2.119   3.359
 8611SOL    HW226733   1.642   2.164   3.393
 8612SOL     OW26734   4.601   2.762   4.859
 8612SOL    HW126735   4.566   2.797   4.773
 8612SOL    HW226736   4.626   2.665   4.848
 8613SOL     OW26737   1.485   1.615   0.339
 8613SOL    HW126738   1.492   1.568   0.251
 8613SOL    HW226739   1.395   1.595   0.379
 8614SOL     OW26740   1.131   1.482   3.299
 8614SOL    HW126741   1.096   1.502   3.390
 8614SOL    HW226742   1.154   1.567   3.252
 8615SOL     OW26743   4.414   2.148   5.335
 8615SOL    HW126744   4.371   2.067   5.298
 8615SOL    HW226745   4.513   2.135   5.337
 8616SOL     OW26746   1.397   3.479   0.009
 8616SOL    HW126747   1.473   3.459   6.968
 8616SOL    HW226748   1.427   3.544   0.079
 8617SOL     OW26749   6.394   3.298   1.056
 8617SOL    HW126750   6.298   3.286   1.032
 8617SOL    HW226751   6.407   3.282   1.153
 8618SOL     OW26752   5.023   0.487   3.203
 8618SOL    HW126753   4.964   0.455   3.276
 8618SOL    HW226754   4.971   0.546   3.141
 8619SOL     OW26755   4.262   5.663   0.433
 8619SOL    HW126756   4.184   5.665   0.496
 8619SOL    HW226757   4.232   5.691   0.342
 8620SOL     OW26758   6.060   6.599   3.223
 8620SOL    HW126759   6.106   6.674   3.176
 8620SOL    HW226760   6.118   6.568   3.299
 8621SOL     OW26761   5.692   0.736   3.068
 8621SOL    HW126762   5.695   0.822   3.018
 8621SOL    HW226763   5.597   0.713   3.089
 8622SOL     OW26764   5.230   5.785   0.115
 8622SOL    HW126765   5.200   5.697   0.151
 8622SOL    HW226766   5.328   5.781   0.095
 8623SOL     OW26767   6.421   2.725   2.618
 8623SOL    HW126768   6.392   2.644   2.670
 8623SOL    HW226769   6.521   2.729   2.617
 8624SOL     OW26770   0.414   4.932   3.547
 8624SOL    HW126771   0.372   4.994   3.613
 8624SOL    HW226772   0.511   4.955   3.537
 8625SOL     OW26773   3.483   0.696   6.323
 8625SOL    HW126774   3.400   0.679   6.271
 8625SOL    HW226775   3.501   0.619   6.384
 8626SOL     OW26776   3.460   2.946   2.218
 8626SOL    HW126777   3.378   2.898   2.187
 8626SOL    HW226778   3.537   2.923   2.159
 8627SOL     OW26779   2.372   0.506   6.612
 8627SOL    HW126780   2.272   0.509   6.603
 8627SOL    HW226781   2.397   0.499   6.708
 8628SOL     OW26782   6.007   1.352   6.972
 8628SOL    HW126783   5.919   1.305   6.967
 8628SOL    HW226784   5.996   1.440   7.018
 8629SOL     OW26785   1.163   5.434   3.663
 8629SOL    HW126786   1.096   5.477   3.724
 8629SOL    HW226787   1.164   5.335   3.679
 8630SOL     OW26788   5.581   4.539   4.078
 8630SOL    HW126789   5.670   4.529   4.033
 8630SOL    HW226790   5.520   4.465   4.049
 8631SOL     OW26791   3.668   5.891   3.814
 8631SOL    HW126792   3.709   5.808   3.776
 8631SOL    HW226793   3.581   5.909   3.768
 8632SOL     OW26794   4.820   0.351   3.374
 8632SOL    HW126795   4.772   0.277   3.420
 8632SOL    HW226796   4.880   0.398   3.439
 8633SOL     OW26797   6.313   0.788   4.012
 8633SOL    HW126798   6.274   0.746   4.094
 8633SOL    HW226799   6.305   0.725   3.935
 8634SOL     OW26800   6.356   5.094   1.762
 8634SOL    HW126801   6.314   5.094   1.671
 8634SOL    HW226802   6.455   5.104   1.753
 8635SOL     OW26803   6.209   3.788   5.589
 8635SOL    HW126804   6.283   3.804   5.524
 8635SOL    HW226805   6.242   3.807   5.682
 8636SOL     OW26806   5.400   5.698   0.436
 8636SOL    HW126807   5.419   5.600   0.426
 8636SOL    HW226808   5.448   5.749   0.364
 8637SOL     OW26809   1.789   0.347   1.577
 8637SOL    HW126810   1.717   0.294   1.531
 8637SOL    HW226811   1.845   0.393   1.508
 8638SOL     OW26812   4.651   5.245   0.734
 8638SOL    HW126813   4.611   5.334   0.718
 8638SOL    HW226814   4.699   5.213   0.652
 8639SOL     OW26815   6.678   2.929   1.837
 8639SOL    HW126816   6.699   2.880   1.753
 8639SOL    HW226817   6.619   2.873   1.895
 8640SOL     OW26818   5.334   6.325   1.487
 8640SOL    HW126819   5.255   6.353   1.433
 8640SOL    HW226820   5.306   6.253   1.551
 8641SOL     OW26821   5.641   4.908   3.494
 8641SOL    HW126822   5.706   4.836   3.518
 8641SOL    HW226823   5.596   4.942   3.576
 8642SOL     OW26824   4.682   1.571   1.678
 8642SOL    HW126825   4.734   1.628   1.615
 8642SOL    HW226826   4.665   1.622   1.763
 8643SOL     OW26827   4.346   1.178   6.524
 8643SOL    HW126828   4.354   1.080   6.508
 8643SOL    HW226829   4.389   1.201   6.612
 8644SOL     OW26830   6.309   3.466   5.628
 8644SOL    HW126831   6.236   3.530   5.604
 8644SOL    HW226832   6.278   3.405   5.700
 8645SOL     OW26833   5.809   4.545   1.653
 8645SOL    HW126834   5.747   4.624   1.647
 8645SOL    HW226835   5.773   4.470   1.597
 8646SOL     OW26836   5.211   0.755   0.584
 8646SOL    HW126837   5.120   0.730   0.552
 8646SOL    HW226838   5.258   0.806   0.512
 8647SOL     OW26839   4.597   4.664   2.044
 8647SOL    HW126840   4.511   4.650   1.996
 8647SOL    HW226841   4.579   4.675   2.142
 8648SOL     OW26842   5.457   1.831   4.655
 8648SOL    HW126843   5.423   1.924   4.668
 8648SOL    HW226844   5.533   1.814   4.718
 8649SOL     OW26845   0.370   4.835   5.643
 8649SOL    HW126846   0.378   4.741   5.675
 8649SOL    HW226847   0.373   4.837   5.543
 8650SOL     OW26848   0.959   4.855   2.193
 8650SOL    HW126849   1.011   4.823   2.272
 8650SOL    HW226850   1.003   4.824   2.109
 8651SOL     OW26851   2.996   2.397   1.095
 8651SOL    HW126852   3.079   2.437   1.135
 8651SOL    HW226853   3.020   2.310   1.051
 8652SOL     OW26854   1.945   3.662   4.014
 8652SOL    HW126855   1.891   3.651   4.097
 8652SOL    HW226856   1.907   3.606   3.941
 8653SOL     OW26857   6.092   3.372   6.416
 8653SOL    HW126858   6.188   3.378   6.386
 8653SOL    HW226859   6.051   3.289   6.377
 8654SOL     OW26860   0.141   0.050   3.115
 8654SOL    HW126861   0.071   0.013   3.055
 8654SOL    HW226862   0.230   0.045   3.070
 8655SOL     OW26863   5.542   6.196   3.924
 8655SOL    HW126864   5.581   6.107   3.946
 8655SOL    HW226865   5.501   6.236   4.006
 8656SOL     OW26866   6.284   2.183   1.308
 8656SOL    HW126867   6.300   2.178   1.406
 8656SOL    HW226868   6.290   2.092   1.268
 8657SOL     OW26869   3.201   3.964   0.849
 8657SOL    HW126870   3.288   3.914   0.858
 8657SOL    HW226871   3.171   3.962   0.753
 8658SOL     OW26872   0.263   5.340   6.856
 8658SOL    HW126873   0.264   5.434   6.822
 8658SOL    HW226874   0.169   5.311   6.872
 8659SOL     OW26875   4.818   0.469   3.923
 8659SOL    HW126876   4.867   0.556   3.928
 8659SOL    HW226877   4.801   0.446   3.827
 8660SOL     OW26878   5.357   4.619   0.696
 8660SOL    HW126879   5.440   4.665   0.665
 8660SOL    HW226880   5.371   4.582   0.788
 8661SOL     OW26881   6.190   3.713   1.827
 8661SOL    HW126882   6.124   3.638   1.823
 8661SOL    HW226883   6.236   3.711   1.916
 8662SOL     OW26884   0.197   0.485   0.559
 8662SOL    HW126885   0.291   0.482   0.526
 8662SOL    HW226886   0.197   0.497   0.658
 8663SOL     OW26887   2.804   5.587   0.489
 8663SOL    HW126888   2.828   5.632   0.576
 8663SOL    HW226889   2.757   5.651   0.430
 8664SOL     OW26890   4.453   5.104   1.808
 8664SOL    HW126891   4.441   5.193   1.764
 8664SOL    HW226892   4.507   5.116   1.892
 8665SOL     OW26893   4.691   5.327   5.630
 8665SOL    HW126894   4.737   5.406   5.590
 8665SOL    HW226895   4.670   5.260   5.558
 8666SOL     OW26896   5.524   3.851   4.344
 8666SOL    HW126897   5.608   3.828   4.393
 8666SOL    HW226898   5.482   3.930   4.387
 8667SOL     OW26899   5.165   1.586   3.295
 8667SOL    HW126900   5.257   1.566   3.262
 8667SOL    HW226901   5.108   1.616   3.218
 8668SOL     OW26902   3.306   1.912   4.232
 8668SOL    HW126903   3.219   1.950   4.265
 8668SOL    HW226904   3.350   1.977   4.170
 8669SOL     OW26905   4.172   0.636   5.873
 8669SOL    HW126906   4.136   0.587   5.794
 8669SOL    HW226907   4.250   0.587   5.911
 8670SOL     OW26908   4.144   4.728   4.143
 8670SOL    HW126909   4.081   4.698   4.215
 8670SOL    HW226910   4.092   4.776   4.072
 8671SOL     OW26911   5.699   6.471   2.781
 8671SOL    HW126912   5.603   6.462   2.756
 8671SOL    HW226913   5.729   6.565   2.767
 8672SOL     OW26914   3.406   4.430   5.278
 8672SOL    HW126915   3.317   4.407   5.317
 8672SOL    HW226916   3.437   4.354   5.220
 8673SOL     OW26917   5.716   2.275   0.914
 8673SOL    HW126918   5.662   2.192   0.927
 8673SOL    HW226919   5.774   2.266   0.833
 8674SOL     OW26920   0.744   0.069   2.640
 8674SOL    HW126921   0.749   0.112   2.730
 8674SOL    HW226922   0.648   0.059   2.614
 8675SOL     OW26923   1.918   1.890   2.592
 8675SOL    HW126924   1.988   1.936   2.537
 8675SOL    HW226925   1.929   1.791   2.585
 8676SOL     OW26926   4.558   6.345   3.623
 8676SOL    HW126927   4.630   6.324   3.689
 8676SOL    HW226928   4.510   6.428   3.652
 8677SOL     OW26929   2.296   4.330   4.987
 8677SOL    HW126930   2.318   4.234   4.972
 8677SOL    HW226931   2.379   4.380   5.012
 8678SOL     OW26932   1.149   0.612   6.239
 8678SOL    HW126933   1.204   0.679   6.288
 8678SOL    HW226934   1.060   0.652   6.217
 8679SOL     OW26935   6.669   2.552   4.617
 8679SOL    HW126936   6.670   2.647   4.648
 8679SOL    HW226937   6.652   2.550   4.518
 8680SOL     OW26938   1.289   3.362   0.301
 8680SOL    HW126939   1.358   3.364   0.373
 8680SOL    HW226940   1.318   3.422   0.226
 8681SOL     OW26941   4.542   3.780   0.966
 8681SOL    HW126942   4.474   3.709   0.951
 8681SOL    HW226943   4.630   3.738   0.988
 8682SOL     OW26944   1.942   5.907   2.526
 8682SOL    HW126945   1.872   5.945   2.466
 8682SOL    HW226946   1.898   5.848   2.595
 8683SOL     OW26947   6.355   3.537   6.356
 8683SOL    HW126948   6.404   3.465   6.307
 8683SOL    HW226949   6.388   3.543   6.450
 8684SOL     OW26950   6.603   2.551   4.353
 8684SOL    HW126951   6.511   2.589   4.357
 8684SOL    HW226952   6.656   2.600   4.284
 8685SOL     OW26953   0.843   2.165   5.315
 8685SOL    HW126954   0.836   2.223   5.234
 8685SOL    HW226955   0.894   2.213   5.387
 8686SOL     OW26956   6.300   2.473   3.207
 8686SOL    HW126957   6.244   2.452   3.128
 8686SOL    HW226958   6.243   2.515   3.278
 8687SOL     OW26959   4.556   0.575   2.744
 8687SOL    HW126960   4.607   0.610   2.822
 8687SOL    HW226961   4.620   0.541   2.674
 8688SOL     OW26962   2.017   0.143   2.376
 8688SOL    HW126963   2.001   0.236   2.409
 8688SOL    HW226964   1.933   0.090   2.382
 8689SOL     OW26965   4.261   5.562   0.794
 8689SOL    HW126966   4.338   5.513   0.754
 8689SOL    HW226967   4.205   5.602   0.721
 8690SOL     OW26968   1.177   1.472   2.756
 8690SOL    HW126969   1.164   1.391   2.812
 8690SOL    HW226970   1.101   1.480   2.691
 8691SOL     OW26971   5.899   1.862   0.792
 8691SOL    HW126972   5.894   1.766   0.820
 8691SOL    HW226973   5.871   1.869   0.696
 8692SOL     OW26974   1.559   1.641   3.955
 8692SOL    HW126975   1.462   1.625   3.940
 8692SOL    HW226976   1.581   1.626   4.051
 8693SOL     OW26977   5.820   2.202   0.296
 8693SOL    HW126978   5.886   2.270   0.330
 8693SOL    HW226979   5.853   2.166   0.208
 8694SOL     OW26980   4.212   6.379   5.899
 8694SOL    HW126981   4.275   6.439   5.949
 8694SOL    HW226982   4.118   6.403   5.922
 8695SOL     OW26983   4.449   4.301   5.886
 8695SOL    HW126984   4.376   4.256   5.835
 8695SOL    HW226985   4.412   4.338   5.971
 8696SOL     OW26986   2.263   5.213   1.094
 8696SOL    HW126987   2.326   5.266   1.151
 8696SOL    HW226988   2.258   5.119   1.127
 8697SOL     OW26989   5.788   4.273   0.625
 8697SOL    HW126990   5.882   4.254   0.596
 8697SOL    HW226991   5.760   4.363   0.591
 8698SOL     OW26992   5.898   5.959   4.271
 8698SOL    HW126993   5.990   5.921   4.276
 8698SOL    HW226994   5.831   5.884   4.272
 8699SOL     OW26995   1.578   1.797   5.556
 8699SOL    HW126996   1.493   1.804   5.503
 8699SOL    HW226997   1.633   1.879   5.542
 8700SOL     OW26998   2.716   1.838   6.175
 8700SOL    HW126999   2.784   1.886   6.118
 8700SOL    HW227000   2.639   1.899   6.193
 8701SOL     OW27001   1.222   1.824   4.224
 8701SOL    HW127002   1.244   1.870   4.310
 8701SOL    HW227003   1.258   1.878   4.148
 8702SOL     OW27004   4.844   5.759   0.224
 8702SOL    HW127005   4.792   5.797   0.301
 8702SOL    HW227006   4.907   5.689   0.258
 8703SOL     OW27007   1.886   5.683   1.127
 8703SOL    HW127008   1.804   5.740   1.133
 8703SOL    HW227009   1.935   5.686   1.214
 8704SOL     OW27010   0.568   4.127   1.520
 8704SOL    HW127011   0.618   4.054   1.567
 8704SOL    HW227012   0.525   4.089   1.437
 8705SOL     OW27013   4.785   0.129   5.331
 8705SOL    HW127014   4.764   0.031   5.330
 8705SOL    HW227015   4.773   0.166   5.239
 8706SOL     OW27016   4.968   2.442   6.966
 8706SOL    HW127017   4.909   2.397   0.013
 8706SOL    HW227018   5.023   2.511   7.011
 8707SOL     OW27019   4.687   2.512   5.821
 8707SOL    HW127020   4.716   2.425   5.863
 8707SOL    HW227021   4.761   2.546   5.762
 8708SOL     OW27022   4.080   1.517   1.036
 8708SOL    HW127023   4.072   1.474   1.126
 8708SOL    HW227024   4.094   1.616   1.047
 8709SOL     OW27025   6.720   3.665   0.900
 8709SOL    HW127026   6.664   3.584   0.879
 8709SOL    HW227027   6.678   3.745   0.857
 8710SOL     OW27028   0.935   3.598   3.396
 8710SOL    HW127029   0.864   3.528   3.398
 8710SOL    HW227030   1.012   3.569   3.453
 8711SOL     OW27031   0.432   1.370   3.915
 8711SOL    HW127032   0.455   1.313   3.994
 8711SOL    HW227033   0.343   1.414   3.930
 8712SOL     OW27034   3.469   1.205   5.828
 8712SOL    HW127035   3.437   1.143   5.757
 8712SOL    HW227036   3.427   1.294   5.817
 8713SOL     OW27037   6.625   4.789   3.358
 8713SOL    HW127038   6.567   4.870   3.371
 8713SOL    HW227039   6.721   4.817   3.356
 8714SOL     OW27040   1.296   1.452   4.732
 8714SOL    HW127041   1.211   1.400   4.740
 8714SOL    HW227042   1.373   1.393   4.758
 8715SOL     OW27043   5.963   1.375   1.297
 8715SOL    HW127044   5.922   1.285   1.312
 8715SOL    HW227045   5.893   1.446   1.310
 8716SOL     OW27046   1.613   1.650   1.516
 8716SOL    HW127047   1.701   1.618   1.551
 8716SOL    HW227048   1.630   1.720   1.445
 8717SOL     OW27049   3.745   3.055   0.638
 8717SOL    HW127050   3.721   2.979   0.699
 8717SOL    HW227051   3.777   3.132   0.693
 8718SOL     OW27052   6.520   3.142   5.801
 8718SOL    HW127053   6.453   3.216   5.802
 8718SOL    HW227054   6.594   3.162   5.866
 8719SOL     OW27055   6.937   0.641   6.009
 8719SOL    HW127056   6.990   0.557   6.004
 8719SOL    HW227057   6.844   0.621   6.039
 8720SOL     OW27058   5.072   3.682   5.666
 8720SOL    HW127059   5.149   3.621   5.682
 8720SOL    HW227060   4.989   3.629   5.648
 8721SOL     OW27061   0.060   2.359   4.509
 8721SOL    HW127062   0.085   2.421   4.435
 8721SOL    HW227063   0.031   2.272   4.470
 8722SOL     OW27064   3.740   2.701   0.646
 8722SOL    HW127065   3.667   2.725   0.710
 8722SOL    HW227066   3.724   2.747   0.559
 8723SOL     OW27067   6.992   4.514   0.561
 8723SOL    HW127068   0.037   4.452   0.517
 8723SOL    HW227069   0.021   4.575   0.623
 8724SOL     OW27070   5.193   6.855   6.758
 8724SOL    HW127071   5.099   6.862   6.790
 8724SOL    HW227072   5.194   6.848   6.658
 8725SOL     OW27073   2.445   5.797   0.766
 8725SOL    HW127074   2.483   5.716   0.721
 8725SOL    HW227075   2.428   5.868   0.698
 8726SOL     OW27076   5.291   0.455   1.597
 8726SOL    HW127077   5.276   0.504   1.511
 8726SOL    HW227078   5.216   0.475   1.661
 8727SOL     OW27079   6.487   5.538   1.073
 8727SOL    HW127080   6.436   5.539   0.987
 8727SOL    HW227081   6.531   5.626   1.087
 8728SOL     OW27082   2.231   0.174   5.472
 8728SOL    HW127083   2.305   0.111   5.447
 8728SOL    HW227084   2.269   0.250   5.524
 8729SOL     OW27085   5.862   6.390   4.490
 8729SOL    HW127086   5.846   6.366   4.586
 8729SOL    HW227087   5.775   6.395   4.442
 8730SOL     OW27088   0.194   6.550   1.424
 8730SOL    HW127089   0.146   6.576   1.340
 8730SOL    HW227090   0.293   6.556   1.409
 8731SOL     OW27091   1.247   2.018   2.698
 8731SOL    HW127092   1.318   2.011   2.768
 8731SOL    HW227093   1.166   1.967   2.727
 8732SOL     OW27094   5.272   4.765   1.373
 8732SOL    HW127095   5.255   4.681   1.426
 8732SOL    HW227096   5.194   4.826   1.383
 8733SOL     OW27097   0.685   6.301   1.520
 8733SOL    HW127098   0.735   6.217   1.496
 8733SOL    HW227099   0.722   6.377   1.466
 8734SOL     OW27100   6.514   5.003   0.641
 8734SOL    HW127101   6.590   4.939   0.639
 8734SOL    HW227102   6.456   4.985   0.720
 8735SOL     OW27103   6.433   2.509   6.810
 8735SOL    HW127104   6.423   2.492   6.908
 8735SOL    HW227105   6.481   2.596   6.796
 8736SOL     OW27106   0.280   4.850   6.768
 8736SOL    HW127107   0.304   4.800   6.685
 8736SOL    HW227108   0.182   4.870   6.768
 8737SOL     OW27109   3.730   5.639   6.263
 8737SOL    HW127110   3.670   5.664   6.188
 8737SOL    HW227111   3.708   5.696   6.343
 8738SOL     OW27112   1.586   3.561   4.413
 8738SOL    HW127113   1.496   3.518   4.416
 8738SOL    HW227114   1.578   3.657   4.441
 8739SOL     OW27115   1.154   3.210   5.060
 8739SOL    HW127116   1.207   3.265   5.124
 8739SOL    HW227117   1.206   3.127   5.038
 8740SOL     OW27118   2.293   6.158   1.531
 8740SOL    HW127119   2.206   6.138   1.577
 8740SOL    HW227120   2.351   6.077   1.533
 8741SOL     OW27121   1.357   3.723   1.964
 8741SOL    HW127122   1.279   3.730   2.027
 8741SOL    HW227123   1.442   3.717   2.017
 8742SOL     OW27124   4.285   7.013   2.109
 8742SOL    HW127125   4.353   6.955   2.064
 8742SOL    HW227126   4.231   0.042   2.040
 8743SOL     OW27127   2.304   4.350   3.253
 8743SOL    HW127128   2.223   4.408   3.250
 8743SOL    HW227129   2.305   4.296   3.337
 8744SOL     OW27130   3.592   2.896   5.881
 8744SOL    HW127131   3.567   2.927   5.973
 8744SOL    HW227132   3.603   2.975   5.821
 8745SOL     OW27133   6.342   2.039   6.258
 8745SOL    HW127134   6.262   2.099   6.261
 8745SOL    HW227135   6.333   1.975   6.182
 8746SOL     OW27136   5.334   4.405   5.133
 8746SOL    HW127137   5.389   4.327   5.162
 8746SOL    HW227138   5.237   4.383   5.142
 8747SOL     OW27139   1.739   2.495   4.135
 8747SOL    HW127140   1.830   2.529   4.154
 8747SOL    HW227141   1.671   2.563   4.164
 8748SOL     OW27142   2.212   0.872   6.784
 8748SOL    HW127143   2.243   0.834   6.697
 8748SOL    HW227144   2.112   0.869   6.788
 8749SOL     OW27145   3.979   0.901   4.099
 8749SOL    HW127146   4.016   0.992   4.119
 8749SOL    HW227147   3.885   0.895   4.132
 8750SOL     OW27148   2.580   1.295   5.212
 8750SOL    HW127149   2.526   1.371   5.249
 8750SOL    HW227150   2.593   1.225   5.283
 8751SOL     OW27151   1.649   6.857   2.524
 8751SOL    HW127152   1.654   6.760   2.547
 8751SOL    HW227153   1.554   6.888   2.528
 8752SOL     OW27154   1.619   2.375   6.357
 8752SOL    HW127155   1.698   2.414   6.310
 8752SOL    HW227156   1.549   2.446   6.368
 8753SOL     OW27157   5.455   1.197   4.978
 8753SOL    HW127158   5.404   1.152   5.051
 8753SOL    HW227159   5.516   1.266   5.017
 8754SOL     OW27160   1.482   1.105   5.726
 8754SOL    HW127161   1.537   1.047   5.666
 8754SOL    HW227162   1.530   1.120   5.812
 8755SOL     OW27163   2.376   1.981   0.457
 8755SOL    HW127164   2.446   2.034   0.505
 8755SOL    HW227165   2.418   1.899   0.417
 8756SOL     OW27166   2.085   3.147   4.353
 8756SOL    HW127167   2.096   3.156   4.452
 8756SOL    HW227168   2.129   3.062   4.323
 8757SOL     OW27169   5.149   5.851   4.188
 8757SOL    HW127170   5.131   5.872   4.285
 8757SOL    HW227171   5.239   5.885   4.163
 8758SOL     OW27172   5.550   6.447   2.003
 8758SOL    HW127173   5.627   6.486   2.053
 8758SOL    HW227174   5.465   6.489   2.035
 8759SOL     OW27175   5.186   0.934   6.082
 8759SOL    HW127176   5.130   1.000   6.031
 8759SOL    HW227177   5.137   0.907   6.165
 8760SOL     OW27178   1.814   2.711   3.596
 8760SOL    HW127179   1.848   2.803   3.615
 8760SOL    HW227180   1.778   2.707   3.503
 8761SOL     OW27181   5.252   6.265   1.111
 8761SOL    HW127182   5.179   6.300   1.171
 8761SOL    HW227183   5.286   6.339   1.053
 8762SOL     OW27184   0.777   3.672   0.220
 8762SOL    HW127185   0.803   3.732   0.296
 8762SOL    HW227186   0.771   3.726   0.136
 8763SOL     OW27187   6.779   6.142   5.881
 8763SOL    HW127188   6.712   6.212   5.857
 8763SOL    HW227189   6.804   6.090   5.799
 8764SOL     OW27190   3.371   2.156   5.303
 8764SOL    HW127191   3.344   2.210   5.223
 8764SOL    HW227192   3.293   2.103   5.335
 8765SOL     OW27193   0.170   0.463   5.132
 8765SOL    HW127194   0.230   0.517   5.073
 8765SOL    HW227195   0.088   0.516   5.154
 8766SOL     OW27196   2.461   4.490   2.464
 8766SOL    HW127197   2.431   4.484   2.560
 8766SOL    HW227198   2.489   4.400   2.433
 8767SOL     OW27199   5.183   1.777   4.534
 8767SOL    HW127200   5.147   1.870   4.530
 8767SOL    HW227201   5.283   1.780   4.539
 8768SOL     OW27202   1.162   3.767   6.669
 8768SOL    HW127203   1.200   3.702   6.735
 8768SOL    HW227204   1.102   3.719   6.606
 8769SOL     OW27205   2.054   0.805   5.502
 8769SOL    HW127206   2.144   0.845   5.519
 8769SOL    HW227207   1.992   0.875   5.468
 8770SOL     OW27208   5.704   2.127   2.404
 8770SOL    HW127209   5.636   2.192   2.437
 8770SOL    HW227210   5.767   2.174   2.342
 8771SOL     OW27211   1.402   2.531   6.335
 8771SOL    HW127212   1.337   2.463   6.369
 8771SOL    HW227213   1.353   2.613   6.306
 8772SOL     OW27214   5.444   6.616   0.373
 8772SOL    HW127215   5.497   6.625   0.289
 8772SOL    HW227216   5.413   6.521   0.382
 8773SOL     OW27217   2.937   2.186   3.242
 8773SOL    HW127218   2.981   2.252   3.303
 8773SOL    HW227219   2.863   2.139   3.290
 8774SOL     OW27220   1.022   1.020   6.640
 8774SOL    HW127221   0.972   1.007   6.725
 8774SOL    HW227222   1.068   1.108   6.641
 8775SOL     OW27223   6.184   0.163   4.297
 8775SOL    HW127224   6.118   0.097   4.333
 8775SOL    HW227225   6.257   0.176   4.364
 8776SOL     OW27226   3.430   3.146   4.724
 8776SOL    HW127227   3.437   3.204   4.805
 8776SOL    HW227228   3.335   3.120   4.709
 8777SOL     OW27229   6.300   5.767   1.932
 8777SOL    HW127230   6.292   5.687   1.992
 8777SOL    HW227231   6.302   5.738   1.837
 8778SOL     OW27232   0.844   2.363   3.252
 8778SOL    HW127233   0.778   2.347   3.179
 8778SOL    HW227234   0.833   2.456   3.287
 8779SOL     OW27235   1.747   4.184   0.501
 8779SOL    HW127236   1.821   4.181   0.568
 8779SOL    HW227237   1.676   4.248   0.532
 8780SOL     OW27238   2.271   5.822   4.282
 8780SOL    HW127239   2.259   5.914   4.245
 8780SOL    HW227240   2.288   5.827   4.380
 8781SOL     OW27241   0.810   2.221   2.792
 8781SOL    HW127242   0.888   2.225   2.729
 8781SOL    HW227243   0.839   2.180   2.878
 8782SOL     OW27244   5.037   1.624   2.677
 8782SOL    HW127245   5.020   1.654   2.583
 8782SOL    HW227246   5.012   1.697   2.740
 8783SOL     OW27247   5.234   2.583   5.465
 8783SOL    HW127248   5.175   2.554   5.540
 8783SOL    HW227249   5.189   2.656   5.413
 8784SOL     OW27250   5.507   4.494   5.327
 8784SOL    HW127251   5.523   4.403   5.288
 8784SOL    HW227252   5.413   4.522   5.308
 8785SOL     OW27253   5.308   4.585   6.443
 8785SOL    HW127254   5.306   4.494   6.485
 8785SOL    HW227255   5.384   4.638   6.482
 8786SOL     OW27256   1.249   5.839   0.903
 8786SOL    HW127257   1.288   5.931   0.898
 8786SOL    HW227258   1.156   5.841   0.868
 8787SOL     OW27259   1.081   2.948   0.335
 8787SOL    HW127260   1.131   2.862   0.348
 8787SOL    HW227261   1.050   2.955   0.241
 8788SOL     OW27262   1.113   1.830   5.728
 8788SOL    HW127263   1.144   1.773   5.804
 8788SOL    HW227264   1.098   1.774   5.647
 8789SOL     OW27265   6.992   6.971   6.938
 8789SOL    HW127266   6.973   6.880   6.902
 8789SOL    HW227267   6.957   0.020   6.875
 8790SOL     OW27268   5.119   1.717   0.058
 8790SOL    HW127269   5.114   1.755   6.986
 8790SOL    HW227270   5.073   1.629   0.061
 8791SOL     OW27271   4.746   6.295   5.676
 8791SOL    HW127272   4.710   6.270   5.586
 8791SOL    HW227273   4.791   6.385   5.670
 8792SOL     OW27274   5.061   0.278   3.041
 8792SOL    HW127275   5.081   0.370   3.076
 8792SOL    HW227276   5.056   0.214   3.117
 8793SOL     OW27277   0.886   4.898   4.481
 8793SOL    HW127278   0.960   4.952   4.523
 8793SOL    HW227279   0.925   4.837   4.413
 8794SOL     OW27280   2.674   6.575   2.688
 8794SOL    HW127281   2.597   6.637   2.708
 8794SOL    HW227282   2.747   6.626   2.643
 8795SOL     OW27283   1.676   6.364   5.471
 8795SOL    HW127284   1.718   6.440   5.422
 8795SOL    HW227285   1.747   6.305   5.509
 8796SOL     OW27286   5.615   2.535   5.266
 8796SOL    HW127287   5.669   2.575   5.339
 8796SOL    HW227288   5.544   2.476   5.305
 8797SOL     OW27289   0.504   6.465   6.902
 8797SOL    HW127290   0.528   6.403   6.827
 8797SOL    HW227291   0.583   6.522   6.925
 8798SOL     OW27292   4.254   3.394   6.292
 8798SOL    HW127293   4.301   3.460   6.233
 8798SOL    HW227294   4.250   3.430   6.385
 8799SOL     OW27295   3.831   6.490   2.497
 8799SOL    HW127296   3.748   6.520   2.543
 8799SOL    HW227297   3.902   6.472   2.565
 8800SOL     OW27298   4.454   5.155   0.032
 8800SOL    HW127299   4.457   5.057   0.050
 8800SOL    HW227300   4.540   5.197   0.062
 8801SOL     OW27301   2.959   6.975   5.078
 8801SOL    HW127302   3.055   6.969   5.052
 8801SOL    HW227303   2.950   0.005   5.164
 8802SOL     OW27304   2.578   0.191   2.131
 8802SOL    HW127305   2.665   0.193   2.182
 8802SOL    HW227306   2.512   0.137   2.182
 8803SOL     OW27307   3.679   5.887   0.756
 8803SOL    HW127308   3.688   5.806   0.814
 8803SOL    HW227309   3.706   5.863   0.663
 8804SOL     OW27310   4.188   0.301   0.900
 8804SOL    HW127311   4.259   0.368   0.880
 8804SOL    HW227312   4.227   0.209   0.899
 8805SOL     OW27313   0.239   0.341   3.056
 8805SOL    HW127314   0.196   0.251   3.056
 8805SOL    HW227315   0.338   0.331   3.041
 8806SOL     OW27316   2.216   5.250   0.069
 8806SOL    HW127317   2.191   5.273   6.995
 8806SOL    HW227318   2.168   5.167   0.096
 8807SOL     OW27319   1.639   6.464   6.284
 8807SOL    HW127320   1.661   6.390   6.221
 8807SOL    HW227321   1.546   6.452   6.317
 8808SOL     OW27322   5.982   1.150   0.571
 8808SOL    HW127323   5.948   1.171   0.662
 8808SOL    HW227324   6.082   1.153   0.570
 8809SOL     OW27325   6.182   4.159   1.071
 8809SOL    HW127326   6.129   4.075   1.054
 8809SOL    HW227327   6.264   4.136   1.123
 8810SOL     OW27328   5.220   1.421   3.834
 8810SOL    HW127329   5.175   1.356   3.772
 8810SOL    HW227330   5.310   1.444   3.799
 8811SOL     OW27331   0.774   1.706   4.043
 8811SOL    HW127332   0.780   1.610   4.072
 8811SOL    HW227333   0.719   1.757   4.109
 8812SOL     OW27334   1.972   0.673   0.744
 8812SOL    HW127335   2.003   0.639   0.655
 8812SOL    HW227336   2.041   0.650   0.813
 8813SOL     OW27337   1.705   4.613   1.297
 8813SOL    HW127338   1.718   4.660   1.384
 8813SOL    HW227339   1.610   4.581   1.290
 8814SOL     OW27340   5.464   6.873   0.485
 8814SOL    HW127341   5.452   6.774   0.477
 8814SOL    HW227342   5.482   6.912   0.394
 8815SOL     OW27343   0.048   6.454   2.678
 8815SOL    HW127344   6.987   6.396   2.681
 8815SOL    HW227345   0.128   6.400   2.704
 8816SOL     OW27346   0.905   6.286   1.941
 8816SOL    HW127347   0.943   6.296   1.850
 8816SOL    HW227348   0.837   6.212   1.941
 8817SOL     OW27349   2.533   4.262   5.453
 8817SOL    HW127350   2.535   4.329   5.526
 8817SOL    HW227351   2.622   4.217   5.445
 8818SOL     OW27352   7.009   5.157   4.616
 8818SOL    HW127353   0.025   5.119   4.531
 8818SOL    HW227354   0.063   5.196   4.670
 8819SOL     OW27355   5.348   0.440   4.325
 8819SOL    HW127356   5.425   0.470   4.269
 8819SOL    HW227357   5.376   0.361   4.381
 8820SOL     OW27358   1.802   2.889   4.224
 8820SOL    HW127359   1.790   2.963   4.290
 8820SOL    HW227360   1.716   2.837   4.216
 8821SOL     OW27361   1.880   0.810   6.235
 8821SOL    HW127362   1.815   0.792   6.161
 8821SOL    HW227363   1.970   0.828   6.197
 8822SOL     OW27364   0.493   1.936   4.214
 8822SOL    HW127365   0.506   1.894   4.124
 8822SOL    HW227366   0.503   2.035   4.207
 8823SOL     OW27367   2.495   5.320   1.879
 8823SOL    HW127368   2.564   5.377   1.834
 8823SOL    HW227369   2.515   5.314   1.977
 8824SOL     OW27370   4.279   3.563   0.506
 8824SOL    HW127371   4.284   3.651   0.552
 8824SOL    HW227372   4.194   3.558   0.453
 8825SOL     OW27373   1.576   2.555   1.514
 8825SOL    HW127374   1.522   2.634   1.485
 8825SOL    HW227375   1.531   2.471   1.484
 8826SOL     OW27376   5.972   0.945   0.149
 8826SOL    HW127377   5.876   0.957   0.174
 8826SOL    HW227378   6.028   0.941   0.232
 8827SOL     OW27379   1.076   1.094   3.858
 8827SOL    HW127380   0.980   1.118   3.850
 8827SOL    HW227381   1.103   1.035   3.782
 8828SOL     OW27382   1.725   6.040   2.412
 8828SOL    HW127383   1.718   5.954   2.361
 8828SOL    HW227384   1.665   6.037   2.492
 8829SOL     OW27385   0.919   1.500   7.013
 8829SOL    HW127386   0.831   1.542   0.014
 8829SOL    HW227387   0.951   1.447   0.072
 8830SOL     OW27388   0.431   2.040   0.535
 8830SOL    HW127389   0.402   2.133   0.555
 8830SOL    HW227390   0.470   1.999   0.618
 8831SOL     OW27391   6.843   0.928   2.673
 8831SOL    HW127392   6.880   1.020   2.685
 8831SOL    HW227393   6.871   0.891   2.585
 8832SOL     OW27394   0.165   0.629   2.499
 8832SOL    HW127395   0.210   0.542   2.518
 8832SOL    HW227396   0.081   0.636   2.552
 8833SOL     OW27397   2.052   4.478   3.285
 8833SOL    HW127398   2.018   4.436   3.369
 8833SOL    HW227399   2.012   4.568   3.274
 8834SOL     OW27400   5.773   4.028   4.424
 8834SOL    HW127401   5.838   4.048   4.351
 8834SOL    HW227402   5.724   4.112   4.447
 8835SOL     OW27403   0.471   6.829   6.467
 8835SOL    HW127404   0.505   6.735   6.469
 8835SOL    HW227405   0.508   6.876   6.387
 8836SOL     OW27406   4.847   1.812   1.177
 8836SOL    HW127407   4.774   1.863   1.132
 8836SOL    HW227408   4.807   1.740   1.235
 8837SOL     OW27409   1.330   1.912   2.059
 8837SOL    HW127410   1.247   1.964   2.079
 8837SOL    HW227411   1.312   1.845   1.988
 8838SOL     OW27412   2.404   5.875   3.720
 8838SOL    HW127413   2.347   5.957   3.713
 8838SOL    HW227414   2.391   5.833   3.810
 8839SOL     OW27415   6.193   6.923   4.114
 8839SOL    HW127416   6.121   6.985   4.146
 8839SOL    HW227417   6.169   6.829   4.138
 8840SOL     OW27418   5.044   1.368   2.157
 8840SOL    HW127419   5.093   1.284   2.181
 8840SOL    HW227420   5.104   1.428   2.105
 8841SOL     OW27421   1.717   0.401   4.250
 8841SOL    HW127422   1.732   0.480   4.309
 8841SOL    HW227423   1.770   0.411   4.166
 8842SOL     OW27424   1.776   2.687   2.222
 8842SOL    HW127425   1.712   2.754   2.259
 8842SOL    HW227426   1.789   2.704   2.124
 8843SOL     OW27427   0.331   3.592   4.597
 8843SOL    HW127428   0.293   3.502   4.573
 8843SOL    HW227429   0.393   3.622   4.525
 8844SOL     OW27430   6.102   1.438   6.132
 8844SOL    HW127431   6.115   1.532   6.165
 8844SOL    HW227432   6.009   1.408   6.155
 8845SOL     OW27433   5.712   3.800   6.598
 8845SOL    HW127434   5.694   3.708   6.562
 8845SOL    HW227435   5.674   3.807   6.690
 8846SOL     OW27436   2.374   4.825   3.030
 8846SOL    HW127437   2.455   4.881   3.047
 8846SOL    HW227438   2.386   4.735   3.072
 8847SOL     OW27439   2.241   0.890   2.401
 8847SOL    HW127440   2.217   0.843   2.486
 8847SOL    HW227441   2.161   0.894   2.341
 8848SOL     OW27442   1.440   0.062   2.946
 8848SOL    HW127443   1.491   0.131   2.997
 8848SOL    HW227444   1.447   0.082   2.848
 8849SOL     OW27445   2.772   6.920   1.329
 8849SOL    HW127446   2.860   6.900   1.372
 8849SOL    HW227447   2.773   7.014   1.295
 8850SOL     OW27448   2.569   2.485   0.056
 8850SOL    HW127449   2.666   2.473   0.038
 8850SOL    HW227450   2.528   2.544   7.006
 8851SOL     OW27451   1.713   3.316   2.421
 8851SOL    HW127452   1.646   3.389   2.413
 8851SOL    HW227453   1.752   3.316   2.513
 8852SOL     OW27454   1.186   2.551   5.800
 8852SOL    HW127455   1.239   2.472   5.769
 8852SOL    HW227456   1.107   2.563   5.740
 8853SOL     OW27457   5.490   0.999   1.433
 8853SOL    HW127458   5.500   1.008   1.334
 8853SOL    HW227459   5.489   0.902   1.458
 8854SOL     OW27460   0.946   2.141   4.919
 8854SOL    HW127461   0.862   2.170   4.965
 8854SOL    HW227462   0.995   2.221   4.885
 8855SOL     OW27463   5.230   5.187   1.285
 8855SOL    HW127464   5.255   5.239   1.203
 8855SOL    HW227465   5.302   5.122   1.306
 8856SOL     OW27466   6.448   0.945   5.625
 8856SOL    HW127467   6.517   0.892   5.576
 8856SOL    HW227468   6.493   1.007   5.689
 8857SOL     OW27469   6.190   2.218   6.045
 8857SOL    HW127470   6.092   2.239   6.036
 8857SOL    HW227471   6.230   2.209   5.954
 8858SOL     OW27472   6.629   6.321   5.080
 8858SOL    HW127473   6.646   6.223   5.074
 8858SOL    HW227474   6.601   6.344   5.174
 8859SOL     OW27475   0.696   6.508   3.332
 8859SOL    HW127476   0.630   6.567   3.285
 8859SOL    HW227477   0.721   6.549   3.419
 8860SOL     OW27478   0.092   4.216   2.838
 8860SOL    HW127479   0.190   4.219   2.816
 8860SOL    HW227480   0.049   4.301   2.806
 8861SOL     OW27481   3.611   3.020   1.415
 8861SOL    HW127482   3.526   3.022   1.361
 8861SOL    HW227483   3.597   3.072   1.499
 8862SOL     OW27484   4.565   4.468   4.873
 8862SOL    HW127485   4.474   4.490   4.907
 8862SOL    HW227486   4.568   4.480   4.773
 8863SOL     OW27487   1.833   3.845   3.176
 8863SOL    HW127488   1.820   3.838   3.275
 8863SOL    HW227489   1.927   3.870   3.156
 8864SOL     OW27490   6.620   2.184   5.472
 8864SOL    HW127491   6.612   2.134   5.386
 8864SOL    HW227492   6.675   2.266   5.458
 8865SOL     OW27493   3.009   1.519   0.747
 8865SOL    HW127494   2.973   1.434   0.783
 8865SOL    HW227495   2.973   1.596   0.799
 8866SOL     OW27496   5.739   6.631   1.775
 8866SOL    HW127497   5.666   6.605   1.711
 8866SOL    HW227498   5.717   6.595   1.866
 8867SOL     OW27499   6.428   3.225   2.577
 8867SOL    HW127500   6.512   3.271   2.607
 8867SOL    HW227501   6.410   3.147   2.638
 8868SOL     OW27502   6.793   3.541   3.791
 8868SOL    HW127503   6.761   3.595   3.869
 8868SOL    HW227504   6.851   3.466   3.824
 8869SOL     OW27505   4.131   0.104   3.342
 8869SOL    HW127506   4.143   0.149   3.253
 8869SOL    HW227507   4.156   0.008   3.334
 8870SOL     OW27508   1.466   0.423   2.544
 8870SOL    HW127509   1.414   0.505   2.571
 8870SOL    HW227510   1.457   0.354   2.615
 8871SOL     OW27511   6.779   0.296   1.995
 8871SOL    HW127512   6.737   0.333   1.912
 8871SOL    HW227513   6.861   0.348   2.017
 8872SOL     OW27514   6.745   3.941   3.626
 8872SOL    HW127515   6.706   3.850   3.640
 8872SOL    HW227516   6.751   3.960   3.528
 8873SOL     OW27517   2.320   2.125   2.415
 8873SOL    HW127518   2.346   2.169   2.329
 8873SOL    HW227519   2.245   2.061   2.399
 8874SOL     OW27520   2.578   6.243   0.021
 8874SOL    HW127521   2.480   6.240   0.000
 8874SOL    HW227522   2.600   6.331   0.064
 8875SOL     OW27523   6.724   3.311   4.412
 8875SOL    HW127524   6.695   3.333   4.319
 8875SOL    HW227525   6.672   3.367   4.477
 8876SOL     OW27526   5.024   0.003   6.948
 8876SOL    HW127527   4.989   0.070   6.883
 8876SOL    HW227528   5.114   6.992   6.919
 8877SOL     OW27529   0.998   4.722   1.195
 8877SOL    HW127530   0.998   4.646   1.130
 8877SOL    HW227531   1.026   4.806   1.148
 8878SOL     OW27532   5.092   4.004   1.327
 8878SOL    HW127533   5.010   3.978   1.277
 8878SOL    HW227534   5.116   4.099   1.305
 8879SOL     OW27535   6.844   4.379   2.668
 8879SOL    HW127536   6.861   4.366   2.765
 8879SOL    HW227537   6.745   4.382   2.651
 8880SOL     OW27538   4.325   1.964   3.207
 8880SOL    HW127539   4.330   1.960   3.107
 8880SOL    HW227540   4.346   1.874   3.245
 8881SOL     OW27541   4.071   4.793   3.481
 8881SOL    HW127542   4.122   4.707   3.487
 8881SOL    HW227543   4.090   4.837   3.394
 8882SOL     OW27544   4.010   0.245   0.397
 8882SOL    HW127545   3.933   0.309   0.396
 8882SOL    HW227546   4.086   0.283   0.345
 8883SOL     OW27547   0.200   6.541   4.054
 8883SOL    HW127548   0.119   6.556   4.111
 8883SOL    HW227549   0.175   6.550   3.958
 8884SOL     OW27550   5.096   2.937   5.562
 8884SOL    HW127551   5.066   2.984   5.479
 8884SOL    HW227552   5.058   2.845   5.564
 8885SOL     OW27553   5.862   5.902   0.959
 8885SOL    HW127554   5.944   5.956   0.977
 8885SOL    HW227555   5.861   5.822   1.020
 8886SOL     OW27556   3.917   5.716   6.711
 8886SOL    HW127557   3.978   5.639   6.731
 8886SOL    HW227558   3.843   5.718   6.778
 8887SOL     OW27559   4.419   0.438   1.659
 8887SOL    HW127560   4.437   0.535   1.639
 8887SOL    HW227561   4.505   0.387   1.655
 8888SOL     OW27562   3.389   1.958   2.393
 8888SOL    HW127563   3.354   2.003   2.475
 8888SOL    HW227564   3.388   2.023   2.317
 8889SOL     OW27565   1.456   5.289   6.652
 8889SOL    HW127566   1.434   5.195   6.677
 8889SOL    HW227567   1.482   5.292   6.555
 8890SOL     OW27568   1.110   6.490   0.132
 8890SOL    HW127569   1.120   6.520   0.227
 8890SOL    HW227570   1.028   6.531   0.093
 8891SOL     OW27571   6.340   4.217   5.510
 8891SOL    HW127572   6.425   4.172   5.540
 8891SOL    HW227573   6.359   4.313   5.490
 8892SOL     OW27574   2.686   5.416   5.063
 8892SOL    HW127575   2.746   5.400   5.142
 8892SOL    HW227576   2.604   5.360   5.072
 8893SOL     OW27577   1.307   5.157   5.301
 8893SOL    HW127578   1.210   5.175   5.286
 8893SOL    HW227579   1.325   5.059   5.290
 8894SOL     OW27580   4.961   1.454   1.328
 8894SOL    HW127581   4.881   1.512   1.340
 8894SOL    HW227582   4.993   1.461   1.234
 8895SOL     OW27583   6.595   3.419   0.886
 8895SOL    HW127584   6.505   3.383   0.910
 8895SOL    HW227585   6.665   3.355   0.914
 8896SOL     OW27586   0.399   2.451   3.631
 8896SOL    HW127587   0.347   2.377   3.674
 8896SOL    HW227588   0.474   2.412   3.577
 8897SOL     OW27589   1.898   5.365   3.842
 8897SOL    HW127590   1.914   5.422   3.762
 8897SOL    HW227591   1.810   5.389   3.883
 8898SOL     OW27592   4.899   3.692   2.615
 8898SOL    HW127593   4.859   3.611   2.659
 8898SOL    HW227594   4.929   3.668   2.523
 8899SOL     OW27595   1.465   3.765   3.256
 8899SOL    HW127596   1.481   3.832   3.328
 8899SOL    HW227597   1.482   3.673   3.291
 8900SOL     OW27598   4.694   2.104   4.159
 8900SOL    HW127599   4.682   2.179   4.223
 8900SOL    HW227600   4.622   2.107   4.089
 8901SOL     OW27601   1.381   5.196   4.239
 8901SOL    HW127602   1.289   5.169   4.266
 8901SOL    HW227603   1.443   5.118   4.250
 8902SOL     OW27604   0.738   4.578   0.489
 8902SOL    HW127605   0.665   4.644   0.508
 8902SOL    HW227606   0.748   4.566   0.391
 8903SOL     OW27607   1.189   6.928   5.675
 8903SOL    HW127608   1.271   6.984   5.666
 8903SOL    HW227609   1.119   6.961   5.611
 8904SOL     OW27610   0.758   1.239   3.507
 8904SOL    HW127611   0.665   1.250   3.541
 8904SOL    HW227612   0.798   1.329   3.489
 8905SOL     OW27613   1.281   3.999   2.844
 8905SOL    HW127614   1.272   3.973   2.940
 8905SOL    HW227615   1.376   3.983   2.814
 8906SOL     OW27616   5.721   0.198   0.204
 8906SOL    HW127617   5.791   0.218   0.273
 8906SOL    HW227618   5.727   0.101   0.179
 8907SOL     OW27619   2.941   3.501   4.904
 8907SOL    HW127620   2.912   3.464   4.992
 8907SOL    HW227621   2.933   3.431   4.834
 8908SOL     OW27622   1.272   4.196   6.606
 8908SOL    HW127623   1.216   4.255   6.664
 8908SOL    HW227624   1.340   4.251   6.557
 8909SOL     OW27625   1.666   5.853   1.121
 8909SOL    HW127626   1.624   5.852   1.030
 8909SOL    HW227627   1.603   5.815   1.188
 8910SOL     OW27628   1.310   0.399   3.486
 8910SOL    HW127629   1.243   0.405   3.413
 8910SOL    HW227630   1.277   0.448   3.567
 8911SOL     OW27631   4.442   2.301   4.688
 8911SOL    HW127632   4.382   2.231   4.727
 8911SOL    HW227633   4.508   2.258   4.626
 8912SOL     OW27634   3.533   3.528   4.071
 8912SOL    HW127635   3.503   3.475   3.992
 8912SOL    HW227636   3.558   3.467   4.146
 8913SOL     OW27637   5.526   6.053   0.668
 8913SOL    HW127638   5.588   6.125   0.638
 8913SOL    HW227639   5.515   5.986   0.596
 8914SOL     OW27640   4.861   5.306   5.875
 8914SOL    HW127641   4.801   5.281   5.799
 8914SOL    HW227642   4.874   5.227   5.935
 8915SOL     OW27643   1.371   1.097   2.563
 8915SOL    HW127644   1.365   1.162   2.639
 8915SOL    HW227645   1.466   1.091   2.532
 8916SOL     OW27646   5.114   1.216   1.002
 8916SOL    HW127647   5.044   1.283   0.977
 8916SOL    HW227648   5.078   1.154   1.071
 8917SOL     OW27649   6.072   1.937   0.182
 8917SOL    HW127650   5.984   1.965   0.143
 8917SOL    HW227651   6.105   2.008   0.244
 8918SOL     OW27652   0.711   3.439   2.524
 8918SOL    HW127653   0.731   3.445   2.622
 8918SOL    HW227654   0.613   3.423   2.511
 8919SOL     OW27655   6.384   2.769   1.491
 8919SOL    HW127656   6.379   2.859   1.534
 8919SOL    HW227657   6.474   2.755   1.451
 8920SOL     OW27658   6.923   0.608   6.656
 8920SOL    HW127659   6.966   0.610   6.566
 8920SOL    HW227660   6.984   0.651   6.723
 8921SOL     OW27661   1.497   3.106   2.390
 8921SOL    HW127662   1.423   3.125   2.454
 8921SOL    HW227663   1.573   3.169   2.407
 8922SOL     OW27664   4.376   5.419   3.950
 8922SOL    HW127665   4.353   5.329   3.912
 8922SOL    HW227666   4.300   5.452   4.006
 8923SOL     OW27667   2.264   1.664   4.621
 8923SOL    HW127668   2.290   1.750   4.665
 8923SOL    HW227669   2.288   1.587   4.680
 8924SOL     OW27670   6.264   5.063   5.142
 8924SOL    HW127671   6.211   5.007   5.079
 8924SOL    HW227672   6.361   5.056   5.120
 8925SOL     OW27673   0.872   6.485   2.716
 8925SOL    HW127674   0.829   6.520   2.632
 8925SOL    HW227675   0.907   6.393   2.699
 8926SOL     OW27676   5.971   1.104   6.593
 8926SOL    HW127677   6.026   1.161   6.532
 8926SOL    HW227678   5.990   1.007   6.575
 8927SOL     OW27679   1.579   0.731   5.792
 8927SOL    HW127680   1.629   0.742   5.706
 8927SOL    HW227681   1.512   0.658   5.781
 8928SOL     OW27682   0.803   6.814   5.380
 8928SOL    HW127683   0.766   6.732   5.336
 8928SOL    HW227684   0.758   6.827   5.469
 8929SOL     OW27685   0.179   1.459   3.695
 8929SOL    HW127686   0.168   1.462   3.795
 8929SOL    HW227687   0.092   1.435   3.653
 8930SOL     OW27688   2.158   4.754   3.569
 8930SOL    HW127689   2.086   4.689   3.595
 8930SOL    HW227690   2.241   4.734   3.622
 8931SOL     OW27691   4.350   3.146   0.712
 8931SOL    HW127692   4.265   3.106   0.747
 8931SOL    HW227693   4.395   3.080   0.652
 8932SOL     OW27694   1.059   3.755   3.803
 8932SOL    HW127695   0.971   3.709   3.791
 8932SOL    HW227696   1.105   3.763   3.715
 8933SOL     OW27697   3.888   2.044   5.260
 8933SOL    HW127698   3.817   2.113   5.273
 8933SOL    HW227699   3.977   2.090   5.251
 8934SOL     OW27700   2.520   5.910   2.634
 8934SOL    HW127701   2.546   5.960   2.551
 8934SOL    HW227702   2.583   5.834   2.648
 8935SOL     OW27703   6.686   4.774   0.695
 8935SOL    HW127704   6.740   4.708   0.747
 8935SOL    HW227705   6.649   4.730   0.613
 8936SOL     OW27706   3.847   2.551   0.845
 8936SOL    HW127707   3.823   2.600   0.762
 8936SOL    HW227708   3.858   2.454   0.825
 8937SOL     OW27709   0.513   6.572   6.621
 8937SOL    HW127710   0.486   6.582   6.717
 8937SOL    HW227711   0.442   6.522   6.572
 8938SOL     OW27712   4.801   6.088   1.726
 8938SOL    HW127713   4.765   6.002   1.691
 8938SOL    HW227714   4.859   6.070   1.806
 8939SOL     OW27715   4.465   1.757   4.837
 8939SOL    HW127716   4.536   1.688   4.849
 8939SOL    HW227717   4.502   1.836   4.789
 8940SOL     OW27718   5.532   0.275   2.789
 8940SOL    HW127719   5.509   0.372   2.781
 8940SOL    HW227720   5.630   0.262   2.774
 8941SOL     OW27721   4.861   1.618   6.078
 8941SOL    HW127722   4.947   1.584   6.116
 8941SOL    HW227723   4.802   1.541   6.055
 8942SOL     OW27724   1.067   3.312   5.607
 8942SOL    HW127725   1.079   3.255   5.689
 8942SOL    HW227726   1.133   3.283   5.537
 8943SOL     OW27727   5.515   3.362   1.138
 8943SOL    HW127728   5.480   3.447   1.098
 8943SOL    HW227729   5.514   3.369   1.238
 8944SOL     OW27730   4.627   5.278   1.385
 8944SOL    HW127731   4.563   5.263   1.460
 8944SOL    HW227732   4.587   5.243   1.300
 8945SOL     OW27733   1.753   0.914   4.357
 8945SOL    HW127734   1.655   0.933   4.352
 8945SOL    HW227735   1.797   0.983   4.413
 8946SOL     OW27736   4.085   1.499   4.749
 8946SOL    HW127737   4.116   1.425   4.809
 8946SOL    HW227738   4.127   1.585   4.777
 8947SOL     OW27739   3.902   4.083   4.779
 8947SOL    HW127740   3.970   4.095   4.707
 8947SOL    HW227741   3.945   4.043   4.860
 8948SOL     OW27742   6.323   5.184   2.692
 8948SOL    HW127743   6.399   5.245   2.714
 8948SOL    HW227744   6.358   5.105   2.642
 8949SOL     OW27745   2.659   5.404   6.666
 8949SOL    HW127746   2.599   5.480   6.689
 8949SOL    HW227747   2.743   5.411   6.720
 8950SOL     OW27748   4.727   2.416   4.599
 8950SOL    HW127749   4.649   2.440   4.656
 8950SOL    HW227750   4.805   2.394   4.657
 8951SOL     OW27751   2.477   2.224   5.890
 8951SOL    HW127752   2.459   2.320   5.870
 8951SOL    HW227753   2.525   2.182   5.812
 8952SOL     OW27754   6.500   0.205   3.453
 8952SOL    HW127755   6.526   0.245   3.365
 8952SOL    HW227756   6.400   0.206   3.462
 8953SOL     OW27757   1.558   4.466   6.742
 8953SOL    HW127758   1.567   4.553   6.792
 8953SOL    HW227759   1.592   4.392   6.799
 8954SOL     OW27760   1.625   5.974   5.985
 8954SOL    HW127761   1.633   5.968   5.886
 8954SOL    HW227762   1.529   5.980   6.011
 8955SOL     OW27763   5.941   3.633   3.880
 8955SOL    HW127764   5.845   3.650   3.900
 8955SOL    HW227765   5.987   3.601   3.963
 8956SOL     OW27766   1.181   1.251   5.449
 8956SOL    HW127767   1.206   1.263   5.353
 8956SOL    HW227768   1.263   1.254   5.505
 8957SOL     OW27769   2.662   5.515   2.231
 8957SOL    HW127770   2.626   5.608   2.231
 8957SOL    HW227771   2.762   5.517   2.232
 8958SOL     OW27772   2.243   0.772   4.014
 8958SOL    HW127773   2.293   0.854   3.987
 8958SOL    HW227774   2.248   0.760   4.113
 8959SOL     OW27775   3.077   4.517   1.353
 8959SOL    HW127776   3.174   4.520   1.377
 8959SOL    HW227777   3.047   4.608   1.326
 8960SOL     OW27778   3.949   5.834   1.298
 8960SOL    HW127779   3.979   5.869   1.209
 8960SOL    HW227780   3.912   5.909   1.352
 8961SOL     OW27781   1.695   2.510   3.858
 8961SOL    HW127782   1.701   2.528   3.956
 8961SOL    HW227783   1.638   2.579   3.814
 8962SOL     OW27784   5.276   0.336   3.489
 8962SOL    HW127785   5.183   0.372   3.504
 8962SOL    HW227786   5.334   0.360   3.568
 8963SOL     OW27787   0.020   0.788   3.526
 8963SOL    HW127788   0.093   0.772   3.459
 8963SOL    HW227789   6.979   0.709   3.529
 8964SOL     OW27790   6.584   4.512   2.957
 8964SOL    HW127791   6.552   4.601   2.988
 8964SOL    HW227792   6.610   4.456   3.035
 8965SOL     OW27793   1.495   5.331   1.396
 8965SOL    HW127794   1.462   5.424   1.383
 8965SOL    HW227795   1.584   5.320   1.353
 8966SOL     OW27796   3.221   3.042   5.242
 8966SOL    HW127797   3.186   2.961   5.291
 8966SOL    HW227798   3.276   3.012   5.164
 8967SOL     OW27799   4.342   0.251   0.617
 8967SOL    HW127800   4.343   0.161   0.575
 8967SOL    HW227801   4.337   0.241   0.717
 8968SOL     OW27802   5.133   5.334   2.967
 8968SOL    HW127803   5.221   5.329   2.920
 8968SOL    HW227804   5.084   5.416   2.936
 8969SOL     OW27805   6.466   1.105   4.409
 8969SOL    HW127806   6.492   1.142   4.320
 8969SOL    HW227807   6.373   1.067   4.403
 8970SOL     OW27808   3.880   2.092   1.383
 8970SOL    HW127809   3.931   2.177   1.375
 8970SOL    HW227810   3.943   2.014   1.380
 8971SOL     OW27811   4.342   6.160   2.928
 8971SOL    HW127812   4.340   6.123   3.021
 8971SOL    HW227813   4.430   6.140   2.886
 8972SOL     OW27814   5.252   0.889   4.431
 8972SOL    HW127815   5.291   0.978   4.409
 8972SOL    HW227816   5.250   0.876   4.530
 8973SOL     OW27817   1.354   4.464   0.309
 8973SOL    HW127818   1.315   4.450   0.218
 8973SOL    HW227819   1.381   4.376   0.348
 8974SOL     OW27820   0.566   2.887   3.928
 8974SOL    HW127821   0.663   2.895   3.903
 8974SOL    HW227822   0.531   2.799   3.895
 8975SOL     OW27823   3.056   7.001   6.844
 8975SOL    HW127824   3.062   6.965   6.937
 8975SOL    HW227825   3.036   6.926   6.781
 8976SOL     OW27826   0.310   5.041   4.906
 8976SOL    HW127827   0.402   5.045   4.869
 8976SOL    HW227828   0.260   5.124   4.882
 8977SOL     OW27829   5.859   1.026   6.323
 8977SOL    HW127830   5.945   1.005   6.369
 8977SOL    HW227831   5.788   0.963   6.354
 8978SOL     OW27832   5.711   5.999   1.206
 8978SOL    HW127833   5.707   6.097   1.228
 8978SOL    HW227834   5.743   5.988   1.112
 8979SOL     OW27835   1.739   5.244   5.092
 8979SOL    HW127836   1.802   5.254   5.015
 8979SOL    HW227837   1.678   5.323   5.096
 8980SOL     OW27838   3.968   3.164   4.242
 8980SOL    HW127839   4.031   3.130   4.172
 8980SOL    HW227840   3.920   3.087   4.285
 8981SOL     OW27841   3.164   1.129   5.470
 8981SOL    HW127842   3.092   1.197   5.485
 8981SOL    HW227843   3.135   1.066   5.398
 8982SOL     OW27844   4.048   4.376   0.263
 8982SOL    HW127845   4.026   4.341   0.354
 8982SOL    HW227846   4.092   4.465   0.271
 8983SOL     OW27847   4.999   5.241   0.632
 8983SOL    HW127848   5.038   5.256   0.722
 8983SOL    HW227849   5.065   5.271   0.562
 8984SOL     OW27850   1.268   6.496   3.262
 8984SOL    HW127851   1.353   6.544   3.244
 8984SOL    HW227852   1.234   6.520   3.353
 8985SOL     OW27853   3.733   3.120   5.799
 8985SOL    HW127854   3.674   3.166   5.733
 8985SOL    HW227855   3.806   3.073   5.751
 8986SOL     OW27856   3.687   6.201   2.641
 8986SOL    HW127857   3.596   6.192   2.600
 8986SOL    HW227858   3.755   6.161   2.581
 8987SOL     OW27859   5.343   6.293   1.899
 8987SOL    HW127860   5.314   6.377   1.855
 8987SOL    HW227861   5.428   6.309   1.949
 8988SOL     OW27862   0.885   5.505   5.138
 8988SOL    HW127863   0.950   5.447   5.088
 8988SOL    HW227864   0.830   5.448   5.199
 8989SOL     OW27865   3.338   3.305   6.864
 8989SOL    HW127866   3.323   3.214   6.826
 8989SOL    HW227867   3.369   3.298   6.958
 8990SOL     OW27868   0.402   6.530   3.456
 8990SOL    HW127869   0.493   6.502   3.426
 8990SOL    HW227870   0.410   6.583   3.541
 8991SOL     OW27871   1.322   1.921   5.449
 8991SOL    HW127872   1.324   2.019   5.427
 8991SOL    HW227873   1.230   1.895   5.476
 8992SOL     OW27874   6.029   2.813   0.391
 8992SOL    HW127875   5.970   2.892   0.409
 8992SOL    HW227876   6.105   2.813   0.456
 8993SOL     OW27877   4.548   2.414   0.180
 8993SOL    HW127878   4.559   2.486   0.249
 8993SOL    HW227879   4.459   2.425   0.135
 8994SOL     OW27880   2.054   5.630   3.794
 8994SOL    HW127881   2.113   5.586   3.862
 8994SOL    HW227882   1.962   5.641   3.833
 8995SOL     OW27883   0.498   1.228   0.512
 8995SOL    HW127884   0.483   1.133   0.484
 8995SOL    HW227885   0.586   1.259   0.477
 8996SOL     OW27886   4.488   5.503   5.925
 8996SOL    HW127887   4.395   5.466   5.922
 8996SOL    HW227888   4.522   5.498   6.019
 8997SOL     OW27889   6.179   0.624   4.870
 8997SOL    HW127890   6.217   0.674   4.792
 8997SOL    HW227891   6.094   0.579   4.843
 8998SOL     OW27892   6.357   3.277   4.442
 8998SOL    HW127893   6.428   3.337   4.480
 8998SOL    HW227894   6.330   3.209   4.510
 8999SOL     OW27895   4.007   7.002   5.884
 8999SOL    HW127896   3.982   0.074   5.913
 8999SOL    HW227897   4.054   7.006   5.796
 9000SOL     OW27898   1.514   4.274   1.055
 9000SOL    HW127899   1.609   4.303   1.064
 9000SOL    HW227900   1.509   4.174   1.061
 9001SOL     OW27901   0.897   5.529   2.918
 9001SOL    HW127902   0.843   5.595   2.971
 9001SOL    HW227903   0.873   5.538   2.821
 9002SOL     OW27904   1.089   4.500   0.353
 9002SOL    HW127905   1.039   4.419   0.322
 9002SOL    HW227906   1.185   4.492   0.327
 9003SOL     OW27907   5.751   0.399   1.075
 9003SOL    HW127908   5.793   0.423   1.162
 9003SOL    HW227909   5.654   0.379   1.089
 9004SOL     OW27910   4.053   4.676   6.988
 9004SOL    HW127911   4.058   4.769   6.951
 9004SOL    HW227912   4.093   4.674   0.060
 9005SOL     OW27913   5.133   1.398   5.084
 9005SOL    HW127914   5.211   1.461   5.083
 9005SOL    HW227915   5.131   1.348   5.170
 9006SOL     OW27916   3.753   5.905   0.490
 9006SOL    HW127917   3.848   5.926   0.468
 9006SOL    HW227918   3.720   5.833   0.429
 9007SOL     OW27919   2.475   0.807   2.611
 9007SOL    HW127920   2.525   0.729   2.572
 9007SOL    HW227921   2.527   0.891   2.595
 9008SOL     OW27922   0.890   5.924   2.634
 9008SOL    HW127923   0.983   5.888   2.631
 9008SOL    HW227924   0.827   5.857   2.596
 9009SOL     OW27925   3.652   6.131   1.122
 9009SOL    HW127926   3.748   6.143   1.097
 9009SOL    HW227927   3.596   6.194   1.070
 9010SOL     OW27928   1.338   6.173   4.286
 9010SOL    HW127929   1.344   6.177   4.385
 9010SOL    HW227930   1.408   6.112   4.250
 9011SOL     OW27931   2.540   2.001   1.796
 9011SOL    HW127932   2.629   2.027   1.760
 9011SOL    HW227933   2.547   1.914   1.845
 9012SOL     OW27934   1.754   6.326   6.604
 9012SOL    HW127935   1.763   6.260   6.529
 9012SOL    HW227936   1.837   6.382   6.609
 9013SOL     OW27937   2.016   6.268   4.176
 9013SOL    HW127938   1.970   6.300   4.093
 9013SOL    HW227939   1.967   6.302   4.256
 9014SOL     OW27940   5.428   2.949   3.532
 9014SOL    HW127941   5.490   2.873   3.544
 9014SOL    HW227942   5.437   2.986   3.439
 9015SOL     OW27943   5.010   1.312   6.616
 9015SOL    HW127944   4.958   1.231   6.588
 9015SOL    HW227945   5.108   1.294   6.602
 9016SOL     OW27946   5.109   5.271   6.581
 9016SOL    HW127947   5.075   5.177   6.591
 9016SOL    HW227948   5.196   5.269   6.531
 9017SOL     OW27949   4.250   0.429   4.493
 9017SOL    HW127950   4.231   0.439   4.591
 9017SOL    HW227951   4.300   0.344   4.477
 9018SOL     OW27952   3.964   4.095   6.495
 9018SOL    HW127953   3.872   4.061   6.513
 9018SOL    HW227954   3.971   4.122   6.399
 9019SOL     OW27955   0.463   3.843   3.749
 9019SOL    HW127956   0.560   3.826   3.733
 9019SOL    HW227957   0.422   3.881   3.666
 9020SOL     OW27958   5.384   5.922   2.292
 9020SOL    HW127959   5.379   5.841   2.349
 9020SOL    HW227960   5.300   5.932   2.239
 9021SOL     OW27961   0.491   0.795   4.447
 9021SOL    HW127962   0.491   0.695   4.446
 9021SOL    HW227963   0.549   0.827   4.522
 9022SOL     OW27964   4.789   3.356   6.043
 9022SOL    HW127965   4.865   3.416   6.021
 9022SOL    HW227966   4.743   3.389   6.126
 9023SOL     OW27967   5.861   4.114   0.922
 9023SOL    HW127968   5.779   4.057   0.912
 9023SOL    HW227969   5.838   4.209   0.900
 9024SOL     OW27970   2.138   5.965   6.024
 9024SOL    HW127971   2.060   5.982   5.965
 9024SOL    HW227972   2.208   5.915   5.973
 9025SOL     OW27973   1.011   5.482   1.140
 9025SOL    HW127974   1.093   5.533   1.166
 9025SOL    HW227975   0.931   5.542   1.143
 9026SOL     OW27976   5.297   1.779   0.363
 9026SOL    HW127977   5.330   1.725   0.285
 9026SOL    HW227978   5.222   1.731   0.408
 9027SOL     OW27979   0.613   4.043   3.280
 9027SOL    HW127980   0.531   4.082   3.238
 9027SOL    HW227981   0.614   4.063   3.378
 9028SOL     OW27982   3.148   4.912   5.998
 9028SOL    HW127983   3.091   4.957   5.929
 9028SOL    HW227984   3.243   4.942   5.989
 9029SOL     OW27985   4.314   6.472   4.341
 9029SOL    HW127986   4.215   6.463   4.329
 9029SOL    HW227987   4.340   6.440   4.432
 9030SOL     OW27988   2.876   1.723   2.743
 9030SOL    HW127989   2.883   1.662   2.664
 9030SOL    HW227990   2.871   1.668   2.826
 9031SOL     OW27991   4.401   6.764   4.327
 9031SOL    HW127992   4.445   6.782   4.415
 9031SOL    HW227993   4.379   6.667   4.320
 9032SOL     OW27994   4.957   3.604   2.123
 9032SOL    HW127995   4.950   3.594   2.222
 9032SOL    HW227996   4.867   3.623   2.085
 9033SOL     OW27997   0.525   7.017   3.289
 9033SOL    HW127998   0.580   0.006   3.372
 9033SOL    HW227999   0.543   6.928   3.247
 9034SOL     OW28000   4.330   6.812   3.944
 9034SOL    HW128001   4.287   6.899   3.922
 9034SOL    HW228002   4.428   6.818   3.925
 9035SOL     OW28003   2.185   4.717   6.459
 9035SOL    HW128004   2.149   4.809   6.474
 9035SOL    HW228005   2.114   4.660   6.418
 9036SOL     OW28006   1.735   4.057   5.367
 9036SOL    HW128007   1.834   4.069   5.362
 9036SOL    HW228008   1.707   3.986   5.302
 9037SOL     OW28009   1.448   1.984   2.894
 9037SOL    HW128010   1.495   1.959   2.979
 9037SOL    HW228011   1.516   2.016   2.827
 9038SOL     OW28012   4.444   3.042   5.435
 9038SOL    HW128013   4.389   2.972   5.389
 9038SOL    HW228014   4.524   3.064   5.379
 9039SOL     OW28015   3.998   5.521   6.277
 9039SOL    HW128016   4.070   5.567   6.330
 9039SOL    HW228017   3.919   5.583   6.268
 9040SOL     OW28018   2.511   1.839   1.207
 9040SOL    HW128019   2.428   1.791   1.177
 9040SOL    HW228020   2.490   1.897   1.285
 9041SOL     OW28021   6.770   1.906   1.840
 9041SOL    HW128022   6.709   1.890   1.918
 9041SOL    HW228023   6.757   1.834   1.772
 9042SOL     OW28024   3.902   6.185   0.229
 9042SOL    HW128025   3.921   6.170   0.132
 9042SOL    HW228026   3.951   6.117   0.284
 9043SOL     OW28027   3.231   2.113   0.226
 9043SOL    HW128028   3.147   2.142   0.272
 9043SOL    HW228029   3.262   2.026   0.264
 9044SOL     OW28030   1.160   1.128   0.245
 9044SOL    HW128031   1.169   1.146   0.343
 9044SOL    HW228032   1.250   1.137   0.201
 9045SOL     OW28033   3.946   1.805   3.678
 9045SOL    HW128034   3.969   1.708   3.678
 9045SOL    HW228035   3.893   1.828   3.596
 9046SOL     OW28036   3.371   3.486   2.174
 9046SOL    HW128037   3.372   3.408   2.111
 9046SOL    HW228038   3.462   3.527   2.178
 9047SOL     OW28039   1.504   3.755   5.982
 9047SOL    HW128040   1.505   3.834   6.043
 9047SOL    HW228041   1.561   3.774   5.902
 9048SOL     OW28042   6.748   2.073   6.061
 9048SOL    HW128043   6.799   2.127   5.994
 9048SOL    HW228044   6.651   2.093   6.052
 9049SOL     OW28045   3.228   6.823   6.374
 9049SOL    HW128046   3.190   6.739   6.412
 9049SOL    HW228047   3.278   6.872   6.446
 9050SOL     OW28048   0.523   5.067   0.584
 9050SOL    HW128049   0.455   5.125   0.627
 9050SOL    HW228050   0.613   5.087   0.622
 9051SOL     OW28051   2.600   0.711   1.701
 9051SOL    HW128052   2.565   0.626   1.739
 9051SOL    HW228053   2.594   0.708   1.602
 9052SOL     OW28054   1.101   2.322   5.286
 9052SOL    HW128055   1.124   2.280   5.374
 9052SOL    HW228056   1.157   2.280   5.214
 9053SOL     OW28057   1.376   1.162   0.052
 9053SOL    HW128058   1.464   1.116   0.061
 9053SOL    HW228059   1.338   1.146   6.981
 9054SOL     OW28060   2.206   5.842   2.270
 9054SOL    HW128061   2.163   5.887   2.349
 9054SOL    HW228062   2.274   5.903   2.230
 9055SOL     OW28063   0.247   3.969   4.710
 9055SOL    HW128064   0.167   3.949   4.654
 9055SOL    HW228065   0.220   4.020   4.791
 9056SOL     OW28066   6.491   2.851   2.963
 9056SOL    HW128067   6.496   2.896   2.874
 9056SOL    HW228068   6.403   2.803   2.971
 9057SOL     OW28069   4.314   2.085   4.431
 9057SOL    HW128070   4.350   2.061   4.341
 9057SOL    HW228071   4.225   2.131   4.421
 9058SOL     OW28072   2.448   0.792   5.518
 9058SOL    HW128073   2.546   0.777   5.527
 9058SOL    HW228074   2.408   0.721   5.460
 9059SOL     OW28075   1.116   2.232   2.882
 9059SOL    HW128076   1.025   2.242   2.923
 9059SOL    HW228077   1.107   2.207   2.786
 9060SOL     OW28078   5.442   2.720   5.618
 9060SOL    HW128079   5.378   2.668   5.561
 9060SOL    HW228080   5.408   2.814   5.629
 9061SOL     OW28081   2.987   5.690   2.944
 9061SOL    HW128082   2.972   5.788   2.953
 9061SOL    HW228083   3.085   5.671   2.944
 9062SOL     OW28084   1.772   5.444   1.109
 9062SOL    HW128085   1.814   5.530   1.138
 9062SOL    HW228086   1.835   5.368   1.127
 9063SOL     OW28087   3.076   1.435   2.008
 9063SOL    HW128088   3.170   1.464   1.991
 9063SOL    HW228089   3.034   1.407   1.922
 9064SOL     OW28090   5.869   3.611   0.302
 9064SOL    HW128091   5.812   3.648   0.375
 9064SOL    HW228092   5.966   3.623   0.326
 9065SOL     OW28093   2.119   0.794   0.196
 9065SOL    HW128094   2.084   0.709   0.156
 9065SOL    HW228095   2.197   0.826   0.143
 9066SOL     OW28096   4.911   6.588   0.327
 9066SOL    HW128097   4.888   6.521   0.257
 9066SOL    HW228098   4.992   6.557   0.377
 9067SOL     OW28099   1.369   6.548   2.514
 9067SOL    HW128100   1.445   6.535   2.450
 9067SOL    HW228101   1.312   6.466   2.515
 9068SOL     OW28102   1.354   6.126   6.652
 9068SOL    HW128103   1.268   6.095   6.613
 9068SOL    HW228104   1.385   6.060   6.721
 9069SOL     OW28105   1.252   2.647   6.082
 9069SOL    HW128106   1.320   2.716   6.107
 9069SOL    HW228107   1.235   2.651   5.984
 9070SOL     OW28108   1.159   4.642   3.669
 9070SOL    HW128109   1.071   4.631   3.714
 9070SOL    HW228110   1.168   4.576   3.594
 9071SOL     OW28111   4.974   5.624   0.404
 9071SOL    HW128112   4.952   5.717   0.433
 9071SOL    HW228113   4.929   5.559   0.465
 9072SOL     OW28114   5.202   5.240   6.947
 9072SOL    HW128115   5.147   5.177   7.001
 9072SOL    HW228116   5.142   5.303   6.897
 9073SOL     OW28117   2.112   0.268   1.687
 9073SOL    HW128118   2.029   0.227   1.647
 9073SOL    HW228119   2.179   0.196   1.703
 9074SOL     OW28120   0.792   0.323   3.545
 9074SOL    HW128121   0.726   0.283   3.481
 9074SOL    HW228122   0.765   0.417   3.567
 9075SOL     OW28123   1.039   0.779   2.098
 9075SOL    HW128124   1.045   0.762   2.196
 9075SOL    HW228125   0.968   0.847   2.080
 9076SOL     OW28126   0.057   2.095   5.244
 9076SOL    HW128127   0.019   2.086   5.152
 9076SOL    HW228128   0.139   2.152   5.240
 9077SOL     OW28129   6.007   6.063   1.707
 9077SOL    HW128130   6.079   6.055   1.638
 9077SOL    HW228131   5.918   6.059   1.662
 9078SOL     OW28132   3.831   3.030   5.102
 9078SOL    HW128133   3.795   3.024   5.009
 9078SOL    HW228134   3.912   3.089   5.103
 9079SOL     OW28135   3.545   0.565   5.620
 9079SOL    HW128136   3.639   0.598   5.632
 9079SOL    HW228137   3.508   0.603   5.535
 9080SOL     OW28138   5.485   1.645   0.546
 9080SOL    HW128139   5.408   1.588   0.517
 9080SOL    HW228140   5.485   1.730   0.495
 9081SOL     OW28141   5.234   0.417   2.184
 9081SOL    HW128142   5.267   0.511   2.174
 9081SOL    HW228143   5.227   0.395   2.281
 9082SOL     OW28144   3.201   0.414   2.692
 9082SOL    HW128145   3.137   0.358   2.639
 9082SOL    HW228146   3.165   0.427   2.784
 9083SOL     OW28147   4.555   4.692   4.329
 9083SOL    HW128148   4.649   4.661   4.319
 9083SOL    HW228149   4.548   4.789   4.307
 9084SOL     OW28150   3.475   3.819   3.024
 9084SOL    HW128151   3.411   3.809   3.100
 9084SOL    HW228152   3.484   3.732   2.976
 9085SOL     OW28153   1.015   2.185   0.916
 9085SOL    HW128154   1.046   2.095   0.946
 9085SOL    HW228155   0.996   2.182   0.817
 9086SOL     OW28156   0.173   3.707   0.177
 9086SOL    HW128157   0.126   3.702   0.265
 9086SOL    HW228158   0.240   3.633   0.170
 9087SOL     OW28159   5.122   3.420   2.055
 9087SOL    HW128160   5.067   3.339   2.032
 9087SOL    HW228161   5.063   3.491   2.091
 9088SOL     OW28162   5.244   6.670   1.015
 9088SOL    HW128163   5.255   6.669   1.114
 9088SOL    HW228164   5.147   6.669   0.991
 9089SOL     OW28165   4.347   0.225   5.654
 9089SOL    HW128166   4.278   0.261   5.591
 9089SOL    HW228167   4.437   0.227   5.609
 9090SOL     OW28168   5.405   1.538   3.157
 9090SOL    HW128169   5.466   1.608   3.119
 9090SOL    HW228170   5.406   1.458   3.097
 9091SOL     OW28171   3.099   2.245   6.551
 9091SOL    HW128172   3.152   2.240   6.635
 9091SOL    HW228173   3.033   2.320   6.557
 9092SOL     OW28174   0.130   3.140   6.462
 9092SOL    HW128175   0.131   3.115   6.559
 9092SOL    HW228176   0.155   3.236   6.451
 9093SOL     OW28177   1.960   5.997   5.113
 9093SOL    HW128178   2.051   5.979   5.077
 9093SOL    HW228179   1.891   5.969   5.047
 9094SOL     OW28180   1.198   3.844   1.109
 9094SOL    HW128181   1.168   3.844   1.204
 9094SOL    HW228182   1.246   3.758   1.090
 9095SOL     OW28183   6.923   6.841   5.576
 9095SOL    HW128184   6.844   6.809   5.523
 9095SOL    HW228185   6.893   6.908   5.644
 9096SOL     OW28186   6.558   5.345   3.827
 9096SOL    HW128187   6.634   5.402   3.796
 9096SOL    HW228188   6.552   5.347   3.926
 9097SOL     OW28189   0.902   2.526   5.840
 9097SOL    HW128190   0.840   2.566   5.908
 9097SOL    HW228191   0.965   2.463   5.885
 9098SOL     OW28192   2.257   4.211   3.492
 9098SOL    HW128193   2.316   4.189   3.570
 9098SOL    HW228194   2.193   4.136   3.477
 9099SOL     OW28195   2.494   1.533   6.720
 9099SOL    HW128196   2.427   1.540   6.794
 9099SOL    HW228197   2.527   1.624   6.696
 9100SOL     OW28198   1.430   4.301   3.692
 9100SOL    HW128199   1.515   4.251   3.708
 9100SOL    HW228200   1.430   4.337   3.599
 9101SOL     OW28201   0.696   2.157   0.540
 9101SOL    HW128202   0.610   2.107   0.537
 9101SOL    HW228203   0.771   2.093   0.560
 9102SOL     OW28204   4.089   7.008   2.994
 9102SOL    HW128205   4.072   6.966   2.905
 9102SOL    HW228206   4.022   0.059   3.011
 9103SOL     OW28207   6.212   1.144   0.937
 9103SOL    HW128208   6.237   1.049   0.956
 9103SOL    HW228209   6.229   1.200   1.017
 9104SOL     OW28210   5.875   1.693   6.179
 9104SOL    HW128211   5.968   1.672   6.207
 9104SOL    HW228212   5.811   1.653   6.245
 9105SOL     OW28213   2.623   1.431   5.959
 9105SOL    HW128214   2.687   1.417   5.884
 9105SOL    HW228215   2.670   1.472   6.037
 9106SOL     OW28216   1.455   3.871   6.964
 9106SOL    HW128217   1.484   3.797   6.902
 9106SOL    HW228218   1.375   3.841   7.016
 9107SOL     OW28219   3.077   1.709   0.327
 9107SOL    HW128220   3.062   1.621   0.282
 9107SOL    HW228221   3.033   1.782   0.274
 9108SOL     OW28222   6.434   5.453   5.890
 9108SOL    HW128223   6.458   5.382   5.957
 9108SOL    HW228224   6.390   5.529   5.937
 9109SOL     OW28225   5.799   3.701   2.748
 9109SOL    HW128226   5.726   3.693   2.681
 9109SOL    HW228227   5.839   3.793   2.744
 9110SOL     OW28228   1.184   6.221   3.361
 9110SOL    HW128229   1.180   6.316   3.394
 9110SOL    HW228230   1.267   6.208   3.307
 9111SOL     OW28231   4.018   2.352   6.395
 9111SOL    HW128232   3.992   2.419   6.464
 9111SOL    HW228233   4.101   2.383   6.348
 9112SOL     OW28234   0.589   5.267   1.298
 9112SOL    HW128235   0.559   5.354   1.338
 9112SOL    HW228236   0.657   5.284   1.228
 9113SOL     OW28237   5.391   0.242   4.516
 9113SOL    HW128238   5.322   0.170   4.529
 9113SOL    HW228239   5.444   0.253   4.600
 9114SOL     OW28240   1.000   6.634   5.865
 9114SOL    HW128241   1.061   6.645   5.787
 9114SOL    HW228242   0.981   6.724   5.905
 9115SOL     OW28243   4.770   4.139   5.116
 9115SOL    HW128244   4.704   4.211   5.137
 9115SOL    HW228245   4.782   4.132   5.017
 9116SOL     OW28246   2.100   0.266   3.562
 9116SOL    HW128247   2.124   0.342   3.501
 9116SOL    HW228248   2.012   0.284   3.606
 9117SOL     OW28249   2.329   6.655   7.009
 9117SOL    HW128250   2.423   6.629   6.989
 9117SOL    HW228251   2.328   6.727   0.059
 9118SOL     OW28252   6.704   3.872   2.038
 9118SOL    HW128253   6.612   3.912   2.035
 9118SOL    HW228254   6.771   3.945   2.050
 9119SOL     OW28255   3.151   1.174   0.528
 9119SOL    HW128256   3.212   1.143   0.600
 9119SOL    HW228257   3.058   1.142   0.546
 9120SOL     OW28258   6.423   3.992   4.662
 9120SOL    HW128259   6.470   3.938   4.592
 9120SOL    HW228260   6.378   4.070   4.620
 9121SOL     OW28261   3.954   0.494   4.398
 9121SOL    HW128262   3.983   0.501   4.302
 9121SOL    HW228263   4.027   0.450   4.451
 9122SOL     OW28264   0.547   3.189   1.215
 9122SOL    HW128265   0.615   3.223   1.150
 9122SOL    HW228266   0.518   3.097   1.188
 9123SOL     OW28267   0.255   5.978   4.646
 9123SOL    HW128268   0.290   6.008   4.735
 9123SOL    HW228269   0.331   5.951   4.587
 9124SOL     OW28270   2.909   5.048   1.083
 9124SOL    HW128271   2.877   5.096   1.001
 9124SOL    HW228272   2.850   4.968   1.100
 9125SOL     OW28273   5.516   6.540   1.606
 9125SOL    HW128274   5.447   6.542   1.678
 9125SOL    HW228275   5.502   6.459   1.549
 9126SOL     OW28276   4.353   4.755   0.684
 9126SOL    HW128277   4.434   4.812   0.676
 9126SOL    HW228278   4.275   4.803   0.643
 9127SOL     OW28279   6.617   4.874   5.055
 9127SOL    HW128280   6.716   4.865   5.066
 9127SOL    HW228281   6.593   4.971   5.049
 9128SOL     OW28282   5.694   4.162   5.726
 9128SOL    HW128283   5.733   4.252   5.706
 9128SOL    HW228284   5.636   4.133   5.649
 9129SOL     OW28285   0.708   3.026   0.253
 9129SOL    HW128286   0.762   3.037   0.336
 9129SOL    HW228287   0.631   3.090   0.255
 9130SOL     OW28288   2.947   3.328   4.641
 9130SOL    HW128289   3.039   3.311   4.605
 9130SOL    HW228290   2.891   3.370   4.570
 9131SOL     OW28291   5.393   2.565   0.653
 9131SOL    HW128292   5.321   2.571   0.584
 9131SOL    HW228293   5.439   2.653   0.662
 9132SOL     OW28294   0.868   3.945   3.931
 9132SOL    HW128295   0.794   3.879   3.917
 9132SOL    HW228296   0.949   3.914   3.881
 9133SOL     OW28297   5.980   0.007   1.129
 9133SOL    HW128298   6.049   6.961   1.100
 9133SOL    HW228299   5.937   0.049   1.049
 9134SOL     OW28300   4.625   4.729   0.326
 9134SOL    HW128301   4.575   4.643   0.333
 9134SOL    HW228302   4.676   4.745   0.410
 9135SOL     OW28303   6.291   6.095   2.493
 9135SOL    HW128304   6.224   6.169   2.505
 9135SOL    HW228305   6.382   6.129   2.515
 9136SOL     OW28306   6.892   5.069   0.145
 9136SOL    HW128307   6.921   5.138   0.079
 9136SOL    HW228308   6.893   5.108   0.237
 9137SOL     OW28309   5.438   6.674   5.487
 9137SOL    HW128310   5.465   6.753   5.431
 9137SOL    HW228311   5.466   6.689   5.582
 9138SOL     OW28312   2.112   3.792   6.682
 9138SOL    HW128313   2.119   3.825   6.777
 9138SOL    HW228314   2.093   3.869   6.621
 9139SOL     OW28315   6.825   0.134   1.536
 9139SOL    HW128316   6.879   0.210   1.500
 9139SOL    HW228317   6.876   0.049   1.526
 9140SOL     OW28318   1.863   3.690   2.441
 9140SOL    HW128319   1.829   3.628   2.370
 9140SOL    HW228320   1.920   3.761   2.399
 9141SOL     OW28321   0.189   6.139   5.027
 9141SOL    HW128322   0.106   6.154   4.973
 9141SOL    HW228323   0.194   6.043   5.054
 9142SOL     OW28324   0.697   4.658   3.648
 9142SOL    HW128325   0.751   4.724   3.701
 9142SOL    HW228326   0.607   4.649   3.689
 9143SOL     OW28327   6.285   4.186   3.300
 9143SOL    HW128328   6.281   4.125   3.380
 9143SOL    HW228329   6.193   4.200   3.265
 9144SOL     OW28330   3.115   4.168   5.075
 9144SOL    HW128331   3.075   4.220   4.999
 9144SOL    HW228332   3.043   4.115   5.120
 9145SOL     OW28333   1.609   5.838   5.721
 9145SOL    HW128334   1.619   5.887   5.635
 9145SOL    HW228335   1.514   5.811   5.734
 9146SOL     OW28336   6.169   2.581   2.898
 9146SOL    HW128337   6.132   2.672   2.920
 9146SOL    HW228338   6.145   2.517   2.971
 9147SOL     OW28339   3.758   0.040   5.210
 9147SOL    HW128340   3.722   0.115   5.154
 9147SOL    HW228341   3.703   0.031   5.293
 9148SOL     OW28342   4.952   5.717   1.720
 9148SOL    HW128343   5.005   5.756   1.796
 9148SOL    HW228344   4.995   5.632   1.689
 9149SOL     OW28345   0.840   3.519   0.723
 9149SOL    HW128346   0.880   3.605   0.754
 9149SOL    HW228347   0.742   3.531   0.707
 9150SOL     OW28348   2.905   3.535   6.973
 9150SOL    HW128349   2.968   3.477   6.922
 9150SOL    HW228350   2.951   3.619   7.000
 9151SOL     OW28351   2.166   3.222   3.530
 9151SOL    HW128352   2.077   3.202   3.572
 9151SOL    HW228353   2.238   3.174   3.580
 9152SOL     OW28354   2.036   4.108   2.564
 9152SOL    HW128355   2.068   4.108   2.469
 9152SOL    HW228356   1.975   4.185   2.579
 9153SOL     OW28357   0.245   3.072   6.725
 9153SOL    HW128358   0.205   3.149   6.774
 9153SOL    HW228359   0.189   2.990   6.740
 9154SOL     OW28360   4.952   5.040   3.346
 9154SOL    HW128361   4.984   5.005   3.434
 9154SOL    HW228362   4.878   4.982   3.313
 9155SOL     OW28363   0.914   6.060   2.876
 9155SOL    HW128364   0.923   6.012   2.789
 9155SOL    HW228365   0.977   6.022   2.943
 9156SOL     OW28366   6.774   4.254   5.793
 9156SOL    HW128367   6.754   4.347   5.824
 9156SOL    HW228368   6.781   4.253   5.693
 9157SOL     OW28369   1.653   4.384   5.469
 9157SOL    HW128370   1.644   4.412   5.373
 9157SOL    HW228371   1.715   4.306   5.475
 9158SOL     OW28372   6.802   3.841   4.979
 9158SOL    HW128373   6.780   3.796   4.892
 9158SOL    HW228374   6.746   3.923   4.989
 9159SOL     OW28375   2.375   1.449   3.874
 9159SOL    HW128376   2.310   1.483   3.807
 9159SOL    HW228377   2.444   1.392   3.829
 9160SOL     OW28378   0.825   3.201   6.854
 9160SOL    HW128379   0.791   3.212   6.947
 9160SOL    HW228380   0.835   3.103   6.833
 9161SOL     OW28381   6.381   3.462   2.917
 9161SOL    HW128382   6.314   3.407   2.868
 9161SOL    HW228383   6.381   3.556   2.881
 9162SOL     OW28384   3.955   2.300   1.722
 9162SOL    HW128385   3.998   2.221   1.767
 9162SOL    HW228386   3.874   2.327   1.774
 9163SOL     OW28387   2.192   2.434   4.178
 9163SOL    HW128388   2.216   2.402   4.086
 9163SOL    HW228389   2.132   2.514   4.172
 9164SOL     OW28390   2.269   0.259   6.408
 9164SOL    HW128391   2.204   0.188   6.382
 9164SOL    HW228392   2.325   0.227   6.484
 9165SOL     OW28393   5.486   1.840   5.995
 9165SOL    HW128394   5.560   1.776   5.978
 9165SOL    HW228395   5.428   1.847   5.914
 9166SOL     OW28396   4.168   6.484   2.020
 9166SOL    HW128397   4.158   6.446   2.112
 9166SOL    HW228398   4.129   6.575   2.017
 9167SOL     OW28399   1.686   1.623   4.211
 9167SOL    HW128400   1.762   1.630   4.276
 9167SOL    HW228401   1.610   1.679   4.244
 9168SOL     OW28402   6.426   5.876   5.375
 9168SOL    HW128403   6.502   5.840   5.429
 9168SOL    HW228404   6.460   5.903   5.284
 9169SOL     OW28405   6.688   5.677   0.261
 9169SOL    HW128406   6.607   5.676   0.202
 9169SOL    HW228407   6.724   5.770   0.266
 9170SOL     OW28408   1.711   1.045   5.547
 9170SOL    HW128409   1.761   1.086   5.623
 9170SOL    HW228410   1.754   0.958   5.523
 9171SOL     OW28411   3.431   5.819   6.852
 9171SOL    HW128412   3.414   5.820   6.753
 9171SOL    HW228413   3.404   5.730   6.889
 9172SOL     OW28414   4.333   2.034   5.644
 9172SOL    HW128415   4.389   2.115   5.662
 9172SOL    HW228416   4.312   1.989   5.731
 9173SOL     OW28417   6.038   4.010   5.784
 9173SOL    HW128418   6.071   4.103   5.774
 9173SOL    HW228419   5.955   3.997   5.730
 9174SOL     OW28420   6.128   4.676   1.098
 9174SOL    HW128421   6.193   4.616   1.052
 9174SOL    HW228422   6.109   4.642   1.189
 9175SOL     OW28423   2.130   6.784   1.303
 9175SOL    HW128424   2.225   6.755   1.315
 9175SOL    HW228425   2.120   6.828   1.213
 9176SOL     OW28426   1.861   0.610   1.772
 9176SOL    HW128427   1.812   0.610   1.685
 9176SOL    HW228428   1.919   0.528   1.778
 9177SOL     OW28429   1.006   6.672   3.944
 9177SOL    HW128430   0.956   6.656   3.859
 9177SOL    HW228431   1.103   6.652   3.930
 9178SOL     OW28432   0.844   4.222   0.926
 9178SOL    HW128433   0.888   4.229   0.837
 9178SOL    HW228434   0.779   4.297   0.937
 9179SOL     OW28435   3.609   4.981   3.698
 9179SOL    HW128436   3.622   4.882   3.702
 9179SOL    HW228437   3.692   5.025   3.663
 9180SOL     OW28438   0.181   0.996   5.303
 9180SOL    HW128439   0.280   0.983   5.298
 9180SOL    HW228440   0.159   1.092   5.286
 9181SOL     OW28441   2.738   2.246   4.164
 9181SOL    HW128442   2.697   2.245   4.073
 9181SOL    HW228443   2.675   2.288   4.229
 9182SOL     OW28444   0.457   2.183   2.536
 9182SOL    HW128445   0.513   2.173   2.618
 9182SOL    HW228446   0.366   2.144   2.553
 9183SOL     OW28447   1.879   1.813   6.272
 9183SOL    HW128448   1.837   1.735   6.319
 9183SOL    HW228449   1.833   1.897   6.300
 9184SOL     OW28450   2.827   4.315   0.893
 9184SOL    HW128451   2.829   4.291   0.990
 9184SOL    HW228452   2.799   4.235   0.840
 9185SOL     OW28453   1.708   0.285   6.105
 9185SOL    HW128454   1.657   0.365   6.135
 9185SOL    HW228455   1.806   0.302   6.114
 9186SOL     OW28456   5.309   6.704   6.999
 9186SOL    HW128457   5.283   6.757   6.918
 9186SOL    HW228458   5.227   6.678   0.030
 9187SOL     OW28459   5.274   2.744   0.856
 9187SOL    HW128460   5.322   2.663   0.889
 9187SOL    HW228461   5.229   2.724   0.769
 9188SOL     OW28462   1.831   6.991   1.247
 9188SOL    HW128463   1.770   6.984   1.326
 9188SOL    HW228464   1.911   0.025   1.272
 9189SOL     OW28465   3.221   0.512   5.361
 9189SOL    HW128466   3.214   0.428   5.415
 9189SOL    HW228467   3.316   0.531   5.341
 9190SOL     OW28468   4.501   0.626   5.235
 9190SOL    HW128469   4.597   0.624   5.262
 9190SOL    HW228470   4.449   0.678   5.303
 9191SOL     OW28471   5.688   6.907   1.506
 9191SOL    HW128472   5.745   6.860   1.573
 9191SOL    HW228473   5.679   7.004   1.531
 9192SOL     OW28474   4.898   3.851   4.509
 9192SOL    HW128475   4.980   3.861   4.453
 9192SOL    HW228476   4.923   3.813   4.598
 9193SOL     OW28477   3.954   3.907   3.180
 9193SOL    HW128478   3.954   3.935   3.084
 9193SOL    HW228479   3.867   3.863   3.202
 9194SOL     OW28480   3.912   4.846   2.793
 9194SOL    HW128481   3.939   4.940   2.809
 9194SOL    HW228482   3.864   4.838   2.706
 9195SOL     OW28483   0.790   2.794   2.466
 9195SOL    HW128484   0.708   2.754   2.507
 9195SOL    HW228485   0.848   2.832   2.538
 9196SOL     OW28486   4.786   6.358   4.433
 9196SOL    HW128487   4.701   6.307   4.435
 9196SOL    HW228488   4.808   6.392   4.524
 9197SOL     OW28489   4.481   1.396   6.995
 9197SOL    HW128490   4.564   1.342   7.010
 9197SOL    HW228491   4.483   1.478   0.033
 9198SOL     OW28492   5.979   2.287   5.412
 9198SOL    HW128493   6.077   2.273   5.402
 9198SOL    HW228494   5.961   2.384   5.431
 9199SOL     OW28495   1.442   3.243   6.594
 9199SOL    HW128496   1.428   3.185   6.674
 9199SOL    HW228497   1.411   3.196   6.512
 9200SOL     OW28498   4.896   5.835   1.269
 9200SOL    HW128499   4.916   5.898   1.345
 9200SOL    HW228500   4.977   5.780   1.250
 9201SOL     OW28501   0.699   3.404   2.179
 9201SOL    HW128502   0.701   3.345   2.259
 9201SOL    HW228503   0.758   3.365   2.108
 9202SOL     OW28504   2.457   6.163   4.180
 9202SOL    HW128505   2.513   6.215   4.115
 9202SOL    HW228506   2.481   6.188   4.273
 9203SOL     OW28507   5.034   0.904   0.251
 9203SOL    HW128508   5.012   0.858   0.165
 9203SOL    HW228509   5.126   0.941   0.247
 9204SOL     OW28510   5.087   4.836   2.802
 9204SOL    HW128511   5.037   4.776   2.740
 9204SOL    HW228512   5.040   4.838   2.891
 9205SOL     OW28513   4.597   2.326   1.684
 9205SOL    HW128514   4.525   2.394   1.673
 9205SOL    HW228515   4.679   2.356   1.635
 9206SOL     OW28516   6.121   6.165   4.660
 9206SOL    HW128517   6.157   6.204   4.575
 9206SOL    HW228518   6.021   6.172   4.659
 9207SOL     OW28519   4.190   6.034   0.155
 9207SOL    HW128520   4.133   6.045   0.074
 9207SOL    HW228521   4.270   6.095   0.149
 9208SOL     OW28522   4.415   3.957   1.661
 9208SOL    HW128523   4.441   4.020   1.734
 9208SOL    HW228524   4.335   3.992   1.614
 9209SOL     OW28525   4.373   0.306   2.993
 9209SOL    HW128526   4.343   0.370   2.922
 9209SOL    HW228527   4.400   0.220   2.950
 9210SOL     OW28528   0.695   6.655   7.001
 9210SOL    HW128529   0.689   6.684   0.076
 9210SOL    HW228530   0.684   6.735   6.941
 9211SOL     OW28531   4.771   1.475   6.349
 9211SOL    HW128532   4.702   1.498   6.280
 9211SOL    HW228533   4.726   1.441   6.431
 9212SOL     OW28534   5.855   3.924   5.542
 9212SOL    HW128535   5.780   3.983   5.513
 9212SOL    HW228536   5.911   3.900   5.462
 9213SOL     OW28537   6.572   5.828   1.848
 9213SOL    HW128538   6.600   5.922   1.870
 9213SOL    HW228539   6.503   5.797   1.914
 9214SOL     OW28540   2.432   1.510   5.753
 9214SOL    HW128541   2.494   1.497   5.831
 9214SOL    HW228542   2.478   1.481   5.669
 9215SOL     OW28543   0.148   3.621   3.512
 9215SOL    HW128544   0.102   3.554   3.453
 9215SOL    HW228545   0.079   3.668   3.568
 9216SOL     OW28546   2.137   6.393   3.233
 9216SOL    HW128547   2.153   6.314   3.291
 9216SOL    HW228548   2.048   6.433   3.254
 9217SOL     OW28549   3.953   2.213   6.821
 9217SOL    HW128550   3.869   2.205   6.875
 9217SOL    HW228551   3.954   2.142   6.750
 9218SOL     OW28552   5.247   5.767   6.568
 9218SOL    HW128553   5.336   5.757   6.613
 9218SOL    HW228554   5.193   5.837   6.616
 9219SOL     OW28555   3.307   2.169   5.837
 9219SOL    HW128556   3.371   2.126   5.901
 9219SOL    HW228557   3.232   2.211   5.887
 9220SOL     OW28558   0.271   6.549   3.203
 9220SOL    HW128559   0.301   6.523   3.295
 9220SOL    HW228560   0.278   6.648   3.192
 9221SOL     OW28561   2.932   1.621   1.333
 9221SOL    HW128562   2.866   1.545   1.334
 9221SOL    HW228563   2.885   1.706   1.354
 9222SOL     OW28564   1.629   5.412   3.900
 9222SOL    HW128565   1.597   5.368   3.816
 9222SOL    HW228566   1.566   5.485   3.927
 9223SOL     OW28567   6.542   3.415   4.593
 9223SOL    HW128568   6.505   3.508   4.597
 9223SOL    HW228569   6.609   3.403   4.667
 9224SOL     OW28570   1.882   4.333   2.581
 9224SOL    HW128571   1.903   4.398   2.507
 9224SOL    HW228572   1.819   4.376   2.646
 9225SOL     OW28573   6.636   5.666   6.089
 9225SOL    HW128574   6.695   5.682   6.168
 9225SOL    HW228575   6.639   5.746   6.028
 9226SOL     OW28576   0.954   0.832   5.675
 9226SOL    HW128577   0.952   0.932   5.683
 9226SOL    HW228578   0.961   0.807   5.578
 9227SOL     OW28579   3.564   4.415   1.266
 9227SOL    HW128580   3.567   4.335   1.205
 9227SOL    HW228581   3.632   4.482   1.236
 9228SOL     OW28582   4.072   3.267   4.844
 9228SOL    HW128583   4.136   3.343   4.843
 9228SOL    HW228584   4.068   3.228   4.936
 9229SOL     OW28585   6.992   5.300   7.008
 9229SOL    HW128586   6.952   5.370   0.046
 9229SOL    HW228587   6.984   5.327   6.912
 9230SOL     OW28588   4.285   0.419   5.050
 9230SOL    HW128589   4.350   0.382   5.116
 9230SOL    HW228590   4.330   0.489   4.994
 9231SOL     OW28591   6.293   6.013   1.601
 9231SOL    HW128592   6.390   6.001   1.581
 9231SOL    HW228593   6.266   5.949   1.673
 9232SOL     OW28594   0.995   5.814   1.980
 9232SOL    HW128595   1.058   5.868   1.925
 9232SOL    HW228596   0.904   5.816   1.938
 9233SOL     OW28597   1.008   6.914   5.892
 9233SOL    HW128598   0.959   6.995   5.925
 9233SOL    HW228599   1.085   6.943   5.836
 9234SOL     OW28600   3.226   4.419   5.629
 9234SOL    HW128601   3.236   4.323   5.601
 9234SOL    HW228602   3.149   4.460   5.582
 9235SOL     OW28603   2.197   1.616   2.833
 9235SOL    HW128604   2.120   1.601   2.770
 9235SOL    HW228605   2.266   1.672   2.789
 9236SOL     OW28606   1.649   3.261   6.026
 9236SOL    HW128607   1.666   3.360   6.030
 9236SOL    HW228608   1.708   3.221   5.955
 9237SOL     OW28609   6.106   5.222   2.870
 9237SOL    HW128610   6.174   5.207   2.798
 9237SOL    HW228611   6.022   5.174   2.847
 9238SOL     OW28612   1.628   3.015   4.892
 9238SOL    HW128613   1.671   2.925   4.897
 9238SOL    HW228614   1.666   3.066   4.814
 9239SOL     OW28615   1.326   5.498   6.283
 9239SOL    HW128616   1.323   5.584   6.333
 9239SOL    HW228617   1.378   5.509   6.199
 9240SOL     OW28618   3.976   1.980   3.985
 9240SOL    HW128619   3.890   1.935   4.008
 9240SOL    HW228620   4.053   1.922   4.010
 9241SOL     OW28621   5.644   6.601   0.128
 9241SOL    HW128622   5.711   6.568   0.195
 9241SOL    HW228623   5.603   6.523   0.081
 9242SOL     OW28624   1.677   2.484   1.176
 9242SOL    HW128625   1.615   2.420   1.220
 9242SOL    HW228626   1.736   2.526   1.245
 9243SOL     OW28627   1.947   0.107   0.589
 9243SOL    HW128628   1.914   0.182   0.532
 9243SOL    HW228629   1.959   0.025   0.533
 9244SOL     OW28630   2.297   6.141   6.714
 9244SOL    HW128631   2.330   6.047   6.724
 9244SOL    HW228632   2.229   6.145   6.641
 9245SOL     OW28633   0.778   5.153   2.848
 9245SOL    HW128634   0.728   5.225   2.801
 9245SOL    HW228635   0.832   5.192   2.923
 9246SOL     OW28636   5.344   6.289   6.828
 9246SOL    HW128637   5.353   6.319   6.922
 9246SOL    HW228638   5.247   6.276   6.806
 9247SOL     OW28639   3.735   6.358   2.841
 9247SOL    HW128640   3.718   6.295   2.765
 9247SOL    HW228641   3.712   6.451   2.814
 9248SOL     OW28642   2.665   0.260   6.669
 9248SOL    HW128643   2.758   0.288   6.646
 9248SOL    HW228644   2.655   0.257   6.769
 9249SOL     OW28645   2.788   6.474   6.868
 9249SOL    HW128646   2.851   6.492   6.944
 9249SOL    HW228647   2.700   6.518   6.887
 9250SOL     OW28648   0.560   3.509   3.241
 9250SOL    HW128649   0.552   3.605   3.265
 9250SOL    HW228650   0.611   3.460   3.312
 9251SOL     OW28651   3.651   1.837   1.385
 9251SOL    HW128652   3.736   1.847   1.334
 9251SOL    HW228653   3.573   1.855   1.324
 9252SOL     OW28654   5.873   1.356   4.538
 9252SOL    HW128655   5.781   1.333   4.567
 9252SOL    HW228656   5.928   1.384   4.617
 9253SOL     OW28657   2.312   5.077   4.504
 9253SOL    HW128658   2.286   5.113   4.593
 9253SOL    HW228659   2.305   5.149   4.435
 9254SOL     OW28660   0.253   5.412   2.061
 9254SOL    HW128661   0.296   5.487   2.013
 9254SOL    HW228662   0.287   5.325   2.025
 9255SOL     OW28663   6.350   3.921   0.880
 9255SOL    HW128664   6.299   3.893   0.961
 9255SOL    HW228665   6.445   3.941   0.905
 9256SOL     OW28666   2.524   6.824   0.833
 9256SOL    HW128667   2.524   6.847   0.930
 9256SOL    HW228668   2.431   6.834   0.797
 9257SOL     OW28669   6.265   6.217   4.382
 9257SOL    HW128670   6.169   6.218   4.353
 9257SOL    HW228671   6.311   6.136   4.344
 9258SOL     OW28672   4.689   5.327   2.117
 9258SOL    HW128673   4.661   5.376   2.034
 9258SOL    HW228674   4.677   5.229   2.104
 9259SOL     OW28675   0.338   2.586   6.919
 9259SOL    HW128676   0.249   2.608   6.880
 9259SOL    HW228677   0.410   2.633   6.867
 9260SOL     OW28678   5.011   3.684   4.676
 9260SOL    HW128679   5.092   3.665   4.620
 9260SOL    HW228680   4.985   3.602   4.726
 9261SOL     OW28681   1.290   2.698   1.679
 9261SOL    HW128682   1.349   2.620   1.702
 9261SOL    HW228683   1.280   2.704   1.580
 9262SOL     OW28684   6.568   6.272   6.049
 9262SOL    HW128685   6.619   6.345   6.002
 9262SOL    HW228686   6.630   6.221   6.108
 9263SOL     OW28687   2.371   4.511   2.867
 9263SOL    HW128688   2.287   4.539   2.822
 9263SOL    HW228689   2.353   4.495   2.964
 9264SOL     OW28690   5.220   3.668   6.180
 9264SOL    HW128691   5.233   3.767   6.179
 9264SOL    HW228692   5.296   3.624   6.132
 9265SOL     OW28693   5.000   1.005   1.649
 9265SOL    HW128694   4.921   1.019   1.590
 9265SOL    HW228695   5.084   1.015   1.594
 9266SOL     OW28696   2.012   4.584   0.938
 9266SOL    HW128697   2.038   4.505   0.994
 9266SOL    HW228698   2.091   4.614   0.884
 9267SOL     OW28699   0.573   1.636   3.613
 9267SOL    HW128700   0.580   1.725   3.657
 9267SOL    HW228701   0.658   1.586   3.625
 9268SOL     OW28702   0.902   0.800   1.824
 9268SOL    HW128703   0.908   0.757   1.734
 9268SOL    HW228704   0.949   0.743   1.891
 9269SOL     OW28705   4.372   0.708   0.217
 9269SOL    HW128706   4.293   0.696   0.157
 9269SOL    HW228707   4.341   0.726   0.310
 9270SOL     OW28708   2.692   1.256   5.618
 9270SOL    HW128709   2.755   1.227   5.547
 9270SOL    HW228710   2.730   1.234   5.708
 9271SOL     OW28711   1.680   4.678   5.930
 9271SOL    HW128712   1.587   4.648   5.950
 9271SOL    HW228713   1.737   4.598   5.909
 9272SOL     OW28714   6.200   6.139   5.787
 9272SOL    HW128715   6.273   6.104   5.729
 9272SOL    HW228716   6.229   6.224   5.830
 9273SOL     OW28717   5.592   3.140   3.664
 9273SOL    HW128718   5.503   3.096   3.668
 9273SOL    HW228719   5.653   3.089   3.603
 9274SOL     OW28720   0.094   3.483   0.429
 9274SOL    HW128721   0.150   3.400   0.435
 9274SOL    HW228722   0.024   3.471   0.360
 9275SOL     OW28723   5.616   0.806   0.465
 9275SOL    HW128724   5.690   0.848   0.518
 9275SOL    HW228725   5.604   0.711   0.494
 9276SOL     OW28726   2.214   4.646   6.712
 9276SOL    HW128727   2.213   4.667   6.614
 9276SOL    HW228728   2.125   4.665   6.752
 9277SOL     OW28729   4.218   5.487   2.434
 9277SOL    HW128730   4.157   5.411   2.412
 9277SOL    HW228731   4.165   5.564   2.469
 9278SOL     OW28732   0.313   6.632   5.975
 9278SOL    HW128733   0.269   6.723   5.976
 9278SOL    HW228734   0.401   6.637   6.020
 9279SOL     OW28735   2.776   6.064   2.248
 9279SOL    HW128736   2.717   6.078   2.169
 9279SOL    HW228737   2.764   6.139   2.313
 9280SOL     OW28738   1.157   5.804   2.606
 9280SOL    HW128739   1.167   5.741   2.683
 9280SOL    HW228740   1.172   5.754   2.520
 9281SOL     OW28741   1.771   4.878   0.695
 9281SOL    HW128742   1.671   4.880   0.693
 9281SOL    HW228743   1.806   4.959   0.741
 9282SOL     OW28744   2.667   6.978   4.937
 9282SOL    HW128745   2.626   6.889   4.915
 9282SOL    HW228746   2.618   0.029   4.888
 9283SOL     OW28747   4.702   6.055   0.615
 9283SOL    HW128748   4.618   6.068   0.668
 9283SOL    HW228749   4.711   6.128   0.547
 9284SOL     OW28750   4.225   5.393   0.282
 9284SOL    HW128751   4.189   5.450   0.356
 9284SOL    HW228752   4.273   5.450   0.216
 9285SOL     OW28753   0.179   6.363   3.577
 9285SOL    HW128754   0.199   6.402   3.667
 9285SOL    HW228755   0.262   6.365   3.521
 9286SOL     OW28756   5.016   6.564   1.765
 9286SOL    HW128757   4.964   6.510   1.831
 9286SOL    HW228758   5.018   6.659   1.794
 9287SOL     OW28759   4.190   3.766   6.376
 9287SOL    HW128760   4.153   3.840   6.321
 9287SOL    HW228761   4.115   3.714   6.418
 9288SOL     OW28762   3.850   1.720   2.210
 9288SOL    HW128763   3.886   1.725   2.117
 9288SOL    HW228764   3.899   1.784   2.269
 9289SOL     OW28765   4.611   6.242   1.187
 9289SOL    HW128766   4.623   6.203   1.279
 9289SOL    HW228767   4.678   6.202   1.125
 9290SOL     OW28768   5.991   1.319   3.804
 9290SOL    HW128769   6.058   1.347   3.736
 9290SOL    HW228770   6.011   1.226   3.834
 9291SOL     OW28771   0.301   4.042   5.798
 9291SOL    HW128772   0.364   4.079   5.866
 9291SOL    HW228773   0.218   4.097   5.797
 9292SOL     OW28774   0.451   1.795   6.604
 9292SOL    HW128775   0.465   1.701   6.636
 9292SOL    HW228776   0.365   1.801   6.554
 9293SOL     OW28777   4.518   1.903   5.099
 9293SOL    HW128778   4.533   1.943   5.009
 9293SOL    HW228779   4.493   1.806   5.089
 9294SOL     OW28780   4.853   6.548   6.902
 9294SOL    HW128781   4.767   6.596   6.883
 9294SOL    HW228782   4.928   6.596   6.856
 9295SOL     OW28783   5.764   1.153   4.022
 9295SOL    HW128784   5.733   1.136   3.928
 9295SOL    HW228785   5.850   1.105   4.038
 9296SOL     OW28786   2.206   4.726   5.808
 9296SOL    HW128787   2.257   4.761   5.886
 9296SOL    HW228788   2.213   4.626   5.806
 9297SOL     OW28789   6.965   5.095   2.050
 9297SOL    HW128790   6.954   4.995   2.048
 9297SOL    HW228791   0.038   5.117   2.080
 9298SOL     OW28792   1.002   4.353   6.399
 9298SOL    HW128793   0.946   4.412   6.457
 9298SOL    HW228794   1.097   4.385   6.399
 9299SOL     OW28795   2.988   2.202   4.472
 9299SOL    HW128796   2.963   2.253   4.555
 9299SOL    HW228797   3.065   2.141   4.493
 9300SOL     OW28798   2.126   6.462   4.979
 9300SOL    HW128799   2.038   6.415   4.983
 9300SOL    HW228800   2.194   6.402   4.937
 9301SOL     OW28801   1.099   4.273   4.010
 9301SOL    HW128802   1.148   4.280   3.923
 9301SOL    HW228803   1.108   4.359   4.060
 9302SOL     OW28804   2.781   5.313   4.459
 9302SOL    HW128805   2.714   5.360   4.402
 9302SOL    HW228806   2.742   5.295   4.550
 9303SOL     OW28807   2.576   4.340   0.186
 9303SOL    HW128808   2.496   4.394   0.209
 9303SOL    HW228809   2.642   4.344   0.261
 9304SOL     OW28810   5.347   5.606   6.361
 9304SOL    HW128811   5.314   5.666   6.434
 9304SOL    HW228812   5.395   5.660   6.292
 9305SOL     OW28813   1.703   1.444   1.208
 9305SOL    HW128814   1.633   1.511   1.182
 9305SOL    HW228815   1.730   1.392   1.127
 9306SOL     OW28816   6.549   6.591   4.585
 9306SOL    HW128817   6.598   6.637   4.659
 9306SOL    HW228818   6.479   6.531   4.623
 9307SOL     OW28819   1.514   4.112   1.405
 9307SOL    HW128820   1.525   4.056   1.323
 9307SOL    HW228821   1.496   4.054   1.483
 9308SOL     OW28822   2.202   3.368   1.541
 9308SOL    HW128823   2.204   3.360   1.641
 9308SOL    HW228824   2.282   3.321   1.502
 9309SOL     OW28825   4.910   5.401   6.425
 9309SOL    HW128826   4.972   5.350   6.486
 9309SOL    HW228827   4.934   5.383   6.330
 9310SOL     OW28828   5.608   5.761   5.745
 9310SOL    HW128829   5.597   5.813   5.660
 9310SOL    HW228830   5.562   5.809   5.820
 9311SOL     OW28831   5.169   3.901   0.692
 9311SOL    HW128832   5.136   3.940   0.778
 9311SOL    HW228833   5.101   3.917   0.620
 9312SOL     OW28834   6.995   2.907   3.704
 9312SOL    HW128835   6.993   2.904   3.804
 9312SOL    HW228836   0.002   2.818   3.668
 9313SOL     OW28837   0.849   0.712   2.348
 9313SOL    HW128838   0.766   0.752   2.310
 9313SOL    HW228839   0.824   0.646   2.419
 9314SOL     OW28840   5.422   4.991   1.335
 9314SOL    HW128841   5.384   4.901   1.355
 9314SOL    HW228842   5.516   4.995   1.367
 9315SOL     OW28843   5.532   5.980   5.575
 9315SOL    HW128844   5.550   6.063   5.629
 9315SOL    HW228845   5.460   5.999   5.508
 9316SOL     OW28846   5.216   0.001   0.960
 9316SOL    HW128847   5.259   6.987   1.044
 9316SOL    HW228848   5.265   6.985   0.881
 9317SOL     OW28849   2.240   6.107   3.789
 9317SOL    HW128850   2.231   6.137   3.885
 9317SOL    HW228851   2.167   6.041   3.769
 9318SOL     OW28852   3.490   7.016   2.336
 9318SOL    HW128853   3.424   7.007   2.411
 9318SOL    HW228854   3.550   6.936   2.335
 9319SOL     OW28855   4.206   1.696   0.115
 9319SOL    HW128856   4.237   1.691   0.210
 9319SOL    HW228857   4.144   1.620   0.096
 9320SOL     OW28858   6.780   6.476   6.908
 9320SOL    HW128859   6.685   6.488   6.938
 9320SOL    HW228860   6.781   6.448   6.812
 9321SOL     OW28861   0.969   3.539   4.504
 9321SOL    HW128862   0.907   3.617   4.513
 9321SOL    HW228863   1.044   3.549   4.569
 9322SOL     OW28864   5.518   3.023   6.758
 9322SOL    HW128865   5.546   3.110   6.798
 9322SOL    HW228866   5.531   3.026   6.659
 9323SOL     OW28867   1.069   2.462   6.170
 9323SOL    HW128868   1.120   2.544   6.145
 9323SOL    HW228869   1.086   2.390   6.102
 9324SOL     OW28870   0.251   4.506   1.580
 9324SOL    HW128871   0.164   4.505   1.630
 9324SOL    HW228872   0.308   4.580   1.615
 9325SOL     OW28873   0.982   4.964   3.119
 9325SOL    HW128874   1.071   4.983   3.160
 9325SOL    HW228875   0.996   4.923   3.028
 9326SOL     OW28876   4.966   4.536   0.408
 9326SOL    HW128877   4.905   4.458   0.416
 9326SOL    HW228878   4.930   4.613   0.461
 9327SOL     OW28879   3.051   1.345   3.397
 9327SOL    HW128880   2.991   1.313   3.470
 9327SOL    HW228881   3.083   1.267   3.343
 9328SOL     OW28882   1.546   0.963   3.452
 9328SOL    HW128883   1.547   1.019   3.370
 9328SOL    HW228884   1.452   0.932   3.469
 9329SOL     OW28885   1.243   4.869   6.366
 9329SOL    HW128886   1.220   4.965   6.380
 9329SOL    HW228887   1.160   4.814   6.371
 9330SOL     OW28888   1.348   6.621   0.567
 9330SOL    HW128889   1.381   6.609   0.473
 9330SOL    HW228890   1.249   6.604   0.569
 9331SOL     OW28891   2.428   4.357   4.078
 9331SOL    HW128892   2.363   4.345   4.003
 9331SOL    HW228893   2.501   4.419   4.050
 9332SOL     OW28894   6.475   4.962   0.103
 9332SOL    HW128895   6.487   4.996   0.196
 9332SOL    HW228896   6.387   4.916   0.096
 9333SOL     OW28897   2.686   4.225   1.416
 9333SOL    HW128898   2.786   4.223   1.422
 9333SOL    HW228899   2.658   4.307   1.366
 9334SOL     OW28900   6.792   5.760   6.289
 9334SOL    HW128901   6.877   5.765   6.341
 9334SOL    HW228902   6.720   5.723   6.348
 9335SOL     OW28903   0.438   4.015   1.309
 9335SOL    HW128904   0.441   3.915   1.310
 9335SOL    HW228905   0.509   4.051   1.249
 9336SOL     OW28906   5.208   6.597   6.123
 9336SOL    HW128907   5.224   6.587   6.024
 9336SOL    HW228908   5.118   6.560   6.146
 9337SOL     OW28909   2.562   1.474   5.521
 9337SOL    HW128910   2.605   1.390   5.552
 9337SOL    HW228911   2.630   1.529   5.472
 9338SOL     OW28912   5.266   6.072   0.710
 9338SOL    HW128913   5.358   6.054   0.675
 9338SOL    HW228914   5.238   5.997   0.771
 9339SOL     OW28915   6.824   3.949   5.291
 9339SOL    HW128916   6.876   3.935   5.207
 9339SOL    HW228917   6.733   3.984   5.268
 9340SOL     OW28918   2.418   4.858   2.076
 9340SOL    HW128919   2.472   4.919   2.135
 9340SOL    HW228920   2.467   4.772   2.063
 9341SOL     OW28921   5.693   5.416   6.739
 9341SOL    HW128922   5.624   5.436   6.808
 9341SOL    HW228923   5.662   5.450   6.650
 9342SOL     OW28924   3.238   6.945   5.102
 9342SOL    HW128925   3.265   6.849   5.108
 9342SOL    HW228926   3.264   6.982   5.013
 9343SOL     OW28927   4.904   3.805   0.807
 9343SOL    HW128928   4.889   3.728   0.868
 9343SOL    HW228929   4.990   3.793   0.757
 9344SOL     OW28930   5.511   0.484   5.233
 9344SOL    HW128931   5.608   0.463   5.232
 9344SOL    HW228932   5.497   0.576   5.271
 9345SOL     OW28933   0.566   4.742   0.661
 9345SOL    HW128934   0.605   4.758   0.752
 9345SOL    HW228935   0.545   4.830   0.618
 9346SOL     OW28936   5.078   0.473   1.974
 9346SOL    HW128937   5.116   0.562   1.949
 9346SOL    HW228938   5.118   0.443   2.061
 9347SOL     OW28939   4.375   6.349   1.261
 9347SOL    HW128940   4.310   6.274   1.252
 9347SOL    HW228941   4.467   6.317   1.237
 9348SOL     OW28942   2.439   5.174   1.673
 9348SOL    HW128943   2.425   5.076   1.687
 9348SOL    HW228944   2.456   5.218   1.762
 9349SOL     OW28945   6.883   6.121   1.004
 9349SOL    HW128946   6.823   6.158   1.075
 9349SOL    HW228947   6.947   6.056   1.045
 9350SOL     OW28948   6.632   0.714   0.725
 9350SOL    HW128949   6.607   0.628   0.680
 9350SOL    HW228950   6.555   0.746   0.780
 9351SOL     OW28951   4.045   3.215   6.262
 9351SOL    HW128952   4.045   3.185   6.167
 9351SOL    HW228953   4.122   3.275   6.279
 9352SOL     OW28954   2.927   2.523   6.745
 9352SOL    HW128955   3.026   2.520   6.754
 9352SOL    HW228956   2.890   2.599   6.798
 9353SOL     OW28957   0.669   3.257   1.472
 9353SOL    HW128958   0.714   3.168   1.464
 9353SOL    HW228959   0.614   3.274   1.389
 9354SOL     OW28960   5.316   1.770   1.559
 9354SOL    HW128961   5.338   1.769   1.462
 9354SOL    HW228962   5.297   1.864   1.589
 9355SOL     OW28963   6.992   1.304   2.362
 9355SOL    HW128964   0.056   1.334   2.318
 9355SOL    HW228965   6.983   1.348   2.451
 9356SOL     OW28966   5.233   3.367   2.730
 9356SOL    HW128967   5.243   3.438   2.660
 9356SOL    HW228968   5.155   3.308   2.708
 9357SOL     OW28969   3.123   3.595   0.736
 9357SOL    HW128970   3.199   3.644   0.694
 9357SOL    HW228971   3.078   3.537   0.668
 9358SOL     OW28972   5.053   4.162   2.151
 9358SOL    HW128973   5.107   4.084   2.180
 9358SOL    HW228974   5.102   4.212   2.079
 9359SOL     OW28975   5.320   4.741   5.857
 9359SOL    HW128976   5.319   4.776   5.764
 9359SOL    HW228977   5.394   4.674   5.868
 9360SOL     OW28978   1.245   1.196   5.151
 9360SOL    HW128979   1.237   1.259   5.074
 9360SOL    HW228980   1.340   1.188   5.178
 9361SOL     OW28981   2.825   1.110   1.997
 9361SOL    HW128982   2.768   1.184   1.961
 9361SOL    HW228983   2.830   1.036   1.930
 9362SOL     OW28984   1.922   1.860   3.099
 9362SOL    HW128985   1.860   1.935   3.074
 9362SOL    HW228986   1.873   1.795   3.158
 9363SOL     OW28987   1.784   6.416   2.020
 9363SOL    HW128988   1.822   6.493   2.072
 9363SOL    HW228989   1.771   6.338   2.081
 9364SOL     OW28990   5.369   4.517   0.965
 9364SOL    HW128991   5.395   4.590   1.028
 9364SOL    HW228992   5.440   4.447   0.963
 9365SOL     OW28993   2.379   1.464   4.823
 9365SOL    HW128994   2.319   1.385   4.834
 9365SOL    HW228995   2.379   1.518   4.907
 9366SOL     OW28996   3.506   1.287   1.773
 9366SOL    HW128997   3.590   1.276   1.720
 9366SOL    HW228998   3.434   1.230   1.733
 9367SOL     OW28999   6.415   6.093   3.995
 9367SOL    HW129000   6.463   6.010   4.023
 9367SOL    HW229001   6.362   6.129   4.072
 9368SOL     OW29002   4.676   2.525   1.378
 9368SOL    HW129003   4.748   2.492   1.438
 9368SOL    HW229004   4.642   2.613   1.410
 9369SOL     OW29005   6.907   2.464   5.879
 9369SOL    HW129006   6.895   2.365   5.879
 9369SOL    HW229007   6.829   2.507   5.833
 9370SOL     OW29008   6.234   6.504   3.420
 9370SOL    HW129009   6.232   6.507   3.520
 9370SOL    HW229010   6.324   6.534   3.388
 9371SOL     OW29011   1.554   6.599   0.749
 9371SOL    HW129012   1.593   6.691   0.758
 9371SOL    HW229013   1.465   6.605   0.704
 9372SOL     OW29014   5.773   6.168   0.196
 9372SOL    HW129015   5.842   6.221   0.244
 9372SOL    HW229016   5.805   6.074   0.185
 9373SOL     OW29017   4.655   2.775   4.188
 9373SOL    HW129018   4.657   2.772   4.288
 9373SOL    HW229019   4.711   2.851   4.156
 9374SOL     OW29020   5.124   4.586   0.191
 9374SOL    HW129021   5.088   4.538   0.271
 9374SOL    HW229022   5.116   4.527   0.110
 9375SOL     OW29023   0.528   1.530   4.128
 9375SOL    HW129024   0.600   1.474   4.169
 9375SOL    HW229025   0.498   1.489   4.042
 9376SOL     OW29026   1.758   2.727   1.947
 9376SOL    HW129027   1.803   2.788   1.881
 9376SOL    HW229028   1.795   2.635   1.939
 9377SOL     OW29029   6.067   5.097   2.514
 9377SOL    HW129030   5.989   5.159   2.510
 9377SOL    HW229031   6.147   5.145   2.551
 9378SOL     OW29032   3.294   6.336   1.562
 9378SOL    HW129033   3.215   6.291   1.519
 9378SOL    HW229034   3.331   6.276   1.634
 9379SOL     OW29035   5.819   4.789   5.506
 9379SOL    HW129036   5.858   4.881   5.498
 9379SOL    HW229037   5.867   4.739   5.578
 9380SOL     OW29038   5.983   5.814   6.484
 9380SOL    HW129039   5.895   5.768   6.465
 9380SOL    HW229040   5.966   5.903   6.525
 9381SOL     OW29041   1.793   0.946   0.430
 9381SOL    HW129042   1.755   1.020   0.486
 9381SOL    HW229043   1.873   0.979   0.380
 9382SOL     OW29044   5.568   1.887   2.396
 9382SOL    HW129045   5.625   1.969   2.408
 9382SOL    HW229046   5.572   1.831   2.479
 9383SOL     OW29047   5.378   5.605   5.652
 9383SOL    HW129048   5.453   5.641   5.707
 9383SOL    HW229049   5.349   5.517   5.689
 9384SOL     OW29050   4.057   6.408   2.278
 9384SOL    HW129051   4.009   6.484   2.321
 9384SOL    HW229052   3.996   6.363   2.212
 9385SOL     OW29053   3.621   0.756   4.372
 9385SOL    HW129054   3.542   0.730   4.426
 9385SOL    HW229055   3.702   0.762   4.431
 9386SOL     OW29056   3.583   0.142   4.843
 9386SOL    HW129057   3.650   0.098   4.783
 9386SOL    HW229058   3.611   0.236   4.860
 9387SOL     OW29059   3.876   6.207   0.965
 9387SOL    HW129060   3.821   6.192   0.882
 9387SOL    HW229061   3.923   6.123   0.989
 9388SOL     OW29062   6.297   6.674   2.445
 9388SOL    HW129063   6.378   6.619   2.467
 9388SOL    HW229064   6.260   6.713   2.529
 9389SOL     OW29065   3.532   1.402   6.966
 9389SOL    HW129066   3.461   1.332   6.972
 9389SOL    HW229067   3.613   1.372   7.017
 9390SOL     OW29068   2.453   6.707   1.967
 9390SOL    HW129069   2.469   6.791   2.019
 9390SOL    HW229070   2.492   6.629   2.017
 9391SOL     OW29071   0.544   1.352   5.255
 9391SOL    HW129072   0.619   1.336   5.191
 9391SOL    HW229073   0.500   1.266   5.278
 9392SOL     OW29074   1.125   6.366   4.513
 9392SOL    HW129075   1.066   6.286   4.501
 9392SOL    HW229076   1.072   6.440   4.554
 9393SOL     OW29077   3.795   2.091   5.608
 9393SOL    HW129078   3.755   2.104   5.517
 9393SOL    HW229079   3.849   2.171   5.632
 9394SOL     OW29080   5.688   2.709   1.848
 9394SOL    HW129081   5.744   2.787   1.873
 9394SOL    HW229082   5.592   2.730   1.864
 9395SOL     OW29083   1.977   2.771   6.441
 9395SOL    HW129084   2.055   2.834   6.438
 9395SOL    HW229085   1.951   2.755   6.537
 9396SOL     OW29086   6.167   0.326   6.772
 9396SOL    HW129087   6.247   0.323   6.712
 9396SOL    HW229088   6.194   0.303   6.865
 9397SOL     OW29089   2.893   1.502   1.071
 9397SOL    HW129090   2.884   1.428   1.138
 9397SOL    HW229091   2.989   1.518   1.051
 9398SOL     OW29092   2.082   1.117   0.550
 9398SOL    HW129093   2.114   1.029   0.514
 9398SOL    HW229094   2.050   1.104   0.644
 9399SOL     OW29095   6.672   0.544   5.495
 9399SOL    HW129096   6.732   0.488   5.438
 9399SOL    HW229097   6.690   0.525   5.592
 9400SOL     OW29098   4.692   2.162   3.691
 9400SOL    HW129099   4.631   2.100   3.642
 9400SOL    HW229100   4.699   2.248   3.641
 9401SOL     OW29101   4.292   0.480   2.759
 9401SOL    HW129102   4.237   0.544   2.705
 9401SOL    HW229103   4.388   0.510   2.758
 9402SOL     OW29104   2.036   5.030   0.094
 9402SOL    HW129105   1.954   5.086   0.088
 9402SOL    HW229106   2.011   4.934   0.107
 9403SOL     OW29107   5.620   0.815   4.655
 9403SOL    HW129108   5.572   0.896   4.689
 9403SOL    HW229109   5.556   0.757   4.605
 9404SOL     OW29110   0.941   4.073   5.051
 9404SOL    HW129111   0.972   4.123   5.132
 9404SOL    HW229112   0.845   4.094   5.034
 9405SOL     OW29113   6.776   0.404   0.767
 9405SOL    HW129114   6.684   0.426   0.735
 9405SOL    HW229115   6.811   0.480   0.822
 9406SOL     OW29116   6.809   1.000   5.310
 9406SOL    HW129117   6.753   1.076   5.344
 9406SOL    HW229118   6.837   1.020   5.215
 9407SOL     OW29119   3.774   6.032   2.894
 9407SOL    HW129120   3.836   6.090   2.947
 9407SOL    HW229121   3.755   6.076   2.806
 9408SOL     OW29122   4.022   1.621   6.800
 9408SOL    HW129123   4.052   1.548   6.861
 9408SOL    HW229124   4.083   1.626   6.721
 9409SOL     OW29125   6.098   3.658   3.377
 9409SOL    HW129126   6.065   3.675   3.470
 9409SOL    HW229127   6.175   3.594   3.380
 9410SOL     OW29128   4.744   6.477   1.973
 9410SOL    HW129129   4.741   6.456   1.875
 9410SOL    HW229130   4.654   6.507   2.004
 9411SOL     OW29131   4.849   5.379   1.284
 9411SOL    HW129132   4.851   5.407   1.188
 9411SOL    HW229133   4.757   5.352   1.310
 9412SOL     OW29134   6.841   3.107   2.304
 9412SOL    HW129135   6.794   3.075   2.222
 9412SOL    HW229136   6.888   3.193   2.283
 9413SOL     OW29137   3.696   5.390   4.599
 9413SOL    HW129138   3.766   5.334   4.643
 9413SOL    HW229139   3.614   5.335   4.582
 9414SOL     OW29140   2.755   1.475   2.135
 9414SOL    HW129141   2.826   1.405   2.129
 9414SOL    HW229142   2.797   1.565   2.147
 9415SOL     OW29143   2.818   0.963   2.539
 9415SOL    HW129144   2.838   0.978   2.443
 9415SOL    HW229145   2.884   1.013   2.596
 9416SOL     OW29146   1.285   2.019   0.949
 9416SOL    HW129147   1.371   2.069   0.951
 9416SOL    HW229148   1.234   2.036   1.033
 9417SOL     OW29149   2.329   0.051   4.488
 9417SOL    HW129150   2.269   0.131   4.496
 9417SOL    HW229151   2.425   0.081   4.491
 9418SOL     OW29152   4.167   4.447   0.917
 9418SOL    HW129153   4.192   4.371   0.857
 9418SOL    HW229154   4.201   4.430   1.009
 9419SOL     OW29155   3.484   5.508   5.135
 9419SOL    HW129156   3.570   5.522   5.183
 9419SOL    HW229157   3.503   5.488   5.039
 9420SOL     OW29158   0.885   1.531   4.380
 9420SOL    HW129159   0.808   1.468   4.377
 9420SOL    HW229160   0.954   1.497   4.445
 9421SOL     OW29161   1.871   5.250   4.861
 9421SOL    HW129162   1.843   5.321   4.796
 9421SOL    HW229163   1.851   5.160   4.823
 9422SOL     OW29164   3.679   1.104   2.304
 9422SOL    HW129165   3.716   1.041   2.372
 9422SOL    HW229166   3.595   1.067   2.266
 9423SOL     OW29167   4.786   0.623   4.525
 9423SOL    HW129168   4.728   0.700   4.552
 9423SOL    HW229169   4.751   0.539   4.568
 9424SOL     OW29170   2.951   6.517   4.543
 9424SOL    HW129171   3.032   6.529   4.486
 9424SOL    HW229172   2.901   6.435   4.513
 9425SOL     OW29173   1.066   4.998   3.658
 9425SOL    HW129174   1.059   4.928   3.587
 9425SOL    HW229175   1.146   4.981   3.714
 9426SOL     OW29176   4.091   6.351   0.375
 9426SOL    HW129177   4.056   6.386   0.462
 9426SOL    HW229178   4.014   6.324   0.317
 9427SOL     OW29179   3.190   4.919   4.224
 9427SOL    HW129180   3.193   5.019   4.216
 9427SOL    HW229181   3.096   4.891   4.245
 9428SOL     OW29182   4.270   5.817   2.349
 9428SOL    HW129183   4.186   5.781   2.389
 9428SOL    HW229184   4.266   5.917   2.348
 9429SOL     OW29185   6.966   3.095   2.590
 9429SOL    HW129186   0.015   3.163   2.566
 9429SOL    HW229187   6.951   3.034   2.512
 9430SOL     OW29188   6.547   6.807   1.949
 9430SOL    HW129189   6.597   6.892   1.965
 9430SOL    HW229190   6.561   6.745   2.026
 9431SOL     OW29191   6.390   4.386   1.226
 9431SOL    HW129192   6.324   4.378   1.151
 9431SOL    HW229193   6.477   4.346   1.198
 9432SOL     OW29194   6.800   6.686   4.483
 9432SOL    HW129195   6.744   6.628   4.543
 9432SOL    HW229196   6.845   6.629   4.414
 9433SOL     OW29197   2.738   4.798   4.784
 9433SOL    HW129198   2.803   4.869   4.758
 9433SOL    HW229199   2.785   4.730   4.840
 9434SOL     OW29200   5.029   5.088   3.090
 9434SOL    HW129201   5.007   5.096   3.187
 9434SOL    HW229202   5.092   5.162   3.064
 9435SOL     OW29203   1.570   1.491   5.203
 9435SOL    HW129204   1.625   1.558   5.252
 9435SOL    HW229205   1.626   1.410   5.182
 9436SOL     OW29206   1.832   2.517   6.227
 9436SOL    HW129207   1.925   2.553   6.234
 9436SOL    HW229208   1.769   2.591   6.203
 9437SOL     OW29209   0.596   5.121   4.082
 9437SOL    HW129210   0.651   5.178   4.142
 9437SOL    HW229211   0.535   5.179   4.028
 9438SOL     OW29212   1.023   6.810   2.073
 9438SOL    HW129213   1.090   6.827   2.001
 9438SOL    HW229214   0.933   6.794   2.032
 9439SOL     OW29215   0.918   2.835   1.640
 9439SOL    HW129216   0.822   2.811   1.652
 9439SOL    HW229217   0.934   2.861   1.545
 9440SOL     OW29218   4.890   5.834   5.279
 9440SOL    HW129219   4.952   5.755   5.275
 9440SOL    HW229220   4.846   5.846   5.190
 9441SOL     OW29221   1.773   5.435   4.684
 9441SOL    HW129222   1.779   5.395   4.592
 9441SOL    HW229223   1.694   5.497   4.689
 9442SOL     OW29224   0.695   3.792   0.997
 9442SOL    HW129225   0.771   3.794   1.063
 9442SOL    HW229226   0.639   3.711   1.013
 9443SOL     OW29227   2.098   3.450   1.312
 9443SOL    HW129228   2.000   3.438   1.326
 9443SOL    HW229229   2.146   3.433   1.398
 9444SOL     OW29230   0.597   4.031   5.872
 9444SOL    HW129231   0.682   3.980   5.858
 9444SOL    HW229232   0.600   4.115   5.819
 9445SOL     OW29233   6.144   3.480   1.373
 9445SOL    HW129234   6.198   3.519   1.447
 9445SOL    HW229235   6.199   3.480   1.289
 9446SOL     OW29236   6.031   4.935   1.120
 9446SOL    HW129237   6.087   4.852   1.120
 9446SOL    HW229238   6.069   5.001   1.185
 9447SOL     OW29239   6.206   2.669   1.124
 9447SOL    HW129240   6.130   2.716   1.170
 9447SOL    HW229241   6.214   2.577   1.160
 9448SOL     OW29242   6.003   6.134   0.548
 9448SOL    HW129243   6.038   6.167   0.461
 9448SOL    HW229244   6.041   6.043   0.567
 9449SOL     OW29245   7.009   5.439   5.310
 9449SOL    HW129246   0.073   5.478   5.272
 9449SOL    HW229247   6.982   5.359   5.256
 9450SOL     OW29248   2.846   5.069   4.338
 9450SOL    HW129249   2.814   5.155   4.378
 9450SOL    HW229250   2.864   5.083   4.240
 9451SOL     OW29251   4.087   4.162   5.950
 9451SOL    HW129252   4.169   4.128   5.903
 9451SOL    HW229253   4.006   4.117   5.913
 9452SOL     OW29254   2.863   4.177   1.131
 9452SOL    HW129255   2.815   4.202   1.215
 9452SOL    HW229256   2.901   4.085   1.140
 9453SOL     OW29257   3.191   4.857   2.274
 9453SOL    HW129258   3.121   4.791   2.244
 9453SOL    HW229259   3.252   4.877   2.197
 9454SOL     OW29260   2.189   2.394   5.450
 9454SOL    HW129261   2.123   2.431   5.516
 9454SOL    HW229262   2.232   2.312   5.488
 9455SOL     OW29263   3.039   1.822   1.875
 9455SOL    HW129264   3.062   1.919   1.878
 9455SOL    HW229265   2.961   1.808   1.814
 9456SOL     OW29266   1.601   3.336   1.194
 9456SOL    HW129267   1.592   3.261   1.129
 9456SOL    HW229268   1.512   3.380   1.207
 9457SOL     OW29269   6.982   3.130   0.841
 9457SOL    HW129270   0.005   3.163   0.925
 9457SOL    HW229271   6.966   3.206   0.779
 9458SOL     OW29272   0.559   5.675   4.655
 9458SOL    HW129273   0.619   5.700   4.732
 9458SOL    HW229274   0.608   5.615   4.593
 9459SOL     OW29275   4.356   5.889   1.490
 9459SOL    HW129276   4.395   5.816   1.546
 9459SOL    HW229277   4.265   5.912   1.523
 9460SOL     OW29278   0.973   2.532   5.146
 9460SOL    HW129279   0.945   2.614   5.196
 9460SOL    HW229280   0.999   2.460   5.211
 9461SOL     OW29281   1.410   0.575   2.896
 9461SOL    HW129282   1.325   0.609   2.855
 9461SOL    HW229283   1.390   0.496   2.953
 9462SOL     OW29284   0.551   3.582   2.969
 9462SOL    HW129285   0.566   3.545   3.061
 9462SOL    HW229286   0.594   3.672   2.961
 9463SOL     OW29287   5.280   1.636   6.776
 9463SOL    HW129288   5.226   1.565   6.730
 9463SOL    HW229289   5.233   1.724   6.769
 9464SOL     OW29290   4.555   6.816   6.016
 9464SOL    HW129291   4.607   6.864   6.088
 9464SOL    HW229292   4.459   6.842   6.022
 9465SOL     OW29293   5.825   0.240   4.536
 9465SOL    HW129294   5.816   0.145   4.566
 9465SOL    HW229295   5.840   0.243   4.437
 9466SOL     OW29296   2.219   2.134   6.740
 9466SOL    HW129297   2.142   2.195   6.718
 9466SOL    HW229298   2.243   2.144   6.837
 9467SOL     OW29299   2.130   3.297   1.792
 9467SOL    HW129300   2.206   3.355   1.822
 9467SOL    HW229301   2.088   3.253   1.871
 9468SOL     OW29302   0.187   2.230   6.407
 9468SOL    HW129303   0.284   2.237   6.431
 9468SOL    HW229304   0.178   2.184   6.319
 9469SOL     OW29305   6.389   4.037   2.263
 9469SOL    HW129306   6.304   4.021   2.314
 9469SOL    HW229307   6.392   3.975   2.184
 9470SOL     OW29308   5.462   3.456   1.443
 9470SOL    HW129309   5.376   3.456   1.494
 9470SOL    HW229310   5.452   3.513   1.361
 9471SOL     OW29311   0.286   2.315   6.003
 9471SOL    HW129312   0.237   2.389   6.048
 9471SOL    HW229313   0.244   2.298   5.913
 9472SOL     OW29314   6.705   3.129   4.848
 9472SOL    HW129315   6.760   3.114   4.766
 9472SOL    HW229316   6.700   3.045   4.901
 9473SOL     OW29317   3.746   5.074   4.614
 9473SOL    HW129318   3.691   5.068   4.531
 9473SOL    HW229319   3.689   5.049   4.693
 9474SOL     OW29320   3.961   5.305   3.173
 9474SOL    HW129321   3.977   5.347   3.263
 9474SOL    HW229322   3.983   5.371   3.101
 9475SOL     OW29323   1.346   3.642   1.046
 9475SOL    HW129324   1.326   3.551   1.011
 9475SOL    HW229325   1.444   3.651   1.063
 9476SOL     OW29326   3.984   3.670   5.329
 9476SOL    HW129327   3.894   3.658   5.370
 9476SOL    HW229328   3.985   3.754   5.274
 9477SOL     OW29329   1.086   2.858   0.768
 9477SOL    HW129330   0.994   2.891   0.790
 9477SOL    HW229331   1.114   2.895   0.679
 9478SOL     OW29332   5.427   4.839   5.029
 9478SOL    HW129333   5.440   4.744   5.000
 9478SOL    HW229334   5.348   4.844   5.091
 9479SOL     OW29335   6.427   6.121   5.608
 9479SOL    HW129336   6.440   6.077   5.519
 9479SOL    HW229337   6.485   6.076   5.676
 9480SOL     OW29338   6.022   4.309   7.018
 9480SOL    HW129339   5.987   4.403   7.019
 9480SOL    HW229340   6.005   4.268   6.928
 9481SOL     OW29341   6.395   3.643   2.019
 9481SOL    HW129342   6.385   3.632   2.118
 9481SOL    HW229343   6.465   3.581   1.985
 9482SOL     OW29344   3.791   0.233   2.801
 9482SOL    HW129345   3.694   0.257   2.789
 9482SOL    HW229346   3.810   0.217   2.898
 9483SOL     OW29347   1.549   1.627   0.710
 9483SOL    HW129348   1.482   1.562   0.674
 9483SOL    HW229349   1.508   1.678   0.786
 9484SOL     OW29350   6.128   1.408   2.795
 9484SOL    HW129351   6.140   1.455   2.883
 9484SOL    HW229352   6.212   1.415   2.742
 9485SOL     OW29353   0.812   0.596   2.843
 9485SOL    HW129354   0.903   0.555   2.835
 9485SOL    HW229355   0.803   0.640   2.932
 9486SOL     OW29356   3.185   6.176   2.254
 9486SOL    HW129357   3.274   6.199   2.216
 9486SOL    HW229358   3.187   6.188   2.353
 9487SOL     OW29359   3.222   3.039   3.808
 9487SOL    HW129360   3.254   2.944   3.811
 9487SOL    HW229361   3.301   3.100   3.815
 9488SOL     OW29362   1.643   0.216   1.355
 9488SOL    HW129363   1.582   0.245   1.281
 9488SOL    HW229364   1.633   0.117   1.369
 9489SOL     OW29365   3.781   4.147   0.598
 9489SOL    HW129366   3.774   4.080   0.672
 9489SOL    HW229367   3.764   4.102   0.510
 9490SOL     OW29368   5.772   1.205   7.000
 9490SOL    HW129369   5.768   1.118   0.028
 9490SOL    HW229370   5.692   1.260   0.005
 9491SOL     OW29371   6.532   5.248   6.074
 9491SOL    HW129372   6.565   5.190   6.000
 9491SOL    HW229373   6.499   5.191   6.149
 9492SOL     OW29374   2.867   3.921   1.737
 9492SOL    HW129375   2.806   3.993   1.705
 9492SOL    HW229376   2.861   3.842   1.675
 9493SOL     OW29377   5.371   6.216   2.774
 9493SOL    HW129378   5.444   6.187   2.836
 9493SOL    HW229379   5.396   6.194   2.680
 9494SOL     OW29380   4.214   3.411   5.827
 9494SOL    HW129381   4.235   3.469   5.749
 9494SOL    HW229382   4.225   3.315   5.801
 9495SOL     OW29383   6.100   2.636   5.253
 9495SOL    HW129384   6.191   2.595   5.267
 9495SOL    HW229385   6.108   2.736   5.257
 9496SOL     OW29386   5.495   3.820   0.065
 9496SOL    HW129387   5.472   3.722   0.061
 9496SOL    HW229388   5.568   3.834   0.132
 9497SOL     OW29389   6.839   6.619   5.872
 9497SOL    HW129390   6.833   6.718   5.860
 9497SOL    HW229391   6.926   6.595   5.915
 9498SOL     OW29392   4.174   0.302   5.472
 9498SOL    HW129393   4.249   0.304   5.406
 9498SOL    HW229394   4.101   0.244   5.437
 9499SOL     OW29395   4.968   4.072   6.084
 9499SOL    HW129396   4.919   3.988   6.061
 9499SOL    HW229397   4.996   4.119   6.000
 9500SOL     OW29398   4.695   5.760   1.860
 9500SOL    HW129399   4.731   5.744   1.952
 9500SOL    HW229400   4.765   5.737   1.792
 9501SOL     OW29401   3.099   1.513   4.910
 9501SOL    HW129402   3.183   1.517   4.963
 9501SOL    HW229403   3.108   1.444   4.839
 9502SOL     OW29404   5.543   3.370   5.314
 9502SOL    HW129405   5.466   3.424   5.351
 9502SOL    HW229406   5.507   3.294   5.260
 9503SOL     OW29407   1.358   6.464   1.318
 9503SOL    HW129408   1.393   6.550   1.281
 9503SOL    HW229409   1.433   6.414   1.362
 9504SOL     OW29410   0.738   3.275   6.616
 9504SOL    HW129411   0.704   3.185   6.591
 9504SOL    HW229412   0.782   3.271   6.706
 9505SOL     OW29413   5.557   3.661   2.576
 9505SOL    HW129414   5.606   3.616   2.501
 9505SOL    HW229415   5.532   3.754   2.550
 9506SOL     OW29416   6.275   2.966   0.464
 9506SOL    HW129417   6.335   2.888   0.480
 9506SOL    HW229418   6.328   3.040   0.421
 9507SOL     OW29419   0.780   2.324   3.633
 9507SOL    HW129420   0.721   2.291   3.559
 9507SOL    HW229421   0.753   2.280   3.719
 9508SOL     OW29422   5.076   1.973   0.242
 9508SOL    HW129423   5.134   1.892   0.247
 9508SOL    HW229424   5.083   2.024   0.328
 9509SOL     OW29425   2.457   6.723   5.268
 9509SOL    HW129426   2.439   6.670   5.351
 9509SOL    HW229427   2.556   6.732   5.256
 9510SOL     OW29428   6.291   4.501   3.201
 9510SOL    HW129429   6.311   4.406   3.223
 9510SOL    HW229430   6.370   4.558   3.221
 9511SOL     OW29431   1.762   1.455   0.697
 9511SOL    HW129432   1.799   1.512   0.624
 9511SOL    HW229433   1.678   1.498   0.733
 9512SOL     OW29434   1.500   2.609   4.450
 9512SOL    HW129435   1.565   2.535   4.438
 9512SOL    HW229436   1.432   2.606   4.377
 9513SOL     OW29437   2.526   4.452   3.729
 9513SOL    HW129438   2.554   4.453   3.825
 9513SOL    HW229439   2.467   4.373   3.713
 9514SOL     OW29440   2.196   2.925   6.406
 9514SOL    HW129441   2.208   3.020   6.434
 9514SOL    HW229442   2.255   2.867   6.462
 9515SOL     OW29443   2.589   5.779   5.967
 9515SOL    HW129444   2.594   5.871   6.007
 9515SOL    HW229445   2.645   5.777   5.884
 9516SOL     OW29446   5.663   4.200   4.947
 9516SOL    HW129447   5.658   4.233   4.853
 9516SOL    HW229448   5.721   4.260   5.001
 9517SOL     OW29449   0.743   5.979   1.910
 9517SOL    HW129450   0.717   5.882   1.908
 9517SOL    HW229451   0.763   6.006   2.004
 9518SOL     OW29452   0.814   2.884   5.502
 9518SOL    HW129453   0.737   2.826   5.529
 9518SOL    HW229454   0.872   2.901   5.582
 9519SOL     OW29455   3.834   3.309   2.948
 9519SOL    HW129456   3.921   3.272   2.918
 9519SOL    HW229457   3.850   3.393   3.000
 9520SOL     OW29458   4.930   0.247   6.011
 9520SOL    HW129459   4.957   0.343   6.013
 9520SOL    HW229460   4.912   0.219   5.917
 9521SOL     OW29461   3.326   0.744   0.951
 9521SOL    HW129462   3.235   0.703   0.946
 9521SOL    HW229463   3.376   0.725   0.866
 9522SOL     OW29464   3.310   6.490   2.423
 9522SOL    HW129465   3.361   6.500   2.338
 9522SOL    HW229466   3.294   6.393   2.441
 9523SOL     OW29467   3.016   4.825   3.900
 9523SOL    HW129468   3.008   4.778   3.988
 9523SOL    HW229469   3.106   4.869   3.895
 9524SOL     OW29470   2.558   3.884   1.128
 9524SOL    HW129471   2.513   3.914   1.212
 9524SOL    HW229472   2.655   3.866   1.146
 9525SOL     OW29473   2.452   3.296   5.336
 9525SOL    HW129474   2.468   3.214   5.280
 9525SOL    HW229475   2.419   3.268   5.426
 9526SOL     OW29476   5.470   5.041   0.202
 9526SOL    HW129477   5.515   4.996   0.124
 9526SOL    HW229478   5.403   4.978   0.242
 9527SOL     OW29479   4.235   0.304   3.528
 9527SOL    HW129480   4.210   0.223   3.475
 9527SOL    HW229481   4.216   0.288   3.625
 9528SOL     OW29482   5.597   2.360   0.656
 9528SOL    HW129483   5.685   2.395   0.688
 9528SOL    HW229484   5.529   2.433   0.660
 9529SOL     OW29485   6.218   1.450   1.328
 9529SOL    HW129486   6.278   1.389   1.276
 9529SOL    HW229487   6.123   1.432   1.305
 9530SOL     OW29488   1.470   5.858   3.599
 9530SOL    HW129489   1.393   5.862   3.535
 9530SOL    HW229490   1.469   5.771   3.648
 9531SOL     OW29491   3.663   5.581   2.612
 9531SOL    HW129492   3.656   5.615   2.705
 9531SOL    HW229493   3.741   5.519   2.604
 9532SOL     OW29494   6.884   5.067   3.192
 9532SOL    HW129495   6.895   5.161   3.225
 9532SOL    HW229496   6.867   5.007   3.270
 9533SOL     OW29497   1.646   3.551   3.390
 9533SOL    HW129498   1.733   3.592   3.364
 9533SOL    HW229499   1.646   3.454   3.363
 9534SOL     OW29500   5.631   5.240   4.245
 9534SOL    HW129501   5.725   5.251   4.213
 9534SOL    HW229502   5.631   5.219   4.343
 9535SOL     OW29503   0.796   1.688   5.485
 9535SOL    HW129504   0.757   1.768   5.438
 9535SOL    HW229505   0.896   1.694   5.484
 9536SOL     OW29506   3.709   4.087   4.980
 9536SOL    HW129507   3.750   4.107   5.070
 9536SOL    HW229508   3.776   4.109   4.908
 9537SOL     OW29509   0.313   1.683   3.575
 9537SOL    HW129510   0.410   1.660   3.581
 9537SOL    HW229511   0.261   1.624   3.637
 9538SOL     OW29512   4.753   0.400   5.212
 9538SOL    HW129513   4.717   0.404   5.305
 9538SOL    HW229514   4.852   0.407   5.214
 9539SOL     OW29515   3.328   3.707   1.903
 9539SOL    HW129516   3.267   3.680   1.977
 9539SOL    HW229517   3.405   3.644   1.899
 9540SOL     OW29518   4.395   4.574   3.854
 9540SOL    HW129519   4.420   4.667   3.827
 9540SOL    HW229520   4.383   4.569   3.953
 9541SOL     OW29521   2.358   5.987   5.648
 9541SOL    HW129522   2.338   5.905   5.700
 9541SOL    HW229523   2.275   6.042   5.639
 9542SOL     OW29524   6.146   4.236   4.077
 9542SOL    HW129525   6.149   4.317   4.136
 9542SOL    HW229526   6.064   4.183   4.097
 9543SOL     OW29527   2.621   6.983   6.111
 9543SOL    HW129528   2.597   6.889   6.090
 9543SOL    HW229529   2.720   6.995   6.104
 9544SOL     OW29530   5.941   3.402   4.432
 9544SOL    HW129531   5.996   3.409   4.349
 9544SOL    HW229532   5.999   3.420   4.511
 9545SOL     OW29533   0.515   4.557   1.884
 9545SOL    HW129534   0.456   4.576   1.963
 9545SOL    HW229535   0.500   4.463   1.853
 9546SOL     OW29536   2.507   2.696   0.198
 9546SOL    HW129537   2.603   2.704   0.225
 9546SOL    HW229538   2.488   2.602   0.171
 9547SOL     OW29539   3.826   6.867   3.969
 9547SOL    HW129540   3.844   6.901   3.877
 9547SOL    HW229541   3.897   6.899   4.032
 9548SOL     OW29542   1.101   4.663   6.737
 9548SOL    HW129543   1.093   4.667   6.637
 9548SOL    HW229544   1.104   4.756   6.773
 9549SOL     OW29545   4.947   1.986   0.836
 9549SOL    HW129546   4.869   2.041   0.865
 9549SOL    HW229547   5.018   1.988   0.907
 9550SOL     OW29548   5.259   3.041   1.577
 9550SOL    HW129549   5.307   3.036   1.489
 9550SOL    HW229550   5.182   3.105   1.570
 9551SOL     OW29551   6.118   3.689   6.340
 9551SOL    HW129552   6.036   3.666   6.392
 9551SOL    HW229553   6.186   3.616   6.350
 9552SOL     OW29554   2.990   1.775   0.009
 9552SOL    HW129555   2.943   1.827   0.081
 9552SOL    HW229556   2.927   1.761   6.953
 9553SOL     OW29557   5.170   1.558   6.136
 9553SOL    HW129558   5.137   1.516   6.051
 9553SOL    HW229559   5.182   1.656   6.121
 9554SOL     OW29560   2.726   0.450   3.873
 9554SOL    HW129561   2.813   0.468   3.919
 9554SOL    HW229562   2.744   0.424   3.777
 9555SOL     OW29563   6.729   0.402   3.852
 9555SOL    HW129564   6.779   0.487   3.836
 9555SOL    HW229565   6.759   0.361   3.938
 9556SOL     OW29566   1.901   4.744   6.797
 9556SOL    HW129567   1.818   4.797   6.778
 9556SOL    HW229568   1.899   4.660   6.743
 9557SOL     OW29569   4.656   0.642   1.791
 9557SOL    HW129570   4.718   0.721   1.794
 9557SOL    HW229571   4.643   0.606   1.883
 9558SOL     OW29572   4.774   6.912   6.983
 9558SOL    HW129573   4.859   6.961   7.002
 9558SOL    HW229574   4.773   6.883   6.887
 9559SOL     OW29575   1.652   4.344   0.245
 9559SOL    HW129576   1.616   4.252   0.231
 9559SOL    HW229577   1.700   4.348   0.333
 9560SOL     OW29578   3.314   6.788   2.117
 9560SOL    HW129579   3.339   6.755   2.026
 9560SOL    HW229580   3.384   6.761   2.183
 9561SOL     OW29581   0.957   0.512   0.532
 9561SOL    HW129582   0.990   0.449   0.602
 9561SOL    HW229583   0.932   0.599   0.575
 9562SOL     OW29584   2.850   6.216   2.862
 9562SOL    HW129585   2.838   6.274   2.943
 9562SOL    HW229586   2.779   6.238   2.795
 9563SOL     OW29587   0.589   6.421   0.887
 9563SOL    HW129588   0.572   6.369   0.802
 9563SOL    HW229589   0.687   6.430   0.901
 9564SOL     OW29590   1.277   0.766   0.018
 9564SOL    HW129591   1.293   0.807   6.948
 9564SOL    HW229592   1.348   0.796   0.081
 9565SOL     OW29593   2.962   1.779   3.783
 9565SOL    HW129594   2.950   1.828   3.869
 9565SOL    HW229595   2.887   1.803   3.721
 9566SOL     OW29596   3.200   0.759   6.985
 9566SOL    HW129597   3.204   0.684   6.920
 9566SOL    HW229598   3.181   0.724   0.057
 9567SOL     OW29599   6.928   3.845   1.506
 9567SOL    HW129600   7.011   3.867   1.456
 9567SOL    HW229601   6.951   3.797   1.591
 9568SOL     OW29602   4.968   1.269   6.884
 9568SOL    HW129603   5.048   1.212   6.903
 9568SOL    HW229604   4.964   1.288   6.786
 9569SOL     OW29605   5.693   1.025   1.814
 9569SOL    HW129606   5.649   1.035   1.904
 9569SOL    HW229607   5.736   0.936   1.808
 9570SOL     OW29608   0.436   3.085   1.556
 9570SOL    HW129609   0.482   3.019   1.497
 9570SOL    HW229610   0.481   3.174   1.548
 9571SOL     OW29611   2.262   2.494   6.774
 9571SOL    HW129612   2.223   2.465   6.862
 9571SOL    HW229613   2.226   2.436   6.701
 9572SOL     OW29614   2.285   4.310   3.856
 9572SOL    HW129615   2.287   4.216   3.820
 9572SOL    HW229616   2.220   4.365   3.803
 9573SOL     OW29617   6.531   0.848   4.439
 9573SOL    HW129618   6.560   0.798   4.357
 9573SOL    HW229619   6.516   0.944   4.415
 9574SOL     OW29620   3.363   3.023   1.291
 9574SOL    HW129621   3.325   2.968   1.218
 9574SOL    HW229622   3.373   3.118   1.261
 9575SOL     OW29623   6.329   6.397   1.204
 9575SOL    HW129624   6.305   6.408   1.108
 9575SOL    HW229625   6.251   6.361   1.255
 9576SOL     OW29626   1.303   6.743   6.884
 9576SOL    HW129627   1.311   6.660   6.939
 9576SOL    HW229628   1.393   6.783   6.870
 9577SOL     OW29629   6.087   5.387   2.454
 9577SOL    HW129630   6.139   5.373   2.369
 9577SOL    HW229631   5.995   5.418   2.431
 9578SOL     OW29632   2.234   2.993   2.743
 9578SOL    HW129633   2.253   3.068   2.806
 9578SOL    HW229634   2.169   3.024   2.674
 9579SOL     OW29635   5.695   5.715   1.854
 9579SOL    HW129636   5.697   5.739   1.951
 9579SOL    HW229637   5.787   5.727   1.815
 9580SOL     OW29638   5.326   4.698   2.817
 9580SOL    HW129639   5.246   4.739   2.773
 9580SOL    HW229640   5.323   4.715   2.915
 9581SOL     OW29641   6.384   1.210   0.129
 9581SOL    HW129642   6.296   1.168   0.108
 9581SOL    HW229643   6.388   1.231   0.227
 9582SOL     OW29644   4.835   6.009   4.145
 9582SOL    HW129645   4.880   5.923   4.120
 9582SOL    HW229646   4.898   6.085   4.133
 9583SOL     OW29647   3.869   4.531   1.686
 9583SOL    HW129648   3.826   4.614   1.719
 9583SOL    HW229649   3.878   4.535   1.586
 9584SOL     OW29650   2.411   5.401   4.540
 9584SOL    HW129651   2.478   5.474   4.525
 9584SOL    HW229652   2.378   5.366   4.453
 9585SOL     OW29653   4.362   5.768   0.930
 9585SOL    HW129654   4.300   5.703   0.886
 9585SOL    HW229655   4.315   5.854   0.945
 9586SOL     OW29656   4.287   4.833   2.438
 9586SOL    HW129657   4.202   4.793   2.405
 9586SOL    HW229658   4.348   4.760   2.471
 9587SOL     OW29659   2.759   5.754   1.780
 9587SOL    HW129660   2.723   5.758   1.873
 9587SOL    HW229661   2.851   5.795   1.778
 9588SOL     OW29662   6.387   5.272   0.620
 9588SOL    HW129663   6.437   5.198   0.664
 9588SOL    HW229664   6.289   5.253   0.623
 9589SOL     OW29665   1.582   3.894   6.287
 9589SOL    HW129666   1.668   3.857   6.252
 9589SOL    HW229667   1.537   3.948   6.216
 9590SOL     OW29668   5.769   1.184   1.041
 9590SOL    HW129669   5.691   1.156   0.985
 9590SOL    HW229670   5.737   1.236   1.120
 9591SOL     OW29671   4.251   0.472   6.670
 9591SOL    HW129672   4.183   0.475   6.743
 9591SOL    HW229673   4.210   0.503   6.585
 9592SOL     OW29674   2.301   6.293   5.811
 9592SOL    HW129675   2.275   6.355   5.885
 9592SOL    HW229676   2.230   6.224   5.798
 9593SOL     OW29677   1.986   1.508   4.278
 9593SOL    HW129678   1.937   1.421   4.270
 9593SOL    HW229679   2.019   1.520   4.371
 9594SOL     OW29680   0.377   6.647   3.692
 9594SOL    HW129681   0.448   6.644   3.763
 9594SOL    HW229682   0.303   6.708   3.721
 9595SOL     OW29683   0.740   3.406   3.408
 9595SOL    HW129684   0.753   3.309   3.392
 9595SOL    HW229685   0.714   3.422   3.503
 9596SOL     OW29686   0.511   6.930   1.114
 9596SOL    HW129687   0.565   6.854   1.076
 9596SOL    HW229688   0.521   7.010   1.056
 9597SOL     OW29689   1.174   3.314   2.336
 9597SOL    HW129690   1.137   3.278   2.250
 9597SOL    HW229691   1.100   3.352   2.391
 9598SOL     OW29692   1.460   3.853   3.726
 9598SOL    HW129693   1.369   3.826   3.696
 9598SOL    HW229694   1.491   3.792   3.798
 9599SOL     OW29695   4.154   7.004   3.832
 9599SOL    HW129696   4.063   6.983   3.796
 9599SOL    HW229697   4.175   0.080   3.813
 9600SOL     OW29698   3.160   0.898   1.554
 9600SOL    HW129699   3.171   0.967   1.626
 9600SOL    HW229700   3.196   0.811   1.585
 9601SOL     OW29701   0.242   4.033   1.625
 9601SOL    HW129702   0.175   4.013   1.696
 9601SOL    HW229703   0.324   3.977   1.639
 9602SOL     OW29704   4.324   5.199   5.665
 9602SOL    HW129705   4.346   5.190   5.568
 9602SOL    HW229706   4.409   5.208   5.718
 9603SOL     OW29707   5.043   5.597   5.296
 9603SOL    HW129708   5.130   5.613   5.343
 9603SOL    HW229709   5.055   5.526   5.226
 9604SOL     OW29710   5.169   6.563   0.478
 9604SOL    HW129711   5.243   6.594   0.418
 9604SOL    HW229712   5.186   6.469   0.506
 9605SOL     OW29713   6.450   6.110   2.773
 9605SOL    HW129714   6.387   6.186   2.757
 9605SOL    HW229715   6.416   6.053   2.847
 9606SOL     OW29716   1.560   1.741   6.552
 9606SOL    HW129717   1.585   1.759   6.647
 9606SOL    HW229718   1.465   1.710   6.548
 9607SOL     OW29719   3.247   2.817   6.162
 9607SOL    HW129720   3.205   2.785   6.247
 9607SOL    HW229721   3.330   2.869   6.183
 9608SOL     OW29722   6.317   3.708   3.636
 9608SOL    HW129723   6.270   3.795   3.625
 9608SOL    HW229724   6.250   3.637   3.659
 9609SOL     OW29725   4.609   2.586   6.447
 9609SOL    HW129726   4.538   2.591   6.517
 9609SOL    HW229727   4.668   2.507   6.465
 9610SOL     OW29728   1.021   4.201   3.094
 9610SOL    HW129729   1.045   4.110   3.130
 9610SOL    HW229730   1.105   4.250   3.072
 9611SOL     OW29731   1.364   0.173   0.431
 9611SOL    HW129732   1.433   0.132   0.372
 9611SOL    HW229733   1.273   0.150   0.397
 9612SOL     OW29734   0.579   3.117   3.282
 9612SOL    HW129735   0.527   3.189   3.327
 9612SOL    HW229736   0.657   3.091   3.339
 9613SOL     OW29737   5.687   5.788   3.552
 9613SOL    HW129738   5.689   5.719   3.624
 9613SOL    HW229739   5.635   5.867   3.583
 9614SOL     OW29740   4.763   2.587   3.382
 9614SOL    HW129741   4.733   2.653   3.314
 9614SOL    HW229742   4.852   2.549   3.355
 9615SOL     OW29743   2.525   3.333   0.991
 9615SOL    HW129744   2.613   3.347   0.946
 9615SOL    HW229745   2.479   3.422   1.002
 9616SOL     OW29746   4.326   2.981   0.006
 9616SOL    HW129747   4.262   3.016   6.958
 9616SOL    HW229748   4.356   2.889   7.000
 9617SOL     OW29749   2.344   2.409   3.908
 9617SOL    HW129750   2.442   2.401   3.923
 9617SOL    HW229751   2.323   2.497   3.865
 9618SOL     OW29752   2.893   1.319   0.857
 9618SOL    HW129753   2.878   1.382   0.933
 9618SOL    HW229754   2.823   1.247   0.859
 9619SOL     OW29755   2.605   1.101   4.883
 9619SOL    HW129756   2.609   1.126   4.787
 9619SOL    HW229757   2.573   1.179   4.937
 9620SOL     OW29758   6.097   0.526   5.714
 9620SOL    HW129759   6.119   0.597   5.647
 9620SOL    HW229760   6.008   0.545   5.755
 9621SOL     OW29761   1.634   2.682   3.391
 9621SOL    HW129762   1.661   2.660   3.297
 9621SOL    HW229763   1.549   2.734   3.390
 9622SOL     OW29764   5.654   0.133   1.287
 9622SOL    HW129765   5.617   0.218   1.323
 9622SOL    HW229766   5.753   0.132   1.301
 9623SOL     OW29767   2.904   3.796   6.201
 9623SOL    HW129768   2.985   3.855   6.204
 9623SOL    HW229769   2.909   3.728   6.274
 9624SOL     OW29770   6.311   3.501   3.434
 9624SOL    HW129771   6.373   3.481   3.358
 9624SOL    HW229772   6.364   3.529   3.514
 9625SOL     OW29773   6.092   5.970   0.232
 9625SOL    HW129774   6.000   5.942   0.203
 9625SOL    HW229775   6.139   5.893   0.274
 9626SOL     OW29776   3.126   6.623   6.630
 9626SOL    HW129777   3.082   6.709   6.655
 9626SOL    HW229778   3.056   6.557   6.603
 9627SOL     OW29779   1.579   6.463   6.906
 9627SOL    HW129780   1.542   6.444   6.815
 9627SOL    HW229781   1.504   6.468   6.972
 9628SOL     OW29782   4.173   6.058   2.066
 9628SOL    HW129783   4.179   6.101   1.976
 9628SOL    HW229784   4.253   5.999   2.080
 9629SOL     OW29785   2.649   6.782   1.124
 9629SOL    HW129786   2.632   6.684   1.141
 9629SOL    HW229787   2.684   6.824   1.208
 9630SOL     OW29788   6.655   0.853   5.972
 9630SOL    HW129789   6.719   0.919   5.934
 9630SOL    HW229790   6.610   0.803   5.898
 9631SOL     OW29791   5.856   5.903   0.112
 9631SOL    HW129792   5.830   5.881   0.018
 9631SOL    HW229793   5.792   5.862   0.176
 9632SOL     OW29794   1.547   6.231   1.895
 9632SOL    HW129795   1.545   6.162   1.967
 9632SOL    HW229796   1.516   6.319   1.930
 9633SOL     OW29797   6.965   5.316   6.732
 9633SOL    HW129798   6.869   5.290   6.733
 9633SOL    HW229799   7.002   5.305   6.640
 9634SOL     OW29800   0.836   5.824   4.584
 9634SOL    HW129801   0.819   5.785   4.675
 9634SOL    HW229802   0.874   5.916   4.593
 9635SOL     OW29803   1.762   5.322   5.496
 9635SOL    HW129804   1.814   5.276   5.424
 9635SOL    HW229805   1.686   5.263   5.525
 9636SOL     OW29806   4.150   1.355   6.626
 9636SOL    HW129807   4.187   1.270   6.586
 9636SOL    HW229808   4.100   1.405   6.555
 9637SOL     OW29809   2.289   1.174   0.151
 9637SOL    HW129810   2.258   1.268   0.141
 9637SOL    HW229811   2.214   1.118   0.186
 9638SOL     OW29812   6.743   2.439   5.396
 9638SOL    HW129813   6.773   2.534   5.394
 9638SOL    HW229814   6.705   2.414   5.306
 9639SOL     OW29815   4.100   1.004   2.968
 9639SOL    HW129816   4.037   1.024   3.043
 9639SOL    HW229817   4.061   1.034   2.882
 9640SOL     OW29818   2.163   2.423   1.933
 9640SOL    HW129819   2.135   2.408   2.028
 9640SOL    HW229820   2.226   2.501   1.929
 9641SOL     OW29821   5.941   5.684   0.434
 9641SOL    HW129822   5.923   5.733   0.519
 9641SOL    HW229823   5.863   5.626   0.411
 9642SOL     OW29824   3.211   0.248   4.401
 9642SOL    HW129825   3.166   0.336   4.419
 9642SOL    HW229826   3.292   0.239   4.459
 9643SOL     OW29827   4.362   4.719   3.500
 9643SOL    HW129828   4.371   4.762   3.410
 9643SOL    HW229829   4.418   4.768   3.566
 9644SOL     OW29830   2.613   1.758   6.615
 9644SOL    HW129831   2.531   1.810   6.592
 9644SOL    HW229832   2.682   1.772   6.545
 9645SOL     OW29833   2.837   5.361   5.272
 9645SOL    HW129834   2.905   5.289   5.270
 9645SOL    HW229835   2.806   5.376   5.366
 9646SOL     OW29836   4.224   5.147   3.361
 9646SOL    HW129837   4.242   5.228   3.306
 9646SOL    HW229838   4.136   5.108   3.335
 9647SOL     OW29839   6.641   2.881   0.082
 9647SOL    HW129840   6.579   2.897   0.004
 9647SOL    HW229841   6.651   2.782   0.096
 9648SOL     OW29842   4.436   2.985   0.994
 9648SOL    HW129843   4.443   3.084   1.006
 9648SOL    HW229844   4.435   2.941   1.083
 9649SOL     OW29845   2.379   5.571   0.619
 9649SOL    HW129846   2.433   5.555   0.536
 9649SOL    HW229847   2.293   5.616   0.594
 9650SOL     OW29848   7.019   0.132   1.928
 9650SOL    HW129849   6.949   0.200   1.947
 9650SOL    HW229850   6.976   0.044   1.907
 9651SOL     OW29851   0.349   2.070   5.495
 9651SOL    HW129852   0.433   2.024   5.521
 9651SOL    HW229853   0.339   2.068   5.395
 9652SOL     OW29854   0.519   5.721   2.664
 9652SOL    HW129855   0.440   5.688   2.612
 9652SOL    HW229856   0.527   5.669   2.749
 9653SOL     OW29857   6.144   5.206   4.310
 9653SOL    HW129858   6.159   5.267   4.388
 9653SOL    HW229859   6.120   5.115   4.343
 9654SOL     OW29860   2.290   2.820   2.300
 9654SOL    HW129861   2.350   2.760   2.247
 9654SOL    HW229862   2.204   2.772   2.318
 9655SOL     OW29863   5.809   2.466   6.686
 9655SOL    HW129864   5.878   2.440   6.754
 9655SOL    HW229865   5.854   2.485   6.599
 9656SOL     OW29866   3.474   0.729   2.715
 9656SOL    HW129867   3.477   0.688   2.806
 9656SOL    HW229868   3.502   0.825   2.721
 9657SOL     OW29869   0.190   0.217   5.030
 9657SOL    HW129870   0.168   0.308   5.064
 9657SOL    HW229871   0.274   0.184   5.074
 9658SOL     OW29872   6.053   2.385   3.088
 9658SOL    HW129873   6.011   2.344   3.007
 9658SOL    HW229874   6.039   2.324   3.167
 9659SOL     OW29875   0.849   5.346   6.891
 9659SOL    HW129876   0.757   5.320   6.862
 9659SOL    HW229877   0.909   5.266   6.890
 9660SOL     OW29878   0.448   5.442   0.452
 9660SOL    HW129879   0.521   5.494   0.408
 9660SOL    HW229880   0.366   5.446   0.395
 9661SOL     OW29881   4.581   6.498   1.412
 9661SOL    HW129882   4.502   6.444   1.386
 9661SOL    HW229883   4.664   6.456   1.377
 9662SOL     OW29884   4.642   0.844   4.319
 9662SOL    HW129885   4.572   0.775   4.300
 9662SOL    HW229886   4.729   0.815   4.279
 9663SOL     OW29887   2.416   5.966   3.269
 9663SOL    HW129888   2.442   6.037   3.204
 9663SOL    HW229889   2.490   5.899   3.277
 9664SOL     OW29890   2.765   5.906   1.524
 9664SOL    HW129891   2.723   5.893   1.434
 9664SOL    HW229892   2.731   5.835   1.587
 9665SOL     OW29893   5.150   3.913   4.359
 9665SOL    HW129894   5.115   4.002   4.387
 9665SOL    HW229895   5.249   3.918   4.349
 9666SOL     OW29896   5.612   4.831   4.421
 9666SOL    HW129897   5.591   4.808   4.326
 9666SOL    HW229898   5.661   4.755   4.464
 9667SOL     OW29899   4.078   3.562   3.757
 9667SOL    HW129900   4.133   3.545   3.675
 9667SOL    HW229901   4.105   3.649   3.797
 9668SOL     OW29902   0.347   1.050   5.065
 9668SOL    HW129903   0.361   0.960   5.024
 9668SOL    HW229904   0.410   1.116   5.022
 9669SOL     OW29905   1.825   5.688   0.320
 9669SOL    HW129906   1.888   5.621   0.358
 9669SOL    HW229907   1.827   5.771   0.377
 9670SOL     OW29908   5.885   4.568   0.011
 9670SOL    HW129909   5.890   4.593   6.935
 9670SOL    HW229910   5.807   4.614   0.054
 9671SOL     OW29911   0.096   0.041   6.622
 9671SOL    HW129912   0.105   6.974   6.669
 9671SOL    HW229913   0.186   0.085   6.614
 9672SOL     OW29914   0.832   6.566   5.008
 9672SOL    HW129915   0.875   6.581   5.097
 9672SOL    HW229916   0.898   6.523   4.946
 9673SOL     OW29917   2.541   2.663   6.233
 9673SOL    HW129918   2.573   2.650   6.140
 9673SOL    HW229919   2.569   2.753   6.267
 9674SOL     OW29920   2.624   0.050   1.904
 9674SOL    HW129921   2.595   0.101   1.985
 9674SOL    HW229922   2.672   6.987   1.931
 9675SOL     OW29923   0.224   2.990   2.059
 9675SOL    HW129924   0.241   3.042   1.975
 9675SOL    HW229925   0.311   2.951   2.091
 9676SOL     OW29926   0.376   3.739   4.830
 9676SOL    HW129927   0.354   3.834   4.807
 9676SOL    HW229928   0.348   3.679   4.755
 9677SOL     OW29929   2.146   3.709   4.979
 9677SOL    HW129930   2.079   3.780   4.997
 9677SOL    HW229931   2.200   3.733   4.899
 9678SOL     OW29932   3.915   3.020   3.152
 9678SOL    HW129933   3.857   3.074   3.212
 9678SOL    HW229934   3.875   3.016   3.061
 9679SOL     OW29935   0.822   3.306   1.157
 9679SOL    HW129936   0.816   3.330   1.060
 9679SOL    HW229937   0.839   3.208   1.166
 9680SOL     OW29938   5.718   5.001   3.252
 9680SOL    HW129939   5.709   4.941   3.331
 9680SOL    HW229940   5.752   5.090   3.282
 9681SOL     OW29941   0.801   1.425   4.052
 9681SOL    HW129942   0.858   1.423   4.133
 9681SOL    HW229943   0.806   1.336   4.006
 9682SOL     OW29944   6.800   4.653   2.810
 9682SOL    HW129945   6.729   4.590   2.841
 9682SOL    HW229946   6.887   4.604   2.805
 9683SOL     OW29947   4.416   6.142   6.153
 9683SOL    HW129948   4.377   6.100   6.070
 9683SOL    HW229949   4.438   6.070   6.219
 9684SOL     OW29950   1.310   4.699   3.911
 9684SOL    HW129951   1.380   4.630   3.928
 9684SOL    HW229952   1.263   4.678   3.825
 9685SOL     OW29953   2.160   2.092   0.207
 9685SOL    HW129954   2.173   1.995   0.228
 9685SOL    HW229955   2.226   2.120   0.137
 9686SOL     OW29956   5.458   0.509   1.834
 9686SOL    HW129957   5.431   0.480   1.742
 9686SOL    HW229958   5.399   0.584   1.864
 9687SOL     OW29959   3.541   0.345   3.599
 9687SOL    HW129960   3.525   0.421   3.661
 9687SOL    HW229961   3.458   0.324   3.548
 9688SOL     OW29962   0.122   1.517   3.363
 9688SOL    HW129963   0.173   1.592   3.321
 9688SOL    HW229964   0.031   1.548   3.388
 9689SOL     OW29965   2.078   6.144   6.515
 9689SOL    HW129966   2.065   6.116   6.420
 9689SOL    HW229967   2.016   6.091   6.574
 9690SOL     OW29968   6.114   4.232   0.823
 9690SOL    HW129969   6.156   4.220   0.913
 9690SOL    HW229970   6.019   4.201   0.827
 9691SOL     OW29971   1.230   4.205   1.473
 9691SOL    HW129972   1.171   4.278   1.439
 9691SOL    HW229973   1.318   4.209   1.426
 9692SOL     OW29974   2.551   5.730   1.380
 9692SOL    HW129975   2.486   5.692   1.315
 9692SOL    HW229976   2.643   5.698   1.358
 9693SOL     OW29977   5.503   5.587   1.695
 9693SOL    HW129978   5.476   5.664   1.637
 9693SOL    HW229979   5.560   5.620   1.770
 9694SOL     OW29980   2.342   2.128   0.008
 9694SOL    HW129981   2.414   2.060   0.024
 9694SOL    HW229982   2.376   2.199   6.966
 9695SOL     OW29983   5.931   4.326   1.225
 9695SOL    HW129984   5.913   4.372   1.138
 9695SOL    HW229985   5.994   4.250   1.211
 9696SOL     OW29986   3.955   3.566   1.153
 9696SOL    HW129987   4.028   3.595   1.216
 9696SOL    HW229988   3.982   3.591   1.060
 9697SOL     OW29989   0.606   6.066   6.941
 9697SOL    HW129990   0.692   6.022   6.968
 9697SOL    HW229991   0.600   6.067   6.841
 9698SOL     OW29992   5.836   1.981   5.121
 9698SOL    HW129993   5.878   1.928   5.048
 9698SOL    HW229994   5.896   1.981   5.201
 9699SOL     OW29995   1.833   3.196   0.381
 9699SOL    HW129996   1.822   3.268   0.313
 9699SOL    HW229997   1.782   3.115   0.353
 9700SOL     OW29998   3.217   4.047   4.045
 9700SOL    HW129999   3.317   4.046   4.044
 9700SOL    HW230000   3.186   4.062   4.139
 9701SOL     OW30001   5.600   3.962   4.812
 9701SOL    HW130002   5.635   4.039   4.865
 9701SOL    HW230003   5.500   3.958   4.822
 9702SOL     OW30004   4.413   0.484   0.843
 9702SOL    HW130005   4.377   0.498   0.751
 9702SOL    HW230006   4.437   0.572   0.884
 9703SOL     OW30007   3.245   6.549   4.083
 9703SOL    HW130008   3.151   6.581   4.068
 9703SOL    HW230009   3.257   6.460   4.039
 9704SOL     OW30010   2.746   0.433   3.238
 9704SOL    HW130011   2.703   0.469   3.155
 9704SOL    HW230012   2.686   0.449   3.316
 9705SOL     OW30013   3.417   3.776   0.839
 9705SOL    HW130014   3.401   3.729   0.752
 9705SOL    HW230015   3.422   3.709   0.913
 9706SOL     OW30016   5.864   2.559   2.848
 9706SOL    HW130017   5.769   2.537   2.824
 9706SOL    HW230018   5.899   2.490   2.911
 9707SOL     OW30019   2.766   5.314   2.922
 9707SOL    HW130020   2.693   5.269   2.870
 9707SOL    HW230021   2.849   5.319   2.867
 9708SOL     OW30022   2.473   1.746   2.752
 9708SOL    HW130023   2.470   1.846   2.759
 9708SOL    HW230024   2.480   1.719   2.656
 9709SOL     OW30025   1.701   4.888   2.834
 9709SOL    HW130026   1.789   4.935   2.835
 9709SOL    HW230027   1.630   4.948   2.870
 9710SOL     OW30028   0.210   0.611   3.819
 9710SOL    HW130029   0.190   0.698   3.774
 9710SOL    HW230030   0.212   0.623   3.918
 9711SOL     OW30031   1.296   4.275   5.328
 9711SOL    HW130032   1.231   4.304   5.258
 9711SOL    HW230033   1.285   4.177   5.345
 9712SOL     OW30034   4.684   2.820   4.535
 9712SOL    HW130035   4.755   2.784   4.596
 9712SOL    HW230036   4.639   2.743   4.489
 9713SOL     OW30037   6.612   5.031   2.347
 9713SOL    HW130038   6.682   5.024   2.417
 9713SOL    HW230039   6.654   5.056   2.260
 9714SOL     OW30040   1.940   2.283   1.513
 9714SOL    HW130041   2.034   2.311   1.535
 9714SOL    HW230042   1.876   2.341   1.563
 9715SOL     OW30043   5.488   5.484   4.630
 9715SOL    HW130044   5.406   5.539   4.641
 9715SOL    HW230045   5.464   5.394   4.593
 9716SOL     OW30046   4.248   1.718   6.653
 9716SOL    HW130047   4.236   1.809   6.613
 9716SOL    HW230048   4.312   1.665   6.597
 9717SOL     OW30049   5.759   4.648   3.123
 9717SOL    HW130050   5.706   4.732   3.113
 9717SOL    HW230051   5.790   4.617   3.033
 9718SOL     OW30052   4.328   3.392   1.729
 9718SOL    HW130053   4.416   3.439   1.719
 9718SOL    HW230054   4.291   3.409   1.821
 9719SOL     OW30055   0.434   1.806   0.386
 9719SOL    HW130056   0.445   1.880   0.453
 9719SOL    HW230057   0.439   1.844   0.294
 9720SOL     OW30058   0.337   0.576   1.478
 9720SOL    HW130059   0.350   0.514   1.556
 9720SOL    HW230060   0.281   0.531   1.409
 9721SOL     OW30061   6.619   3.564   2.886
 9721SOL    HW130062   6.545   3.500   2.907
 9721SOL    HW230063   6.583   3.658   2.891
 9722SOL     OW30064   6.900   0.110   4.625
 9722SOL    HW130065   6.835   0.173   4.667
 9722SOL    HW230066   6.992   0.129   4.660
 9723SOL     OW30067   6.869   1.352   3.664
 9723SOL    HW130068   6.921   1.284   3.716
 9723SOL    HW230069   6.877   1.331   3.566
 9724SOL     OW30070   4.127   2.936   1.151
 9724SOL    HW130071   4.078   2.865   1.099
 9724SOL    HW230072   4.206   2.967   1.098
 9725SOL     OW30073   4.223   3.117   5.804
 9725SOL    HW130074   4.314   3.088   5.776
 9725SOL    HW230075   4.197   3.068   5.888
 9726SOL     OW30076   5.609   6.443   4.916
 9726SOL    HW130077   5.666   6.427   4.996
 9726SOL    HW230078   5.515   6.460   4.946
 9727SOL     OW30079   1.407   2.109   6.573
 9727SOL    HW130080   1.429   2.063   6.487
 9727SOL    HW230081   1.490   2.143   6.616
 9728SOL     OW30082   3.158   5.479   0.129
 9728SOL    HW130083   3.089   5.485   0.201
 9728SOL    HW230084   3.129   5.535   0.051
 9729SOL     OW30085   3.147   5.434   2.646
 9729SOL    HW130086   3.226   5.495   2.651
 9729SOL    HW230087   3.131   5.407   2.551
 9730SOL     OW30088   6.153   3.884   2.989
 9730SOL    HW130089   6.169   3.974   2.948
 9730SOL    HW230090   6.112   3.895   3.079
 9731SOL     OW30091   5.012   5.322   0.915
 9731SOL    HW130092   4.982   5.410   0.951
 9731SOL    HW230093   4.939   5.255   0.923
 9732SOL     OW30094   6.419   5.447   3.290
 9732SOL    HW130095   6.371   5.367   3.255
 9732SOL    HW230096   6.444   5.507   3.213
 9733SOL     OW30097   5.269   4.319   6.525
 9733SOL    HW130098   5.348   4.289   6.471
 9733SOL    HW230099   5.195   4.251   6.516
 9734SOL     OW30100   5.318   2.538   4.688
 9734SOL    HW130101   5.380   2.517   4.613
 9734SOL    HW230102   5.287   2.452   4.730
 9735SOL     OW30103   1.626   3.960   0.295
 9735SOL    HW130104   1.565   4.039   0.308
 9735SOL    HW230105   1.610   3.894   0.368
 9736SOL     OW30106   3.162   1.518   1.065
 9736SOL    HW130107   3.195   1.481   1.152
 9736SOL    HW230108   3.215   1.600   1.041
 9737SOL     OW30109   4.068   2.133   4.986
 9737SOL    HW130110   4.126   2.071   5.040
 9737SOL    HW230111   4.092   2.227   5.007
 9738SOL     OW30112   2.049   0.875   2.173
 9738SOL    HW130113   1.968   0.893   2.118
 9738SOL    HW230114   2.066   0.777   2.177
 9739SOL     OW30115   5.120   4.946   2.119
 9739SOL    HW130116   5.083   5.032   2.082
 9739SOL    HW230117   5.118   4.948   2.219
 9740SOL     OW30118   6.760   3.992   3.088
 9740SOL    HW130119   6.700   3.946   3.153
 9740SOL    HW230120   6.850   3.949   3.090
 9741SOL     OW30121   4.189   2.114   1.332
 9741SOL    HW130122   4.122   2.188   1.335
 9741SOL    HW230123   4.258   2.128   1.402
 9742SOL     OW30124   4.802   1.702   4.257
 9742SOL    HW130125   4.748   1.674   4.178
 9742SOL    HW230126   4.834   1.621   4.306
 9743SOL     OW30127   1.933   2.204   5.514
 9743SOL    HW130128   1.946   2.268   5.589
 9743SOL    HW230129   2.018   2.152   5.500
 9744SOL     OW30130   1.717   0.349   1.891
 9744SOL    HW130131   1.731   0.379   1.797
 9744SOL    HW230132   1.645   0.280   1.895
 9745SOL     OW30133   0.200   2.190   4.707
 9745SOL    HW130134   0.264   2.234   4.770
 9745SOL    HW230135   0.149   2.260   4.657
 9746SOL     OW30136   5.830   1.576   4.337
 9746SOL    HW130137   5.762   1.560   4.265
 9746SOL    HW230138   5.840   1.492   4.391
 9747SOL     OW30139   0.332   0.045   6.899
 9747SOL    HW130140   0.354   6.980   6.851
 9747SOL    HW230141   0.270   0.025   6.975
 9748SOL     OW30142   0.355   5.624   4.032
 9748SOL    HW130143   0.399   5.697   4.086
 9748SOL    HW230144   0.305   5.563   4.093
 9749SOL     OW30145   0.837   4.403   4.034
 9749SOL    HW130146   0.741   4.375   4.036
 9749SOL    HW230147   0.894   4.322   4.018
 9750SOL     OW30148   3.694   4.909   3.300
 9750SOL    HW130149   3.598   4.923   3.322
 9750SOL    HW230150   3.702   4.839   3.229
 9751SOL     OW30151   2.051   2.420   0.653
 9751SOL    HW130152   2.066   2.510   0.692
 9751SOL    HW230153   2.133   2.364   0.664
 9752SOL     OW30154   3.600   2.063   6.307
 9752SOL    HW130155   3.607   1.972   6.266
 9752SOL    HW230156   3.666   2.070   6.382
 9753SOL     OW30157   6.875   6.416   5.024
 9753SOL    HW130158   6.785   6.373   5.031
 9753SOL    HW230159   6.865   6.515   5.023
 9754SOL     OW30160   6.682   2.198   6.915
 9754SOL    HW130161   6.674   2.240   6.825
 9754SOL    HW230162   6.705   2.101   6.904
 9755SOL     OW30163   4.274   4.625   5.297
 9755SOL    HW130164   4.246   4.566   5.221
 9755SOL    HW230165   4.210   4.701   5.305
 9756SOL     OW30166   5.750   2.008   5.846
 9756SOL    HW130167   5.669   2.067   5.838
 9756SOL    HW230168   5.720   1.914   5.861
 9757SOL     OW30169   6.165   2.383   3.776
 9757SOL    HW130170   6.119   2.303   3.737
 9757SOL    HW230171   6.179   2.368   3.874
 9758SOL     OW30172   2.771   0.696   0.126
 9758SOL    HW130173   2.817   0.758   0.062
 9758SOL    HW230174   2.721   0.626   0.075
 9759SOL     OW30175   3.063   6.206   1.486
 9759SOL    HW130176   3.032   6.168   1.573
 9759SOL    HW230177   3.016   6.160   1.411
 9760SOL     OW30178   5.392   4.782   6.199
 9760SOL    HW130179   5.319   4.715   6.186
 9760SOL    HW230180   5.371   4.866   6.150
 9761SOL     OW30181   5.570   5.799   2.663
 9761SOL    HW130182   5.623   5.720   2.632
 9761SOL    HW230183   5.478   5.793   2.625
 9762SOL     OW30184   2.417   1.309   3.437
 9762SOL    HW130185   2.495   1.354   3.394
 9762SOL    HW230186   2.336   1.319   3.379
 9763SOL     OW30187   1.816   1.660   1.708
 9763SOL    HW130188   1.827   1.573   1.756
 9763SOL    HW230189   1.829   1.735   1.772
 9764SOL     OW30190   1.160   2.927   1.746
 9764SOL    HW130191   1.063   2.912   1.727
 9764SOL    HW230192   1.211   2.844   1.727
 9765SOL     OW30193   0.023   1.621   5.489
 9765SOL    HW130194   0.067   1.616   5.399
 9765SOL    HW230195   0.042   1.709   5.530
 9766SOL     OW30196   2.801   0.468   2.244
 9766SOL    HW130197   2.733   0.462   2.317
 9766SOL    HW230198   2.757   0.494   2.159
 9767SOL     OW30199   4.670   0.549   5.474
 9767SOL    HW130200   4.738   0.499   5.527
 9767SOL    HW230201   4.715   0.618   5.416
 9768SOL     OW30202   5.040   2.626   3.462
 9768SOL    HW130203   4.968   2.587   3.519
 9768SOL    HW230204   5.129   2.611   3.505
 9769SOL     OW30205   0.604   2.149   2.127
 9769SOL    HW130206   0.699   2.161   2.158
 9769SOL    HW230207   0.554   2.094   2.192
 9770SOL     OW30208   6.238   4.394   6.509
 9770SOL    HW130209   6.290   4.388   6.424
 9770SOL    HW230210   6.241   4.306   6.556
 9771SOL     OW30211   3.590   5.684   4.775
 9771SOL    HW130212   3.672   5.633   4.800
 9771SOL    HW230213   3.518   5.620   4.749
 9772SOL     OW30214   6.647   0.427   1.774
 9772SOL    HW130215   6.571   0.482   1.810
 9772SOL    HW230216   6.639   0.422   1.674
 9773SOL     OW30217   5.639   5.461   3.258
 9773SOL    HW130218   5.561   5.492   3.203
 9773SOL    HW230219   5.610   5.450   3.353
 9774SOL     OW30220   6.912   4.823   3.352
 9774SOL    HW130221   6.976   4.871   3.410
 9774SOL    HW230222   6.961   4.777   3.278
 9775SOL     OW30223   2.608   2.245   5.018
 9775SOL    HW130224   2.590   2.322   5.079
 9775SOL    HW230225   2.700   2.253   4.980
 9776SOL     OW30226   0.337   4.841   4.609
 9776SOL    HW130227   0.250   4.822   4.654
 9776SOL    HW230228   0.322   4.891   4.524
 9777SOL     OW30229   5.344   5.033   6.843
 9777SOL    HW130230   5.286   5.113   6.861
 9777SOL    HW230231   5.435   5.064   6.814
 9778SOL     OW30232   4.317   0.897   3.665
 9778SOL    HW130233   4.220   0.919   3.653
 9778SOL    HW230234   4.364   0.905   3.577
 9779SOL     OW30235   2.901   2.063   6.077
 9779SOL    HW130236   2.950   1.991   6.028
 9779SOL    HW230237   2.919   2.057   6.175
 9780SOL     OW30238   3.690   4.439   0.589
 9780SOL    HW130239   3.725   4.353   0.625
 9780SOL    HW230240   3.761   4.509   0.595
 9781SOL     OW30241   1.702   6.029   4.052
 9781SOL    HW130242   1.753   5.971   4.116
 9781SOL    HW230243   1.605   6.004   4.056
 9782SOL     OW30244   6.321   0.516   1.467
 9782SOL    HW130245   6.348   0.607   1.496
 9782SOL    HW230246   6.402   0.457   1.464
 9783SOL     OW30247   5.820   1.625   2.972
 9783SOL    HW130248   5.877   1.647   2.893
 9783SOL    HW230249   5.878   1.590   3.046
 9784SOL     OW30250   5.236   0.918   4.047
 9784SOL    HW130251   5.323   0.958   4.075
 9784SOL    HW230252   5.206   0.852   4.115
 9785SOL     OW30253   0.787   2.936   0.770
 9785SOL    HW130254   0.718   2.966   0.836
 9785SOL    HW230255   0.761   2.847   0.733
 9786SOL     OW30256   2.108   0.226   5.157
 9786SOL    HW130257   2.189   0.173   5.133
 9786SOL    HW230258   2.068   0.188   5.240
 9787SOL     OW30259   5.931   4.541   2.105
 9787SOL    HW130260   5.856   4.557   2.041
 9787SOL    HW230261   5.971   4.451   2.087
 9788SOL     OW30262   0.202   1.419   5.169
 9788SOL    HW130263   0.277   1.376   5.119
 9788SOL    HW230264   0.181   1.508   5.129
 9789SOL     OW30265   1.356   5.897   4.773
 9789SOL    HW130266   1.335   5.958   4.696
 9789SOL    HW230267   1.284   5.905   4.842
 9790SOL     OW30268   6.827   1.499   3.997
 9790SOL    HW130269   6.875   1.503   4.085
 9790SOL    HW230270   6.883   1.544   3.927
 9791SOL     OW30271   0.984   2.353   1.595
 9791SOL    HW130272   0.955   2.415   1.669
 9791SOL    HW230273   1.083   2.361   1.582
 9792SOL     OW30274   3.945   5.889   2.006
 9792SOL    HW130275   3.885   5.895   2.085
 9792SOL    HW230276   4.038   5.916   2.032
 9793SOL     OW30277   5.417   6.507   2.682
 9793SOL    HW130278   5.383   6.471   2.595
 9793SOL    HW230279   5.415   6.434   2.751
 9794SOL     OW30280   3.050   3.325   6.853
 9794SOL    HW130281   3.145   3.321   6.884
 9794SOL    HW230282   3.035   3.257   6.781
 9795SOL     OW30283   2.589   4.569   3.974
 9795SOL    HW130284   2.569   4.635   4.047
 9795SOL    HW230285   2.653   4.609   3.909
 9796SOL     OW30286   3.681   4.725   0.237
 9796SOL    HW130287   3.733   4.707   0.321
 9796SOL    HW230288   3.708   4.658   0.167
 9797SOL     OW30289   4.944   2.676   4.678
 9797SOL    HW130290   4.930   2.586   4.720
 9797SOL    HW230291   5.039   2.685   4.649
 9798SOL     OW30292   2.319   2.140   1.914
 9798SOL    HW130293   2.389   2.077   1.882
 9798SOL    HW230294   2.239   2.136   1.854
 9799SOL     OW30295   3.161   3.724   1.678
 9799SOL    HW130296   3.169   3.804   1.618
 9799SOL    HW230297   3.213   3.741   1.762
 9800SOL     OW30298   3.535   4.951   0.166
 9800SOL    HW130299   3.468   4.895   0.117
 9800SOL    HW230300   3.605   4.891   0.205
 9801SOL     OW30301   4.591   5.280   6.753
 9801SOL    HW130302   4.625   5.345   6.821
 9801SOL    HW230303   4.562   5.195   6.799
 9802SOL     OW30304   0.593   5.082   1.477
 9802SOL    HW130305   0.597   5.156   1.410
 9802SOL    HW230306   0.500   5.047   1.483
 9803SOL     OW30307   5.461   0.739   6.598
 9803SOL    HW130308   5.489   0.711   6.690
 9803SOL    HW230309   5.378   0.795   6.604
 9804SOL     OW30310   5.900   5.297   4.153
 9804SOL    HW130311   5.979   5.267   4.206
 9804SOL    HW230312   5.928   5.366   4.086
 9805SOL     OW30313   3.340   4.517   1.370
 9805SOL    HW130314   3.420   4.473   1.329
 9805SOL    HW230315   3.359   4.538   1.466
 9806SOL     OW30316   6.770   2.259   2.735
 9806SOL    HW130317   6.786   2.249   2.637
 9806SOL    HW230318   6.824   2.192   2.785
 9807SOL     OW30319   3.379   2.521   0.738
 9807SOL    HW130320   3.377   2.558   0.645
 9807SOL    HW230321   3.299   2.464   0.753
 9808SOL     OW30322   1.853   1.995   5.110
 9808SOL    HW130323   1.911   2.025   5.034
 9808SOL    HW230324   1.758   2.019   5.090
 9809SOL     OW30325   0.801   0.710   4.250
 9809SOL    HW130326   0.809   0.809   4.250
 9809SOL    HW230327   0.859   0.671   4.322
 9810SOL     OW30328   4.151   1.057   3.477
 9810SOL    HW130329   4.220   1.129   3.473
 9810SOL    HW230330   4.157   1.001   3.394
 9811SOL     OW30331   1.086   0.102   2.581
 9811SOL    HW130332   0.999   0.150   2.569
 9811SOL    HW230333   1.073   0.004   2.564
 9812SOL     OW30334   5.382   2.773   4.950
 9812SOL    HW130335   5.425   2.813   4.869
 9812SOL    HW230336   5.417   2.680   4.964
 9813SOL     OW30337   6.269   4.476   0.944
 9813SOL    HW130338   6.226   4.436   0.863
 9813SOL    HW230339   6.368   4.469   0.937
 9814SOL     OW30340   6.630   0.821   5.490
 9814SOL    HW130341   6.682   0.877   5.425
 9814SOL    HW230342   6.664   0.727   5.488
 9815SOL     OW30343   6.949   4.037   2.718
 9815SOL    HW130344   7.016   4.104   2.748
 9815SOL    HW230345   6.994   3.949   2.703
 9816SOL     OW30346   6.535   0.877   6.192
 9816SOL    HW130347   6.481   0.958   6.217
 9816SOL    HW230348   6.581   0.894   6.105
 9817SOL     OW30349   2.555   0.664   0.347
 9817SOL    HW130350   2.565   0.701   0.254
 9817SOL    HW230351   2.507   0.730   0.404
 9818SOL     OW30352   1.001   0.114   2.919
 9818SOL    HW130353   1.042   0.126   2.829
 9818SOL    HW230354   1.016   0.020   2.950
 9819SOL     OW30355   0.147   2.550   4.337
 9819SOL    HW130356   0.119   2.624   4.398
 9819SOL    HW230357   0.228   2.579   4.286
 9820SOL     OW30358   3.570   2.415   5.952
 9820SOL    HW130359   3.495   2.380   5.895
 9820SOL    HW230360   3.550   2.396   6.048
 9821SOL     OW30361   3.899   2.610   1.291
 9821SOL    HW130362   3.929   2.588   1.384
 9821SOL    HW230363   3.826   2.678   1.295
 9822SOL     OW30364   3.367   5.810   4.571
 9822SOL    HW130365   3.279   5.834   4.531
 9822SOL    HW230366   3.440   5.828   4.504
 9823SOL     OW30367   3.908   6.421   3.467
 9823SOL    HW130368   3.818   6.464   3.469
 9823SOL    HW230369   3.979   6.491   3.471
 9824SOL     OW30370   0.808   5.815   5.964
 9824SOL    HW130371   0.769   5.857   6.046
 9824SOL    HW230372   0.786   5.871   5.885
 9825SOL     OW30373   6.867   6.680   5.114
 9825SOL    HW130374   6.871   6.754   5.047
 9825SOL    HW230375   6.953   6.676   5.165
 9826SOL     OW30376   2.107   5.703   5.433
 9826SOL    HW130377   2.100   5.785   5.375
 9826SOL    HW230378   2.019   5.688   5.479
 9827SOL     OW30379   1.793   4.323   1.624
 9827SOL    HW130380   1.713   4.361   1.579
 9827SOL    HW230381   1.765   4.257   1.693
 9828SOL     OW30382   4.006   1.810   5.173
 9828SOL    HW130383   3.932   1.876   5.160
 9828SOL    HW230384   3.975   1.736   5.234
 9829SOL     OW30385   5.220   4.799   5.216
 9829SOL    HW130386   5.227   4.864   5.292
 9829SOL    HW230387   5.227   4.706   5.252
 9830SOL     OW30388   5.469   1.805   3.771
 9830SOL    HW130389   5.453   1.816   3.673
 9830SOL    HW230390   5.383   1.788   3.818
 9831SOL     OW30391   0.737   4.332   2.004
 9831SOL    HW130392   0.677   4.309   1.928
 9831SOL    HW230393   0.735   4.431   2.019
 9832SOL     OW30394   4.775   5.768   4.330
 9832SOL    HW130395   4.775   5.682   4.279
 9832SOL    HW230396   4.745   5.842   4.270
 9833SOL     OW30397   4.118   3.417   4.175
 9833SOL    HW130398   4.118   3.493   4.240
 9833SOL    HW230399   4.048   3.351   4.201
 9834SOL     OW30400   3.024   6.061   5.494
 9834SOL    HW130401   2.956   5.990   5.477
 9834SOL    HW230402   2.982   6.137   5.543
 9835SOL     OW30403   4.064   3.822   3.772
 9835SOL    HW130404   4.034   3.853   3.862
 9835SOL    HW230405   4.052   3.895   3.705
 9836SOL     OW30406   6.676   3.530   5.792
 9836SOL    HW130407   6.627   3.474   5.725
 9836SOL    HW230408   6.727   3.602   5.744
 9837SOL     OW30409   5.800   1.699   3.468
 9837SOL    HW130410   5.798   1.796   3.443
 9837SOL    HW230411   5.717   1.654   3.435
 9838SOL     OW30412   1.239   5.650   1.113
 9838SOL    HW130413   1.327   5.623   1.151
 9838SOL    HW230414   1.254   5.701   1.028
 9839SOL     OW30415   5.052   6.534   3.782
 9839SOL    HW130416   5.106   6.498   3.705
 9839SOL    HW230417   4.955   6.535   3.757
 9840SOL     OW30418   6.627   1.923   6.537
 9840SOL    HW130419   6.690   1.918   6.460
 9840SOL    HW230420   6.632   1.838   6.590
 9841SOL     OW30421   6.630   6.324   2.820
 9841SOL    HW130422   6.568   6.246   2.821
 9841SOL    HW230423   6.651   6.352   2.914
 9842SOL     OW30424   3.509   6.967   6.993
 9842SOL    HW130425   3.585   6.995   6.934
 9842SOL    HW230426   3.540   6.897   0.036
 9843SOL     OW30427   0.433   0.813   1.594
 9843SOL    HW130428   0.516   0.832   1.542
 9843SOL    HW230429   0.389   0.731   1.558
 9844SOL     OW30430   4.745   0.524   4.793
 9844SOL    HW130431   4.725   0.460   4.719
 9844SOL    HW230432   4.840   0.514   4.821
 9845SOL     OW30433   1.431   4.122   2.029
 9845SOL    HW130434   1.347   4.115   2.084
 9845SOL    HW230435   1.442   4.040   1.974
 9846SOL     OW30436   6.044   2.351   1.225
 9846SOL    HW130437   5.977   2.286   1.188
 9846SOL    HW230438   6.122   2.302   1.262
 9847SOL     OW30439   3.941   4.115   6.822
 9847SOL    HW130440   3.848   4.143   6.798
 9847SOL    HW230441   3.943   4.081   6.916
 9848SOL     OW30442   3.293   3.345   5.771
 9848SOL    HW130443   3.332   3.362   5.681
 9848SOL    HW230444   3.250   3.428   5.806
 9849SOL     OW30445   1.496   2.268   4.390
 9849SOL    HW130446   1.580   2.318   4.410
 9849SOL    HW230447   1.498   2.179   4.437
 9850SOL     OW30448   1.977   6.745   4.195
 9850SOL    HW130449   2.068   6.774   4.165
 9850SOL    HW230450   1.926   6.710   4.116
 9851SOL     OW30451   3.743   5.633   3.743
 9851SOL    HW130452   3.785   5.642   3.653
 9851SOL    HW230453   3.706   5.541   3.753
 9852SOL     OW30454   1.851   6.668   0.242
 9852SOL    HW130455   1.940   6.623   0.244
 9852SOL    HW230456   1.798   6.641   0.322
 9853SOL     OW30457   0.303   4.329   3.556
 9853SOL    HW130458   0.256   4.319   3.469
 9853SOL    HW230459   0.401   4.342   3.540
 9854SOL     OW30460   0.040   3.398   0.075
 9854SOL    HW130461   0.116   3.462   0.088
 9854SOL    HW230462   6.978   3.448   0.049
 9855SOL     OW30463   0.737   5.904   0.345
 9855SOL    HW130464   0.749   5.876   0.440
 9855SOL    HW230465   0.640   5.913   0.325
 9856SOL     OW30466   5.443   3.184   2.848
 9856SOL    HW130467   5.421   3.266   2.794
 9856SOL    HW230468   5.480   3.113   2.788
 9857SOL     OW30469   4.913   0.162   5.747
 9857SOL    HW130470   4.818   0.135   5.762
 9857SOL    HW230471   4.965   0.084   5.713
 9858SOL     OW30472   6.503   6.331   1.981
 9858SOL    HW130473   6.584   6.358   2.033
 9858SOL    HW230474   6.427   6.394   2.002
 9859SOL     OW30475   0.240   5.504   2.830
 9859SOL    HW130476   0.231   5.547   2.920
 9859SOL    HW230477   0.179   5.550   2.765
 9860SOL     OW30478   1.670   3.177   4.080
 9860SOL    HW130479   1.729   3.147   4.155
 9860SOL    HW230480   1.606   3.103   4.058
 9861SOL     OW30481   3.483   1.795   3.134
 9861SOL    HW130482   3.417   1.733   3.176
 9861SOL    HW230483   3.445   1.831   3.049
 9862SOL     OW30484   1.411   3.520   6.584
 9862SOL    HW130485   1.416   3.420   6.594
 9862SOL    HW230486   1.482   3.550   6.521
 9863SOL     OW30487   3.836   7.013   2.428
 9863SOL    HW130488   3.886   6.935   2.389
 9863SOL    HW230489   3.825   6.998   2.527
 9864SOL     OW30490   2.059   6.194   5.788
 9864SOL    HW130491   2.018   6.102   5.788
 9864SOL    HW230492   1.996   6.258   5.830
 9865SOL     OW30493   1.964   5.800   6.185
 9865SOL    HW130494   1.971   5.766   6.091
 9865SOL    HW230495   2.009   5.890   6.190
 9866SOL     OW30496   6.762   5.414   6.096
 9866SOL    HW130497   6.681   5.359   6.075
 9866SOL    HW230498   6.743   5.510   6.077
 9867SOL     OW30499   4.348   1.284   1.720
 9867SOL    HW130500   4.314   1.369   1.680
 9867SOL    HW230501   4.394   1.230   1.649
 9868SOL     OW30502   2.362   4.683   3.747
 9868SOL    HW130503   2.428   4.608   3.748
 9868SOL    HW230504   2.404   4.765   3.786
 9869SOL     OW30505   0.260   1.986   1.571
 9869SOL    HW130506   0.337   1.934   1.609
 9869SOL    HW230507   0.226   1.941   1.489
 9870SOL     OW30508   2.120   2.377   2.649
 9870SOL    HW130509   2.214   2.397   2.623
 9870SOL    HW230510   2.074   2.462   2.674
 9871SOL     OW30511   5.777   5.775   3.296
 9871SOL    HW130512   5.774   5.858   3.241
 9871SOL    HW230513   5.775   5.798   3.393
 9872SOL     OW30514   0.513   5.336   5.528
 9872SOL    HW130515   0.521   5.305   5.623
 9872SOL    HW230516   0.449   5.413   5.523
 9873SOL     OW30517   1.303   1.538   5.433
 9873SOL    HW130518   1.312   1.547   5.333
 9873SOL    HW230519   1.339   1.449   5.462
 9874SOL     OW30520   0.567   2.177   3.826
 9874SOL    HW130521   0.597   2.229   3.906
 9874SOL    HW230522   0.468   2.186   3.816
 9875SOL     OW30523   6.250   6.127   0.802
 9875SOL    HW130524   6.195   6.147   0.884
 9875SOL    HW230525   6.236   6.200   0.735
 9876SOL     OW30526   0.100   6.808   3.496
 9876SOL    HW130527   0.070   6.817   3.591
 9876SOL    HW230528   0.076   6.717   3.462
 9877SOL     OW30529   0.494   5.936   5.013
 9877SOL    HW130530   0.448   6.017   4.975
 9877SOL    HW230531   0.592   5.942   4.994
 9878SOL     OW30532   3.330   3.030   6.831
 9878SOL    HW130533   3.379   2.968   6.770
 9878SOL    HW230534   3.279   2.977   6.899
 9879SOL     OW30535   6.323   5.521   5.391
 9879SOL    HW130536   6.248   5.581   5.418
 9879SOL    HW230537   6.367   5.484   5.473
 9880SOL     OW30538   2.795   1.085   1.123
 9880SOL    HW130539   2.822   0.994   1.154
 9880SOL    HW230540   2.803   1.091   1.023
 9881SOL     OW30541   5.918   0.740   3.205
 9881SOL    HW130542   5.994   0.780   3.153
 9881SOL    HW230543   5.837   0.735   3.147
 9882SOL     OW30544   3.558   3.135   4.448
 9882SOL    HW130545   3.502   3.114   4.528
 9882SOL    HW230546   3.523   3.217   4.402
 9883SOL     OW30547   2.097   6.132   2.558
 9883SOL    HW130548   2.120   6.155   2.653
 9883SOL    HW230549   2.046   6.047   2.556
 9884SOL     OW30550   3.404   2.905   5.599
 9884SOL    HW130551   3.428   2.827   5.657
 9884SOL    HW230552   3.423   2.882   5.503
 9885SOL     OW30553   4.760   2.236   5.337
 9885SOL    HW130554   4.751   2.140   5.310
 9885SOL    HW230555   4.827   2.244   5.411
 9886SOL     OW30556   3.239   5.758   1.262
 9886SOL    HW130557   3.170   5.712   1.318
 9886SOL    HW230558   3.193   5.812   1.191
 9887SOL     OW30559   2.983   1.402   0.285
 9887SOL    HW130560   3.026   1.335   0.344
 9887SOL    HW230561   2.941   1.357   0.206
 9888SOL     OW30562   6.465   6.927   4.010
 9888SOL    HW130563   6.413   6.921   4.095
 9888SOL    HW230564   6.483   6.835   3.976
 9889SOL     OW30565   0.122   5.559   2.418
 9889SOL    HW130566   0.122   5.476   2.362
 9889SOL    HW230567   0.060   5.546   2.496
 9890SOL     OW30568   0.995   3.397   2.535
 9890SOL    HW130569   1.022   3.341   2.614
 9890SOL    HW230570   0.896   3.410   2.536
 9891SOL     OW30571   4.945   6.839   1.842
 9891SOL    HW130572   4.877   6.843   1.769
 9891SOL    HW230573   5.010   6.915   1.832
 9892SOL     OW30574   1.797   5.677   3.884
 9892SOL    HW130575   1.743   5.761   3.875
 9892SOL    HW230576   1.811   5.657   3.981
 9893SOL     OW30577   5.870   4.678   4.763
 9893SOL    HW130578   5.815   4.653   4.683
 9893SOL    HW230579   5.812   4.676   4.845
 9894SOL     OW30580   4.419   3.714   5.302
 9894SOL    HW130581   4.407   3.661   5.386
 9894SOL    HW230582   4.505   3.687   5.258
 9895SOL     OW30583   5.324   2.112   6.432
 9895SOL    HW130584   5.366   2.049   6.366
 9895SOL    HW230585   5.395   2.155   6.487
 9896SOL     OW30586   3.852   3.755   0.003
 9896SOL    HW130587   3.932   3.700   0.026
 9896SOL    HW230588   3.770   3.712   0.042
 9897SOL     OW30589   0.199   1.016   2.934
 9897SOL    HW130590   0.296   1.041   2.938
 9897SOL    HW230591   0.145   1.087   2.979
 9898SOL     OW30592   1.393   4.748   6.773
 9898SOL    HW130593   1.336   4.685   6.721
 9898SOL    HW230594   1.365   4.842   6.754
 9899SOL     OW30595   4.794   4.964   2.691
 9899SOL    HW130596   4.827   4.914   2.772
 9899SOL    HW230597   4.863   5.031   2.664
 9900SOL     OW30598   1.729   4.453   4.085
 9900SOL    HW130599   1.747   4.382   4.153
 9900SOL    HW230600   1.798   4.526   4.095
 9901SOL     OW30601   2.212   1.937   6.166
 9901SOL    HW130602   2.171   1.988   6.242
 9901SOL    HW230603   2.165   1.961   6.081
 9902SOL     OW30604   4.543   3.817   6.715
 9902SOL    HW130605   4.581   3.836   6.805
 9902SOL    HW230606   4.618   3.791   6.653
 9903SOL     OW30607   3.482   1.742   1.602
 9903SOL    HW130608   3.521   1.783   1.519
 9903SOL    HW230609   3.386   1.719   1.586
 9904SOL     OW30610   0.480   7.018   1.887
 9904SOL    HW130611   0.408   0.064   1.908
 9904SOL    HW230612   0.548   0.040   1.828
 9905SOL     OW30613   1.477   6.780   5.846
 9905SOL    HW130614   1.475   6.777   5.746
 9905SOL    HW230615   1.444   6.693   5.882
 9906SOL     OW30616   3.645   3.808   5.958
 9906SOL    HW130617   3.654   3.756   5.873
 9906SOL    HW230618   3.730   3.803   6.009
 9907SOL     OW30619   1.068   6.657   2.823
 9907SOL    HW130620   0.992   6.607   2.782
 9907SOL    HW230621   1.121   6.596   2.882
 9908SOL     OW30622   6.301   3.810   5.201
 9908SOL    HW130623   6.388   3.818   5.249
 9908SOL    HW230624   6.254   3.727   5.231
 9909SOL     OW30625   3.691   6.744   2.245
 9909SOL    HW130626   3.653   6.772   2.157
 9909SOL    HW230627   3.695   6.644   2.249
 9910SOL     OW30628   0.854   4.674   0.782
 9910SOL    HW130629   0.851   4.683   0.682
 9910SOL    HW230630   0.790   4.603   0.810
 9911SOL     OW30631   3.702   5.250   3.236
 9911SOL    HW130632   3.641   5.188   3.186
 9911SOL    HW230633   3.783   5.269   3.181
 9912SOL     OW30634   4.132   6.841   1.115
 9912SOL    HW130635   4.143   6.927   1.164
 9912SOL    HW230636   4.080   6.857   1.031
 9913SOL     OW30637   4.452   2.466   2.654
 9913SOL    HW130638   4.366   2.461   2.704
 9913SOL    HW230639   4.507   2.541   2.690
 9914SOL     OW30640   2.143   5.196   4.961
 9914SOL    HW130641   2.047   5.222   4.972
 9914SOL    HW230642   2.153   5.138   4.881
 9915SOL     OW30643   6.045   3.767   4.137
 9915SOL    HW130644   6.090   3.782   4.049
 9915SOL    HW230645   5.951   3.803   4.133
 9916SOL     OW30646   2.724   3.363   0.816
 9916SOL    HW130647   2.813   3.322   0.794
 9916SOL    HW230648   2.670   3.371   0.732
 9917SOL     OW30649   2.165   2.997   4.794
 9917SOL    HW130650   2.243   3.022   4.852
 9917SOL    HW230651   2.156   2.898   4.792
 9918SOL     OW30652   2.607   0.830   4.773
 9918SOL    HW130653   2.514   0.814   4.740
 9918SOL    HW230654   2.607   0.908   4.836
 9919SOL     OW30655   0.685   5.669   2.196
 9919SOL    HW130656   0.754   5.699   2.131
 9919SOL    HW230657   0.684   5.569   2.201
 9920SOL     OW30658   4.034   6.867   2.777
 9920SOL    HW130659   3.997   6.779   2.806
 9920SOL    HW230660   4.123   6.853   2.733
 9921SOL     OW30661   5.263   0.171   2.616
 9921SOL    HW130662   5.288   0.165   2.520
 9921SOL    HW230663   5.346   0.183   2.671
 9922SOL     OW30664   5.135   2.982   1.945
 9922SOL    HW130665   5.114   2.896   1.992
 9922SOL    HW230666   5.231   2.981   1.916
 9923SOL     OW30667   6.083   0.864   6.426
 9923SOL    HW130668   6.147   0.857   6.502
 9923SOL    HW230669   6.104   0.794   6.358
 9924SOL     OW30670   5.049   1.031   3.875
 9924SOL    HW130671   4.952   1.034   3.899
 9924SOL    HW230672   5.104   1.011   3.956
 9925SOL     OW30673   3.785   2.116   4.687
 9925SOL    HW130674   3.805   2.079   4.778
 9925SOL    HW230675   3.690   2.146   4.683
 9926SOL     OW30676   1.335   0.909   5.865
 9926SOL    HW130677   1.358   0.987   5.808
 9926SOL    HW230678   1.417   0.853   5.878
 9927SOL     OW30679   1.031   3.227   2.787
 9927SOL    HW130680   1.121   3.255   2.821
 9927SOL    HW230681   0.986   3.170   2.855
 9928SOL     OW30682   0.198   3.166   2.261
 9928SOL    HW130683   0.229   3.101   2.331
 9928SOL    HW230684   0.211   3.125   2.170
 9929SOL     OW30685   0.525   4.573   5.681
 9929SOL    HW130686   0.535   4.580   5.581
 9929SOL    HW230687   0.612   4.543   5.721
 9930SOL     OW30688   6.630   5.402   6.430
 9930SOL    HW130689   6.607   5.498   6.442
 9930SOL    HW230690   6.548   5.346   6.442
 9931SOL     OW30691   2.900   5.012   6.804
 9931SOL    HW130692   2.946   5.067   6.873
 9931SOL    HW230693   2.967   4.962   6.750
 9932SOL     OW30694   2.528   2.528   1.065
 9932SOL    HW130695   2.617   2.547   1.024
 9932SOL    HW230696   2.518   2.582   1.148
 9933SOL     OW30697   0.851   1.689   2.479
 9933SOL    HW130698   0.804   1.765   2.525
 9933SOL    HW230699   0.883   1.624   2.548
 9934SOL     OW30700   5.204   0.449   6.156
 9934SOL    HW130701   5.256   0.493   6.230
 9934SOL    HW230702   5.214   0.350   6.163
 9935SOL     OW30703   2.686   2.739   0.630
 9935SOL    HW130704   2.731   2.663   0.582
 9935SOL    HW230705   2.589   2.739   0.606
 9936SOL     OW30706   5.138   6.997   6.266
 9936SOL    HW130707   5.198   0.039   6.216
 9936SOL    HW230708   5.185   6.909   6.278
 9937SOL     OW30709   1.671   6.759   3.804
 9937SOL    HW130710   1.600   6.809   3.755
 9937SOL    HW230711   1.683   6.669   3.762
 9938SOL     OW30712   0.082   1.230   3.054
 9938SOL    HW130713   0.042   1.317   3.025
 9938SOL    HW230714   0.170   1.248   3.098
 9939SOL     OW30715   2.745   4.158   1.667
 9939SOL    HW130716   2.708   4.183   1.578
 9939SOL    HW230717   2.833   4.202   1.681
 9940SOL     OW30718   6.671   0.912   3.151
 9940SOL    HW130719   6.747   0.968   3.118
 9940SOL    HW230720   6.707   0.831   3.197
 9941SOL     OW30721   5.752   3.626   0.967
 9941SOL    HW130722   5.815   3.614   1.043
 9941SOL    HW230723   5.756   3.546   0.906
 9942SOL     OW30724   6.335   5.911   2.959
 9942SOL    HW130725   6.276   5.846   2.910
 9942SOL    HW230726   6.280   5.990   2.987
 9943SOL     OW30727   1.977   4.089   5.646
 9943SOL    HW130728   1.981   3.990   5.665
 9943SOL    HW230729   1.983   4.104   5.547
 9944SOL     OW30730   1.973   5.904   6.621
 9944SOL    HW130731   1.950   5.824   6.566
 9944SOL    HW230732   1.890   5.939   6.664
 9945SOL     OW30733   6.553   3.741   6.848
 9945SOL    HW130734   6.521   3.665   6.904
 9945SOL    HW230735   6.486   3.759   6.775
 9946SOL     OW30736   4.981   2.225   1.891
 9946SOL    HW130737   4.914   2.284   1.935
 9946SOL    HW230738   4.961   2.220   1.793
 9947SOL     OW30739   1.247   1.383   2.306
 9947SOL    HW130740   1.296   1.416   2.387
 9947SOL    HW230741   1.210   1.461   2.256
 9948SOL     OW30742   6.143   0.645   5.451
 9948SOL    HW130743   6.131   0.743   5.465
 9948SOL    HW230744   6.233   0.628   5.409
 9949SOL     OW30745   6.892   3.807   3.411
 9949SOL    HW130746   6.970   3.869   3.400
 9949SOL    HW230747   6.921   3.725   3.459
 9950SOL     OW30748   4.267   4.424   5.639
 9950SOL    HW130749   4.268   4.393   5.544
 9950SOL    HW230750   4.178   4.404   5.679
 9951SOL     OW30751   0.200   2.140   2.882
 9951SOL    HW130752   0.182   2.043   2.897
 9951SOL    HW230753   0.218   2.155   2.784
 9952SOL     OW30754   1.376   4.587   1.362
 9952SOL    HW130755   1.357   4.518   1.292
 9952SOL    HW230756   1.393   4.675   1.319
 9953SOL     OW30757   6.354   4.173   3.640
 9953SOL    HW130758   6.448   4.139   3.644
 9953SOL    HW230759   6.337   4.235   3.716
 9954SOL     OW30760   3.767   1.436   1.369
 9954SOL    HW130761   3.710   1.453   1.449
 9954SOL    HW230762   3.855   1.482   1.381
 9955SOL     OW30763   5.782   5.205   1.338
 9955SOL    HW130764   5.876   5.205   1.372
 9955SOL    HW230765   5.732   5.281   1.380
 9956SOL     OW30766   1.716   3.452   2.968
 9956SOL    HW130767   1.683   3.545   2.978
 9956SOL    HW230768   1.813   3.448   2.993
 9957SOL     OW30769   5.271   0.227   0.237
 9957SOL    HW130770   5.187   0.280   0.254
 9957SOL    HW230771   5.247   0.136   0.203
 9958SOL     OW30772   5.890   5.619   6.740
 9958SOL    HW130773   5.970   5.575   6.699
 9958SOL    HW230774   5.807   5.571   6.710
 9959SOL     OW30775   6.085   4.603   0.225
 9959SOL    HW130776   5.996   4.632   0.190
 9959SOL    HW230777   6.089   4.503   0.226
 9960SOL     OW30778   6.251   0.255   7.019
 9960SOL    HW130779   6.174   0.294   0.049
 9960SOL    HW230780   6.230   0.160   6.995
 9961SOL     OW30781   3.366   5.781   0.757
 9961SOL    HW130782   3.401   5.841   0.829
 9961SOL    HW230783   3.424   5.699   0.751
 9962SOL     OW30784   3.159   0.888   1.267
 9962SOL    HW130785   3.123   0.901   1.359
 9962SOL    HW230786   3.135   0.797   1.235
 9963SOL     OW30787   0.926   0.004   6.439
 9963SOL    HW130788   0.896   6.975   6.520
 9963SOL    HW230789   0.897   6.975   6.357
 9964SOL     OW30790   4.348   5.180   5.358
 9964SOL    HW130791   4.379   5.143   5.270
 9964SOL    HW230792   4.268   5.238   5.343
 9965SOL     OW30793   2.691   4.985   4.012
 9965SOL    HW130794   2.635   5.062   4.044
 9965SOL    HW230795   2.788   5.009   4.018
 9966SOL     OW30796   3.708   5.784   3.375
 9966SOL    HW130797   3.760   5.862   3.341
 9966SOL    HW230798   3.629   5.817   3.427
 9967SOL     OW30799   0.265   0.513   3.359
 9967SOL    HW130800   0.259   0.432   3.418
 9967SOL    HW230801   0.194   0.509   3.289
 9968SOL     OW30802   4.446   6.817   0.324
 9968SOL    HW130803   4.392   6.813   0.241
 9968SOL    HW230804   4.508   6.738   0.328
 9969SOL     OW30805   0.136   6.045   3.501
 9969SOL    HW130806   0.152   6.109   3.426
 9969SOL    HW230807   0.214   6.046   3.562
 9970SOL     OW30808   6.463   3.353   2.339
 9970SOL    HW130809   6.476   3.308   2.427
 9970SOL    HW230810   6.422   3.443   2.354
 9971SOL     OW30811   0.304   5.257   4.393
 9971SOL    HW130812   0.328   5.160   4.387
 9971SOL    HW230813   0.205   5.267   4.381
 9972SOL     OW30814   2.770   4.595   5.966
 9972SOL    HW130815   2.707   4.519   5.949
 9972SOL    HW230816   2.846   4.591   5.900
 9973SOL     OW30817   2.899   1.793   3.476
 9973SOL    HW130818   2.978   1.732   3.486
 9973SOL    HW230819   2.904   1.841   3.389
 9974SOL     OW30820   1.520   2.380   3.148
 9974SOL    HW130821   1.505   2.405   3.052
 9974SOL    HW230822   1.533   2.462   3.203
 9975SOL     OW30823   2.510   4.475   6.391
 9975SOL    HW130824   2.593   4.496   6.340
 9975SOL    HW230825   2.508   4.530   6.475
 9976SOL     OW30826   4.095   5.896   5.034
 9976SOL    HW130827   4.091   5.995   5.019
 9976SOL    HW230828   4.189   5.864   5.023
 9977SOL     OW30829   4.081   0.497   5.224
 9977SOL    HW130830   4.099   0.526   5.318
 9977SOL    HW230831   4.165   0.463   5.183
 9978SOL     OW30832   0.804   2.317   0.339
 9978SOL    HW130833   0.747   2.248   0.383
 9978SOL    HW230834   0.805   2.400   0.394
 9979SOL     OW30835   3.485   4.191   4.732
 9979SOL    HW130836   3.552   4.216   4.803
 9979SOL    HW230837   3.401   4.158   4.775
 9980SOL     OW30838   1.184   0.819   0.749
 9980SOL    HW130839   1.216   0.724   0.758
 9980SOL    HW230840   1.181   0.844   0.653
 9981SOL     OW30841   5.493   1.261   0.232
 9981SOL    HW130842   5.524   1.171   0.201
 9981SOL    HW230843   5.513   1.329   0.163
 9982SOL     OW30844   2.223   2.390   4.815
 9982SOL    HW130845   2.315   2.428   4.803
 9982SOL    HW230846   2.212   2.309   4.758
 9983SOL     OW30847   1.112   3.740   2.132
 9983SOL    HW130848   1.158   3.669   2.185
 9983SOL    HW230849   1.050   3.791   2.192
 9984SOL     OW30850   0.533   5.187   0.919
 9984SOL    HW130851   0.496   5.243   0.845
 9984SOL    HW230852   0.624   5.153   0.893
 9985SOL     OW30853   4.821   4.268   6.724
 9985SOL    HW130854   4.817   4.301   6.818
 9985SOL    HW230855   4.875   4.331   6.668
 9986SOL     OW30856   5.642   4.943   0.461
 9986SOL    HW130857   5.581   5.011   0.501
 9986SOL    HW230858   5.625   4.935   0.363
 9987SOL     OW30859   5.571   2.051   0.929
 9987SOL    HW130860   5.612   1.969   0.970
 9987SOL    HW230861   5.472   2.049   0.943
 9988SOL     OW30862   6.073   0.095   3.800
 9988SOL    HW130863   6.161   0.055   3.824
 9988SOL    HW230864   6.007   0.022   3.784
 9989SOL     OW30865   6.823   5.707   2.196
 9989SOL    HW130866   6.858   5.630   2.142
 9989SOL    HW230867   6.723   5.709   2.191
 9990SOL     OW30868   6.909   0.223   3.373
 9990SOL    HW130869   6.860   0.234   3.460
 9990SOL    HW230870   6.983   0.157   3.384
 9991SOL     OW30871   2.160   4.593   2.190
 9991SOL    HW130872   2.170   4.690   2.213
 9991SOL    HW230873   2.148   4.583   2.091
 9992SOL     OW30874   2.660   5.274   0.377
 9992SOL    HW130875   2.568   5.280   0.339
 9992SOL    HW230876   2.664   5.201   0.445
 9993SOL     OW30877   3.618   0.391   4.938
 9993SOL    HW130878   3.680   0.382   5.016
 9993SOL    HW230879   3.638   0.476   4.890
 9994SOL     OW30880   6.028   5.061   5.274
 9994SOL    HW130881   6.118   5.089   5.238
 9994SOL    HW230882   5.957   5.117   5.232
 9995SOL     OW30883   3.950   1.779   6.411
 9995SOL    HW130884   3.969   1.824   6.498
 9995SOL    HW230885   3.937   1.847   6.340
 9996SOL     OW30886   3.168   4.251   0.877
 9996SOL    HW130887   3.195   4.224   0.969
 9996SOL    HW230888   3.168   4.171   0.817
 9997SOL     OW30889   6.979   1.982   2.662
 9997SOL    HW130890   6.979   2.006   2.760
 9997SOL    HW230891   7.008   1.887   2.651
 9998SOL     OW30892   5.132   3.927   2.302
 9998SOL    HW130893   5.033   3.931   2.296
 9998SOL    HW230894   5.165   3.847   2.252
 9999SOL     OW30895   0.765   0.194   4.863
 9999SOL    HW130896   0.743   0.124   4.931
 9999SOL    HW230897   0.795   0.150   4.778
10000SOL     OW30898   4.425   2.175   1.499
10000SOL    HW130899   4.436   2.238   1.576
10000SOL    HW230900   4.464   2.086   1.522
10001SOL     OW30901   3.809   6.079   1.355
10001SOL    HW130902   3.777   6.082   1.261
10001SOL    HW230903   3.804   6.170   1.396
10002SOL     OW30904   2.266   6.980   2.003
10002SOL    HW130905   2.347   6.935   2.041
10002SOL    HW230906   2.233   0.028   2.068
10003SOL     OW30907   1.275   0.935   2.361
10003SOL    HW130908   1.363   0.930   2.313
10003SOL    HW230909   1.283   0.995   2.440
10004SOL     OW30910   0.243   4.509   4.096
10004SOL    HW130911   0.310   4.525   4.024
10004SOL    HW230912   0.283   4.530   4.185
10005SOL     OW30913   2.656   5.477   3.477
10005SOL    HW130914   2.565   5.512   3.502
10005SOL    HW230915   2.668   5.387   3.518
10006SOL     OW30916   5.310   1.071   5.181
10006SOL    HW130917   5.222   1.105   5.213
10006SOL    HW230918   5.369   1.054   5.261
10007SOL     OW30919   0.811   5.361   3.816
10007SOL    HW130920   0.800   5.335   3.720
10007SOL    HW230921   0.875   5.299   3.860
10008SOL     OW30922   4.106   1.057   6.229
10008SOL    HW130923   4.186   1.094   6.181
10008SOL    HW230924   4.024   1.103   6.195
10009SOL     OW30925   0.894   4.536   2.281
10009SOL    HW130926   0.853   4.619   2.320
10009SOL    HW230927   0.865   4.457   2.335
10010SOL     OW30928   2.311   4.200   1.125
10010SOL    HW130929   2.245   4.125   1.119
10010SOL    HW230930   2.324   4.225   1.221
10011SOL     OW30931   2.389   2.833   0.006
10011SOL    HW130932   2.413   2.773   0.082
10011SOL    HW230933   2.432   2.923   0.019
10012SOL     OW30934   5.765   1.913   3.286
10012SOL    HW130935   5.735   1.834   3.233
10012SOL    HW230936   5.714   1.994   3.258
10013SOL     OW30937   0.740   6.426   4.387
10013SOL    HW130938   0.783   6.424   4.478
10013SOL    HW230939   0.789   6.364   4.326
10014SOL     OW30940   0.994   0.928   2.484
10014SOL    HW130941   0.937   0.870   2.427
10014SOL    HW230942   1.085   0.935   2.444
10015SOL     OW30943   3.795   6.342   6.049
10015SOL    HW130944   3.834   6.263   6.096
10015SOL    HW230945   3.740   6.395   6.114
10016SOL     OW30946   2.006   0.852   4.306
10016SOL    HW130947   1.907   0.862   4.300
10016SOL    HW230948   2.049   0.942   4.300
10017SOL     OW30949   3.027   1.903   2.236
10017SOL    HW130950   2.992   1.994   2.212
10017SOL    HW230951   2.970   1.833   2.192
10018SOL     OW30952   0.270   4.038   4.999
10018SOL    HW130953   0.193   3.974   5.000
10018SOL    HW230954   0.342   4.006   5.060
10019SOL     OW30955   0.503   2.068   1.897
10019SOL    HW130956   0.535   2.113   1.980
10019SOL    HW230957   0.514   2.129   1.818
10020SOL     OW30958   6.421   1.077   1.931
10020SOL    HW130959   6.476   1.076   2.015
10020SOL    HW230960   6.324   1.065   1.955
10021SOL     OW30961   0.894   3.271   1.995
10021SOL    HW130962   0.863   3.207   1.924
10021SOL    HW230963   0.954   3.340   1.954
10022SOL     OW30964   1.660   5.738   6.321
10022SOL    HW130965   1.706   5.770   6.238
10022SOL    HW230966   1.723   5.683   6.375
10023SOL     OW30967   0.726   1.136   5.692
10023SOL    HW130968   0.807   1.139   5.751
10023SOL    HW230969   0.668   1.214   5.712
10024SOL     OW30970   1.322   4.678   2.713
10024SOL    HW130971   1.283   4.770   2.725
10024SOL    HW230972   1.414   4.687   2.675
10025SOL     OW30973   1.090   3.709   0.500
10025SOL    HW130974   1.071   3.700   0.598
10025SOL    HW230975   1.174   3.761   0.487
10026SOL     OW30976   5.808   1.623   5.146
10026SOL    HW130977   5.740   1.688   5.179
10026SOL    HW230978   5.892   1.671   5.124
10027SOL     OW30979   3.585   1.499   5.308
10027SOL    HW130980   3.574   1.427   5.240
10027SOL    HW230981   3.507   1.561   5.305
10028SOL     OW30982   4.432   7.009   1.693
10028SOL    HW130983   4.336   0.009   1.672
10028SOL    HW230984   4.439   6.915   1.724
10029SOL     OW30985   0.365   4.121   4.307
10029SOL    HW130986   0.312   4.162   4.233
10029SOL    HW230987   0.377   4.188   4.380
10030SOL     OW30988   2.383   0.410   4.523
10030SOL    HW130989   2.402   0.433   4.427
10030SOL    HW230990   2.297   0.360   4.529
10031SOL     OW30991   2.283   5.832   2.683
10031SOL    HW130992   2.260   5.766   2.612
10031SOL    HW230993   2.375   5.868   2.667
10032SOL     OW30994   2.942   6.499   4.824
10032SOL    HW130995   2.946   6.542   4.734
10032SOL    HW230996   2.987   6.409   4.821
10033SOL     OW30997   3.394   1.348   4.584
10033SOL    HW130998   3.416   1.251   4.573
10033SOL    HW230999   3.300   1.358   4.616
10034SOL     OW31000   2.875   0.939   2.933
10034SOL    HW131001   2.883   0.840   2.924
10034SOL    HW231002   2.962   0.976   2.965
10035SOL     OW31003   6.681   2.769   2.600
10035SOL    HW131004   6.678   2.818   2.512
10035SOL    HW231005   6.774   2.737   2.618
10036SOL     OW31006   1.020   1.118   7.018
10036SOL    HW131007   1.060   1.162   6.939
10036SOL    HW231008   1.069   1.146   0.081
10037SOL     OW31009   5.592   6.630   6.706
10037SOL    HW131010   5.582   6.537   6.740
10037SOL    HW231011   5.593   6.694   6.783
10038SOL     OW31012   4.445   6.404   6.270
10038SOL    HW131013   4.541   6.418   6.247
10038SOL    HW231014   4.406   6.334   6.211
10039SOL     OW31015   0.485   6.014   2.710
10039SOL    HW131016   0.552   6.074   2.754
10039SOL    HW231017   0.520   5.921   2.708
10040SOL     OW31018   2.803   0.223   0.824
10040SOL    HW131019   2.741   0.168   0.880
10040SOL    HW231020   2.842   0.296   0.880
10041SOL     OW31021   6.500   5.857   5.073
10041SOL    HW131022   6.502   5.769   5.120
10041SOL    HW231023   6.431   5.856   5.001
10042SOL     OW31024   6.943   0.623   5.196
10042SOL    HW131025   6.957   0.702   5.255
10042SOL    HW231026   6.859   0.634   5.144
10043SOL     OW31027   0.584   0.839   3.477
10043SOL    HW131028   0.603   0.746   3.511
10043SOL    HW231029   0.666   0.874   3.431
10044SOL     OW31030   2.732   1.585   6.919
10044SOL    HW131031   2.727   1.665   6.858
10044SOL    HW231032   2.715   1.502   6.866
10045SOL     OW31033   3.481   6.840   4.837
10045SOL    HW131034   3.482   6.939   4.825
10045SOL    HW231035   3.395   6.803   4.801
10046SOL     OW31036   6.866   2.564   1.279
10046SOL    HW131037   6.917   2.518   1.206
10046SOL    HW231038   6.906   2.542   1.368
10047SOL     OW31039   0.536   1.463   3.298
10047SOL    HW131040   0.461   1.451   3.363
10047SOL    HW231041   0.614   1.505   3.344
10048SOL     OW31042   3.663   2.663   1.678
10048SOL    HW131043   3.568   2.637   1.692
10048SOL    HW231044   3.720   2.581   1.673
10049SOL     OW31045   1.565   6.983   4.233
10049SOL    HW131046   1.517   6.944   4.154
10049SOL    HW231047   1.663   6.990   4.213
10050SOL     OW31048   5.483   1.776   4.381
10050SOL    HW131049   5.497   1.774   4.480
10050SOL    HW231050   5.547   1.840   4.339
10051SOL     OW31051   6.165   2.267   6.327
10051SOL    HW131052   6.213   2.316   6.254
10051SOL    HW231053   6.077   2.234   6.293
10052SOL     OW31054   1.122   3.983   1.578
10052SOL    HW131055   1.164   4.060   1.528
10052SOL    HW231056   1.057   4.019   1.645
10053SOL     OW31057   3.014   6.479   3.746
10053SOL    HW131058   2.924   6.468   3.704
10053SOL    HW231059   3.006   6.464   3.845
10054SOL     OW31060   4.354   5.884   3.936
10054SOL    HW131061   4.328   5.848   4.026
10054SOL    HW231062   4.298   5.842   3.865
10055SOL     OW31063   6.491   3.204   6.396
10055SOL    HW131064   6.495   3.268   6.320
10055SOL    HW231065   6.563   3.225   6.462
10056SOL     OW31066   6.693   5.126   2.025
10056SOL    HW131067   6.791   5.130   2.042
10056SOL    HW231068   6.646   5.194   2.082
10057SOL     OW31069   2.623   2.425   3.836
10057SOL    HW131070   2.697   2.414   3.770
10057SOL    HW231071   2.606   2.338   3.882
10058SOL     OW31072   0.685   4.990   3.516
10058SOL    HW131073   0.762   4.950   3.566
10058SOL    HW231074   0.689   4.961   3.421
10059SOL     OW31075   5.448   0.196   1.038
10059SOL    HW131076   5.411   0.224   1.126
10059SOL    HW231077   5.409   0.253   0.966
10060SOL     OW31078   2.174   2.836   1.843
10060SOL    HW131079   2.225   2.756   1.875
10060SOL    HW231080   2.123   2.876   1.919
10061SOL     OW31081   6.526   2.050   4.876
10061SOL    HW131082   6.519   1.950   4.873
10061SOL    HW231083   6.441   2.088   4.913
10062SOL     OW31084   6.127   5.760   2.853
10062SOL    HW131085   6.119   5.792   2.759
10062SOL    HW231086   6.120   5.661   2.856
10063SOL     OW31087   0.867   2.944   2.716
10063SOL    HW131088   0.909   2.937   2.806
10063SOL    HW231089   0.805   3.023   2.714
10064SOL     OW31090   5.307   6.370   4.439
10064SOL    HW131091   5.316   6.318   4.524
10064SOL    HW231092   5.211   6.394   4.424
10065SOL     OW31093   0.927   6.396   3.091
10065SOL    HW131094   0.851   6.437   3.040
10065SOL    HW231095   0.999   6.369   3.027
10066SOL     OW31096   0.769   0.574   3.620
10066SOL    HW131097   0.743   0.529   3.705
10066SOL    HW231098   0.837   0.645   3.638
10067SOL     OW31099   4.153   5.944   3.491
10067SOL    HW131100   4.130   6.013   3.561
10067SOL    HW231101   4.240   5.967   3.448
10068SOL     OW31102   5.427   3.730   5.277
10068SOL    HW131103   5.352   3.750   5.214
10068SOL    HW231104   5.402   3.652   5.334
10069SOL     OW31105   3.783   0.792   3.559
10069SOL    HW131106   3.860   0.728   3.566
10069SOL    HW231107   3.724   0.765   3.483
10070SOL     OW31108   1.028   6.434   4.857
10070SOL    HW131109   1.092   6.357   4.850
10070SOL    HW231110   1.077   6.520   4.839
10071SOL     OW31111   5.447   5.595   4.956
10071SOL    HW131112   5.475   5.541   5.034
10071SOL    HW231113   5.500   5.680   4.952
10072SOL     OW31114   0.825   6.991   3.483
10072SOL    HW131115   0.900   7.019   3.543
10072SOL    HW231116   0.839   6.897   3.454
10073SOL     OW31117   0.332   5.825   6.538
10073SOL    HW131118   0.354   5.728   6.533
10073SOL    HW231119   0.378   5.873   6.463
10074SOL     OW31120   2.363   6.873   5.714
10074SOL    HW131121   2.430   6.937   5.753
10074SOL    HW231122   2.287   6.924   5.675
10075SOL     OW31123   1.795   2.304   3.718
10075SOL    HW131124   1.744   2.374   3.766
10075SOL    HW231125   1.861   2.346   3.656
10076SOL     OW31126   5.606   0.298   4.694
10076SOL    HW131127   5.612   0.316   4.792
10076SOL    HW231128   5.698   0.284   4.657
10077SOL     OW31129   3.715   1.129   6.852
10077SOL    HW131130   3.724   1.216   6.803
10077SOL    HW231131   3.714   1.147   6.950
10078SOL     OW31132   5.604   6.221   5.708
10078SOL    HW131133   5.519   6.272   5.703
10078SOL    HW231134   5.633   6.215   5.804
10079SOL     OW31135   0.170   4.233   6.951
10079SOL    HW131136   0.155   4.308   6.886
10079SOL    HW231137   0.264   4.238   6.986
10080SOL     OW31138   1.643   3.006   6.159
10080SOL    HW131139   1.637   3.077   6.090
10080SOL    HW231140   1.677   3.045   6.245
10081SOL     OW31141   6.977   0.579   6.367
10081SOL    HW131142   0.042   0.527   6.356
10081SOL    HW231143   6.900   0.524   6.334
10082SOL     OW31144   6.231   0.868   1.433
10082SOL    HW131145   6.185   0.957   1.430
10082SOL    HW231146   6.296   0.861   1.358
10083SOL     OW31147   5.008   0.970   4.375
10083SOL    HW131148   5.108   0.969   4.376
10083SOL    HW231149   4.976   0.919   4.296
10084SOL     OW31150   2.512   1.157   6.060
10084SOL    HW131151   2.535   1.246   6.021
10084SOL    HW231152   2.569   1.140   6.141
10085SOL     OW31153   0.525   5.535   2.847
10085SOL    HW131154   0.552   5.468   2.916
10085SOL    HW231155   0.426   5.551   2.853
10086SOL     OW31156   6.307   3.596   2.284
10086SOL    HW131157   6.300   3.635   2.376
10086SOL    HW231158   6.217   3.591   2.243
10087SOL     OW31159   1.093   0.204   4.186
10087SOL    HW131160   1.118   0.135   4.253
10087SOL    HW231161   1.157   0.281   4.191
10088SOL     OW31162   0.052   0.372   4.543
10088SOL    HW131163   0.084   0.318   4.621
10088SOL    HW231164   0.126   0.432   4.511
10089SOL     OW31165   1.262   3.191   2.553
10089SOL    HW131166   1.248   3.243   2.637
10089SOL    HW231167   1.232   3.245   2.475
10090SOL     OW31168   0.319   4.846   0.932
10090SOL    HW131169   0.267   4.763   0.952
10090SOL    HW231170   0.352   4.886   1.017
10091SOL     OW31171   0.482   2.391   4.019
10091SOL    HW131172   0.580   2.407   4.030
10091SOL    HW231173   0.446   2.450   3.947
10092SOL     OW31174   1.817   3.973   4.988
10092SOL    HW131175   1.888   3.953   5.054
10092SOL    HW231176   1.747   3.901   4.990
10093SOL     OW31177   6.606   4.840   6.269
10093SOL    HW131178   6.684   4.900   6.285
10093SOL    HW231179   6.627   4.747   6.298
10094SOL     OW31180   1.430   0.870   1.741
10094SOL    HW131181   1.399   0.861   1.835
10094SOL    HW231182   1.517   0.920   1.738
10095SOL     OW31183   6.993   0.854   5.893
10095SOL    HW131184   6.936   0.856   5.811
10095SOL    HW231185   6.994   0.762   5.931
10096SOL     OW31186   0.425   5.167   2.304
10096SOL    HW131187   0.468   5.158   2.214
10096SOL    HW231188   0.468   5.242   2.354
10097SOL     OW31189   1.514   1.857   6.811
10097SOL    HW131190   1.531   1.938   6.755
10097SOL    HW231191   1.589   1.846   6.877
10098SOL     OW31192   3.173   4.781   6.369
10098SOL    HW131193   3.109   4.761   6.295
10098SOL    HW231194   3.189   4.880   6.372
10099SOL     OW31195   6.463   5.000   4.547
10099SOL    HW131196   6.447   4.986   4.450
10099SOL    HW231197   6.483   4.912   4.591
10100SOL     OW31198   5.762   1.180   5.544
10100SOL    HW131199   5.810   1.265   5.566
10100SOL    HW231200   5.818   1.126   5.481
10101SOL     OW31201   0.236   4.280   1.895
10101SOL    HW131202   0.231   4.356   1.960
10101SOL    HW231203   0.271   4.199   1.941
10102SOL     OW31204   3.585   1.191   3.254
10102SOL    HW131205   3.592   1.263   3.185
10102SOL    HW231206   3.511   1.211   3.317
10103SOL     OW31207   2.582   2.029   6.873
10103SOL    HW131208   2.656   2.035   6.940
10103SOL    HW231209   2.571   2.118   6.828
10104SOL     OW31210   1.536   5.898   4.998
10104SOL    HW131211   1.474   5.886   4.921
10104SOL    HW231212   1.485   5.888   5.084
10105SOL     OW31213   2.362   0.719   6.197
10105SOL    HW131214   2.330   0.625   6.210
10105SOL    HW231215   2.429   0.741   6.268
10106SOL     OW31216   5.597   5.325   0.562
10106SOL    HW131217   5.696   5.330   0.549
10106SOL    HW231218   5.577   5.292   0.655
10107SOL     OW31219   5.633   1.201   5.952
10107SOL    HW131220   5.593   1.111   5.934
10107SOL    HW231221   5.646   1.213   6.050
10108SOL     OW31222   6.026   6.633   0.154
10108SOL    HW131223   6.115   6.660   0.191
10108SOL    HW231224   5.955   6.691   0.195
10109SOL     OW31225   4.754   5.280   3.136
10109SOL    HW131226   4.814   5.217   3.186
10109SOL    HW231227   4.759   5.370   3.178
10110SOL     OW31228   3.036   0.919   5.602
10110SOL    HW131229   3.101   0.990   5.577
10110SOL    HW231230   2.946   0.960   5.616
10111SOL     OW31231   0.301   2.425   2.938
10111SOL    HW131232   0.286   2.327   2.920
10111SOL    HW231233   0.214   2.468   2.960
10112SOL     OW31234   4.309   4.028   5.799
10112SOL    HW131235   4.283   3.936   5.830
10112SOL    HW231236   4.375   4.019   5.724
10113SOL     OW31237   3.653   6.321   6.894
10113SOL    HW131238   3.571   6.325   6.952
10113SOL    HW231239   3.627   6.299   6.801
10114SOL     OW31240   4.262   1.197   1.103
10114SOL    HW131241   4.196   1.136   1.058
10114SOL    HW231242   4.286   1.159   1.192
10115SOL     OW31243   1.397   2.243   3.608
10115SOL    HW131244   1.440   2.334   3.608
10115SOL    HW231245   1.455   2.179   3.559
10116SOL     OW31246   1.134   0.920   1.298
10116SOL    HW131247   1.193   0.982   1.245
10116SOL    HW231248   1.182   0.889   1.379
10117SOL     OW31249   5.016   0.621   5.628
10117SOL    HW131250   4.931   0.610   5.679
10117SOL    HW231251   5.016   0.710   5.582
10118SOL     OW31252   6.368   5.425   2.403
10118SOL    HW131253   6.351   5.518   2.373
10118SOL    HW231254   6.405   5.425   2.496
10119SOL     OW31255   2.644   0.451   5.475
10119SOL    HW131256   2.721   0.449   5.412
10119SOL    HW231257   2.664   0.514   5.550
10120SOL     OW31258   6.518   3.301   3.772
10120SOL    HW131259   6.535   3.241   3.850
10120SOL    HW231260   6.561   3.390   3.788
10121SOL     OW31261   6.711   4.865   4.601
10121SOL    HW131262   6.759   4.778   4.592
10121SOL    HW231263   6.727   4.921   4.519
10122SOL     OW31264   5.276   2.785   0.235
10122SOL    HW131265   5.251   2.878   0.265
10122SOL    HW231266   5.369   2.786   0.199
10123SOL     OW31267   0.092   0.039   0.396
10123SOL    HW131268   0.069   0.121   0.448
10123SOL    HW231269   0.100   0.062   0.299
10124SOL     OW31270   3.497   4.483   0.821
10124SOL    HW131271   3.405   4.483   0.782
10124SOL    HW231272   3.491   4.458   0.918
10125SOL     OW31273   1.427   6.726   1.709
10125SOL    HW131274   1.441   6.703   1.805
10125SOL    HW231275   1.503   6.689   1.655
10126SOL     OW31276   6.319   4.742   0.410
10126SOL    HW131277   6.351   4.701   0.324
10126SOL    HW231278   6.226   4.710   0.429
10127SOL     OW31279   3.818   4.640   5.282
10127SOL    HW131280   3.720   4.653   5.301
10127SOL    HW231281   3.851   4.717   5.227
10128SOL     OW31282   0.408   1.835   1.027
10128SOL    HW131283   0.447   1.927   1.020
10128SOL    HW231284   0.477   1.773   1.063
10129SOL     OW31285   5.587   1.918   2.971
10129SOL    HW131286   5.686   1.906   2.959
10129SOL    HW231287   5.570   1.986   3.042
10130SOL     OW31288   6.622   5.145   1.763
10130SOL    HW131289   6.696   5.187   1.710
10130SOL    HW231290   6.652   5.131   1.857
10131SOL     OW31291   0.095   0.896   0.858
10131SOL    HW131292   0.125   0.892   0.954
10131SOL    HW231293   0.134   0.978   0.815
10132SOL     OW31294   3.200   6.855   2.850
10132SOL    HW131295   3.115   6.804   2.839
10132SOL    HW231296   3.259   6.807   2.916
10133SOL     OW31297   5.179   5.802   3.131
10133SOL    HW131298   5.278   5.814   3.134
10133SOL    HW231299   5.145   5.824   3.040
10134SOL     OW31300   7.018   1.422   2.611
10134SOL    HW131301   6.958   1.489   2.655
10134SOL    HW231302   0.088   1.425   2.655
10135SOL     OW31303   3.823   5.570   3.471
10135SOL    HW131304   3.769   5.645   3.432
10135SOL    HW231305   3.766   5.488   3.477
10136SOL     OW31306   5.936   6.640   2.432
10136SOL    HW131307   5.899   6.711   2.492
10136SOL    HW231308   5.862   6.582   2.399
10137SOL     OW31309   6.008   4.999   4.016
10137SOL    HW131310   5.989   4.926   4.082
10137SOL    HW231311   6.017   5.086   4.065
10138SOL     OW31312   5.495   2.281   6.214
10138SOL    HW131313   5.580   2.292   6.265
10138SOL    HW231314   5.507   2.313   6.120
10139SOL     OW31315   4.055   3.674   3.250
10139SOL    HW131316   4.033   3.758   3.200
10139SOL    HW231317   4.116   3.618   3.195
10140SOL     OW31318   0.100   4.965   5.963
10140SOL    HW131319   0.091   4.874   5.923
10140SOL    HW231320   0.140   4.957   6.055
10141SOL     OW31321   1.636   0.781   3.655
10141SOL    HW131322   1.580   0.709   3.695
10141SOL    HW231323   1.579   0.840   3.597
10142SOL     OW31324   4.823   5.628   4.576
10142SOL    HW131325   4.917   5.656   4.554
10142SOL    HW231326   4.761   5.661   4.505
10143SOL     OW31327   5.022   6.889   1.320
10143SOL    HW131328   4.933   6.856   1.287
10143SOL    HW231329   5.095   6.837   1.275
10144SOL     OW31330   2.928   5.359   3.579
10144SOL    HW131331   2.910   5.457   3.571
10144SOL    HW231332   2.954   5.322   3.490
10145SOL     OW31333   3.193   5.605   6.007
10145SOL    HW131334   3.268   5.555   5.964
10145SOL    HW231335   3.215   5.702   6.009
10146SOL     OW31336   4.743   4.894   4.123
10146SOL    HW131337   4.799   4.902   4.041
10146SOL    HW231338   4.793   4.842   4.193
10147SOL     OW31339   5.129   5.132   4.911
10147SOL    HW131340   5.120   5.034   4.923
10147SOL    HW231341   5.210   5.165   4.961
10148SOL     OW31342   5.529   5.305   1.122
10148SOL    HW131343   5.433   5.331   1.116
10148SOL    HW231344   5.569   5.341   1.206
10149SOL     OW31345   4.321   2.792   0.801
10149SOL    HW131346   4.226   2.812   0.775
10149SOL    HW231347   4.357   2.868   0.856
10150SOL     OW31348   4.873   4.633   1.257
10150SOL    HW131349   4.846   4.668   1.347
10150SOL    HW231350   4.954   4.682   1.225
10151SOL     OW31351   1.475   0.018   5.371
10151SOL    HW131352   1.457   0.115   5.360
10151SOL    HW231353   1.422   6.986   5.304
10152SOL     OW31354   0.079   5.550   3.594
10152SOL    HW131355   0.120   5.583   3.680
10152SOL    HW231356   0.002   5.490   3.615
10153SOL     OW31357   5.324   6.837   4.315
10153SOL    HW131358   5.416   6.876   4.314
10153SOL    HW231359   5.286   6.839   4.223
10154SOL     OW31360   6.654   5.251   5.649
10154SOL    HW131361   6.634   5.182   5.719
10154SOL    HW231362   6.736   5.302   5.676
10155SOL     OW31363   3.608   1.694   6.481
10155SOL    HW131364   3.604   1.594   6.484
10155SOL    HW231365   3.677   1.727   6.545
10156SOL     OW31366   6.034   0.558   2.236
10156SOL    HW131367   6.008   0.477   2.183
10156SOL    HW231368   6.001   0.548   2.330
10157SOL     OW31369   5.625   0.906   5.916
10157SOL    HW131370   5.711   0.939   5.877
10157SOL    HW231371   5.643   0.856   6.000
10158SOL     OW31372   4.204   3.638   6.901
10158SOL    HW131373   4.301   3.617   6.917
10158SOL    HW231374   4.196   3.695   6.818
10159SOL     OW31375   1.643   1.479   5.935
10159SOL    HW131376   1.608   1.498   6.027
10159SOL    HW231377   1.585   1.524   5.867
10160SOL     OW31378   0.339   6.068   3.710
10160SOL    HW131379   0.348   5.969   3.722
10160SOL    HW231380   0.416   6.102   3.656
10161SOL     OW31381   2.945   5.552   5.878
10161SOL    HW131382   2.949   5.584   5.783
10161SOL    HW231383   3.038   5.539   5.913
10162SOL     OW31384   3.308   2.186   6.720
10162SOL    HW131385   3.365   2.250   6.668
10162SOL    HW231386   3.366   2.127   6.775
10163SOL     OW31387   5.916   3.102   5.660
10163SOL    HW131388   5.843   3.168   5.676
10163SOL    HW231389   5.991   3.145   5.609
10164SOL     OW31390   0.288   3.089   4.644
10164SOL    HW131391   0.216   3.146   4.604
10164SOL    HW231392   0.273   3.082   4.743
10165SOL     OW31393   6.946   1.895   3.396
10165SOL    HW131394   6.920   1.892   3.300
10165SOL    HW231395   6.917   1.982   3.436
10166SOL     OW31396   1.777   0.707   2.089
10166SOL    HW131397   1.820   0.619   2.071
10166SOL    HW231398   1.685   0.692   2.125
10167SOL     OW31399   4.623   0.121   0.199
10167SOL    HW131400   4.681   0.115   0.280
10167SOL    HW231401   4.672   0.168   0.125
10168SOL     OW31402   6.466   4.535   4.314
10168SOL    HW131403   6.484   4.518   4.411
10168SOL    HW231404   6.550   4.522   4.261
10169SOL     OW31405   6.234   4.300   3.850
10169SOL    HW131406   6.199   4.271   3.939
10169SOL    HW231407   6.160   4.341   3.797
10170SOL     OW31408   1.896   4.222   4.869
10170SOL    HW131409   1.842   4.232   4.786
10170SOL    HW231410   1.860   4.147   4.924
10171SOL     OW31411   5.761   4.136   6.004
10171SOL    HW131412   5.742   4.150   5.907
10171SOL    HW231413   5.859   4.127   6.019
10172SOL     OW31414   5.289   0.996   2.882
10172SOL    HW131415   5.200   0.981   2.925
10172SOL    HW231416   5.280   1.064   2.809
10173SOL     OW31417   2.186   1.595   2.206
10173SOL    HW131418   2.163   1.509   2.159
10173SOL    HW231419   2.273   1.630   2.172
10174SOL     OW31420   6.956   4.527   2.188
10174SOL    HW131421   6.864   4.535   2.225
10174SOL    HW231422   0.003   4.543   2.261
10175SOL     OW31423   5.986   2.830   5.711
10175SOL    HW131424   6.082   2.808   5.692
10175SOL    HW231425   5.970   2.927   5.692
10176SOL     OW31426   2.020   4.278   6.850
10176SOL    HW131427   1.921   4.289   6.846
10176SOL    HW231428   2.047   4.248   6.942
10177SOL     OW31429   2.071   6.722   6.872
10177SOL    HW131430   2.022   6.641   6.839
10177SOL    HW231431   2.130   6.697   6.949
10178SOL     OW31432   5.562   2.283   4.875
10178SOL    HW131433   5.542   2.377   4.903
10178SOL    HW231434   5.591   2.230   4.955
10179SOL     OW31435   1.215   3.193   6.449
10179SOL    HW131436   1.208   3.095   6.433
10179SOL    HW231437   1.179   3.243   6.371
10180SOL     OW31438   2.806   6.143   5.862
10180SOL    HW131439   2.748   6.131   5.781
10180SOL    HW231440   2.858   6.059   5.878
10181SOL     OW31441   5.658   3.280   1.459
10181SOL    HW131442   5.575   3.336   1.467
10181SOL    HW231443   5.634   3.194   1.414
10182SOL     OW31444   5.737   1.230   0.721
10182SOL    HW131445   5.684   1.168   0.779
10182SOL    HW231446   5.677   1.273   0.653
10183SOL     OW31447   1.732   1.584   6.393
10183SOL    HW131448   1.783   1.511   6.438
10183SOL    HW231449   1.674   1.631   6.460
10184SOL     OW31450   3.874   1.061   6.101
10184SOL    HW131451   3.914   0.971   6.085
10184SOL    HW231452   3.786   1.068   6.054
10185SOL     OW31453   5.110   6.410   0.871
10185SOL    HW131454   5.192   6.360   0.841
10185SOL    HW231455   5.040   6.344   0.899
10186SOL     OW31456   4.566   2.159   3.073
10186SOL    HW131457   4.603   2.250   3.091
10186SOL    HW231458   4.481   2.146   3.125
10187SOL     OW31459   0.844   1.978   1.411
10187SOL    HW131460   0.851   2.067   1.456
10187SOL    HW231461   0.768   1.927   1.449
10188SOL     OW31462   4.290   6.019   0.987
10188SOL    HW131463   4.334   6.078   0.920
10188SOL    HW231464   4.323   6.043   1.079
10189SOL     OW31465   1.311   6.575   5.412
10189SOL    HW131466   1.386   6.578   5.478
10189SOL    HW231467   1.333   6.510   5.339
10190SOL     OW31468   5.554   2.823   0.224
10190SOL    HW131469   5.566   2.739   0.278
10190SOL    HW231470   5.571   2.802   0.127
10191SOL     OW31471   6.461   4.247   0.252
10191SOL    HW131472   6.546   4.285   0.289
10191SOL    HW231473   6.445   4.284   0.160
10192SOL     OW31474   3.141   0.881   5.889
10192SOL    HW131475   3.162   0.881   5.791
10192SOL    HW231476   3.183   0.961   5.932
10193SOL     OW31477   4.978   3.916   0.502
10193SOL    HW131478   4.895   3.861   0.514
10193SOL    HW231479   5.039   3.871   0.437
10194SOL     OW31480   5.600   3.583   5.105
10194SOL    HW131481   5.599   3.497   5.158
10194SOL    HW231482   5.567   3.658   5.163
10195SOL     OW31483   6.725   4.316   1.826
10195SOL    HW131484   6.672   4.233   1.845
10195SOL    HW231485   6.810   4.314   1.879
10196SOL     OW31486   0.563   1.635   4.525
10196SOL    HW131487   0.477   1.647   4.475
10196SOL    HW231488   0.605   1.725   4.540
10197SOL     OW31489   5.772   0.634   5.830
10197SOL    HW131490   5.737   0.712   5.777
10197SOL    HW231491   5.715   0.554   5.812
10198SOL     OW31492   3.572   6.864   2.965
10198SOL    HW131493   3.581   6.875   2.866
10198SOL    HW231494   3.511   6.787   2.984
10199SOL     OW31495   1.579   2.389   5.251
10199SOL    HW131496   1.670   2.347   5.263
10199SOL    HW231497   1.569   2.416   5.155
10200SOL     OW31498   5.914   3.029   1.641
10200SOL    HW131499   5.826   3.050   1.685
10200SOL    HW231500   5.937   3.103   1.577
10201SOL     OW31501   1.182   3.026   0.573
10201SOL    HW131502   1.145   3.016   0.481
10201SOL    HW231503   1.282   3.014   0.570
10202SOL     OW31504   3.694   0.369   5.480
10202SOL    HW131505   3.635   0.436   5.526
10202SOL    HW231506   3.789   0.402   5.480
10203SOL     OW31507   6.413   2.386   4.574
10203SOL    HW131508   6.440   2.416   4.483
10203SOL    HW231509   6.448   2.294   4.591
10204SOL     OW31510   5.311   5.983   6.770
10204SOL    HW131511   5.219   5.946   6.780
10204SOL    HW231512   5.308   6.083   6.775
10205SOL     OW31513   0.868   0.674   6.232
10205SOL    HW131514   0.884   0.708   6.325
10205SOL    HW231515   0.891   0.745   6.166
10206SOL     OW31516   1.489   1.051   5.182
10206SOL    HW131517   1.437   0.979   5.230
10206SOL    HW231518   1.535   1.012   5.103
10207SOL     OW31519   1.575   1.906   5.108
10207SOL    HW131520   1.610   1.835   5.169
10207SOL    HW231521   1.478   1.920   5.125
10208SOL     OW31522   6.702   4.721   5.508
10208SOL    HW131523   6.767   4.795   5.527
10208SOL    HW231524   6.665   4.686   5.594
10209SOL     OW31525   6.708   6.477   6.323
10209SOL    HW131526   6.621   6.429   6.316
10209SOL    HW231527   6.736   6.481   6.419
10210SOL     OW31528   3.419   6.464   2.153
10210SOL    HW131529   3.514   6.459   2.183
10210SOL    HW231530   3.417   6.476   2.053
10211SOL     OW31531   5.151   5.962   5.380
10211SOL    HW131532   5.058   5.953   5.343
10211SOL    HW231533   5.207   6.015   5.317
10212SOL     OW31534   0.309   0.158   6.556
10212SOL    HW131535   0.360   0.165   6.642
10212SOL    HW231536   0.372   0.171   6.479
10213SOL     OW31537   6.064   1.896   0.980
10213SOL    HW131538   5.999   1.901   0.904
10213SOL    HW231539   6.059   1.806   1.022
10214SOL     OW31540   0.781   2.402   0.642
10214SOL    HW131541   0.877   2.399   0.617
10214SOL    HW231542   0.736   2.318   0.612
10215SOL     OW31543   3.150   3.250   2.187
10215SOL    HW131544   3.189   3.207   2.105
10215SOL    HW231545   3.094   3.329   2.160
10216SOL     OW31546   6.457   6.550   3.078
10216SOL    HW131547   6.500   6.543   3.168
10216SOL    HW231548   6.523   6.583   3.011
10217SOL     OW31549   3.394   0.795   3.966
10217SOL    HW131550   3.470   0.780   3.903
10217SOL    HW231551   3.380   0.894   3.977
10218SOL     OW31552   1.418   3.013   2.676
10218SOL    HW131553   1.376   2.923   2.672
10218SOL    HW231554   1.353   3.082   2.644
10219SOL     OW31555   6.663   0.307   2.952
10219SOL    HW131556   6.738   0.253   2.914
10219SOL    HW231557   6.694   0.401   2.969
10220SOL     OW31558   3.553   2.676   0.862
10220SOL    HW131559   3.483   2.610   0.832
10220SOL    HW231560   3.630   2.628   0.903
10221SOL     OW31561   0.668   5.537   4.139
10221SOL    HW131562   0.593   5.503   4.081
10221SOL    HW231563   0.636   5.617   4.190
10222SOL     OW31564   2.904   3.590   4.200
10222SOL    HW131565   2.913   3.672   4.145
10222SOL    HW231566   2.865   3.516   4.145
10223SOL     OW31567   0.626   6.211   1.813
10223SOL    HW131568   0.640   6.120   1.853
10223SOL    HW231569   0.639   6.207   1.714
10224SOL     OW31570   5.581   4.075   3.195
10224SOL    HW131571   5.605   4.172   3.190
10224SOL    HW231572   5.610   4.039   3.284
10225SOL     OW31573   2.702   3.596   5.745
10225SOL    HW131574   2.702   3.670   5.678
10225SOL    HW231575   2.737   3.630   5.832
10226SOL     OW31576   5.041   2.985   6.847
10226SOL    HW131577   4.999   2.982   6.757
10226SOL    HW231578   4.971   3.007   6.916
10227SOL     OW31579   5.044   3.822   1.514
10227SOL    HW131580   5.062   3.902   1.457
10227SOL    HW231581   5.131   3.784   1.547
10228SOL     OW31582   5.792   0.672   0.932
10228SOL    HW131583   5.836   0.748   0.978
10228SOL    HW231584   5.726   0.629   0.994
10229SOL     OW31585   6.482   3.419   4.891
10229SOL    HW131586   6.493   3.414   4.792
10229SOL    HW231587   6.400   3.472   4.913
10230SOL     OW31588   0.120   6.213   2.507
10230SOL    HW131589   0.101   6.140   2.442
10230SOL    HW231590   0.084   6.187   2.597
10231SOL     OW31591   1.301   5.419   2.953
10231SOL    HW131592   1.250   5.498   2.918
10231SOL    HW231593   1.241   5.339   2.953
10232SOL     OW31594   5.205   4.564   4.082
10232SOL    HW131595   5.247   4.589   3.996
10232SOL    HW231596   5.134   4.496   4.066
10233SOL     OW31597   3.403   3.794   6.277
10233SOL    HW131598   3.329   3.771   6.340
10233SOL    HW231599   3.446   3.879   6.307
10234SOL     OW31600   0.542   1.226   2.501
10234SOL    HW131601   0.498   1.285   2.433
10234SOL    HW231602   0.504   1.134   2.495
10235SOL     OW31603   1.316   0.975   2.798
10235SOL    HW131604   1.221   0.946   2.799
10235SOL    HW231605   1.340   1.009   2.706
10236SOL     OW31606   2.380   6.305   1.970
10236SOL    HW131607   2.374   6.327   1.873
10236SOL    HW231608   2.427   6.378   2.018
10237SOL     OW31609   0.565   3.173   5.563
10237SOL    HW131610   0.523   3.262   5.581
10237SOL    HW231611   0.661   3.176   5.590
10238SOL     OW31612   3.519   0.079   2.095
10238SOL    HW131613   3.443   0.137   2.065
10238SOL    HW231614   3.503   0.050   2.189
10239SOL     OW31615   0.773   2.379   4.020
10239SOL    HW131616   0.848   2.344   3.964
10239SOL    HW231617   0.808   2.443   4.088
10240SOL     OW31618   2.420   6.644   0.528
10240SOL    HW131619   2.508   6.690   0.527
10240SOL    HW231620   2.426   6.560   0.583
10241SOL     OW31621   3.969   2.515   1.528
10241SOL    HW131622   3.984   2.589   1.594
10241SOL    HW231623   3.967   2.427   1.576
10242SOL     OW31624   6.670   2.699   6.806
10242SOL    HW131625   6.730   2.637   6.757
10242SOL    HW231626   6.690   2.695   6.904
10243SOL     OW31627   2.790   5.126   1.380
10243SOL    HW131628   2.759   5.200   1.440
10243SOL    HW231629   2.883   5.099   1.406
10244SOL     OW31630   2.962   4.273   1.382
10244SOL    HW131631   3.017   4.356   1.366
10244SOL    HW231632   2.954   4.257   1.480
10245SOL     OW31633   4.694   3.972   0.734
10245SOL    HW131634   4.764   3.902   0.728
10245SOL    HW231635   4.631   3.951   0.809
10246SOL     OW31636   3.503   2.922   3.860
10246SOL    HW131637   3.490   2.856   3.933
10246SOL    HW231638   3.535   3.009   3.898
10247SOL     OW31639   0.472   2.790   4.413
10247SOL    HW131640   0.562   2.807   4.373
10247SOL    HW231641   0.412   2.750   4.343
10248SOL     OW31642   1.249   0.248   3.904
10248SOL    HW131643   1.193   0.320   3.863
10248SOL    HW231644   1.191   0.187   3.958
10249SOL     OW31645   3.017   5.376   6.223
10249SOL    HW131646   2.969   5.354   6.138
10249SOL    HW231647   3.023   5.475   6.233
10250SOL     OW31648   4.454   2.375   0.977
10250SOL    HW131649   4.374   2.433   0.958
10250SOL    HW231650   4.461   2.360   1.076
10251SOL     OW31651   1.286   0.439   4.214
10251SOL    HW131652   1.272   0.490   4.299
10251SOL    HW231653   1.371   0.386   4.221
10252SOL     OW31654   5.467   4.297   6.343
10252SOL    HW131655   5.554   4.345   6.349
10252SOL    HW231656   5.475   4.220   6.280
10253SOL     OW31657   3.418   6.038   6.522
10253SOL    HW131658   3.411   5.938   6.532
10253SOL    HW231659   3.432   6.079   6.612
10254SOL     OW31660   5.892   1.396   5.653
10254SOL    HW131661   5.944   1.413   5.737
10254SOL    HW231662   5.894   1.477   5.595
10255SOL     OW31663   4.249   4.414   1.616
10255SOL    HW131664   4.257   4.455   1.525
10255SOL    HW231665   4.229   4.316   1.607
10256SOL     OW31666   3.769   1.360   3.503
10256SOL    HW131667   3.833   1.314   3.441
10256SOL    HW231668   3.698   1.406   3.450
10257SOL     OW31669   4.017   5.529   3.010
10257SOL    HW131670   3.991   5.612   3.059
10257SOL    HW231671   4.077   5.553   2.933
10258SOL     OW31672   2.010   1.397   1.874
10258SOL    HW131673   1.925   1.352   1.901
10258SOL    HW231674   2.083   1.371   1.937
10259SOL     OW31675   1.881   4.376   3.864
10259SOL    HW131676   1.868   4.277   3.870
10259SOL    HW231677   1.856   4.418   3.952
10260SOL     OW31678   1.141   0.744   3.429
10260SOL    HW131679   1.133   0.818   3.363
10260SOL    HW231680   1.133   0.656   3.382
10261SOL     OW31681   6.926   3.625   1.352
10261SOL    HW131682   6.846   3.568   1.333
10261SOL    HW231683   6.896   3.715   1.384
10262SOL     OW31684   4.520   1.505   0.695
10262SOL    HW131685   4.467   1.585   0.722
10262SOL    HW231686   4.617   1.521   0.714
10263SOL     OW31687   6.001   0.808   2.112
10263SOL    HW131688   5.910   0.841   2.136
10263SOL    HW231689   6.018   0.721   2.157
10264SOL     OW31690   6.820   6.376   6.650
10264SOL    HW131691   6.754   6.320   6.600
10264SOL    HW231692   6.894   6.319   6.683
10265SOL     OW31693   1.826   1.740   1.096
10265SOL    HW131694   1.736   1.700   1.080
10265SOL    HW231695   1.882   1.677   1.149
10266SOL     OW31696   2.628   3.541   1.648
10266SOL    HW131697   2.593   3.449   1.631
10266SOL    HW231698   2.719   3.535   1.690
10267SOL     OW31699   5.556   0.708   1.564
10267SOL    HW131700   5.469   0.733   1.607
10267SOL    HW231701   5.631   0.728   1.627
10268SOL     OW31702   3.663   6.712   1.332
10268SOL    HW131703   3.579   6.756   1.364
10268SOL    HW231704   3.640   6.632   1.276
10269SOL     OW31705   3.034   2.351   0.553
10269SOL    HW131706   3.046   2.283   0.480
10269SOL    HW231707   3.094   2.329   0.630
10270SOL     OW31708   2.645   0.373   2.758
10270SOL    HW131709   2.726   0.425   2.730
10270SOL    HW231710   2.570   0.392   2.695
10271SOL     OW31711   1.075   1.801   6.684
10271SOL    HW131712   1.029   1.839   6.603
10271SOL    HW231713   1.041   1.846   6.766
10272SOL     OW31714   6.075   0.063   4.748
10272SOL    HW131715   6.089   0.052   4.846
10272SOL    HW231716   6.162   0.049   4.700
10273SOL     OW31717   2.070   5.606   3.302
10273SOL    HW131718   2.110   5.684   3.254
10273SOL    HW231719   2.096   5.522   3.256
10274SOL     OW31720   0.918   4.963   5.449
10274SOL    HW131721   0.845   4.994   5.510
10274SOL    HW231722   0.879   4.908   5.375
10275SOL     OW31723   6.676   0.462   2.583
10275SOL    HW131724   6.728   0.492   2.504
10275SOL    HW231725   6.716   0.500   2.666
10276SOL     OW31726   3.694   5.299   5.375
10276SOL    HW131727   3.683   5.365   5.300
10276SOL    HW231728   3.776   5.244   5.358
10277SOL     OW31729   0.187   6.183   4.449
10277SOL    HW131730   0.263   6.198   4.386
10277SOL    HW231731   0.216   6.123   4.523
10278SOL     OW31732   6.582   0.406   5.046
10278SOL    HW131733   6.630   0.339   5.104
10278SOL    HW231734   6.626   0.495   5.056
10279SOL     OW31735   2.213   6.068   4.165
10279SOL    HW131736   2.307   6.101   4.162
10279SOL    HW231737   2.150   6.145   4.149
10280SOL     OW31738   6.408   4.072   0.632
10280SOL    HW131739   6.348   4.044   0.707
10280SOL    HW231740   6.482   4.130   0.668
10281SOL     OW31741   6.827   1.466   3.245
10281SOL    HW131742   6.827   1.374   3.284
10281SOL    HW231743   6.838   1.533   3.318
10282SOL     OW31744   4.830   3.161   3.525
10282SOL    HW131745   4.908   3.151   3.464
10282SOL    HW231746   4.746   3.139   3.475
10283SOL     OW31747   0.529   2.911   1.198
10283SOL    HW131748   0.456   2.853   1.232
10283SOL    HW231749   0.612   2.856   1.183
10284SOL     OW31750   0.044   3.162   3.987
10284SOL    HW131751   7.020   3.078   3.957
10284SOL    HW231752   6.994   3.230   4.011
10285SOL     OW31753   5.768   5.709   5.407
10285SOL    HW131754   5.792   5.664   5.493
10285SOL    HW231755   5.752   5.806   5.423
10286SOL     OW31756   2.897   1.134   3.224
10286SOL    HW131757   2.827   1.121   3.294
10286SOL    HW231758   2.855   1.163   3.139
10287SOL     OW31759   2.270   5.617   2.887
10287SOL    HW131760   2.271   5.647   2.983
10287SOL    HW231761   2.323   5.680   2.832
10288SOL     OW31762   3.786   6.687   5.492
10288SOL    HW131763   3.720   6.759   5.514
10288SOL    HW231764   3.854   6.723   5.428
10289SOL     OW31765   3.458   5.545   6.742
10289SOL    HW131766   3.429   5.555   6.838
10289SOL    HW231767   3.549   5.504   6.739
10290SOL     OW31768   3.405   2.928   1.798
10290SOL    HW131769   3.495   2.957   1.765
10290SOL    HW231770   3.389   2.832   1.773
10291SOL     OW31771   2.174   1.854   2.118
10291SOL    HW131772   2.170   1.848   2.018
10291SOL    HW231773   2.160   1.764   2.158
10292SOL     OW31774   6.212   6.777   6.502
10292SOL    HW131775   6.168   6.813   6.419
10292SOL    HW231776   6.293   6.831   6.524
10293SOL     OW31777   1.051   4.296   4.371
10293SOL    HW131778   1.114   4.324   4.298
10293SOL    HW231779   1.021   4.202   4.354
10294SOL     OW31780   3.536   1.329   2.283
10294SOL    HW131781   3.605   1.262   2.312
10294SOL    HW231782   3.473   1.286   2.219
10295SOL     OW31783   0.724   1.654   6.620
10295SOL    HW131784   0.789   1.579   6.605
10295SOL    HW231785   0.769   1.741   6.601
10296SOL     OW31786   5.866   1.057   5.808
10296SOL    HW131787   5.954   1.062   5.760
10296SOL    HW231788   5.815   1.141   5.791
10297SOL     OW31789   3.658   0.883   6.745
10297SOL    HW131790   3.674   0.982   6.753
10297SOL    HW231791   3.584   0.856   6.807
10298SOL     OW31792   0.721   2.403   1.992
10298SOL    HW131793   0.681   2.343   2.060
10298SOL    HW231794   0.660   2.481   1.975
10299SOL     OW31795   4.195   6.403   3.012
10299SOL    HW131796   4.186   6.438   3.105
10299SOL    HW231797   4.266   6.333   3.009
10300SOL     OW31798   1.087   3.819   1.363
10300SOL    HW131799   1.101   3.891   1.430
10300SOL    HW231800   1.114   3.731   1.402
10301SOL     OW31801   4.440   0.243   6.364
10301SOL    HW131802   4.418   0.148   6.341
10301SOL    HW231803   4.535   0.248   6.395
10302SOL     OW31804   2.892   5.939   5.112
10302SOL    HW131805   2.844   6.024   5.135
10302SOL    HW231806   2.845   5.862   5.155
10303SOL     OW31807   0.745   5.740   4.861
10303SOL    HW131808   0.766   5.817   4.921
10303SOL    HW231809   0.745   5.655   4.913
10304SOL     OW31810   6.296   6.408   0.560
10304SOL    HW131811   6.286   6.387   0.463
10304SOL    HW231812   6.387   6.447   0.577
10305SOL     OW31813   3.138   4.028   5.962
10305SOL    HW131814   3.068   4.092   5.928
10305SOL    HW231815   3.163   3.964   5.889
10306SOL     OW31816   4.536   0.608   1.316
10306SOL    HW131817   4.513   0.513   1.340
10306SOL    HW231818   4.452   0.661   1.305
10307SOL     OW31819   2.122   0.460   5.040
10307SOL    HW131820   2.130   0.369   5.080
10307SOL    HW231821   2.155   0.528   5.105
10308SOL     OW31822   2.509   5.130   2.313
10308SOL    HW131823   2.562   5.172   2.387
10308SOL    HW231824   2.475   5.041   2.343
10309SOL     OW31825   0.044   1.719   4.777
10309SOL    HW131826   0.069   1.816   4.773
10309SOL    HW231827   0.102   1.667   4.715
10310SOL     OW31828   2.265   4.418   5.800
10310SOL    HW131829   2.186   4.358   5.789
10310SOL    HW231830   2.298   4.447   5.711
10311SOL     OW31831   4.713   5.424   6.959
10311SOL    HW131832   4.811   5.409   6.976
10311SOL    HW231833   4.687   5.514   6.995
10312SOL     OW31834   4.299   0.631   2.231
10312SOL    HW131835   4.294   0.678   2.143
10312SOL    HW231836   4.324   0.698   2.302
10313SOL     OW31837   4.999   0.131   3.308
10313SOL    HW131838   4.922   0.191   3.284
10313SOL    HW231839   4.997   0.049   3.251
10314SOL     OW31840   0.353   0.414   1.087
10314SOL    HW131841   0.419   0.486   1.111
10314SOL    HW231842   0.293   0.396   1.165
10315SOL     OW31843   5.592   5.467   3.526
10315SOL    HW131844   5.608   5.549   3.582
10315SOL    HW231845   5.635   5.388   3.569
10316SOL     OW31846   0.571   2.029   6.718
10316SOL    HW131847   0.546   1.936   6.690
10316SOL    HW231848   0.495   2.091   6.698
10317SOL     OW31849   3.767   5.573   5.214
10317SOL    HW131850   3.859   5.609   5.202
10317SOL    HW231851   3.710   5.640   5.261
10318SOL     OW31852   6.261   6.743   0.278
10318SOL    HW131853   6.325   6.715   0.350
10318SOL    HW231854   6.312   6.773   0.197
10319SOL     OW31855   0.644   4.735   3.957
10319SOL    HW131856   0.704   4.808   3.993
10319SOL    HW231857   0.699   4.653   3.941
10320SOL     OW31858   0.394   6.865   3.932
10320SOL    HW131859   0.414   6.884   3.836
10320SOL    HW231860   0.335   6.937   3.969
10321SOL     OW31861   5.224   2.582   2.263
10321SOL    HW131862   5.309   2.530   2.271
10321SOL    HW231863   5.244   2.672   2.224
10322SOL     OW31864   4.592   4.372   5.188
10322SOL    HW131865   4.498   4.346   5.168
10322SOL    HW231866   4.624   4.437   5.119
10323SOL     OW31867   0.565   4.336   5.206
10323SOL    HW131868   0.472   4.368   5.223
10323SOL    HW231869   0.588   4.265   5.272
10324SOL     OW31870   3.311   3.179   1.954
10324SOL    HW131871   3.387   3.233   1.991
10324SOL    HW231872   3.345   3.116   1.885
10325SOL     OW31873   6.956   5.686   3.333
10325SOL    HW131874   0.005   5.622   3.300
10325SOL    HW231875   6.976   5.712   3.427
10326SOL     OW31876   5.313   3.483   6.728
10326SOL    HW131877   5.328   3.482   6.629
10326SOL    HW231878   5.266   3.399   6.755
10327SOL     OW31879   2.178   4.664   1.442
10327SOL    HW131880   2.167   4.676   1.541
10327SOL    HW231881   2.110   4.599   1.408
10328SOL     OW31882   5.824   2.212   1.858
10328SOL    HW131883   5.813   2.310   1.874
10328SOL    HW231884   5.920   2.187   1.873
10329SOL     OW31885   3.764   1.526   2.823
10329SOL    HW131886   3.832   1.496   2.756
10329SOL    HW231887   3.739   1.621   2.805
10330SOL     OW31888   4.303   1.215   1.422
10330SOL    HW131889   4.314   1.130   1.369
10330SOL    HW231890   4.381   1.275   1.403
10331SOL     OW31891   6.273   5.485   7.013
10331SOL    HW131892   6.317   5.399   6.987
10331SOL    HW231893   6.179   5.466   0.021
10332SOL     OW31894   1.063   1.262   6.791
10332SOL    HW131895   1.155   1.283   6.757
10332SOL    HW231896   1.003   1.339   6.773
10333SOL     OW31897   0.550   4.950   4.739
10333SOL    HW131898   0.469   4.902   4.703
10333SOL    HW231899   0.628   4.887   4.741
10334SOL     OW31900   3.197   6.861   3.514
10334SOL    HW131901   3.288   6.855   3.473
10334SOL    HW231902   3.188   6.793   3.587
10335SOL     OW31903   0.668   2.492   5.397
10335SOL    HW131904   0.665   2.493   5.497
10335SOL    HW231905   0.656   2.398   5.365
10336SOL     OW31906   5.017   6.895   3.661
10336SOL    HW131907   5.036   6.991   3.640
10336SOL    HW231908   5.060   6.836   3.592
10337SOL     OW31909   6.707   5.233   6.718
10337SOL    HW131910   6.653   5.259   6.638
10337SOL    HW231911   6.724   5.135   6.716
10338SOL     OW31912   1.419   6.465   1.954
10338SOL    HW131913   1.332   6.485   1.908
10338SOL    HW231914   1.473   6.549   1.961
10339SOL     OW31915   6.240   2.255   5.434
10339SOL    HW131916   6.269   2.236   5.528
10339SOL    HW231917   6.321   2.261   5.375
10340SOL     OW31918   2.313   3.177   6.424
10340SOL    HW131919   2.342   3.190   6.329
10340SOL    HW231920   2.394   3.170   6.482
10341SOL     OW31921   2.230   2.893   2.985
10341SOL    HW131922   2.325   2.859   2.987
10341SOL    HW231923   2.204   2.913   2.891
10342SOL     OW31924   1.262   1.405   3.583
10342SOL    HW131925   1.355   1.438   3.603
10342SOL    HW231926   1.268   1.326   3.522
10343SOL     OW31927   2.924   5.410   2.039
10343SOL    HW131928   2.828   5.386   2.023
10343SOL    HW231929   2.983   5.341   1.998
10344SOL     OW31930   4.258   6.004   5.931
10344SOL    HW131931   4.189   6.072   5.955
10344SOL    HW231932   4.340   6.050   5.896
10345SOL     OW31933   1.798   3.631   4.253
10345SOL    HW131934   1.742   3.609   4.333
10345SOL    HW231935   1.850   3.714   4.272
10346SOL     OW31936   0.071   5.888   0.581
10346SOL    HW131937   0.037   5.971   0.537
10346SOL    HW231938   0.139   5.845   0.521
10347SOL     OW31939   5.208   1.753   3.854
10347SOL    HW131940   5.111   1.772   3.868
10347SOL    HW231941   5.219   1.660   3.819
10348SOL     OW31942   6.641   3.867   0.726
10348SOL    HW131943   6.640   3.967   0.714
10348SOL    HW231944   6.566   3.827   0.674
10349SOL     OW31945   1.233   6.377   6.770
10349SOL    HW131946   1.165   6.307   6.750
10349SOL    HW231947   1.315   6.359   6.716
10350SOL     OW31948   3.571   0.097   6.026
10350SOL    HW131949   3.571   0.028   6.098
10350SOL    HW231950   3.498   0.163   6.042
10351SOL     OW31951   4.016   4.958   6.281
10351SOL    HW131952   4.088   4.892   6.305
10351SOL    HW231953   4.058   5.047   6.261
10352SOL     OW31954   3.421   3.121   5.938
10352SOL    HW131955   3.468   3.201   5.901
10352SOL    HW231956   3.366   3.078   5.867
10353SOL     OW31957   0.587   2.282   4.874
10353SOL    HW131958   0.659   2.340   4.835
10353SOL    HW231959   0.565   2.208   4.810
10354SOL     OW31960   5.625   1.703   1.742
10354SOL    HW131961   5.624   1.748   1.832
10354SOL    HW231962   5.532   1.679   1.716
10355SOL     OW31963   1.585   4.871   2.261
10355SOL    HW131964   1.609   4.819   2.179
10355SOL    HW231965   1.657   4.938   2.281
10356SOL     OW31966   0.021   3.285   4.335
10356SOL    HW131967   6.992   3.369   4.358
10356SOL    HW231968   0.038   3.282   4.237
10357SOL     OW31969   2.743   1.663   0.652
10357SOL    HW131970   2.702   1.678   0.742
10357SOL    HW231971   2.751   1.564   0.635
10358SOL     OW31972   0.205   1.547   2.108
10358SOL    HW131973   0.188   1.630   2.160
10358SOL    HW231974   0.304   1.533   2.099
10359SOL     OW31975   0.652   1.419   1.683
10359SOL    HW131976   0.647   1.519   1.672
10359SOL    HW231977   0.734   1.396   1.737
10360SOL     OW31978   6.330   6.244   3.712
10360SOL    HW131979   6.397   6.301   3.665
10360SOL    HW231980   6.376   6.190   3.782
10361SOL     OW31981   1.896   4.782   1.168
10361SOL    HW131982   1.817   4.743   1.215
10361SOL    HW231983   1.949   4.708   1.126
10362SOL     OW31984   1.456   5.143   3.975
10362SOL    HW131985   1.410   5.188   4.052
10362SOL    HW231986   1.519   5.208   3.932
10363SOL     OW31987   5.367   0.547   4.010
10363SOL    HW131988   5.398   0.596   4.092
10363SOL    HW231989   5.443   0.540   3.945
10364SOL     OW31990   1.018   4.762   1.481
10364SOL    HW131991   0.949   4.824   1.517
10364SOL    HW231992   0.992   4.731   1.390
10365SOL     OW31993   4.301   5.442   6.908
10365SOL    HW131994   4.373   5.450   6.976
10365SOL    HW231995   4.263   5.350   6.910
10366SOL     OW31996   3.330   6.979   3.894
10366SOL    HW131997   3.358   6.884   3.897
10366SOL    HW231998   3.405   0.015   3.857
10367SOL     OW31999   6.594   2.486   3.094
10367SOL    HW132000   6.542   2.433   3.161
10367SOL    HW232001   6.534   2.514   3.019
10368SOL     OW32002   2.845   0.433   1.412
10368SOL    HW132003   2.821   0.410   1.506
10368SOL    HW232004   2.894   0.521   1.411
10369SOL     OW32005   4.167   2.827   0.202
10369SOL    HW132006   4.192   2.841   0.106
10369SOL    HW232007   4.082   2.875   0.221
10370SOL     OW32008   3.433   0.605   5.075
10370SOL    HW132009   3.425   0.507   5.058
10370SOL    HW232010   3.360   0.653   5.027
10371SOL     OW32011   5.017   6.484   5.903
10371SOL    HW132012   5.059   6.397   5.932
10371SOL    HW232013   4.992   6.537   5.984
10372SOL     OW32014   0.778   0.324   3.041
10372SOL    HW132015   0.770   0.225   3.046
10372SOL    HW232016   0.870   0.351   3.070
10373SOL     OW32017   1.470   5.487   4.885
10373SOL    HW132018   1.399   5.435   4.839
10373SOL    HW232019   1.501   5.561   4.825
10374SOL     OW32020   2.582   2.364   4.394
10374SOL    HW132021   2.626   2.394   4.479
10374SOL    HW232022   2.517   2.434   4.364
10375SOL     OW32023   6.572   2.435   0.398
10375SOL    HW132024   6.611   2.402   0.313
10375SOL    HW232025   6.645   2.453   0.464
10376SOL     OW32026   6.462   1.401   3.641
10376SOL    HW132027   6.453   1.501   3.640
10376SOL    HW232028   6.529   1.375   3.710
10377SOL     OW32029   1.182   6.622   4.763
10377SOL    HW132030   1.145   6.646   4.674
10377SOL    HW232031   1.282   6.626   4.761
10378SOL     OW32032   6.738   6.660   6.545
10378SOL    HW132033   6.791   6.584   6.581
10378SOL    HW232034   6.795   6.741   6.536
10379SOL     OW32035   5.161   1.569   4.796
10379SOL    HW132036   5.063   1.582   4.776
10379SOL    HW232037   5.215   1.620   4.729
10380SOL     OW32038   4.419   1.041   3.104
10380SOL    HW132039   4.446   0.960   3.156
10380SOL    HW232040   4.322   1.035   3.080
10381SOL     OW32041   4.328   5.357   4.898
10381SOL    HW132042   4.290   5.446   4.924
10381SOL    HW232043   4.412   5.340   4.951
10382SOL     OW32044   1.944   5.162   0.525
10382SOL    HW132045   1.894   5.179   0.610
10382SOL    HW232046   2.034   5.126   0.546
10383SOL     OW32047   6.486   2.683   6.467
10383SOL    HW132048   6.405   2.638   6.506
10383SOL    HW232049   6.511   2.637   6.382
10384SOL     OW32050   6.107   0.503   0.113
10384SOL    HW132051   6.175   0.575   0.125
10384SOL    HW232052   6.064   0.512   0.023
10385SOL     OW32053   5.250   2.325   6.965
10385SOL    HW132054   5.246   2.422   6.944
10385SOL    HW232055   5.345   2.296   6.972
10386SOL     OW32056   6.243   2.522   6.482
10386SOL    HW132057   6.258   2.476   6.394
10386SOL    HW232058   6.215   2.454   6.550
10387SOL     OW32059   2.198   3.176   2.971
10387SOL    HW132060   2.234   3.219   3.053
10387SOL    HW232061   2.156   3.246   2.913
10388SOL     OW32062   1.458   4.359   2.415
10388SOL    HW132063   1.509   4.382   2.497
10388SOL    HW232064   1.364   4.393   2.423
10389SOL     OW32065   0.271   5.626   3.121
10389SOL    HW132066   0.357   5.632   3.173
10389SOL    HW232067   0.242   5.717   3.094
10390SOL     OW32068   1.893   3.266   3.129
10390SOL    HW132069   1.896   3.189   3.065
10390SOL    HW232070   1.979   3.271   3.179
10391SOL     OW32071   3.513   6.185   5.228
10391SOL    HW132072   3.510   6.255   5.299
10391SOL    HW232073   3.420   6.160   5.201
10392SOL     OW32074   6.714   4.719   6.691
10392SOL    HW132075   6.758   4.634   6.718
10392SOL    HW232076   6.654   4.750   6.766
10393SOL     OW32077   1.467   1.296   4.019
10393SOL    HW132078   1.547   1.297   3.959
10393SOL    HW232079   1.384   1.302   3.963
10394SOL     OW32080   3.125   6.907   0.074
10394SOL    HW132081   3.202   6.845   0.056
10394SOL    HW232082   3.057   6.859   0.131
10395SOL     OW32083   1.064   1.896   4.999
10395SOL    HW132084   1.087   1.821   4.938
10395SOL    HW232085   1.021   1.970   4.946
10396SOL     OW32086   0.598   0.277   5.282
10396SOL    HW132087   0.502   0.307   5.284
10396SOL    HW232088   0.641   0.309   5.198
10397SOL     OW32089   3.951   2.187   2.888
10397SOL    HW132090   3.980   2.281   2.869
10397SOL    HW232091   4.024   2.124   2.861
10398SOL     OW32092   6.679   3.338   2.603
10398SOL    HW132093   6.760   3.297   2.561
10398SOL    HW232094   6.684   3.437   2.595
10399SOL     OW32095   6.403   2.454   5.624
10399SOL    HW132096   6.351   2.379   5.664
10399SOL    HW232097   6.425   2.433   5.529
10400SOL     OW32098   1.950   4.513   1.446
10400SOL    HW132099   1.912   4.600   1.478
10400SOL    HW232100   1.876   4.453   1.416
10401SOL     OW32101   1.218   6.121   1.171
10401SOL    HW132102   1.234   6.037   1.223
10401SOL    HW232103   1.144   6.173   1.213
10402SOL     OW32104   0.619   2.464   4.302
10402SOL    HW132105   0.646   2.556   4.332
10402SOL    HW232106   0.533   2.469   4.252
10403SOL     OW32107   4.458   1.620   2.175
10403SOL    HW132108   4.534   1.568   2.214
10403SOL    HW232109   4.410   1.564   2.108
10404SOL     OW32110   0.026   6.854   3.752
10404SOL    HW132111   6.970   6.882   3.811
10404SOL    HW232112   0.101   6.920   3.761
10405SOL     OW32113   2.132   6.891   6.679
10405SOL    HW132114   2.226   6.917   6.654
10405SOL    HW232115   2.134   6.837   6.763
10406SOL     OW32116   1.883   5.589   5.591
10406SOL    HW132117   1.864   5.515   5.527
10406SOL    HW232118   1.961   5.563   5.649
10407SOL     OW32119   1.427   1.325   5.573
10407SOL    HW132120   1.477   1.409   5.596
10407SOL    HW232121   1.472   1.246   5.614
10408SOL     OW32122   4.137   6.263   3.400
10408SOL    HW132123   4.047   6.305   3.413
10408SOL    HW232124   4.186   6.264   3.487
10409SOL     OW32125   6.379   4.915   2.271
10409SOL    HW132126   6.472   4.936   2.304
10409SOL    HW232127   6.366   4.954   2.180
10410SOL     OW32128   5.991   6.739   0.594
10410SOL    HW132129   6.035   6.652   0.618
10410SOL    HW232130   5.949   6.779   0.675
10411SOL     OW32131   1.672   4.086   2.456
10411SOL    HW132132   1.742   4.070   2.386
10411SOL    HW232133   1.706   4.154   2.521
10412SOL     OW32134   0.032   2.297   6.673
10412SOL    HW132135   6.996   2.379   6.663
10412SOL    HW232136   0.052   2.259   6.582
10413SOL     OW32137   0.122   2.114   5.835
10413SOL    HW132138   0.153   2.156   5.750
10413SOL    HW232139   0.186   2.042   5.861
10414SOL     OW32140   5.740   0.149   4.892
10414SOL    HW132141   5.735   0.118   4.798
10414SOL    HW232142   5.825   0.117   4.934
10415SOL     OW32143   0.542   5.354   3.055
10415SOL    HW132144   0.615   5.304   3.102
10415SOL    HW232145   0.500   5.418   3.119
10416SOL     OW32146   5.086   6.976   0.190
10416SOL    HW132147   5.071   0.005   0.105
10416SOL    HW232148   5.003   6.980   0.246
10417SOL     OW32149   4.289   4.804   4.461
10417SOL    HW132150   4.263   4.770   4.551
10417SOL    HW232151   4.209   4.805   4.401
10418SOL     OW32152   6.679   3.781   0.077
10418SOL    HW132153   6.624   3.859   0.047
10418SOL    HW232154   6.638   3.741   0.159
10419SOL     OW32155   2.105   1.273   4.054
10419SOL    HW132156   2.080   1.367   4.031
10419SOL    HW232157   2.034   1.210   4.024
10420SOL     OW32158   5.537   3.247   4.187
10420SOL    HW132159   5.627   3.225   4.226
10420SOL    HW232160   5.466   3.197   4.236
10421SOL     OW32161   1.390   4.321   3.397
10421SOL    HW132162   1.378   4.288   3.304
10421SOL    HW232163   1.309   4.372   3.426
10422SOL     OW32164   5.938   3.019   5.344
10422SOL    HW132165   5.865   2.984   5.403
10422SOL    HW232166   5.928   3.118   5.334
10423SOL     OW32167   2.299   5.341   3.738
10423SOL    HW132168   2.306   5.433   3.698
10423SOL    HW232169   2.231   5.342   3.811
10424SOL     OW32170   3.393   1.452   0.724
10424SOL    HW132171   3.326   1.512   0.680
10424SOL    HW232172   3.346   1.377   0.770
10425SOL     OW32173   1.837   3.747   0.611
10425SOL    HW132174   1.821   3.815   0.682
10425SOL    HW232175   1.884   3.668   0.650
10426SOL     OW32176   5.902   2.199   6.000
10426SOL    HW132177   5.844   2.270   6.040
10426SOL    HW232178   5.844   2.125   5.965
10427SOL     OW32179   5.568   1.171   3.761
10427SOL    HW132180   5.585   1.267   3.783
10427SOL    HW232181   5.473   1.160   3.734
10428SOL     OW32182   1.769   6.623   5.377
10428SOL    HW132183   1.789   6.675   5.460
10428SOL    HW232184   1.855   6.587   5.340
10429SOL     OW32185   1.828   3.628   1.533
10429SOL    HW132186   1.795   3.715   1.569
10429SOL    HW232187   1.917   3.607   1.573
10430SOL     OW32188   3.066   0.497   4.453
10430SOL    HW132189   2.996   0.489   4.381
10430SOL    HW232190   3.031   0.555   4.527
10431SOL     OW32191   4.069   1.159   4.124
10431SOL    HW132192   3.988   1.173   4.182
10431SOL    HW232193   4.106   1.247   4.096
10432SOL     OW32194   1.095   5.117   0.194
10432SOL    HW132195   1.133   5.134   0.284
10432SOL    HW232196   1.026   5.045   0.199
10433SOL     OW32197   3.994   6.643   3.869
10433SOL    HW132198   4.073   6.668   3.925
10433SOL    HW232199   4.009   6.553   3.828
10434SOL     OW32200   4.457   0.764   6.307
10434SOL    HW132201   4.441   0.823   6.228
10434SOL    HW232202   4.447   0.669   6.280
10435SOL     OW32203   2.582   1.572   1.228
10435SOL    HW132204   2.584   1.670   1.250
10435SOL    HW232205   2.639   1.522   1.294
10436SOL     OW32206   0.799   3.387   4.735
10436SOL    HW132207   0.880   3.350   4.783
10436SOL    HW232208   0.819   3.479   4.703
10437SOL     OW32209   6.676   6.744   5.515
10437SOL    HW132210   6.663   6.755   5.416
10437SOL    HW232211   6.718   6.656   5.534
10438SOL     OW32212   6.743   5.942   0.063
10438SOL    HW132213   6.743   5.996   6.999
10438SOL    HW232214   6.753   5.845   0.040
10439SOL     OW32215   6.542   5.419   5.056
10439SOL    HW132216   6.519   5.486   5.127
10439SOL    HW232217   6.600   5.462   4.988
10440SOL     OW32218   6.209   2.232   0.696
10440SOL    HW132219   6.130   2.201   0.644
10440SOL    HW232220   6.210   2.187   0.785
10441SOL     OW32221   4.672   1.945   6.666
10441SOL    HW132222   4.713   1.882   6.732
10441SOL    HW232223   4.669   2.037   6.705
10442SOL     OW32224   2.056   1.240   4.666
10442SOL    HW132225   1.988   1.181   4.621
10442SOL    HW232226   2.010   1.301   4.730
10443SOL     OW32227   1.260   0.565   0.821
10443SOL    HW132228   1.293   0.474   0.799
10443SOL    HW232229   1.240   0.570   0.919
10444SOL     OW32230   4.377   4.586   4.141
10444SOL    HW132231   4.454   4.616   4.197
10444SOL    HW232232   4.294   4.633   4.172
10445SOL     OW32233   1.119   3.228   4.183
10445SOL    HW132234   1.054   3.274   4.244
10445SOL    HW232235   1.167   3.297   4.128
10446SOL     OW32236   2.266   5.063   5.649
10446SOL    HW132237   2.214   4.988   5.607
10446SOL    HW232238   2.352   5.075   5.599
10447SOL     OW32239   1.011   1.886   2.759
10447SOL    HW132240   0.968   1.841   2.838
10447SOL    HW232241   0.941   1.907   2.691
10448SOL     OW32242   2.038   5.745   2.052
10448SOL    HW132243   2.039   5.664   2.111
10448SOL    HW232244   2.081   5.822   2.099
10449SOL     OW32245   4.252   5.082   4.532
10449SOL    HW132246   4.168   5.085   4.586
10449SOL    HW232247   4.280   4.987   4.519
10450SOL     OW32248   0.199   1.202   4.298
10450SOL    HW132249   0.168   1.293   4.325
10450SOL    HW232250   0.225   1.151   4.380
10451SOL     OW32251   3.327   1.813   4.508
10451SOL    HW132252   3.409   1.783   4.557
10451SOL    HW232253   3.353   1.854   4.420
10452SOL     OW32254   6.427   2.711   4.546
10452SOL    HW132255   6.497   2.754   4.603
10452SOL    HW232256   6.361   2.663   4.605
10453SOL     OW32257   4.328   6.061   4.305
10453SOL    HW132258   4.415   6.081   4.260
10453SOL    HW232259   4.269   6.009   4.243
10454SOL     OW32260   6.673   1.234   6.677
10454SOL    HW132261   6.716   1.145   6.663
10454SOL    HW232262   6.628   1.235   6.767
10455SOL     OW32263   0.292   6.193   3.300
10455SOL    HW132264   0.355   6.220   3.227
10455SOL    HW232265   0.199   6.223   3.277
10456SOL     OW32266   1.078   5.742   6.631
10456SOL    HW132267   1.042   5.651   6.614
10456SOL    HW232268   1.082   5.793   6.545
10457SOL     OW32269   3.797   1.751   6.680
10457SOL    HW132270   3.851   1.668   6.697
10457SOL    HW232271   3.849   1.831   6.711
10458SOL     OW32272   1.101   6.080   6.571
10458SOL    HW132273   1.099   5.994   6.520
10458SOL    HW232274   1.013   6.125   6.563
10459SOL     OW32275   6.116   5.554   1.377
10459SOL    HW132276   6.200   5.594   1.414
10459SOL    HW232277   6.081   5.612   1.304
10460SOL     OW32278   6.235   0.479   0.735
10460SOL    HW132279   6.173   0.551   0.766
10460SOL    HW232280   6.246   0.484   0.636
10461SOL     OW32281   6.923   4.609   6.369
10461SOL    HW132282   6.951   4.701   6.343
10461SOL    HW232283   6.958   4.543   6.302
10462SOL     OW32284   3.525   3.533   6.258
10462SOL    HW132285   3.618   3.567   6.247
10462SOL    HW232286   3.461   3.610   6.258
10463SOL     OW32287   5.050   2.579   6.638
10463SOL    HW132288   5.091   2.489   6.642
10463SOL    HW232289   5.121   2.649   6.635
10464SOL     OW32290   6.653   4.668   1.808
10464SOL    HW132291   6.658   4.663   1.907
10464SOL    HW232292   6.557   4.667   1.779
10465SOL     OW32293   5.666   4.706   1.340
10465SOL    HW132294   5.734   4.729   1.271
10465SOL    HW232295   5.655   4.783   1.402
10466SOL     OW32296   6.050   4.390   6.187
10466SOL    HW132297   6.069   4.300   6.147
10466SOL    HW232298   5.994   4.444   6.125
10467SOL     OW32299   0.109   2.712   6.767
10467SOL    HW132300   0.060   2.639   6.815
10467SOL    HW232301   0.103   2.796   6.822
10468SOL     OW32302   1.704   4.755   4.227
10468SOL    HW132303   1.794   4.755   4.271
10468SOL    HW232304   1.638   4.709   4.285
10469SOL     OW32305   1.172   1.790   3.841
10469SOL    HW132306   1.214   1.872   3.880
10469SOL    HW232307   1.201   1.710   3.893
10470SOL     OW32308   2.043   3.363   2.788
10470SOL    HW132309   2.080   3.308   2.713
10470SOL    HW232310   1.944   3.369   2.779
10471SOL     OW32311   2.222   5.833   6.455
10471SOL    HW132312   2.277   5.914   6.433
10471SOL    HW232313   2.141   5.861   6.507
10472SOL     OW32314   3.753   4.871   6.625
10472SOL    HW132315   3.808   4.951   6.599
10472SOL    HW232316   3.685   4.900   6.693
10473SOL     OW32317   6.271   4.399   0.659
10473SOL    HW132318   6.250   4.314   0.708
10473SOL    HW232319   6.232   4.396   0.567
10474SOL     OW32320   6.313   7.015   4.964
10474SOL    HW132321   6.376   0.065   4.932
10474SOL    HW232322   6.303   6.944   4.894
10475SOL     OW32323   0.910   5.313   1.322
10475SOL    HW132324   0.879   5.368   1.400
10475SOL    HW232325   0.965   5.371   1.262
10476SOL     OW32326   5.061   6.516   1.501
10476SOL    HW132327   5.033   6.529   1.596
10476SOL    HW232328   4.980   6.503   1.444
10477SOL     OW32329   0.001   5.836   3.572
10477SOL    HW132330   0.054   5.785   3.639
10477SOL    HW232331   0.054   5.914   3.539
10478SOL     OW32332   6.775   0.977   6.710
10478SOL    HW132333   6.751   0.892   6.663
10478SOL    HW232334   6.729   0.980   6.799
10479SOL     OW32335   0.713   2.850   1.838
10479SOL    HW132336   0.724   2.925   1.773
10479SOL    HW232337   0.775   2.864   1.916
10480SOL     OW32338   2.683   1.068   3.360
10480SOL    HW132339   2.620   1.116   3.421
10480SOL    HW232340   2.648   1.072   3.266
10481SOL     OW32341   6.562   1.184   0.783
10481SOL    HW132342   6.595   1.121   0.713
10481SOL    HW232343   6.493   1.245   0.745
10482SOL     OW32344   5.659   2.771   3.613
10482SOL    HW132345   5.614   2.787   3.701
10482SOL    HW232346   5.726   2.844   3.596
10483SOL     OW32347   6.582   6.257   0.412
10483SOL    HW132348   6.553   6.295   0.324
10483SOL    HW232349   6.586   6.158   0.406
10484SOL     OW32350   6.399   0.967   2.365
10484SOL    HW132351   6.447   0.922   2.441
10484SOL    HW232352   6.334   1.033   2.401
10485SOL     OW32353   5.108   3.446   5.242
10485SOL    HW132354   5.151   3.478   5.157
10485SOL    HW232355   5.029   3.390   5.220
10486SOL     OW32356   5.340   2.765   2.523
10486SOL    HW132357   5.296   2.817   2.450
10486SOL    HW232358   5.301   2.793   2.612
10487SOL     OW32359   5.129   0.004   1.747
10487SOL    HW132360   5.208   0.033   1.801
10487SOL    HW232361   5.130   0.051   1.659
10488SOL     OW32362   3.039   3.747   0.046
10488SOL    HW132363   3.086   3.832   0.020
10488SOL    HW232364   3.107   3.681   0.079
10489SOL     OW32365   1.281   5.633   4.997
10489SOL    HW132366   1.347   5.577   4.946
10489SOL    HW232367   1.317   5.649   5.089
10490SOL     OW32368   6.577   0.473   4.454
10490SOL    HW132369   6.534   0.502   4.369
10490SOL    HW232370   6.552   0.378   4.473
10491SOL     OW32371   0.357   5.156   5.398
10491SOL    HW132372   0.436   5.208   5.432
10491SOL    HW232373   0.284   5.160   5.466
10492SOL     OW32374   4.331   4.617   5.974
10492SOL    HW132375   4.422   4.584   5.948
10492SOL    HW232376   4.263   4.549   5.947
10493SOL     OW32377   3.372   1.124   0.709
10493SOL    HW132378   3.455   1.180   0.713
10493SOL    HW232379   3.316   1.141   0.790
10494SOL     OW32380   5.690   2.168   4.674
10494SOL    HW132381   5.788   2.189   4.670
10494SOL    HW232382   5.644   2.236   4.731
10495SOL     OW32383   1.693   6.612   0.484
10495SOL    HW132384   1.606   6.585   0.443
10495SOL    HW232385   1.676   6.676   0.559
10496SOL     OW32386   6.283   0.227   5.453
10496SOL    HW132387   6.373   0.197   5.423
10496SOL    HW232388   6.293   0.300   5.521
10497SOL     OW32389   0.640   1.798   6.887
10497SOL    HW132390   0.628   1.761   6.795
10497SOL    HW232391   0.616   1.895   6.888
10498SOL     OW32392   2.955   5.086   6.128
10498SOL    HW132393   2.961   5.101   6.227
10498SOL    HW232394   3.024   5.019   6.100
10499SOL     OW32395   2.635   5.181   3.138
10499SOL    HW132396   2.682   5.206   3.053
10499SOL    HW232397   2.592   5.262   3.178
10500SOL     OW32398   1.724   2.336   6.939
10500SOL    HW132399   1.767   2.383   6.863
10500SOL    HW232400   1.647   2.391   6.972
10501SOL     OW32401   1.093   2.359   3.355
10501SOL    HW132402   0.995   2.346   3.339
10501SOL    HW232403   1.140   2.370   3.268
10502SOL     OW32404   3.151   5.924   5.101
10502SOL    HW132405   3.179   5.841   5.054
10502SOL    HW232406   3.051   5.929   5.103
10503SOL     OW32407   2.755   3.736   5.362
10503SOL    HW132408   2.707   3.649   5.368
10503SOL    HW232409   2.735   3.792   5.442
10504SOL     OW32410   2.326   3.602   0.963
10504SOL    HW132411   2.406   3.640   0.917
10504SOL    HW232412   2.259   3.572   0.895
10505SOL     OW32413   0.470   0.187   0.993
10505SOL    HW132414   0.423   0.263   1.036
10505SOL    HW232415   0.474   0.201   0.894
10506SOL     OW32416   7.005   4.018   5.486
10506SOL    HW132417   6.950   4.075   5.547
10506SOL    HW232418   6.949   3.989   5.408
10507SOL     OW32419   0.964   0.540   4.402
10507SOL    HW132420   1.057   0.569   4.423
10507SOL    HW232421   0.942   0.458   4.453
10508SOL     OW32422   5.218   3.714   2.155
10508SOL    HW132423   5.255   3.637   2.208
10508SOL    HW232424   5.123   3.693   2.129
10509SOL     OW32425   1.632   0.682   5.501
10509SOL    HW132426   1.718   0.652   5.544
10509SOL    HW232427   1.652   0.718   5.410
10510SOL     OW32428   6.149   6.238   0.330
10510SOL    HW132429   6.122   6.289   0.248
10510SOL    HW232430   6.169   6.143   0.305
10511SOL     OW32431   6.922   2.155   0.676
10511SOL    HW132432   6.885   2.106   0.597
10511SOL    HW232433   6.890   2.112   0.760
10512SOL     OW32434   3.421   6.237   6.758
10512SOL    HW132435   3.374   6.302   6.699
10512SOL    HW232436   3.354   6.183   6.809
10513SOL     OW32437   6.780   2.052   0.482
10513SOL    HW132438   6.703   2.082   0.425
10513SOL    HW232439   6.745   2.000   0.561
10514SOL     OW32440   6.647   3.825   1.521
10514SOL    HW132441   6.745   3.845   1.512
10514SOL    HW232442   6.599   3.907   1.550
10515SOL     OW32443   5.954   2.688   4.528
10515SOL    HW132444   6.010   2.624   4.476
10515SOL    HW232445   5.951   2.661   4.624
10516SOL     OW32446   3.681   0.302   0.176
10516SOL    HW132447   3.608   0.277   0.113
10516SOL    HW232448   3.734   0.220   0.199
10517SOL     OW32449   6.894   2.623   2.673
10517SOL    HW132450   6.863   2.582   2.758
10517SOL    HW232451   6.994   2.629   2.673
10518SOL     OW32452   0.803   6.830   2.621
10518SOL    HW132453   0.767   6.923   2.621
10518SOL    HW232454   0.903   6.833   2.621
10519SOL     OW32455   3.211   3.568   5.245
10519SOL    HW132456   3.207   3.560   5.145
10519SOL    HW232457   3.293   3.521   5.279
10520SOL     OW32458   3.943   4.213   6.228
10520SOL    HW132459   3.881   4.196   6.151
10520SOL    HW232460   4.025   4.260   6.195
10521SOL     OW32461   6.547   5.329   2.170
10521SOL    HW132462   6.481   5.373   2.230
10521SOL    HW232463   6.639   5.346   2.204
10522SOL     OW32464   6.383   0.097   1.974
10522SOL    HW132465   6.322   0.021   1.948
10522SOL    HW232466   6.472   0.061   2.001
10523SOL     OW32467   0.137   5.845   6.837
10523SOL    HW132468   0.107   5.920   6.779
10523SOL    HW232469   0.146   5.876   6.931
10524SOL     OW32470   4.301   0.675   4.399
10524SOL    HW132471   4.273   0.586   4.434
10524SOL    HW232472   4.236   0.745   4.430
10525SOL     OW32473   2.812   6.356   5.006
10525SOL    HW132474   2.835   6.422   4.934
10525SOL    HW232475   2.867   6.374   5.087
10526SOL     OW32476   5.712   6.954   1.864
10526SOL    HW132477   5.758   7.002   1.939
10526SOL    HW232478   5.775   6.886   1.825
10527SOL     OW32479   1.555   2.884   4.463
10527SOL    HW132480   1.521   2.790   4.461
10527SOL    HW232481   1.640   2.887   4.515
10528SOL     OW32482   6.627   4.511   5.300
10528SOL    HW132483   6.641   4.589   5.362
10528SOL    HW232484   6.713   4.489   5.254
10529SOL     OW32485   6.175   6.253   3.986
10529SOL    HW132486   6.265   6.224   3.952
10529SOL    HW232487   6.152   6.342   3.946
10530SOL     OW32488   2.177   1.637   5.817
10530SOL    HW132489   2.248   1.620   5.749
10530SOL    HW232490   2.211   1.613   5.908
10531SOL     OW32491   2.173   2.237   5.921
10531SOL    HW132492   2.272   2.237   5.906
10531SOL    HW232493   2.135   2.147   5.899
10532SOL     OW32494   3.421   3.209   5.388
10532SOL    HW132495   3.329   3.249   5.385
10532SOL    HW232496   3.433   3.147   5.311
10533SOL     OW32497   2.472   0.640   5.941
10533SOL    HW132498   2.441   0.696   6.017
10533SOL    HW232499   2.542   0.576   5.973
10534SOL     OW32500   6.135   6.042   1.362
10534SOL    HW132501   6.062   5.974   1.366
10534SOL    HW232502   6.200   6.026   1.436
10535SOL     OW32503   0.991   1.426   2.536
10535SOL    HW132504   1.012   1.367   2.459
10535SOL    HW232505   0.902   1.401   2.574
10536SOL     OW32506   5.039   6.557   4.073
10536SOL    HW132507   4.968   6.619   4.107
10536SOL    HW232508   5.033   6.550   3.974
10537SOL     OW32509   0.246   5.304   1.382
10537SOL    HW132510   0.212   5.371   1.448
10537SOL    HW232511   0.241   5.342   1.290
10538SOL     OW32512   4.497   4.086   6.868
10538SOL    HW132513   4.397   4.093   6.858
10538SOL    HW232514   4.521   3.993   6.897
10539SOL     OW32515   0.992   3.645   5.725
10539SOL    HW132516   0.927   3.623   5.798
10539SOL    HW232517   0.960   3.608   5.638
10540SOL     OW32518   3.205   0.657   0.215
10540SOL    HW132519   3.304   0.648   0.224
10540SOL    HW232520   3.160   0.577   0.256
10541SOL     OW32521   4.820   2.267   0.639
10541SOL    HW132522   4.866   2.315   0.713
10541SOL    HW232523   4.738   2.317   0.612
10542SOL     OW32524   1.582   2.397   0.273
10542SOL    HW132525   1.662   2.340   0.289
10542SOL    HW232526   1.533   2.365   0.192
10543SOL     OW32527   2.746   0.838   5.517
10543SOL    HW132528   2.738   0.816   5.614
10543SOL    HW232529   2.794   0.764   5.469
10544SOL     OW32530   0.297   2.298   2.150
10544SOL    HW132531   0.334   2.391   2.153
10544SOL    HW232532   0.314   2.259   2.060
10545SOL     OW32533   5.388   0.781   3.392
10545SOL    HW132534   5.418   0.775   3.488
10545SOL    HW232535   5.299   0.737   3.383
10546SOL     OW32536   3.650   1.069   4.970
10546SOL    HW132537   3.705   1.152   4.963
10546SOL    HW232538   3.694   0.996   4.918
10547SOL     OW32539   4.157   0.927   1.053
10547SOL    HW132540   4.123   0.851   1.109
10547SOL    HW232541   4.090   0.949   0.982
10548SOL     OW32542   4.771   4.607   5.125
10548SOL    HW132543   4.771   4.593   5.026
10548SOL    HW232544   4.842   4.550   5.166
10549SOL     OW32545   1.341   0.878   1.482
10549SOL    HW132546   1.367   0.881   1.579
10549SOL    HW232547   1.407   0.929   1.428
10550SOL     OW32548   5.514   0.103   5.317
10550SOL    HW132549   5.438   0.144   5.368
10550SOL    HW232550   5.579   0.174   5.290
10551SOL     OW32551   1.618   2.696   5.863
10551SOL    HW132552   1.693   2.761   5.877
10551SOL    HW232553   1.531   2.744   5.865
10552SOL     OW32554   3.087   2.011   5.079
10552SOL    HW132555   3.173   1.968   5.053
10552SOL    HW232556   3.083   2.104   5.041
10553SOL     OW32557   3.012   4.693   6.143
10553SOL    HW132558   3.056   4.770   6.097
10553SOL    HW232559   2.935   4.661   6.087
10554SOL     OW32560   6.349   4.486   5.450
10554SOL    HW132561   6.435   4.496   5.399
10554SOL    HW232562   6.273   4.517   5.393
10555SOL     OW32563   3.466   2.339   1.401
10555SOL    HW132564   3.541   2.280   1.372
10555SOL    HW232565   3.481   2.367   1.496
10556SOL     OW32566   2.010   3.411   4.264
10556SOL    HW132567   2.042   3.328   4.309
10556SOL    HW232568   1.924   3.441   4.307
10557SOL     OW32569   5.947   1.746   3.698
10557SOL    HW132570   5.890   1.721   3.619
10557SOL    HW232571   6.041   1.715   3.682
10558SOL     OW32572   5.273   6.009   4.886
10558SOL    HW132573   5.296   5.969   4.797
10558SOL    HW232574   5.250   5.936   4.950
10559SOL     OW32575   4.712   2.304   0.919
10559SOL    HW132576   4.614   2.323   0.924
10559SOL    HW232577   4.727   2.210   0.887
10560SOL     OW32578   0.327   3.185   4.129
10560SOL    HW132579   0.242   3.165   4.080
10560SOL    HW232580   0.386   3.241   4.071
10561SOL     OW32581   2.811   4.286   6.223
10561SOL    HW132582   2.789   4.382   6.239
10561SOL    HW232583   2.846   4.274   6.130
10562SOL     OW32584   3.547   1.304   0.512
10562SOL    HW132585   3.460   1.334   0.474
10562SOL    HW232586   3.599   1.254   0.443
10563SOL     OW32587   1.598   1.899   3.828
10563SOL    HW132588   1.682   1.946   3.853
10563SOL    HW232589   1.579   1.826   3.894
10564SOL     OW32590   0.102   2.209   1.724
10564SOL    HW132591   0.186   2.161   1.702
10564SOL    HW232592   0.121   2.280   1.792
10565SOL     OW32593   5.333   1.589   5.152
10565SOL    HW132594   5.416   1.537   5.133
10565SOL    HW232595   5.321   1.659   5.083
10566SOL     OW32596   3.937   5.039   6.547
10566SOL    HW132597   3.965   4.948   6.517
10566SOL    HW232598   4.017   5.089   6.582
10567SOL     OW32599   2.202   4.707   4.095
10567SOL    HW132600   2.289   4.738   4.133
10567SOL    HW232601   2.219   4.657   4.009
10568SOL     OW32602   3.879   1.911   3.010
10568SOL    HW132603   3.826   1.985   2.967
10568SOL    HW232604   3.959   1.891   2.954
10569SOL     OW32605   6.092   3.171   3.189
10569SOL    HW132606   6.009   3.135   3.233
10569SOL    HW232607   6.115   3.260   3.229
10570SOL     OW32608   0.934   4.115   1.762
10570SOL    HW132609   0.989   4.164   1.830
10570SOL    HW232610   0.918   4.174   1.683
10571SOL     OW32611   6.170   6.602   5.260
10571SOL    HW132612   6.199   6.513   5.226
10571SOL    HW232613   6.231   6.673   5.226
10572SOL     OW32614   6.447   3.009   1.638
10572SOL    HW132615   6.395   2.974   1.716
10572SOL    HW232616   6.507   3.083   1.668
10573SOL     OW32617   6.269   4.531   6.147
10573SOL    HW132618   6.195   4.474   6.183
10573SOL    HW232619   6.356   4.500   6.185
10574SOL     OW32620   0.639   2.295   3.084
10574SOL    HW132621   0.553   2.243   3.083
10574SOL    HW232622   0.624   2.385   3.042
10575SOL     OW32623   0.631   6.548   5.905
10575SOL    HW132624   0.580   6.531   5.989
10575SOL    HW232625   0.663   6.462   5.867
10576SOL     OW32626   1.515   5.055   2.955
10576SOL    HW132627   1.550   5.129   2.898
10576SOL    HW232628   1.455   5.094   3.026
10577SOL     OW32629   0.712   3.539   5.730
10577SOL    HW132630   0.655   3.597   5.788
10577SOL    HW232631   0.725   3.450   5.775
10578SOL     OW32632   5.704   0.844   5.612
10578SOL    HW132633   5.714   0.942   5.595
10578SOL    HW232634   5.608   0.822   5.626
10579SOL     OW32635   4.907   0.303   0.578
10579SOL    HW132636   4.833   0.282   0.641
10579SOL    HW232637   4.965   0.222   0.567
10580SOL     OW32638   6.107   5.891   0.590
10580SOL    HW132639   6.167   5.880   0.669
10580SOL    HW232640   6.141   5.836   0.514
10581SOL     OW32641   4.483   1.980   3.615
10581SOL    HW132642   4.511   1.888   3.589
10581SOL    HW232643   4.418   2.015   3.547
10582SOL     OW32644   3.112   4.882   0.360
10582SOL    HW132645   3.124   4.835   0.447
10582SOL    HW232646   3.192   4.939   0.342
10583SOL     OW32647   4.199   0.994   0.682
10583SOL    HW132648   4.267   1.067   0.684
10583SOL    HW232649   4.124   1.018   0.744
10584SOL     OW32650   6.625   0.409   1.493
10584SOL    HW132651   6.723   0.400   1.479
10584SOL    HW232652   6.576   0.377   1.411
10585SOL     OW32653   1.982   4.308   6.366
10585SOL    HW132654   2.079   4.290   6.349
10585SOL    HW232655   1.957   4.395   6.323
10586SOL     OW32656   4.637   1.497   0.230
10586SOL    HW132657   4.696   1.555   0.286
10586SOL    HW232658   4.694   1.438   0.172
10587SOL     OW32659   6.073   3.514   0.752
10587SOL    HW132660   6.153   3.555   0.710
10587SOL    HW232661   6.060   3.421   0.716
10588SOL     OW32662   1.244   5.022   3.191
10588SOL    HW132663   1.291   5.078   3.259
10588SOL    HW232664   1.269   4.926   3.205
10589SOL     OW32665   6.064   1.287   4.338
10589SOL    HW132666   6.007   1.319   4.413
10589SOL    HW232667   6.045   1.340   4.256
10590SOL     OW32668   1.795   0.694   4.919
10590SOL    HW132669   1.841   0.651   4.996
10590SOL    HW232670   1.836   0.783   4.899
10591SOL     OW32671   1.370   2.262   0.602
10591SOL    HW132672   1.463   2.241   0.632
10591SOL    HW232673   1.308   2.190   0.634
10592SOL     OW32674   6.359   1.404   6.787
10592SOL    HW132675   6.271   1.357   6.779
10592SOL    HW232676   6.354   1.473   6.859
10593SOL     OW32677   1.793   4.741   1.564
10593SOL    HW132678   1.844   4.812   1.612
10593SOL    HW232679   1.701   4.734   1.602
10594SOL     OW32680   0.922   1.900   4.273
10594SOL    HW132681   0.928   1.822   4.211
10594SOL    HW232682   0.983   1.885   4.351
10595SOL     OW32683   2.251   6.108   5.346
10595SOL    HW132684   2.314   6.034   5.323
10595SOL    HW232685   2.296   6.196   5.329
10596SOL     OW32686   3.475   0.637   2.258
10596SOL    HW132687   3.459   0.636   2.357
10596SOL    HW232688   3.538   0.710   2.235
10597SOL     OW32689   1.889   0.337   3.696
10597SOL    HW132690   1.872   0.434   3.715
10597SOL    HW232691   1.803   0.286   3.703
10598SOL     OW32692   2.053   1.592   6.813
10598SOL    HW132693   2.087   1.540   6.735
10598SOL    HW232694   2.130   1.622   6.869
10599SOL     OW32695   5.183   0.754   6.653
10599SOL    HW132696   5.114   0.792   6.592
10599SOL    HW232697   5.186   0.655   6.641
10600SOL     OW32698   1.564   2.346   5.606
10600SOL    HW132699   1.660   2.325   5.623
10600SOL    HW232700   1.551   2.445   5.608
10601SOL     OW32701   3.497   5.770   5.673
10601SOL    HW132702   3.563   5.699   5.650
10601SOL    HW232703   3.544   5.858   5.685
10602SOL     OW32704   4.411   0.961   1.564
10602SOL    HW132705   4.477   0.995   1.632
10602SOL    HW232706   4.422   0.862   1.553
10603SOL     OW32707   0.631   4.980   4.405
10603SOL    HW132708   0.619   5.075   4.378
10603SOL    HW232709   0.727   4.961   4.424
10604SOL     OW32710   6.651   4.097   5.070
10604SOL    HW132711   6.621   4.109   4.975
10604SOL    HW232712   6.623   4.177   5.123
10605SOL     OW32713   2.104   5.354   6.041
10605SOL    HW132714   2.100   5.368   6.140
10605SOL    HW232715   2.015   5.323   6.008
10606SOL     OW32716   0.202   0.753   3.018
10606SOL    HW132717   0.207   0.852   3.003
10606SOL    HW232718   0.289   0.720   3.054
10607SOL     OW32719   5.721   4.901   6.880
10607SOL    HW132720   5.699   4.973   6.814
10607SOL    HW232721   5.711   4.812   6.836
10608SOL     OW32722   5.915   0.744   2.823
10608SOL    HW132723   5.992   0.740   2.760
10608SOL    HW232724   5.909   0.658   2.874
10609SOL     OW32725   3.674   6.839   1.964
10609SOL    HW132726   3.770   6.824   1.941
10609SOL    HW232727   3.656   6.936   1.975
10610SOL     OW32728   1.847   3.862   4.710
10610SOL    HW132729   1.821   3.907   4.795
10610SOL    HW232730   1.946   3.864   4.700
10611SOL     OW32731   4.946   2.109   6.025
10611SOL    HW132732   4.929   2.052   6.106
10611SOL    HW232733   5.035   2.153   6.033
10612SOL     OW32734   1.238   6.451   0.841
10612SOL    HW132735   1.316   6.440   0.903
10612SOL    HW232736   1.158   6.481   0.893
10613SOL     OW32737   0.546   6.300   6.711
10613SOL    HW132738   0.612   6.232   6.742
10613SOL    HW232739   0.575   6.337   6.622
10614SOL     OW32740   6.823   0.847   4.219
10614SOL    HW132741   6.733   0.818   4.187
10614SOL    HW232742   6.840   0.810   4.310
10615SOL     OW32743   0.099   5.805   5.479
10615SOL    HW132744   0.004   5.817   5.509
10615SOL    HW232745   0.155   5.880   5.514
10616SOL     OW32746   3.170   6.125   0.572
10616SOL    HW132747   3.259   6.159   0.541
10616SOL    HW232748   3.178   6.028   0.595
10617SOL     OW32749   6.892   2.150   6.499
10617SOL    HW132750   6.838   2.155   6.583
10617SOL    HW232751   6.984   2.117   6.520
10618SOL     OW32752   6.115   4.131   1.378
10618SOL    HW132753   6.169   4.063   1.329
10618SOL    HW232754   6.175   4.186   1.436
10619SOL     OW32755   0.346   3.964   3.523
10619SOL    HW132756   0.260   3.986   3.569
10619SOL    HW232757   0.413   4.036   3.543
10620SOL     OW32758   1.290   5.825   4.412
10620SOL    HW132759   1.206   5.877   4.420
10620SOL    HW232760   1.278   5.736   4.456
10621SOL     OW32761   2.696   6.436   0.614
10621SOL    HW132762   2.775   6.377   0.634
10621SOL    HW232763   2.637   6.441   0.694
10622SOL     OW32764   4.556   1.922   1.622
10622SOL    HW132765   4.638   1.933   1.678
10622SOL    HW232766   4.475   1.943   1.677
10623SOL     OW32767   6.949   0.877   3.997
10623SOL    HW132768   6.985   0.970   3.988
10623SOL    HW232769   6.908   0.866   4.087
10624SOL     OW32770   2.704   1.802   4.368
10624SOL    HW132771   2.618   1.812   4.319
10624SOL    HW232772   2.748   1.891   4.378
10625SOL     OW32773   0.225   3.231   0.306
10625SOL    HW132774   0.215   3.310   0.246
10625SOL    HW232775   0.134   3.202   0.338
10626SOL     OW32776   6.231   1.487   1.725
10626SOL    HW132777   6.302   1.508   1.658
10626SOL    HW232778   6.143   1.477   1.678
10627SOL     OW32779   6.526   5.566   4.601
10627SOL    HW132780   6.430   5.595   4.599
10627SOL    HW232781   6.530   5.466   4.599
10628SOL     OW32782   7.006   6.178   6.055
10628SOL    HW132783   6.911   6.148   6.047
10628SOL    HW232784   0.018   6.212   5.967
10629SOL     OW32785   2.757   5.290   6.075
10629SOL    HW132786   2.802   5.202   6.091
10629SOL    HW232787   2.659   5.275   6.065
10630SOL     OW32788   6.526   0.893   2.930
10630SOL    HW132789   6.556   0.908   3.024
10630SOL    HW232790   6.596   0.840   2.881
10631SOL     OW32791   1.024   6.842   5.064
10631SOL    HW132792   1.100   6.905   5.077
10631SOL    HW232793   1.040   6.759   5.117
10632SOL     OW32794   0.523   3.087   5.297
10632SOL    HW132795   0.514   3.116   5.392
10632SOL    HW232796   0.505   2.989   5.290
10633SOL     OW32797   1.253   4.767   0.669
10633SOL    HW132798   1.201   4.763   0.754
10633SOL    HW232799   1.193   4.796   0.595
10634SOL     OW32800   4.012   6.501   1.494
10634SOL    HW132801   3.917   6.493   1.525
10634SOL    HW232802   4.017   6.564   1.417
10635SOL     OW32803   1.617   0.958   1.385
10635SOL    HW132804   1.624   0.977   1.483
10635SOL    HW232805   1.702   0.983   1.340
10636SOL     OW32806   6.369   1.405   0.591
10636SOL    HW132807   6.308   1.326   0.596
10636SOL    HW232808   6.397   1.431   0.683
10637SOL     OW32809   4.127   4.654   5.593
10637SOL    HW132810   4.172   4.719   5.531
10637SOL    HW232811   4.196   4.605   5.646
10638SOL     OW32812   6.699   0.642   5.753
10638SOL    HW132813   6.749   0.578   5.812
10638SOL    HW232814   6.764   0.692   5.696
10639SOL     OW32815   3.061   1.591   5.464
10639SOL    HW132816   3.000   1.669   5.451
10639SOL    HW232817   3.108   1.601   5.552
10640SOL     OW32818   4.149   6.346   1.049
10640SOL    HW132819   4.137   6.416   1.119
10640SOL    HW232820   4.069   6.286   1.048
10641SOL     OW32821   4.123   0.643   6.502
10641SOL    HW132822   4.141   0.700   6.582
10641SOL    HW232823   4.081   0.698   6.430
10642SOL     OW32824   0.008   4.176   0.702
10642SOL    HW132825   6.958   4.136   0.643
10642SOL    HW232826   6.995   4.177   0.797
10643SOL     OW32827   4.132   3.107   5.339
10643SOL    HW132828   4.135   3.146   5.431
10643SOL    HW232829   4.170   3.015   5.340
10644SOL     OW32830   3.323   1.512   5.047
10644SOL    HW132831   3.293   1.495   5.141
10644SOL    HW232832   3.362   1.429   5.008
10645SOL     OW32833   2.091   6.843   5.388
10645SOL    HW132834   2.124   6.869   5.479
10645SOL    HW232835   2.035   6.760   5.396
10646SOL     OW32836   0.823   4.500   6.570
10646SOL    HW132837   0.827   4.517   6.669
10646SOL    HW232838   0.731   4.473   6.544
10647SOL     OW32839   0.532   5.378   0.693
10647SOL    HW132840   0.473   5.380   0.612
10647SOL    HW232841   0.613   5.323   0.673
10648SOL     OW32842   4.657   5.108   6.276
10648SOL    HW132843   4.653   5.167   6.195
10648SOL    HW232844   4.660   5.164   6.358
10649SOL     OW32845   0.176   4.418   5.984
10649SOL    HW132846   0.276   4.421   5.983
10649SOL    HW232847   0.143   4.445   6.074
10650SOL     OW32848   3.044   1.124   4.416
10650SOL    HW132849   3.128   1.098   4.367
10650SOL    HW232850   3.030   1.063   4.494
10651SOL     OW32851   2.771   0.078   5.325
10651SOL    HW132852   2.759   6.999   5.316
10651SOL    HW232853   2.767   0.103   5.422
10652SOL     OW32854   3.982   0.781   0.361
10652SOL    HW132855   4.013   0.876   0.356
10652SOL    HW232856   3.883   0.777   0.352
10653SOL     OW32857   5.914   2.753   4.057
10653SOL    HW132858   5.987   2.798   4.108
10653SOL    HW232859   5.929   2.766   3.959
10654SOL     OW32860   4.400   0.988   1.240
10654SOL    HW132861   4.451   0.974   1.325
10654SOL    HW232862   4.336   0.912   1.227
10655SOL     OW32863   3.271   5.495   1.450
10655SOL    HW132864   3.172   5.493   1.457
10655SOL    HW232865   3.304   5.589   1.464
10656SOL     OW32866   6.428   2.916   6.087
10656SOL    HW132867   6.509   2.930   6.145
10656SOL    HW232868   6.393   3.004   6.057
10657SOL     OW32869   6.096   0.160   1.551
10657SOL    HW132870   6.185   0.114   1.544
10657SOL    HW232871   6.109   0.252   1.588
10658SOL     OW32872   0.683   6.769   4.886
10658SOL    HW132873   0.717   6.686   4.931
10658SOL    HW232874   0.697   6.848   4.947
10659SOL     OW32875   5.090   0.995   0.684
10659SOL    HW132876   5.127   0.906   0.656
10659SOL    HW232877   5.150   1.036   0.752
10660SOL     OW32878   5.365   5.121   5.698
10660SOL    HW132879   5.286   5.169   5.660
10660SOL    HW232880   5.364   5.025   5.669
10661SOL     OW32881   1.068   0.289   2.155
10661SOL    HW132882   1.062   0.385   2.128
10661SOL    HW232883   0.981   0.262   2.198
10662SOL     OW32884   5.610   1.708   0.779
10662SOL    HW132885   5.603   1.808   0.780
10662SOL    HW232886   5.562   1.672   0.700
10663SOL     OW32887   0.804   0.979   0.387
10663SOL    HW132888   0.872   0.948   0.320
10663SOL    HW232889   0.758   1.061   0.352
10664SOL     OW32890   2.011   5.046   6.222
10664SOL    HW132891   1.959   5.131   6.232
10664SOL    HW232892   2.085   5.060   6.156
10665SOL     OW32893   5.755   1.186   6.724
10665SOL    HW132894   5.754   1.195   6.824
10665SOL    HW232895   5.849   1.174   6.693
10666SOL     OW32896   0.867   0.092   0.311
10666SOL    HW132897   0.844   0.190   0.309
10666SOL    HW232898   0.964   0.082   0.330
10667SOL     OW32899   3.436   2.249   5.568
10667SOL    HW132900   3.421   2.194   5.486
10667SOL    HW232901   3.428   2.191   5.649
10668SOL     OW32902   2.289   0.785   6.554
10668SOL    HW132903   2.374   0.773   6.504
10668SOL    HW232904   2.227   0.709   6.533
10669SOL     OW32905   1.321   6.498   6.990
10669SOL    HW132906   1.246   6.504   0.036
10669SOL    HW232907   1.289   6.449   6.909
10670SOL     OW32908   6.887   4.913   5.056
10670SOL    HW132909   6.890   4.959   4.968
10670SOL    HW232910   6.979   4.911   5.096
10671SOL     OW32911   1.844   2.092   3.561
10671SOL    HW132912   1.840   2.140   3.474
10671SOL    HW232913   1.807   2.152   3.633
10672SOL     OW32914   0.349   2.484   1.166
10672SOL    HW132915   0.282   2.506   1.096
10672SOL    HW232916   0.321   2.402   1.216
10673SOL     OW32917   3.400   3.534   4.797
10673SOL    HW132918   3.491   3.558   4.763
10673SOL    HW232919   3.406   3.452   4.854
10674SOL     OW32920   3.935   1.470   2.604
10674SOL    HW132921   3.993   1.552   2.602
10674SOL    HW232922   3.856   1.485   2.545
10675SOL     OW32923   0.401   0.960   6.330
10675SOL    HW132924   0.455   0.942   6.247
10675SOL    HW232925   0.450   0.926   6.410
10676SOL     OW32926   6.430   6.914   0.077
10676SOL    HW132927   6.422   6.971   7.015
10676SOL    HW232928   6.526   6.889   0.090
10677SOL     OW32929   6.503   1.345   0.350
10677SOL    HW132930   6.428   1.379   0.407
10677SOL    HW232931   6.580   1.317   0.409
10678SOL     OW32932   2.010   5.429   3.595
10678SOL    HW132933   2.018   5.529   3.590
10678SOL    HW232934   2.099   5.390   3.619
10679SOL     OW32935   5.355   5.334   3.474
10679SOL    HW132936   5.396   5.248   3.503
10679SOL    HW232937   5.416   5.410   3.499
10680SOL     OW32938   1.155   2.632   3.726
10680SOL    HW132939   1.224   2.657   3.657
10680SOL    HW232940   1.070   2.605   3.680
10681SOL     OW32941   0.428   2.084   6.359
10681SOL    HW132942   0.348   2.060   6.303
10681SOL    HW232943   0.490   2.006   6.363
10682SOL     OW32944   6.291   2.001   2.417
10682SOL    HW132945   6.304   2.099   2.407
10682SOL    HW232946   6.380   1.955   2.420
10683SOL     OW32947   1.654   0.617   3.963
10683SOL    HW132948   1.738   0.628   3.911
10683SOL    HW232949   1.670   0.639   4.059
10684SOL     OW32950   5.649   6.059   0.913
10684SOL    HW132951   5.593   6.052   0.830
10684SOL    HW232952   5.727   5.997   0.905
10685SOL     OW32953   6.409   2.790   2.341
10685SOL    HW132954   6.380   2.753   2.429
10685SOL    HW232955   6.497   2.750   2.316
10686SOL     OW32956   4.639   4.324   0.680
10686SOL    HW132957   4.568   4.296   0.615
10686SOL    HW232958   4.602   4.394   0.742
10687SOL     OW32959   6.926   5.397   1.329
10687SOL    HW132960   6.832   5.371   1.311
10687SOL    HW232961   6.982   5.315   1.343
10688SOL     OW32962   6.968   5.643   0.987
10688SOL    HW132963   0.005   5.579   1.038
10688SOL    HW232964   6.875   5.639   1.022
10689SOL     OW32965   0.869   0.449   1.477
10689SOL    HW132966   0.844   0.491   1.390
10689SOL    HW232967   0.947   0.388   1.464
10690SOL     OW32968   4.977   6.545   2.755
10690SOL    HW132969   5.015   6.622   2.807
10690SOL    HW232970   5.046   6.473   2.746
10691SOL     OW32971   6.094   1.726   1.431
10691SOL    HW132972   6.144   1.649   1.393
10691SOL    HW232973   6.028   1.694   1.499
10692SOL     OW32974   5.738   6.506   4.145
10692SOL    HW132975   5.838   6.500   4.148
10692SOL    HW232976   5.700   6.473   4.231
10693SOL     OW32977   4.826   2.842   3.524
10693SOL    HW132978   4.782   2.829   3.613
10693SOL    HW232979   4.897   2.773   3.511
10694SOL     OW32980   3.013   6.635   0.919
10694SOL    HW132981   3.055   6.572   0.854
10694SOL    HW232982   3.054   6.622   1.009
10695SOL     OW32983   5.848   2.626   5.119
10695SOL    HW132984   5.798   2.608   5.203
10695SOL    HW232985   5.947   2.620   5.137
10696SOL     OW32986   6.756   6.763   1.731
10696SOL    HW132987   6.689   6.694   1.759
10696SOL    HW232988   6.714   6.853   1.734
10697SOL     OW32989   2.136   6.800   3.235
10697SOL    HW132990   2.172   6.872   3.295
10697SOL    HW232991   2.207   6.733   3.217
10698SOL     OW32992   2.981   0.477   3.595
10698SOL    HW132993   2.993   0.571   3.630
10698SOL    HW232994   2.998   0.476   3.497
10699SOL     OW32995   2.394   2.531   3.314
10699SOL    HW132996   2.484   2.542   3.356
10699SOL    HW232997   2.349   2.621   3.308
10700SOL     OW32998   0.323   1.155   2.266
10700SOL    HW132999   0.397   1.131   2.203
10700SOL    HW233000   0.348   1.238   2.316
10701SOL     OW33001   3.036   0.109   1.120
10701SOL    HW133002   3.024   0.079   1.025
10701SOL    HW233003   2.951   0.151   1.152
10702SOL     OW33004   4.931   2.567   0.824
10702SOL    HW133005   4.878   2.515   0.891
10702SOL    HW233006   4.963   2.652   0.867
10703SOL     OW33007   4.096   3.241   3.957
10703SOL    HW133008   4.120   3.237   3.861
10703SOL    HW233009   4.143   3.317   4.001
10704SOL     OW33010   5.845   6.412   2.065
10704SOL    HW133011   5.770   6.367   2.115
10704SOL    HW233012   5.900   6.343   2.019
10705SOL     OW33013   1.455   3.415   6.217
10705SOL    HW133014   1.482   3.322   6.193
10705SOL    HW233015   1.361   3.413   6.253
10706SOL     OW33016   3.444   2.274   1.093
10706SOL    HW133017   3.381   2.198   1.107
10706SOL    HW233018   3.481   2.303   1.182
10707SOL     OW33019   6.092   6.897   6.294
10707SOL    HW133020   6.010   6.942   6.329
10707SOL    HW233021   6.089   6.893   6.195
10708SOL     OW33022   4.709   1.570   1.312
10708SOL    HW133023   4.646   1.644   1.337
10708SOL    HW233024   4.687   1.538   1.219
10709SOL     OW33025   0.820   0.088   6.121
10709SOL    HW133026   0.884   0.165   6.125
10709SOL    HW233027   0.727   0.123   6.107
10710SOL     OW33028   6.809   5.958   4.087
10710SOL    HW133029   6.823   6.019   4.009
10710SOL    HW233030   6.874   5.982   4.160
10711SOL     OW33031   2.286   5.506   5.312
10711SOL    HW133032   2.315   5.433   5.375
10711SOL    HW233033   2.199   5.544   5.344
10712SOL     OW33034   4.016   1.507   6.091
10712SOL    HW133035   3.999   1.433   6.026
10712SOL    HW233036   4.102   1.491   6.139
10713SOL     OW33037   2.113   6.025   0.627
10713SOL    HW133038   2.071   5.957   0.687
10713SOL    HW233039   2.055   6.040   0.547
10714SOL     OW33040   6.542   5.625   5.237
10714SOL    HW133041   6.630   5.611   5.282
10714SOL    HW233042   6.468   5.603   5.300
10715SOL     OW33043   5.912   1.221   3.470
10715SOL    HW133044   5.998   1.242   3.516
10715SOL    HW233045   5.908   1.124   3.448
10716SOL     OW33046   7.017   0.879   2.457
10716SOL    HW133047   0.052   0.861   2.376
10716SOL    HW233048   0.056   0.903   2.534
10717SOL     OW33049   6.977   6.881   1.880
10717SOL    HW133050   6.950   6.849   1.971
10717SOL    HW233051   6.910   6.849   1.813
10718SOL     OW33052   1.049   4.183   5.566
10718SOL    HW133053   1.064   4.251   5.638
10718SOL    HW233054   1.138   4.148   5.534
10719SOL     OW33055   3.718   6.467   2.257
10719SOL    HW133056   3.760   6.481   2.347
10719SOL    HW233057   3.760   6.387   2.213
10720SOL     OW33058   0.122   3.473   6.543
10720SOL    HW133059   0.048   3.417   6.580
10720SOL    HW233060   0.187   3.496   6.615
10721SOL     OW33061   5.394   2.097   4.725
10721SOL    HW133062   5.480   2.141   4.751
10721SOL    HW233063   5.343   2.156   4.663
10722SOL     OW33064   6.977   4.757   0.324
10722SOL    HW133065   6.886   4.799   0.322
10722SOL    HW233066   6.979   4.686   0.394
10723SOL     OW33067   6.296   4.383   0.049
10723SOL    HW133068   6.202   4.395   0.017
10723SOL    HW233069   6.358   4.381   6.991
10724SOL     OW33070   3.002   0.269   5.710
10724SOL    HW133071   2.954   0.355   5.729
10724SOL    HW233072   3.097   0.277   5.739
10725SOL     OW33073   6.826   0.394   5.319
10725SOL    HW133074   6.871   0.476   5.282
10725SOL    HW233075   6.813   0.327   5.246
10726SOL     OW33076   6.323   0.912   3.755
10726SOL    HW133077   6.227   0.931   3.736
10726SOL    HW233078   6.331   0.869   3.846
10727SOL     OW33079   3.994   6.708   6.379
10727SOL    HW133080   3.985   6.787   6.440
10727SOL    HW233081   4.009   6.625   6.434
10728SOL     OW33082   5.978   5.605   3.847
10728SOL    HW133083   6.045   5.680   3.847
10728SOL    HW233084   5.932   5.602   3.935
10729SOL     OW33085   5.925   3.293   3.890
10729SOL    HW133086   5.998   3.247   3.840
10729SOL    HW233087   5.963   3.372   3.939
10730SOL     OW33088   1.424   5.950   3.975
10730SOL    HW133089   1.408   6.034   3.923
10730SOL    HW233090   1.366   5.877   3.938
10731SOL     OW33091   4.936   5.631   6.650
10731SOL    HW133092   4.923   5.553   6.590
10731SOL    HW233093   4.881   5.708   6.618
10732SOL     OW33094   6.855   5.820   2.487
10732SOL    HW133095   6.823   5.766   2.409
10732SOL    HW233096   6.808   5.790   2.570
10733SOL     OW33097   0.545   1.684   6.106
10733SOL    HW133098   0.474   1.656   6.172
10733SOL    HW233099   0.628   1.632   6.123
10734SOL     OW33100   1.002   0.656   4.737
10734SOL    HW133101   0.919   0.601   4.739
10734SOL    HW233102   1.078   0.602   4.775
10735SOL     OW33103   0.365   0.209   2.214
10735SOL    HW133104   0.421   0.217   2.296
10735SOL    HW233105   0.419   0.236   2.134
10736SOL     OW33106   5.872   5.502   3.469
10736SOL    HW133107   5.941   5.522   3.399
10736SOL    HW233108   5.804   5.575   3.470
10737SOL     OW33109   6.526   0.650   1.832
10737SOL    HW133110   6.579   0.691   1.906
10737SOL    HW233111   6.537   0.703   1.749
10738SOL     OW33112   2.495   6.758   1.680
10738SOL    HW133113   2.582   6.717   1.654
10738SOL    HW233114   2.495   6.779   1.778
10739SOL     OW33115   5.003   3.257   4.018
10739SOL    HW133116   4.993   3.258   3.919
10739SOL    HW233117   4.961   3.339   4.057
10740SOL     OW33118   3.145   0.070   5.966
10740SOL    HW133119   3.175   0.137   5.898
10740SOL    HW233120   3.164   6.998   5.932
10741SOL     OW33121   1.259   2.562   3.446
10741SOL    HW133122   1.197   2.492   3.410
10741SOL    HW233123   1.269   2.635   3.378
10742SOL     OW33124   6.654   0.033   1.948
10742SOL    HW133125   6.624   0.043   1.853
10742SOL    HW233126   6.683   0.122   1.983
10743SOL     OW33127   3.695   1.909   5.942
10743SOL    HW133128   3.672   1.814   5.963
10743SOL    HW233129   3.667   1.930   5.848
10744SOL     OW33130   2.541   2.004   1.428
10744SOL    HW133131   2.498   1.999   1.518
10744SOL    HW233132   2.583   2.094   1.416
10745SOL     OW33133   3.019   4.764   1.241
10745SOL    HW133134   2.958   4.793   1.316
10745SOL    HW233135   3.111   4.798   1.259
10746SOL     OW33136   2.557   5.276   6.428
10746SOL    HW133137   2.583   5.351   6.366
10746SOL    HW233138   2.606   5.287   6.515
10747SOL     OW33139   0.087   1.408   4.605
10747SOL    HW133140   0.136   1.350   4.669
10747SOL    HW233141   0.141   1.490   4.585
10748SOL     OW33142   3.004   6.413   2.458
10748SOL    HW133143   2.966   6.321   2.463
10748SOL    HW233144   3.104   6.409   2.463
10749SOL     OW33145   6.020   4.295   2.123
10749SOL    HW133146   6.085   4.319   2.050
10749SOL    HW233147   5.986   4.202   2.107
10750SOL     OW33148   3.958   2.120   4.486
10750SOL    HW133149   3.904   2.120   4.570
10750SOL    HW233150   3.917   2.056   4.420
10751SOL     OW33151   6.495   6.289   4.505
10751SOL    HW133152   6.413   6.257   4.457
10751SOL    HW233153   6.468   6.349   4.581
10752SOL     OW33154   6.580   6.353   0.162
10752SOL    HW133155   6.573   6.446   0.126
10752SOL    HW233156   6.674   6.336   0.193
10753SOL     OW33157   5.484   6.835   5.241
10753SOL    HW133158   5.569   6.858   5.194
10753SOL    HW233159   5.437   6.919   5.268
10754SOL     OW33160   1.072   5.447   1.831
10754SOL    HW133161   1.128   5.376   1.789
10754SOL    HW233162   1.126   5.496   1.899
10755SOL     OW33163   0.781   2.145   1.639
10755SOL    HW133164   0.849   2.218   1.637
10755SOL    HW233165   0.820   2.063   1.681
10756SOL     OW33166   1.119   0.411   6.806
10756SOL    HW133167   1.105   0.331   6.747
10756SOL    HW233168   1.064   0.401   6.889
10757SOL     OW33169   0.282   2.941   2.411
10757SOL    HW133170   0.311   2.897   2.495
10757SOL    HW233171   0.211   2.886   2.367
10758SOL     OW33172   0.996   0.596   0.021
10758SOL    HW133173   1.083   0.607   6.993
10758SOL    HW233174   1.013   0.585   0.119
10759SOL     OW33175   3.309   2.976   5.003
10759SOL    HW133176   3.391   2.948   4.954
10759SOL    HW233177   3.228   2.954   4.948
10760SOL     OW33178   0.673   4.874   0.173
10760SOL    HW133179   0.583   4.847   0.208
10760SOL    HW233180   0.661   4.943   0.101
10761SOL     OW33181   1.297   1.757   6.008
10761SOL    HW133182   1.246   1.826   6.060
10761SOL    HW233183   1.338   1.800   5.927
10762SOL     OW33184   1.946   5.739   0.080
10762SOL    HW133185   1.903   5.806   0.020
10762SOL    HW233186   1.880   5.708   0.148
10763SOL     OW33187   4.743   0.619   3.261
10763SOL    HW133188   4.681   0.660   3.328
10763SOL    HW233189   4.771   0.528   3.293
10764SOL     OW33190   4.860   6.115   4.833
10764SOL    HW133191   4.903   6.035   4.873
10764SOL    HW233192   4.821   6.091   4.744
10765SOL     OW33193   1.080   2.366   1.091
10765SOL    HW133194   1.068   2.305   1.013
10765SOL    HW233195   1.057   2.460   1.064
10766SOL     OW33196   2.926   5.212   6.444
10766SOL    HW133197   2.958   5.285   6.384
10766SOL    HW233198   2.912   5.247   6.536
10767SOL     OW33199   1.420   4.629   0.014
10767SOL    HW133200   1.399   4.675   6.947
10767SOL    HW233201   1.519   4.628   0.027
10768SOL     OW33202   5.380   6.446   0.020
10768SOL    HW133203   5.364   6.545   0.018
10768SOL    HW233204   5.305   6.401   0.069
10769SOL     OW33205   3.205   2.959   4.688
10769SOL    HW133206   3.176   2.935   4.595
10769SOL    HW233207   3.133   3.013   4.732
10770SOL     OW33208   5.832   0.228   3.140
10770SOL    HW133209   5.769   0.156   3.167
10770SOL    HW233210   5.897   0.246   3.214
10771SOL     OW33211   4.922   6.171   5.828
10771SOL    HW133212   4.856   6.234   5.789
10771SOL    HW233213   4.888   6.078   5.822
10772SOL     OW33214   5.443   4.701   2.585
10772SOL    HW133215   5.375   4.693   2.658
10772SOL    HW233216   5.402   4.749   2.507
10773SOL     OW33217   0.936   3.332   0.522
10773SOL    HW133218   0.920   3.389   0.604
10773SOL    HW233219   1.034   3.316   0.512
10774SOL     OW33220   0.654   3.224   0.694
10774SOL    HW133221   0.716   3.249   0.619
10774SOL    HW233222   0.708   3.194   0.772
10775SOL     OW33223   1.984   3.554   0.038
10775SOL    HW133224   2.000   3.573   6.961
10775SOL    HW233225   1.915   3.616   0.074
10776SOL     OW33226   1.107   3.197   3.405
10776SOL    HW133227   1.197   3.154   3.393
10776SOL    HW233228   1.119   3.287   3.446
10777SOL     OW33229   1.483   6.979   0.948
10777SOL    HW133230   1.489   0.035   0.884
10777SOL    HW233231   1.574   6.951   0.977
10778SOL     OW33232   4.573   0.142   3.144
10778SOL    HW133233   4.655   0.148   3.087
10778SOL    HW233234   4.502   0.201   3.106
10779SOL     OW33235   5.808   2.943   6.003
10779SOL    HW133236   5.720   2.962   5.960
10779SOL    HW233237   5.803   2.964   6.100
10780SOL     OW33238   1.814   5.006   4.730
10780SOL    HW133239   1.823   4.992   4.631
10780SOL    HW233240   1.719   5.028   4.752
10781SOL     OW33241   5.520   1.888   5.555
10781SOL    HW133242   5.614   1.864   5.578
10781SOL    HW233243   5.486   1.827   5.484
10782SOL     OW33244   1.168   2.698   5.470
10782SOL    HW133245   1.079   2.660   5.497
10782SOL    HW233246   1.225   2.626   5.432
10783SOL     OW33247   1.646   3.301   3.303
10783SOL    HW133248   1.710   3.262   3.236
10783SOL    HW233249   1.553   3.294   3.267
10784SOL     OW33250   4.304   5.510   3.688
10784SOL    HW133251   4.275   5.597   3.726
10784SOL    HW233252   4.315   5.443   3.762
10785SOL     OW33253   2.149   5.289   1.993
10785SOL    HW133254   2.212   5.351   2.039
10785SOL    HW233255   2.190   5.198   1.986
10786SOL     OW33256   4.539   1.847   2.424
10786SOL    HW133257   4.554   1.823   2.328
10786SOL    HW233258   4.480   1.928   2.429
10787SOL     OW33259   3.829   2.182   3.793
10787SOL    HW133260   3.875   2.105   3.836
10787SOL    HW233261   3.897   2.252   3.770
10788SOL     OW33262   2.118   3.139   0.320
10788SOL    HW133263   2.098   3.157   0.224
10788SOL    HW233264   2.036   3.156   0.375
10789SOL     OW33265   6.842   1.161   2.136
10789SOL    HW133266   6.879   1.150   2.229
10789SOL    HW233267   6.906   1.214   2.081
10790SOL     OW33268   6.965   2.260   5.505
10790SOL    HW133269   7.004   2.201   5.434
10790SOL    HW233270   6.888   2.311   5.467
10791SOL     OW33271   1.511   2.506   3.565
10791SOL    HW133272   1.425   2.496   3.516
10791SOL    HW233273   1.576   2.555   3.507
10792SOL     OW33274   3.724   1.541   2.386
10792SOL    HW133275   3.746   1.620   2.328
10792SOL    HW233276   3.653   1.486   2.342
10793SOL     OW33277   3.494   2.102   4.665
10793SOL    HW133278   3.401   2.117   4.700
10793SOL    HW233279   3.527   2.013   4.696
10794SOL     OW33280   5.006   2.316   6.683
10794SOL    HW133281   5.001   2.309   6.783
10794SOL    HW233282   5.042   2.231   6.645
10795SOL     OW33283   0.035   3.859   3.161
10795SOL    HW133284   0.112   3.827   3.216
10795SOL    HW233285   0.041   3.820   3.069
10796SOL     OW33286   0.256   1.608   5.919
10796SOL    HW133287   0.340   1.556   5.938
10796SOL    HW233288   0.182   1.544   5.902
10797SOL     OW33289   4.716   4.255   0.166
10797SOL    HW133290   4.748   4.275   0.259
10797SOL    HW233291   4.721   4.338   0.111
10798SOL     OW33292   2.189   6.113   0.211
10798SOL    HW133293   2.097   6.152   0.210
10798SOL    HW233294   2.246   6.161   0.144
10799SOL     OW33295   3.184   0.341   2.383
10799SOL    HW133296   3.141   0.375   2.299
10799SOL    HW233297   3.283   0.339   2.371
10800SOL     OW33298   1.859   6.779   5.582
10800SOL    HW133299   1.813   6.837   5.514
10800SOL    HW233300   1.805   6.779   5.666
10801SOL     OW33301   2.654   6.226   6.704
10801SOL    HW133302   2.694   6.274   6.782
10801SOL    HW233303   2.664   6.128   6.717
10802SOL     OW33304   0.527   4.745   4.321
10802SOL    HW133305   0.609   4.706   4.279
10802SOL    HW233306   0.548   4.835   4.358
10803SOL     OW33307   6.689   4.419   4.118
10803SOL    HW133308   6.627   4.383   4.048
10803SOL    HW233309   6.775   4.447   4.074
10804SOL     OW33310   4.724   4.416   1.225
10804SOL    HW133311   4.743   4.383   1.133
10804SOL    HW233312   4.789   4.490   1.247
10805SOL     OW33313   4.043   5.974   0.980
10805SOL    HW133314   4.139   5.991   1.001
10805SOL    HW233315   4.022   5.877   0.992
10806SOL     OW33316   5.551   3.732   6.226
10806SOL    HW133317   5.462   3.727   6.181
10806SOL    HW233318   5.609   3.796   6.177
10807SOL     OW33319   4.660   2.305   4.365
10807SOL    HW133320   4.661   2.350   4.454
10807SOL    HW233321   4.567   2.306   4.329
10808SOL     OW33322   0.706   1.669   0.083
10808SOL    HW133323   0.718   1.740   0.153
10808SOL    HW233324   0.676   1.712   7.018
10809SOL     OW33325   2.379   1.072   2.246
10809SOL    HW133326   2.355   1.009   2.320
10809SOL    HW233327   2.394   1.163   2.283
10810SOL     OW33328   2.037   1.108   6.576
10810SOL    HW133329   2.127   1.073   6.551
10810SOL    HW233330   1.973   1.095   6.500
10811SOL     OW33331   4.394   5.157   6.558
10811SOL    HW133332   4.386   5.057   6.551
10811SOL    HW233333   4.474   5.180   6.613
10812SOL     OW33334   6.353   2.627   2.093
10812SOL    HW133335   6.336   2.651   2.189
10812SOL    HW233336   6.302   2.544   2.070
10813SOL     OW33337   3.691   5.796   2.452
10813SOL    HW133338   3.760   5.849   2.502
10813SOL    HW233339   3.662   5.718   2.507
10814SOL     OW33340   1.921   5.956   4.263
10814SOL    HW133341   2.009   5.969   4.218
10814SOL    HW233342   1.908   6.027   4.332
10815SOL     OW33343   4.695   1.611   4.623
10815SOL    HW133344   4.749   1.532   4.594
10815SOL    HW233345   4.625   1.631   4.554
10816SOL     OW33346   2.502   2.307   1.396
10816SOL    HW133347   2.437   2.339   1.327
10816SOL    HW233348   2.477   2.344   1.486
10817SOL     OW33349   4.099   1.011   1.773
10817SOL    HW133350   4.155   0.928   1.770
10817SOL    HW233351   4.111   1.057   1.861
10818SOL     OW33352   4.205   3.129   6.808
10818SOL    HW133353   4.166   3.144   6.717
10818SOL    HW233354   4.288   3.183   6.818
10819SOL     OW33355   1.203   3.768   5.452
10819SOL    HW133356   1.121   3.710   5.454
10819SOL    HW233357   1.251   3.761   5.540
10820SOL     OW33358   0.609   6.838   4.641
10820SOL    HW133359   0.687   6.840   4.579
10820SOL    HW233360   0.640   6.823   4.734
10821SOL     OW33361   0.460   0.575   0.013
10821SOL    HW133362   0.399   0.652   7.018
10821SOL    HW233363   0.410   0.489   0.005
10822SOL     OW33364   0.655   4.370   6.797
10822SOL    HW133365   0.579   4.415   6.844
10822SOL    HW233366   0.627   4.342   6.706
10823SOL     OW33367   2.028   2.441   1.297
10823SOL    HW133368   2.009   2.368   1.363
10823SOL    HW233369   1.965   2.517   1.313
10824SOL     OW33370   5.171   0.960   3.570
10824SOL    HW133371   5.140   0.868   3.592
10824SOL    HW233372   5.093   1.022   3.566
10825SOL     OW33373   2.944   1.359   2.784
10825SOL    HW133374   3.035   1.398   2.774
10825SOL    HW233375   2.906   1.386   2.873
10826SOL     OW33376   6.928   3.227   1.326
10826SOL    HW133377   6.952   3.294   1.396
10826SOL    HW233378   6.949   3.135   1.359
10827SOL     OW33379   0.560   3.030   4.198
10827SOL    HW133380   0.569   2.962   4.125
10827SOL    HW233381   0.498   3.103   4.168
10828SOL     OW33382   2.507   5.515   0.381
10828SOL    HW133383   2.428   5.464   0.347
10828SOL    HW233384   2.585   5.453   0.390
10829SOL     OW33385   2.123   3.626   1.584
10829SOL    HW133386   2.170   3.538   1.573
10829SOL    HW233387   2.150   3.667   1.671
10830SOL     OW33388   5.774   0.980   3.695
10830SOL    HW133389   5.716   1.061   3.690
10830SOL    HW233390   5.742   0.911   3.630
10831SOL     OW33391   5.524   3.027   2.216
10831SOL    HW133392   5.507   3.105   2.155
10831SOL    HW233393   5.499   2.942   2.168
10832SOL     OW33394   0.663   3.841   2.668
10832SOL    HW133395   0.726   3.783   2.615
10832SOL    HW233396   0.696   3.935   2.668
10833SOL     OW33397   3.014   6.656   3.999
10833SOL    HW133398   3.057   6.747   4.003
10833SOL    HW233399   2.947   6.654   3.924
10834SOL     OW33400   6.879   1.049   5.725
10834SOL    HW133401   6.865   1.125   5.661
10834SOL    HW233402   6.825   1.065   5.808
10835SOL     OW33403   0.398   2.293   0.909
10835SOL    HW133404   0.431   2.246   0.828
10835SOL    HW233405   0.454   2.374   0.926
10836SOL     OW33406   1.425   2.870   0.856
10836SOL    HW133407   1.358   2.798   0.837
10836SOL    HW233408   1.517   2.838   0.832
10837SOL     OW33409   1.196   5.801   1.353
10837SOL    HW133410   1.097   5.793   1.357
10837SOL    HW233411   1.231   5.747   1.276
10838SOL     OW33412   6.597   6.443   0.597
10838SOL    HW133413   6.572   6.415   0.689
10838SOL    HW233414   6.593   6.364   0.536
10839SOL     OW33415   1.424   1.577   6.837
10839SOL    HW133416   1.328   1.550   6.831
10839SOL    HW233417   1.430   1.676   6.850
10840SOL     OW33418   2.615   0.212   2.533
10840SOL    HW133419   2.656   0.300   2.507
10840SOL    HW233420   2.619   0.201   2.632
10841SOL     OW33421   4.670   3.317   0.263
10841SOL    HW133422   4.729   3.324   0.343
10841SOL    HW233423   4.664   3.406   0.218
10842SOL     OW33424   5.894   2.750   1.545
10842SOL    HW133425   5.906   2.845   1.573
10842SOL    HW233426   5.915   2.689   1.622
10843SOL     OW33427   0.396   1.765   1.392
10843SOL    HW133428   0.379   1.674   1.430
10843SOL    HW233429   0.312   1.799   1.350
10844SOL     OW33430   4.410   0.494   3.212
10844SOL    HW133431   4.460   0.449   3.286
10844SOL    HW233432   4.415   0.438   3.129
10845SOL     OW33433   2.139   3.141   0.905
10845SOL    HW133434   2.228   3.096   0.907
10845SOL    HW233435   2.074   3.082   0.856
10846SOL     OW33436   3.245   2.201   1.531
10846SOL    HW133437   3.314   2.133   1.556
10846SOL    HW233438   3.288   2.273   1.476
10847SOL     OW33439   4.936   2.502   5.033
10847SOL    HW133440   4.863   2.441   5.065
10847SOL    HW233441   4.980   2.544   5.111
10848SOL     OW33442   1.271   0.799   6.714
10848SOL    HW133443   1.242   0.786   6.619
10848SOL    HW233444   1.347   0.737   6.735
10849SOL     OW33445   1.634   5.087   3.733
10849SOL    HW133446   1.680   5.043   3.810
10849SOL    HW233447   1.659   5.041   3.648
10850SOL     OW33448   5.707   0.621   2.014
10850SOL    HW133449   5.644   0.601   1.939
10850SOL    HW233450   5.778   0.551   2.018
10851SOL     OW33451   4.164   2.190   6.988
10851SOL    HW133452   4.092   2.203   6.920
10851SOL    HW233453   4.244   2.149   6.945
10852SOL     OW33454   6.306   0.708   6.258
10852SOL    HW133455   6.365   0.787   6.243
10852SOL    HW233456   6.297   0.655   6.174
10853SOL     OW33457   2.510   0.810   4.359
10853SOL    HW133458   2.525   0.902   4.323
10853SOL    HW233459   2.420   0.778   4.331
10854SOL     OW33460   0.066   0.563   1.091
10854SOL    HW133461   0.100   0.502   1.162
10854SOL    HW233462   0.114   0.544   1.005
10855SOL     OW33463   0.055   5.900   1.040
10855SOL    HW133464   0.054   5.816   0.985
10855SOL    HW233465   0.127   5.960   1.006
10856SOL     OW33466   5.411   0.143   6.467
10856SOL    HW133467   5.311   0.150   6.470
10856SOL    HW233468   5.450   0.196   6.543
10857SOL     OW33469   6.182   0.263   4.963
10857SOL    HW133470   6.189   0.313   5.049
10857SOL    HW233471   6.228   0.174   4.973
10858SOL     OW33472   2.161   1.802   0.519
10858SOL    HW133473   2.141   1.868   0.590
10858SOL    HW233474   2.249   1.824   0.476
10859SOL     OW33475   1.342   5.049   2.422
10859SOL    HW133476   1.359   4.960   2.379
10859SOL    HW233477   1.400   5.118   2.380
10860SOL     OW33478   5.636   2.219   1.537
10860SOL    HW133479   5.659   2.122   1.539
10860SOL    HW233480   5.685   2.267   1.610
10861SOL     OW33481   1.597   4.185   1.807
10861SOL    HW133482   1.532   4.114   1.777
10861SOL    HW233483   1.548   4.270   1.824
10862SOL     OW33484   3.836   4.069   5.267
10862SOL    HW133485   3.746   4.030   5.284
10862SOL    HW233486   3.870   4.113   5.350
10863SOL     OW33487   1.903   0.069   3.521
10863SOL    HW133488   1.989   0.119   3.532
10863SOL    HW233489   1.896   7.019   3.592
10864SOL     OW33490   2.849   3.478   1.762
10864SOL    HW133491   2.871   3.382   1.781
10864SOL    HW233492   2.877   3.534   1.841
10865SOL     OW33493   3.444   1.660   2.615
10865SOL    HW133494   3.527   1.662   2.672
10865SOL    HW233495   3.369   1.706   2.663
10866SOL     OW33496   0.991   3.762   4.182
10866SOL    HW133497   1.025   3.779   4.089
10866SOL    HW233498   0.998   3.846   4.236
10867SOL     OW33499   4.336   3.198   0.150
10867SOL    HW133500   4.360   3.159   0.239
10867SOL    HW233501   4.332   3.124   0.082
10868SOL     OW33502   1.239   6.266   4.927
10868SOL    HW133503   1.218   6.262   5.025
10868SOL    HW233504   1.338   6.275   4.915
10869NA      NA33505   6.987   1.061   6.278
10870NA      NA33506   4.665   4.774   5.276
10871NA      NA33507   0.846   4.942   2.718
10872NA      NA33508   5.895   3.540   3.224
10873NA      NA33509   3.847   2.804   5.513
10874NA      NA33510   2.392   4.544   6.825
10875NA      NA33511   1.558   5.439   6.812
10876NA      NA33512   4.356   4.904   1.720
10877NA      NA33513   5.109   4.249   0.765
10878NA      NA33514   3.631   1.468   0.691
10879NA      NA33515   5.590   6.914   1.300
10880NA      NA33516   2.279   6.868   5.253
10881NA      NA33517   4.335   4.862   2.885
10882NA      NA33518   4.101   4.038   6.682
   7.02022   7.02022   7.02022
