Generated by trjconv : CNT in water t=  42.00000
33518
    1C        C    1   2.834   2.764   4.745
    1C        C    2   2.896   2.718   4.863
    1C        C    3   2.844   2.771   4.981
    1C        C    4   2.843   2.770   4.261
    1C        C    5   2.900   2.727   4.382
    1C        C    6   2.843   2.769   4.504
    1C        C    7   3.013   2.642   4.621
    1C        C    8   2.893   2.716   4.625
    1C        C    9   3.072   2.602   4.743
    1C        C   10   3.007   2.631   4.865
    1C        C   11   3.181   2.496   4.974
    1C        C   12   3.054   2.555   4.973
    1C        C   13   2.848   2.770   3.772
    1C        C   14   2.897   2.718   3.894
    1C        C   15   2.847   2.769   4.016
    1C        C   16   3.013   2.641   4.136
    1C        C   17   2.899   2.724   4.140
    1C        C   18   3.078   2.607   4.257
    1C        C   19   3.019   2.651   4.378
    1C        C   20   3.207   2.553   4.501
    1C        C   21   3.076   2.606   4.499
    1C        C   22   3.275   2.533   4.623
    1C        C   23   3.201   2.544   4.743
    1C        C   24   3.408   2.474   4.865
    1C        C   25   3.266   2.494   4.859
    1C        C   26   3.487   2.472   4.980
    1C        C   27   2.849   2.772   3.278
    1C        C   28   2.904   2.728   3.401
    1C        C   29   2.851   2.768   3.526
    1C        C   30   3.016   2.642   3.646
    1C        C   31   2.900   2.721   3.650
    1C        C   32   3.074   2.605   3.770
    1C        C   33   3.009   2.632   3.892
    1C        C   34   3.206   2.554   4.014
    1C        C   35   3.073   2.601   4.015
    1C        C   36   3.274   2.532   4.135
    1C        C   37   3.209   2.555   4.258
    1C        C   38   3.417   2.511   4.379
    1C        C   39   3.277   2.531   4.380
    1C        C   40   3.483   2.497   4.503
    1C        C   41   3.413   2.507   4.625
    1C        C   42   3.626   2.478   4.743
    1C        C   43   3.483   2.477   4.744
    1C        C   44   3.702   2.485   4.862
    1C        C   45   3.626   2.477   4.979
    1C        C   46   2.840   2.752   2.791
    1C        C   47   2.898   2.710   2.913
    1C        C   48   2.848   2.763   3.034
    1C        C   49   3.016   2.638   3.160
    1C        C   50   2.899   2.717   3.158
    1C        C   51   3.081   2.610   3.282
    1C        C   52   3.021   2.650   3.403
    1C        C   53   3.208   2.547   3.526
    1C        C   54   3.081   2.610   3.525
    1C        C   55   3.275   2.526   3.649
    1C        C   56   3.206   2.554   3.768
    1C        C   57   3.412   2.508   3.891
    1C        C   58   3.274   2.537   3.891
    1C        C   59   3.485   2.497   4.012
    1C        C   60   3.412   2.500   4.133
    1C        C   61   3.625   2.502   4.257
    1C        C   62   3.483   2.498   4.255
    1C        C   63   3.695   2.502   4.380
    1C        C   64   3.624   2.497   4.502
    1C        C   65   3.834   2.534   4.620
    1C        C   66   3.696   2.501   4.623
    1C        C   67   3.901   2.563   4.741
    1C        C   68   3.837   2.526   4.861
    1C        C   69   4.051   2.577   4.976
    1C        C   70   3.919   2.530   4.975
    1C        C   71   2.819   2.730   2.305
    1C        C   72   2.879   2.691   2.426
    1C        C   73   2.831   2.747   2.547
    1C        C   74   3.003   2.621   2.672
    1C        C   75   2.887   2.702   2.668
    1C        C   76   3.071   2.593   2.792
    1C        C   77   3.012   2.628   2.916
    1C        C   78   3.203   2.536   3.035
    1C        C   79   3.074   2.594   3.039
    1C        C   80   3.273   2.523   3.157
    1C        C   81   3.209   2.550   3.280
    1C        C   82   3.411   2.497   3.401
    1C        C   83   3.272   2.521   3.403
    1C        C   84   3.484   2.494   3.521
    1C        C   85   3.414   2.503   3.644
    1C        C   86   3.622   2.501   3.767
    1C        C   87   3.481   2.494   3.768
    1C        C   88   3.693   2.507   3.889
    1C        C   89   3.626   2.497   4.013
    1C        C   90   3.833   2.542   4.134
    1C        C   91   3.695   2.511   4.135
    1C        C   92   3.897   2.568   4.258
    1C        C   93   3.831   2.540   4.379
    1C        C   94   4.025   2.631   4.498
    1C        C   95   3.901   2.564   4.500
    1C        C   96   4.085   2.672   4.619
    1C        C   97   4.026   2.631   4.741
    1C        C   98   4.184   2.765   4.860
    1C        C   99   4.097   2.652   4.862
    1C        C  100   4.210   2.844   4.973
    1C        C  101   2.818   2.726   2.070
    1C        C  102   2.990   2.590   2.188
    1C        C  103   2.876   2.676   2.187
    1C        C  104   3.061   2.575   2.310
    1C        C  105   2.999   2.616   2.430
    1C        C  106   3.195   2.528   2.546
    1C        C  107   3.064   2.580   2.551
    1C        C  108   3.264   2.514   2.668
    1C        C  109   3.200   2.536   2.792
    1C        C  110   3.408   2.484   2.913
    1C        C  111   3.268   2.508   2.913
    1C        C  112   3.480   2.485   3.034
    1C        C  113   3.412   2.500   3.157
    1C        C  114   3.624   2.493   3.278
    1C        C  115   3.483   2.490   3.279
    1C        C  116   3.696   2.506   3.399
    1C        C  117   3.626   2.498   3.521
    1C        C  118   3.828   2.547   3.650
    1C        C  119   3.693   2.508   3.645
    1C        C  120   3.897   2.573   3.771
    1C        C  121   3.829   2.547   3.892
    1C        C  122   4.022   2.640   4.013
    1C        C  123   3.898   2.571   4.012
    1C        C  124   4.083   2.674   4.136
    1C        C  125   4.024   2.630   4.256
    1C        C  126   4.188   2.769   4.376
    1C        C  127   4.082   2.676   4.377
    1C        C  128   4.235   2.821   4.499
    1C        C  129   4.189   2.767   4.621
    1C        C  130   4.324   2.936   4.739
    1C        C  131   4.237   2.823   4.742
    1C        C  132   4.354   3.005   4.858
    1C        C  133   4.291   2.957   4.973
    1C        C  134   3.168   2.460   2.082
    1C        C  135   3.034   2.499   2.086
    1C        C  136   3.257   2.477   2.189
    1C        C  137   3.192   2.520   2.307
    1C        C  138   3.403   2.478   2.427
    1C        C  139   3.264   2.498   2.426
    1C        C  140   3.475   2.473   2.548
    1C        C  141   3.402   2.484   2.669
    1C        C  142   3.616   2.498   2.790
    1C        C  143   3.476   2.484   2.789
    1C        C  144   3.692   2.499   2.910
    1C        C  145   3.622   2.491   3.032
    1C        C  146   3.829   2.536   3.155
    1C        C  147   3.693   2.500   3.154
    1C        C  148   3.895   2.561   3.278
    1C        C  149   3.831   2.546   3.402
    1C        C  150   4.023   2.625   3.521
    1C        C  151   3.894   2.570   3.527
    1C        C  152   4.083   2.665   3.642
    1C        C  153   4.023   2.637   3.767
    1C        C  154   4.197   2.757   3.886
    1C        C  155   4.081   2.676   3.890
    1C        C  156   4.247   2.804   4.009
    1C        C  157   4.195   2.760   4.133
    1C        C  158   4.337   2.921   4.250
    1C        C  159   4.245   2.814   4.254
    1C        C  160   4.374   2.980   4.373
    1C        C  161   4.328   2.927   4.496
    1C        C  162   4.431   3.117   4.612
    1C        C  163   4.364   2.993   4.616
    1C        C  164   4.463   3.185   4.732
    1C        C  165   4.429   3.125   4.855
    1C        C  166   4.522   3.319   4.969
    1C        C  167   4.479   3.187   4.970
    1C        C  168   3.473   2.435   2.069
    1C        C  169   3.396   2.453   2.185
    1C        C  170   3.613   2.464   2.307
    1C        C  171   3.471   2.460   2.304
    1C        C  172   3.687   2.490   2.424
    1C        C  173   3.616   2.484   2.546
    1C        C  174   3.821   2.541   2.665
    1C        C  175   3.686   2.501   2.668
    1C        C  176   3.887   2.566   2.788
    1C        C  177   3.828   2.537   2.913
    1C        C  178   4.023   2.626   3.029
    1C        C  179   3.896   2.564   3.033
    1C        C  180   4.085   2.654   3.153
    1C        C  181   4.024   2.620   3.275
    1C        C  182   4.191   2.750   3.397
    1C        C  183   4.084   2.657   3.397
    1C        C  184   4.242   2.804   3.517
    1C        C  185   4.195   2.752   3.640
    1C        C  186   4.338   2.910   3.762
    1C        C  187   4.245   2.803   3.761
    1C        C  188   4.372   2.974   3.883
    1C        C  189   4.333   2.916   4.005
    1C        C  190   4.436   3.103   4.121
    1C        C  191   4.376   2.975   4.126
    1C        C  192   4.463   3.169   4.243
    1C        C  193   4.440   3.104   4.367
    1C        C  194   4.501   3.311   4.487
    1C        C  195   4.457   3.177   4.487
    1C        C  196   4.527   3.385   4.605
    1C        C  197   4.505   3.321   4.729
    1C        C  198   4.547   3.534   4.846
    1C        C  199   4.532   3.392   4.850
    1C        C  200   4.580   3.617   4.958
    1C        C  201   3.612   2.419   2.073
    1C        C  202   3.823   2.510   2.181
    1C        C  203   3.689   2.459   2.187
    1C        C  204   3.895   2.538   2.301
    1C        C  205   3.825   2.519   2.422
    1C        C  206   4.017   2.617   2.538
    1C        C  207   3.890   2.556   2.542
    1C        C  208   4.077   2.656   2.661
    1C        C  209   4.014   2.628   2.784
    1C        C  210   4.192   2.748   2.906
    1C        C  211   4.077   2.666   2.905
    1C        C  212   4.242   2.797   3.029
    1C        C  213   4.194   2.745   3.152
    1C        C  214   4.327   2.909   3.271
    1C        C  215   4.243   2.795   3.274
    1C        C  216   4.367   2.969   3.392
    1C        C  217   4.332   2.914   3.518
    1C        C  218   4.434   3.099   3.636
    1C        C  219   4.374   2.971   3.640
    1C        C  220   4.463   3.166   3.757
    1C        C  221   4.439   3.099   3.879
    1C        C  222   4.497   3.306   4.001
    1C        C  223   4.464   3.169   3.999
    1C        C  224   4.510   3.378   4.122
    1C        C  225   4.501   3.305   4.242
    1C        C  226   4.519   3.518   4.363
    1C        C  227   4.513   3.377   4.363
    1C        C  228   4.515   3.594   4.482
    1C        C  229   4.535   3.526   4.604
    1C        C  230   4.506   3.742   4.724
    1C        C  231   4.538   3.603   4.722
    1C        C  232   4.497   3.821   4.841
    1C        C  233   4.544   3.753   4.954
    1C        C  234   4.010   2.615   2.062
    1C        C  235   3.890   2.544   2.064
    1C        C  236   4.080   2.650   2.178
    1C        C  237   4.019   2.608   2.298
    1C        C  238   4.195   2.736   2.421
    1C        C  239   4.082   2.649   2.417
    1C        C  240   4.244   2.789   2.542
    1C        C  241   4.190   2.740   2.663
    1C        C  242   4.333   2.902   2.783
    1C        C  243   4.246   2.791   2.783
    1C        C  244   4.377   2.959   2.905
    1C        C  245   4.332   2.906   3.027
    1C        C  246   4.435   3.092   3.147
    1C        C  247   4.369   2.967   3.149
    1C        C  248   4.454   3.161   3.269
    1C        C  249   4.428   3.096   3.392
    1C        C  250   4.495   3.300   3.510
    1C        C  251   4.459   3.164   3.513
    1C        C  252   4.511   3.368   3.633
    1C        C  253   4.496   3.303   3.757
    1C        C  254   4.518   3.516   3.873
    1C        C  255   4.512   3.375   3.878
    1C        C  256   4.519   3.587   3.995
    1C        C  257   4.519   3.519   4.119
    1C        C  258   4.494   3.729   4.240
    1C        C  259   4.521   3.590   4.241
    1C        C  260   4.474   3.801   4.360
    1C        C  261   4.487   3.732   4.483
    1C        C  262   4.422   3.938   4.602
    1C        C  263   4.474   3.807   4.602
    1C        C  264   4.400   4.012   4.720
    1C        C  265   4.437   3.948   4.840
    1C        C  266   4.321   4.130   4.959
    1C        C  267   4.395   4.012   4.958
    1C        C  268   4.256   2.778   2.062
    1C        C  269   4.194   2.734   2.180
    1C        C  270   4.346   2.887   2.301
    1C        C  271   4.250   2.782   2.300
    1C        C  272   4.387   2.948   2.421
    1C        C  273   4.335   2.897   2.542
    1C        C  274   4.446   3.082   2.660
    1C        C  275   4.378   2.958   2.662
    1C        C  276   4.470   3.149   2.781
    1C        C  277   4.445   3.083   2.903
    1C        C  278   4.498   3.291   3.022
    1C        C  279   4.463   3.155   3.024
    1C        C  280   4.507   3.363   3.143
    1C        C  281   4.490   3.298   3.267
    1C        C  282   4.515   3.510   3.386
    1C        C  283   4.509   3.369   3.388
    1C        C  284   4.512   3.580   3.509
    1C        C  285   4.519   3.510   3.631
    1C        C  286   4.488   3.725   3.752
    1C        C  287   4.510   3.585   3.750
    1C        C  288   4.472   3.791   3.876
    1C        C  289   4.495   3.726   3.999
    1C        C  290   4.430   3.932   4.113
    1C        C  291   4.479   3.800   4.119
    1C        C  292   4.389   3.991   4.235
    1C        C  293   4.421   3.932   4.359
    1C        C  294   4.330   4.127   4.475
    1C        C  295   4.396   4.002   4.479
    1C        C  296   4.289   4.187   4.596
    1C        C  297   4.329   4.135   4.720
    1C        C  298   4.195   4.306   4.839
    1C        C  299   4.291   4.200   4.841
    1C        C  300   4.168   4.400   4.944
    1C        C  301   4.344   2.885   2.063
    1C        C  302   4.467   3.069   2.173
    1C        C  303   4.391   2.947   2.180
    1C        C  304   4.477   3.141   2.295
    1C        C  305   4.444   3.078   2.417
    1C        C  306   4.506   3.283   2.533
    1C        C  307   4.474   3.146   2.537
    1C        C  308   4.511   3.355   2.654
    1C        C  309   4.502   3.287   2.778
    1C        C  310   4.518   3.500   2.897
    1C        C  311   4.513   3.359   2.899
    1C        C  312   4.519   3.573   3.018
    1C        C  313   4.518   3.504   3.141
    1C        C  314   4.489   3.716   3.264
    1C        C  315   4.515   3.577   3.262
    1C        C  316   4.475   3.788   3.384
    1C        C  317   4.493   3.720   3.507
    1C        C  318   4.428   3.925   3.624
    1C        C  319   4.474   3.791   3.628
    1C        C  320   4.397   3.988   3.747
    1C        C  321   4.421   3.923   3.870
    1C        C  322   4.318   4.110   3.987
    1C        C  323   4.398   3.993   3.990
    1C        C  324   4.272   4.163   4.110
    1C        C  325   4.318   4.113   4.234
    1C        C  326   4.182   4.280   4.353
    1C        C  327   4.283   4.181   4.353
    1C        C  328   4.131   4.331   4.475
    1C        C  329   4.189   4.287   4.596
    1C        C  330   4.023   4.430   4.712
    1C        C  331   4.135   4.341   4.715
    1C        C  332   3.971   4.492   4.827
    1C        C  333   4.051   4.476   4.941
    1C        C  334   4.552   3.265   2.058
    1C        C  335   4.539   3.125   2.063
    1C        C  336   4.535   3.348   2.169
    1C        C  337   4.509   3.279   2.290
    1C        C  338   4.517   3.494   2.408
    1C        C  339   4.516   3.353   2.410
    1C        C  340   4.511   3.568   2.528
    1C        C  341   4.515   3.496   2.650
    1C        C  342   4.490   3.707   2.771
    1C        C  343   4.510   3.567   2.773
    1C        C  344   4.473   3.778   2.892
    1C        C  345   4.490   3.711   3.015
    1C        C  346   4.419   3.910   3.134
    1C        C  347   4.468   3.778   3.138
    1C        C  348   4.382   3.974   3.254
    1C        C  349   4.420   3.918   3.378
    1C        C  350   4.314   4.101   3.500
    1C        C  351   4.391   3.983   3.501
    1C        C  352   4.273   4.160   3.622
    1C        C  353   4.319   4.105   3.744
    1C        C  354   4.175   4.266   3.863
    1C        C  355   4.274   4.165   3.864
    1C        C  356   4.121   4.312   3.985
    1C        C  357   4.175   4.265   4.107
    1C        C  358   4.008   4.395   4.228
    1C        C  359   4.126   4.317   4.229
    1C        C  360   3.947   4.433   4.349
    1C        C  361   4.015   4.411   4.471
    1C        C  362   3.825   4.511   4.589
    1C        C  363   3.955   4.455   4.591
    1C        C  364   3.758   4.539   4.710
    1C        C  365   3.838   4.539   4.827
    1C        C  366   3.631   4.589   4.945
    1C        C  367   3.768   4.565   4.945
    1C        C  368   4.501   3.563   2.050
    1C        C  369   4.519   3.488   2.167
    1C        C  370   4.497   3.705   2.282
    1C        C  371   4.513   3.565   2.286
    1C        C  372   4.487   3.777   2.403
    1C        C  373   4.497   3.708   2.526
    1C        C  374   4.427   3.909   2.647
    1C        C  375   4.474   3.775   2.648
    1C        C  376   4.389   3.971   2.768
    1C        C  377   4.423   3.910   2.890
    1C        C  378   4.319   4.095   3.010
    1C        C  379   4.398   3.978   3.011
    1C        C  380   4.269   4.150   3.130
    1C        C  381   4.305   4.092   3.253
    1C        C  382   4.173   4.255   3.373
    1C        C  383   4.269   4.151   3.376
    1C        C  384   4.121   4.307   3.494
    1C        C  385   4.176   4.263   3.616
    1C        C  386   4.005   4.387   3.740
    1C        C  387   4.121   4.307   3.739
    1C        C  388   3.943   4.427   3.860
    1C        C  389   4.005   4.392   3.983
    1C        C  390   3.813   4.478   4.104
    1C        C  391   3.943   4.422   4.106
    1C        C  392   3.747   4.506   4.226
    1C        C  393   3.818   4.490   4.347
    1C        C  394   3.615   4.552   4.470
    1C        C  395   3.754   4.525   4.468
    1C        C  396   3.543   4.567   4.591
    1C        C  397   3.618   4.557   4.710
    1C        C  398   3.409   4.553   4.836
    1C        C  399   3.550   4.567   4.833
    1C        C  400   3.339   4.514   4.951
    1C        C  401   4.495   3.702   2.049
    1C        C  402   4.443   3.915   2.162
    1C        C  403   4.491   3.782   2.164
    1C        C  404   4.410   3.976   2.285
    1C        C  405   4.446   3.912   2.406
    1C        C  406   4.330   4.095   2.523
    1C        C  407   4.408   3.977   2.525
    1C        C  408   4.275   4.148   2.642
    1C        C  409   4.313   4.090   2.766
    1C        C  410   4.168   4.244   2.882
    1C        C  411   4.270   4.147   2.888
    1C        C  412   4.117   4.294   3.004
    1C        C  413   4.171   4.252   3.128
    1C        C  414   4.002   4.377   3.249
    1C        C  415   4.121   4.302   3.250
    1C        C  416   3.939   4.412   3.371
    1C        C  417   3.999   4.378   3.494
    1C        C  418   3.809   4.469   3.619
    1C        C  419   3.940   4.415   3.617
    1C        C  420   3.743   4.497   3.740
    1C        C  421   3.814   4.483   3.862
    1C        C  422   3.607   4.535   3.982
    1C        C  423   3.745   4.503   3.983
    1C        C  424   3.538   4.539   4.105
    1C        C  425   3.607   4.531   4.227
    1C        C  426   3.399   4.544   4.354
    1C        C  427   3.540   4.546   4.351
    1C        C  428   3.327   4.545   4.476
    1C        C  429   3.402   4.561   4.595
    1C        C  430   3.194   4.518   4.722
    1C        C  431   3.333   4.545   4.717
    1C        C  432   3.123   4.491   4.842
    1C        C  433   3.203   4.486   4.957
    1C        C  434   4.376   4.117   2.051
    1C        C  435   4.439   3.992   2.046
    1C        C  436   4.302   4.165   2.163
    1C        C  437   4.333   4.096   2.284
    1C        C  438   4.175   4.244   2.400
    1C        C  439   4.280   4.150   2.403
    1C        C  440   4.117   4.293   2.519
    1C        C  441   4.175   4.247   2.639
    1C        C  442   4.002   4.374   2.762
    1C        C  443   4.118   4.294   2.760
    1C        C  444   3.938   4.406   2.884
    1C        C  445   3.996   4.366   3.006
    1C        C  446   3.803   4.457   3.128
    1C        C  447   3.932   4.400   3.128
    1C        C  448   3.740   4.488   3.251
    1C        C  449   3.808   4.465   3.373
    1C        C  450   3.606   4.521   3.493
    1C        C  451   3.743   4.489   3.496
    1C        C  452   3.538   4.532   3.616
    1C        C  453   3.605   4.530   3.740
    1C        C  454   3.393   4.543   3.864
    1C        C  455   3.534   4.546   3.861
    1C        C  456   3.325   4.533   3.988
    1C        C  457   3.397   4.535   4.109
    1C        C  458   3.190   4.504   4.233
    1C        C  459   3.329   4.529   4.233
    1C        C  460   3.122   4.490   4.356
    1C        C  461   3.189   4.514   4.478
    1C        C  462   2.996   4.436   4.602
    1C        C  463   3.123   4.497   4.601
    1C        C  464   2.930   4.398   4.721
    1C        C  465   2.989   4.442   4.843
    1C        C  466   2.799   4.337   4.956
    1C        C  467   2.908   4.425   4.960
    1C        C  468   4.123   4.287   2.038
    1C        C  469   4.189   4.253   2.157
    1C        C  470   4.008   4.374   2.274
    1C        C  471   4.124   4.292   2.277
    1C        C  472   3.939   4.405   2.393
    1C        C  473   4.001   4.374   2.516
    1C        C  474   3.810   4.460   2.640
    1C        C  475   3.941   4.408   2.639
    1C        C  476   3.742   4.486   2.761
    1C        C  477   3.808   4.462   2.884
    1C        C  478   3.600   4.511   3.006
    1C        C  479   3.738   4.482   3.005
    1C        C  480   3.532   4.530   3.129
    1C        C  481   3.603   4.522   3.251
    1C        C  482   3.391   4.535   3.375
    1C        C  483   3.532   4.535   3.372
    1C        C  484   3.325   4.527   3.499
    1C        C  485   3.397   4.538   3.620
    1C        C  486   3.188   4.495   3.741
    1C        C  487   3.323   4.534   3.741
    1C        C  488   3.123   4.473   3.864
    1C        C  489   3.188   4.497   3.987
    1C        C  490   2.995   4.419   4.113
    1C        C  491   3.123   4.477   4.111
    1C        C  492   2.938   4.386   4.238
    1C        C  493   2.997   4.425   4.361
    1C        C  494   2.828   4.298   4.481
    1C        C  495   2.933   4.392   4.483
    1C        C  496   2.775   4.249   4.602
    1C        C  497   2.820   4.309   4.722
    1C        C  498   2.661   4.166   4.843
    1C        C  499   2.750   4.275   4.841
    1C        C  500   2.599   4.106   4.953
    1C        C  501   4.003   4.356   2.036
    1C        C  502   3.811   4.458   2.151
    1C        C  503   3.940   4.400   2.153
    1C        C  504   3.741   4.479   2.272
    1C        C  505   3.808   4.458   2.395
    1C        C  506   3.604   4.508   2.516
    1C        C  507   3.743   4.483   2.517
    1C        C  508   3.533   4.515   2.638
    1C        C  509   3.603   4.514   2.761
    1C        C  510   3.391   4.526   2.883
    1C        C  511   3.532   4.521   2.883
    1C        C  512   3.321   4.524   3.006
    1C        C  513   3.391   4.530   3.128
    1C        C  514   3.187   4.489   3.254
    1C        C  515   3.323   4.528   3.252
    1C        C  516   3.120   4.466   3.376
    1C        C  517   3.187   4.495   3.497
    1C        C  518   2.994   4.407   3.623
    1C        C  519   3.120   4.472   3.619
    1C        C  520   2.937   4.369   3.746
    1C        C  521   2.998   4.407   3.868
    1C        C  522   2.837   4.275   3.994
    1C        C  523   2.940   4.371   3.992
    1C        C  524   2.786   4.232   4.119
    1C        C  525   2.832   4.293   4.238
    1C        C  526   2.697   4.129   4.363
    1C        C  527   2.779   4.245   4.360
    1C        C  528   2.658   4.069   4.485
    1C        C  529   2.694   4.134   4.605
    1C        C  530   2.578   3.960   4.728
    1C        C  531   2.634   4.091   4.726
    1C        C  532   2.536   3.900   4.849
    1C        C  533   2.516   3.993   4.956
    1C        C  534   3.616   4.559   2.039
    1C        C  535   3.746   4.508   2.037
    1C        C  536   3.532   4.533   2.152
    1C        C  537   3.602   4.509   2.273
    1C        C  538   3.390   4.513   2.400
    1C        C  539   3.532   4.515   2.395
    1C        C  540   3.319   4.503   2.522
    1C        C  541   3.392   4.515   2.642
    1C        C  542   3.180   4.482   2.765
    1C        C  543   3.318   4.510   2.763
    1C        C  544   3.118   4.461   2.890
    1C        C  545   3.185   4.486   3.011
    1C        C  546   2.995   4.393   3.132
    1C        C  547   3.118   4.463   3.133
    1C        C  548   2.937   4.361   3.256
    1C        C  549   2.994   4.402   3.379
    1C        C  550   2.821   4.281   3.504
    1C        C  551   2.933   4.368   3.502
    1C        C  552   2.773   4.232   3.627
    1C        C  553   2.826   4.281   3.748
    1C        C  554   2.698   4.117   3.875
    1C        C  555   2.784   4.229   3.872
    1C        C  556   2.660   4.059   3.998
    1C        C  557   2.699   4.122   4.119
    1C        C  558   2.595   3.940   4.244
    1C        C  559   2.662   4.064   4.243
    1C        C  560   2.563   3.877   4.366
    1C        C  561   2.588   3.947   4.487
    1C        C  562   2.525   3.748   4.616
    1C        C  563   2.554   3.886   4.610
    1C        C  564   2.512   3.679   4.738
    1C        C  565   2.515   3.758   4.856
    1C        C  566   2.520   3.546   4.975
    1C        C  567   2.524   3.685   4.975
    1C        C  568   3.323   4.472   2.039
    1C        C  569   3.392   4.508   2.155
    1C        C  570   3.182   4.471   2.278
    1C        C  571   3.321   4.504   2.278
    1C        C  572   3.114   4.449   2.400
    1C        C  573   3.180   4.476   2.521
    1C        C  574   2.985   4.399   2.644
    1C        C  575   3.109   4.466   2.643
    1C        C  576   2.930   4.359   2.767
    1C        C  577   2.991   4.399   2.888
    1C        C  578   2.823   4.268   3.012
    1C        C  579   2.932   4.358   3.010
    1C        C  580   2.773   4.223   3.136
    1C        C  581   2.823   4.278   3.257
    1C        C  582   2.692   4.116   3.382
    1C        C  583   2.774   4.231   3.381
    1C        C  584   2.659   4.056   3.506
    1C        C  585   2.693   4.115   3.629
    1C        C  586   2.594   3.931   3.755
    1C        C  587   2.655   4.059   3.753
    1C        C  588   2.570   3.865   3.878
    1C        C  589   2.596   3.933   3.999
    1C        C  590   2.528   3.737   4.125
    1C        C  591   2.568   3.872   4.123
    1C        C  592   2.516   3.670   4.249
    1C        C  593   2.523   3.741   4.371
    1C        C  594   2.509   3.534   4.495
    1C        C  595   2.510   3.675   4.496
    1C        C  596   2.516   3.464   4.618
    1C        C  597   2.513   3.536   4.739
    1C        C  598   2.530   3.324   4.863
    1C        C  599   2.519   3.465   4.861
    1C        C  600   2.527   3.246   4.979
    1C        C  601   3.190   4.435   2.039
    1C        C  602   2.979   4.392   2.158
    1C        C  603   3.115   4.435   2.158
    1C        C  604   2.920   4.354   2.282
    1C        C  605   2.985   4.392   2.401
    1C        C  606   2.815   4.267   2.525
    1C        C  607   2.923   4.358   2.524
    1C        C  608   2.767   4.216   2.648
    1C        C  609   2.819   4.271   2.767
    1C        C  610   2.686   4.107   2.893
    1C        C  611   2.773   4.218   2.890
    1C        C  612   2.654   4.047   3.016
    1C        C  613   2.694   4.106   3.138
    1C        C  614   2.591   3.925   3.263
    1C        C  615   2.653   4.052   3.262
    1C        C  616   2.569   3.862   3.388
    1C        C  617   2.596   3.930   3.509
    1C        C  618   2.528   3.731   3.638
    1C        C  619   2.567   3.867   3.632
    1C        C  620   2.513   3.660   3.759
    1C        C  621   2.527   3.731   3.881
    1C        C  622   2.512   3.522   4.005
    1C        C  623   2.517   3.664   4.005
    1C        C  624   2.509   3.457   4.131
    1C        C  625   2.505   3.530   4.252
    1C        C  626   2.540   3.322   4.377
    1C        C  627   2.515   3.461   4.375
    1C        C  628   2.561   3.254   4.499
    1C        C  629   2.536   3.324   4.619
    1C        C  630   2.594   3.120   4.741
    1C        C  631   2.550   3.255   4.741
    1C        C  632   2.614   3.050   4.864
    1C        C  633   2.558   3.109   4.982
    1C        C  634   2.784   4.299   2.047
    1C        C  635   2.890   4.391   2.046
    1C        C  636   2.751   4.225   2.162
    1C        C  637   2.806   4.268   2.284
    1C        C  638   2.671   4.104   2.406
    1C        C  639   2.759   4.216   2.406
    1C        C  640   2.629   4.049   2.529
    1C        C  641   2.678   4.106   2.648
    1C        C  642   2.582   3.921   2.774
    1C        C  643   2.643   4.048   2.772
    1C        C  644   2.564   3.852   2.897
    1C        C  645   2.590   3.921   3.018
    1C        C  646   2.525   3.723   3.146
    1C        C  647   2.562   3.859   3.142
    1C        C  648   2.511   3.656   3.270
    1C        C  649   2.528   3.727   3.391
    1C        C  650   2.504   3.520   3.517
    1C        C  651   2.517   3.661   3.516
    1C        C  652   2.505   3.451   3.640
    1C        C  653   2.504   3.519   3.764
    1C        C  654   2.532   3.309   3.888
    1C        C  655   2.505   3.448   3.886
    1C        C  656   2.551   3.247   4.013
    1C        C  657   2.531   3.317   4.134
    1C        C  658   2.605   3.119   4.256
    1C        C  659   2.550   3.249   4.256
    1C        C  660   2.636   3.056   4.378
    1C        C  661   2.605   3.120   4.501
    1C        C  662   2.712   2.938   4.623
    1C        C  663   2.630   3.053   4.622
    1C        C  664   2.747   2.876   4.746
    1C        C  665   2.694   2.931   4.866
    1C        C  666   2.748   2.871   4.980
    1C        C  667   2.679   4.021   2.052
    1C        C  668   2.679   4.103   2.165
    1C        C  669   2.579   3.913   2.288
    1C        C  670   2.635   4.043   2.284
    1C        C  671   2.547   3.849   2.410
    1C        C  672   2.572   3.919   2.530
    1C        C  673   2.519   3.717   2.658
    1C        C  674   2.550   3.855   2.654
    1C        C  675   2.504   3.648   2.781
    1C        C  676   2.521   3.718   2.903
    1C        C  677   2.506   3.509   3.030
    1C        C  678   2.512   3.650   3.026
    1C        C  679   2.503   3.441   3.153
    1C        C  680   2.497   3.515   3.273
    1C        C  681   2.530   3.307   3.401
    1C        C  682   2.504   3.446   3.396
    1C        C  683   2.551   3.239   3.523
    1C        C  684   2.530   3.312   3.642
    1C        C  685   2.601   3.112   3.769
    1C        C  686   2.548   3.243   3.764
    1C        C  687   2.633   3.050   3.892
    1C        C  688   2.598   3.114   4.013
    1C        C  689   2.710   2.932   4.135
    1C        C  690   2.634   3.051   4.135
    1C        C  691   2.750   2.877   4.258
    1C        C  692   2.711   2.936   4.380
    1C        C  693   2.754   2.879   4.502
    1C        C  694   2.642   3.886   2.059
    1C        C  695   2.526   3.702   2.174
    1C        C  696   2.574   3.834   2.171
    1C        C  697   2.501   3.637   2.297
    1C        C  698   2.516   3.711   2.416
    1C        C  699   2.491   3.502   2.542
    1C        C  700   2.502   3.643   2.539
    1C        C  701   2.502   3.434   2.665
    1C        C  702   2.496   3.508   2.786
    1C        C  703   2.524   3.298   2.911
    1C        C  704   2.502   3.437   2.908
    1C        C  705   2.544   3.231   3.034
    1C        C  706   2.528   3.302   3.156
    1C        C  707   2.597   3.104   3.278
    1C        C  708   2.548   3.237   3.280
    1C        C  709   2.628   3.041   3.401
    1C        C  710   2.598   3.106   3.523
    1C        C  711   2.701   2.924   3.648
    1C        C  712   2.630   3.047   3.647
    1C        C  713   2.751   2.873   3.770
    1C        C  714   2.715   2.935   3.891
    1C        C  715   2.755   2.876   4.013
    1C        C  716   2.445   3.499   2.060
    1C        C  717   2.484   3.633   2.059
    1C        C  718   2.466   3.421   2.179
    1C        C  719   2.482   3.496   2.299
    1C        C  720   2.515   3.289   2.424
    1C        C  721   2.486   3.427   2.422
    1C        C  722   2.531   3.221   2.547
    1C        C  723   2.525   3.295   2.667
    1C        C  724   2.592   3.095   2.789
    1C        C  725   2.543   3.228   2.790
    1C        C  726   2.621   3.034   2.913
    1C        C  727   2.591   3.098   3.036
    1C        C  728   2.707   2.920   3.156
    1C        C  729   2.628   3.037   3.158
    1C        C  730   2.750   2.873   3.282
    1C        C  731   2.709   2.926   3.406
    1C        C  732   2.752   2.868   3.528
    1C        C  733   2.492   3.195   2.070
    1C        C  734   2.492   3.281   2.181
    1C        C  735   2.589   3.088   2.301
    1C        C  736   2.529   3.217   2.303
    1C        C  737   2.614   3.023   2.424
    1C        C  738   2.581   3.089   2.545
    1C        C  739   2.701   2.915   2.671
    1C        C  740   2.617   3.029   2.667
    1C        C  741   2.744   2.856   2.792
    1C        C  742   2.701   2.918   2.911
    1C        C  743   2.750   2.865   3.033
    1C        C  744   2.545   3.067   2.070
    1C        C  745   2.684   2.895   2.185
    1C        C  746   2.614   3.017   2.182
    1C        C  747   2.731   2.842   2.307
    1C        C  748   2.686   2.902   2.427
    1C        C  749   2.737   2.852   2.549
    1C        C  750   2.737   2.839   2.068
    1C        C  751   3.662   2.321   1.973
    1C        O  752   3.643   2.199   1.998
    1C        O  753   3.673   2.344   1.835
    1C        C  754   4.622   3.053   1.964
    1C        O  755   4.584   3.027   1.847
    1C        O  756   4.731   2.976   2.008
    1C        C  757   4.446   4.216   1.966
    1C        O  758   4.557   4.268   1.997
    1C        O  759   4.385   4.251   1.844
    1C        C  760   3.588   4.676   1.952
    1C        O  761   3.634   4.788   1.987
    1C        O  762   3.559   4.676   1.815
    1C        C  763   2.880   4.514   1.965
    1C        O  764   2.947   4.521   1.858
    1C        O  765   2.793   4.624   1.972
    1C        C  766   2.322   3.488   1.979
    1C        O  767   2.322   3.416   1.876
    1C        O  768   2.196   3.492   2.039
    1C        C  769   4.695   3.585   5.045
    1C        O  770   4.663   3.557   5.163
    1C        O  771   4.823   3.641   5.047
    1C        C  772   4.276   4.450   5.032
    1C        O  773   4.294   4.417   5.153
    1C        O  774   4.361   4.550   4.983
    1C        C  775   4.140   2.502   5.067
    1C        O  776   4.146   2.379   5.089
    1C        O  777   4.170   2.563   5.189
    1C        C  778   2.892   4.543   5.048
    1C        O  779   2.828   4.640   4.998
    1C        O  780   2.909   4.535   5.186
    1C        C  781   2.488   3.029   5.084
    1C        O  782   2.374   2.975   5.084
    1C        O  783   2.543   3.032   5.212
    1C        C  784   2.385   4.013   5.022
    1C        O  785   2.277   4.025   4.957
    1C        O  786   2.370   4.061   5.153
    1C        C  787   2.947   2.393   2.030
    1C        O  788   2.881   2.415   1.925
    1C        O  789   2.921   2.277   2.103
    1C        C  790   3.182   2.380   5.066
    1C        O  791   3.108   2.279   5.057
    1C        O  792   3.210   2.395   5.203
    1C        H  793   4.305   3.003   5.069
    1C        H  794   4.125   2.860   5.036
    1C        H  795   4.504   3.129   5.056
    1C        H  796   4.475   3.383   5.041
    1C        H  797   4.560   3.807   5.045
    1C        H  798   4.355   3.943   5.029
    1C        H  799   4.281   4.161   5.053
    1C        H  800   4.011   4.493   5.039
    1C        H  801   3.822   4.562   5.038
    1C        H  802   3.592   4.671   5.002
    1C        H  803   3.403   4.495   5.035
    1C        H  804   3.183   4.408   5.028
    1C        H  805   3.892   2.476   5.063
    1C        H  806   3.677   2.458   5.072
    1C        H  807   2.995   2.563   5.062
    1C        H  808   3.440   2.475   5.076
    1C        H  809   2.819   2.696   5.054
    1C        H  810   2.705   2.894   5.076
    1C        H  811   2.500   3.290   5.072
    1C        H  812   2.474   3.500   5.060
    1C        H  813   2.526   3.742   5.066
    1C        H  814   2.629   4.139   5.051
    1C        H  815   2.738   4.347   5.044
    1C        H  816   2.695   2.866   1.973
    1C        H  817   2.816   2.661   1.985
    1C        H  818   3.212   2.445   1.985
    1C        H  819   3.437   2.485   1.982
    1C        H  820   3.885   2.466   1.991
    1C        H  821   4.068   2.610   1.972
    1C        H  822   4.239   2.729   1.968
    1C        H  823   4.405   2.884   1.976
    1C        H  824   4.622   3.307   1.990
    1C        H  825   4.458   3.515   1.965
    1C        H  826   4.524   3.748   1.957
    1C        H  827   3.801   4.505   1.945
    1C        H  828   3.933   4.306   1.972
    1C        H  829   4.129   4.224   1.951
    1C        H  830   4.502   3.961   1.964
    1C        H  831   2.637   3.830   1.968
    1C        H  832   2.760   4.034   1.983
    1C        H  833   2.721   4.289   1.961
    1C        H  834   3.376   4.456   1.947
    1C        H  835   3.154   4.370   1.962
    1C        H  836   2.485   2.994   2.020
    1C        H  837   2.421   3.217   1.992
    1C        H  838   2.505   3.670   1.960
    2V3OU   H29  839   2.802   3.547   1.059
    2V3OU   C27  840   2.784   3.498   1.158
    2V3OU   H27  841   2.726   3.570   1.221
    2V3OU   H28  842   2.723   3.405   1.138
    2V3OU   O11  843   2.906   3.475   1.228
    2V3OU   C15  844   2.914   3.392   1.338
    2V3OU   C13  845   3.044   3.371   1.389
    2V3OU   C14  846   3.072   3.263   1.474
    2V3OU   C16  847   2.966   3.182   1.512
    2V3OU    H6  848   2.987   3.099   1.580
    2V3OU   C12  849   3.209   3.224   1.515
    2V3OU    O2  850   3.230   3.127   1.592
    2V3OU   C10  851   3.319   3.303   1.460
    2V3OU    C8  852   3.451   3.270   1.490
    2V3OU   O10  853   3.486   3.149   1.542
    2V3OU   H26  854   3.407   3.119   1.589
    2V3OU    C6  855   3.561   3.349   1.446
    2V3OU    C5  856   3.535   3.461   1.367
    2V3OU    C4  857   3.699   3.293   1.446
    2V3OU    H4  858   3.723   3.219   1.529
    2V3OU    H5  859   3.704   3.230   1.352
    2V3OU    C2  860   3.812   3.395   1.439
    2V3OU    O6  861   3.808   3.469   1.561
    2V3OU   H21  862   3.764   3.552   1.537
    2V3OU    C3  863   3.784   3.495   1.325
    2V3OU    H2  864   3.865   3.571   1.322
    2V3OU    H3  865   3.785   3.439   1.228
    2V3OU   C25  866   3.950   3.331   1.423
    2V3OU    O7  867   3.992   3.298   1.312
    2V3OU   C26  868   4.025   3.289   1.548
    2V3OU   H22  869   4.058   3.382   1.601
    2V3OU   H23  870   4.115   3.229   1.519
    2V3OU    O8  871   3.964   3.208   1.646
    2V3OU   H24  872   3.923   3.267   1.710
    2V3OU    C1  873   3.646   3.558   1.339
    2V3OU    H1  874   3.624   3.616   1.245
    2V3OU    O3  875   3.655   3.649   1.449
    2V3OU   C19  876   3.617   3.786   1.435
    2V3OU    H9  877   3.521   3.803   1.378
    2V3OU    O4  878   3.713   3.842   1.350
    2V3OU   C20  879   3.844   3.870   1.402
    2V3OU   H10  880   3.898   3.774   1.424
    2V3OU   C24  881   3.606   3.851   1.573
    2V3OU   H16  882   3.540   3.792   1.642
    2V3OU   H17  883   3.566   3.954   1.558
    2V3OU   C23  884   3.747   3.873   1.628
    2V3OU   H15  885   3.790   3.769   1.651
    2V3OU    N1  886   3.729   3.952   1.748
    2V3OU   H19  887   3.801   3.924   1.812
    2V3OU   H20  888   3.638   3.933   1.785
    2V3OU   C21  889   3.849   3.946   1.535
    2V3OU   H11  890   3.951   3.919   1.574
    2V3OU    O5  891   3.831   4.086   1.544
    2V3OU   H18  892   3.783   4.110   1.625
    2V3OU   C22  893   3.912   3.945   1.289
    2V3OU   H12  894   3.862   4.045   1.279
    2V3OU   H13  895   3.901   3.889   1.192
    2V3OU   H14  896   4.021   3.960   1.311
    2V3OU   C11  897   3.153   3.467   1.363
    2V3OU    O1  898   3.127   3.586   1.336
    2V3OU    C9  899   3.291   3.419   1.383
    2V3OU    C7  900   3.399   3.494   1.337
    2V3OU    O9  901   3.384   3.613   1.268
    2V3OU   H25  902   3.290   3.626   1.286
    2V3OU   C17  903   2.808   3.309   1.380
    2V3OU    H7  904   2.707   3.334   1.346
    2V3OU   C18  905   2.835   3.211   1.474
    2V3OU    H8  906   2.751   3.146   1.505
    3SOL     OW  907   0.532   3.668   0.606
    3SOL    HW1  908   0.434   3.688   0.603
    3SOL    HW2  909   0.577   3.729   0.671
    4SOL     OW  910   5.389   1.010   2.412
    4SOL    HW1  911   5.434   1.098   2.392
    4SOL    HW2  912   5.454   0.949   2.456
    5SOL     OW  913   3.758   2.973   1.245
    5SOL    HW1  914   3.827   2.972   1.317
    5SOL    HW2  915   3.666   2.974   1.286
    6SOL     OW  916   2.608   2.424   0.675
    6SOL    HW1  917   2.645   2.385   0.591
    6SOL    HW2  918   2.531   2.368   0.706
    7SOL     OW  919   5.920   1.063   1.432
    7SOL    HW1  920   5.872   1.147   1.404
    7SOL    HW2  921   5.950   1.013   1.351
    8SOL     OW  922   3.016   2.140   3.363
    8SOL    HW1  923   3.065   2.162   3.278
    8SOL    HW2  924   3.032   2.045   3.387
    9SOL     OW  925   0.567   4.047   5.771
    9SOL    HW1  926   0.616   3.986   5.832
    9SOL    HW2  927   0.631   4.112   5.729
   10SOL     OW  928   0.472   4.158   0.473
   10SOL    HW1  929   0.381   4.199   0.482
   10SOL    HW2  930   0.518   4.158   0.562
   11SOL     OW  931   3.857   6.485   0.004
   11SOL    HW1  932   3.946   6.456   6.987
   11SOL    HW2  933   3.849   6.584   7.014
   12SOL     OW  934   5.378   6.392   2.146
   12SOL    HW1  935   5.340   6.429   2.231
   12SOL    HW2  936   5.432   6.463   2.101
   13SOL     OW  937   1.378   6.925   3.678
   13SOL    HW1  938   1.296   6.906   3.731
   13SOL    HW2  939   1.439   6.846   3.681
   14SOL     OW  940   2.800   0.130   2.925
   14SOL    HW1  941   2.822   0.083   3.010
   14SOL    HW2  942   2.785   0.227   2.944
   15SOL     OW  943   2.753   6.640   6.350
   15SOL    HW1  944   2.694   6.704   6.400
   15SOL    HW2  945   2.730   6.546   6.375
   16SOL     OW  946   6.530   1.633   6.693
   16SOL    HW1  947   6.602   1.582   6.646
   16SOL    HW2  948   6.549   1.731   6.686
   17SOL     OW  949   4.644   6.348   3.197
   17SOL    HW1  950   4.688   6.296   3.270
   17SOL    HW2  951   4.565   6.397   3.235
   18SOL     OW  952   1.514   1.187   0.293
   18SOL    HW1  953   1.585   1.195   0.222
   18SOL    HW2  954   1.542   1.241   0.373
   19SOL     OW  955   0.978   0.021   1.580
   19SOL    HW1  956   0.987   6.942   1.598
   19SOL    HW2  957   1.041   0.048   1.508
   20SOL     OW  958   3.481   0.775   3.996
   20SOL    HW1  959   3.573   0.736   3.989
   20SOL    HW2  960   3.471   0.821   4.084
   21SOL     OW  961   2.728   2.862   1.656
   21SOL    HW1  962   2.660   2.789   1.643
   21SOL    HW2  963   2.681   2.950   1.656
   22SOL     OW  964   1.106   1.263   5.251
   22SOL    HW1  965   1.024   1.248   5.197
   22SOL    HW2  966   1.080   1.280   5.346
   23SOL     OW  967   3.251   5.646   4.527
   23SOL    HW1  968   3.293   5.564   4.565
   23SOL    HW2  969   3.319   5.719   4.521
   24SOL     OW  970   3.878   0.994   4.670
   24SOL    HW1  971   3.786   1.031   4.684
   24SOL    HW2  972   3.937   1.064   4.629
   25SOL     OW  973   2.742   4.774   1.166
   25SOL    HW1  974   2.734   4.831   1.247
   25SOL    HW2  975   2.769   4.831   1.088
   26SOL     OW  976   6.105   1.155   3.204
   26SOL    HW1  977   6.167   1.233   3.203
   26SOL    HW2  978   6.068   1.141   3.112
   27SOL     OW  979   6.160   6.806   1.975
   27SOL    HW1  980   6.247   6.836   1.935
   27SOL    HW2  981   6.179   6.745   2.052
   28SOL     OW  982   3.253   0.557   0.766
   28SOL    HW1  983   3.288   0.647   0.793
   28SOL    HW2  984   3.324   0.488   0.782
   29SOL     OW  985   3.991   2.722   1.614
   29SOL    HW1  986   4.015   2.673   1.531
   29SOL    HW2  987   3.949   2.659   1.679
   30SOL     OW  988   4.137   1.153   4.793
   30SOL    HW1  989   4.099   1.117   4.878
   30SOL    HW2  990   4.126   1.253   4.791
   31SOL     OW  991   0.623   1.198   5.089
   31SOL    HW1  992   0.585   1.160   5.005
   31SOL    HW2  993   0.592   1.145   5.168
   32SOL     OW  994   0.125   1.807   1.892
   32SOL    HW1  995   0.052   1.841   1.832
   32SOL    HW2  996   0.091   1.731   1.947
   33SOL     OW  997   2.042   2.137   5.103
   33SOL    HW1  998   2.096   2.186   5.034
   33SOL    HW2  999   2.097   2.124   5.185
   34SOL     OW 1000   0.970   0.664   4.609
   34SOL    HW1 1001   0.939   0.684   4.701
   34SOL    HW2 1002   0.935   0.574   4.581
   35SOL     OW 1003   3.691   1.948   6.140
   35SOL    HW1 1004   3.771   2.008   6.133
   35SOL    HW2 1005   3.625   1.987   6.203
   36SOL     OW 1006   1.412   1.711   5.766
   36SOL    HW1 1007   1.502   1.698   5.724
   36SOL    HW2 1008   1.349   1.750   5.700
   37SOL     OW 1009   2.225   6.257   0.669
   37SOL    HW1 1010   2.266   6.328   0.726
   37SOL    HW2 1011   2.126   6.267   0.668
   38SOL     OW 1012   6.910   6.234   1.738
   38SOL    HW1 1013   6.889   6.223   1.835
   38SOL    HW2 1014   6.826   6.252   1.687
   39SOL     OW 1015   6.898   2.855   5.997
   39SOL    HW1 1016   6.989   2.894   5.984
   39SOL    HW2 1017   6.839   2.883   5.921
   40SOL     OW 1018   6.699   0.868   1.433
   40SOL    HW1 1019   6.786   0.844   1.476
   40SOL    HW2 1020   6.628   0.803   1.462
   41SOL     OW 1021   1.359   0.518   5.969
   41SOL    HW1 1022   1.448   0.549   5.933
   41SOL    HW2 1023   1.374   0.447   6.037
   42SOL     OW 1024   3.739   0.282   0.650
   42SOL    HW1 1025   3.740   0.189   0.686
   42SOL    HW2 1026   3.650   0.300   0.608
   43SOL     OW 1027   5.199   5.818   5.129
   43SOL    HW1 1028   5.213   5.872   5.046
   43SOL    HW2 1029   5.130   5.747   5.111
   44SOL     OW 1030   0.439   3.108   6.788
   44SOL    HW1 1031   0.497   3.189   6.784
   44SOL    HW2 1032   0.384   3.110   6.872
   45SOL     OW 1033   2.783   0.504   1.672
   45SOL    HW1 1034   2.828   0.561   1.603
   45SOL    HW2 1035   2.730   0.433   1.626
   46SOL     OW 1036   1.334   5.176   3.957
   46SOL    HW1 1037   1.408   5.192   4.023
   46SOL    HW2 1038   1.356   5.096   3.902
   47SOL     OW 1039   5.480   4.637   3.038
   47SOL    HW1 1040   5.397   4.667   3.084
   47SOL    HW2 1041   5.560   4.667   3.090
   48SOL     OW 1042   0.906   1.443   5.721
   48SOL    HW1 1043   0.846   1.376   5.764
   48SOL    HW2 1044   0.857   1.488   5.646
   49SOL     OW 1045   5.592   2.661   0.641
   49SOL    HW1 1046   5.502   2.692   0.670
   49SOL    HW2 1047   5.652   2.651   0.721
   50SOL     OW 1048   6.899   3.729   4.709
   50SOL    HW1 1049   6.899   3.710   4.611
   50SOL    HW2 1050   6.874   3.824   4.725
   51SOL     OW 1051   2.718   5.481   2.618
   51SOL    HW1 1052   2.780   5.402   2.612
   51SOL    HW2 1053   2.648   5.474   2.548
   52SOL     OW 1054   0.914   2.384   1.477
   52SOL    HW1 1055   0.931   2.363   1.381
   52SOL    HW2 1056   0.870   2.307   1.521
   53SOL     OW 1057   4.842   6.397   4.208
   53SOL    HW1 1058   4.930   6.432   4.175
   53SOL    HW2 1059   4.780   6.384   4.131
   54SOL     OW 1060   4.508   5.626   5.917
   54SOL    HW1 1061   4.425   5.671   5.950
   54SOL    HW2 1062   4.588   5.683   5.938
   55SOL     OW 1063   3.522   2.516   0.831
   55SOL    HW1 1064   3.509   2.435   0.775
   55SOL    HW2 1065   3.476   2.594   0.789
   56SOL     OW 1066   0.535   6.729   1.548
   56SOL    HW1 1067   0.551   6.798   1.619
   56SOL    HW2 1068   0.437   6.722   1.530
   57SOL     OW 1069   6.008   1.579   1.034
   57SOL    HW1 1070   6.066   1.513   0.987
   57SOL    HW2 1071   5.989   1.656   0.974
   58SOL     OW 1072   0.116   0.006   6.535
   58SOL    HW1 1073   0.180   0.038   6.605
   58SOL    HW2 1074   0.100   6.927   6.546
   59SOL     OW 1075   0.698   0.225   5.065
   59SOL    HW1 1076   0.739   0.150   5.014
   59SOL    HW2 1077   0.758   0.305   5.061
   60SOL     OW 1078   5.034   6.811   4.839
   60SOL    HW1 1079   5.037   6.803   4.938
   60SOL    HW2 1080   4.943   6.842   4.810
   61SOL     OW 1081   3.977   0.346   5.058
   61SOL    HW1 1082   4.047   0.365   5.127
   61SOL    HW2 1083   3.961   0.427   5.002
   62SOL     OW 1084   3.232   1.318   5.005
   62SOL    HW1 1085   3.221   1.221   4.984
   62SOL    HW2 1086   3.188   1.373   4.934
   63SOL     OW 1087   6.976   3.250   3.324
   63SOL    HW1 1088   0.042   3.276   3.279
   63SOL    HW2 1089   6.995   3.185   3.398
   64SOL     OW 1090   0.204   2.598   5.177
   64SOL    HW1 1091   0.286   2.558   5.135
   64SOL    HW2 1092   0.168   2.534   5.245
   65SOL     OW 1093   0.261   3.562   5.702
   65SOL    HW1 1094   0.241   3.520   5.790
   65SOL    HW2 1095   0.330   3.507   5.654
   66SOL     OW 1096   2.528   0.950   1.079
   66SOL    HW1 1097   2.512   0.856   1.108
   66SOL    HW2 1098   2.622   0.960   1.048
   67SOL     OW 1099   4.714   5.694   3.976
   67SOL    HW1 1100   4.748   5.788   3.980
   67SOL    HW2 1101   4.791   5.632   3.963
   68SOL     OW 1102   5.370   2.898   6.344
   68SOL    HW1 1103   5.447   2.873   6.403
   68SOL    HW2 1104   5.376   2.995   6.321
   69SOL     OW 1105   2.428   2.804   5.738
   69SOL    HW1 1106   2.379   2.722   5.709
   69SOL    HW2 1107   2.485   2.782   5.817
   70SOL     OW 1108   6.446   6.061   1.896
   70SOL    HW1 1109   6.506   6.027   1.968
   70SOL    HW2 1110   6.358   6.088   1.936
   71SOL     OW 1111   2.054   3.405   3.057
   71SOL    HW1 1112   2.096   3.400   2.967
   71SOL    HW2 1113   2.059   3.500   3.090
   72SOL     OW 1114   3.125   5.433   3.960
   72SOL    HW1 1115   3.097   5.528   3.947
   72SOL    HW2 1116   3.132   5.413   4.058
   73SOL     OW 1117   3.810   2.479   6.687
   73SOL    HW1 1118   3.835   2.490   6.783
   73SOL    HW2 1119   3.773   2.565   6.652
   74SOL     OW 1120   5.297   6.477   6.278
   74SOL    HW1 1121   5.356   6.534   6.335
   74SOL    HW2 1122   5.283   6.523   6.190
   75SOL     OW 1123   3.787   4.888   5.288
   75SOL    HW1 1124   3.778   4.816   5.357
   75SOL    HW2 1125   3.713   4.954   5.300
   76SOL     OW 1126   2.560   3.000   1.268
   76SOL    HW1 1127   2.639   2.959   1.314
   76SOL    HW2 1128   2.569   3.099   1.269
   77SOL     OW 1129   5.453   4.819   6.473
   77SOL    HW1 1130   5.553   4.828   6.474
   77SOL    HW2 1131   5.418   4.824   6.566
   78SOL     OW 1132   6.905   6.490   6.114
   78SOL    HW1 1133   6.813   6.453   6.122
   78SOL    HW2 1134   6.933   6.529   6.202
   79SOL     OW 1135   3.139   6.774   0.055
   79SOL    HW1 1136   3.156   6.871   0.073
   79SOL    HW2 1137   3.108   6.729   0.139
   80SOL     OW 1138   0.067   1.133   4.254
   80SOL    HW1 1139   0.060   1.224   4.296
   80SOL    HW2 1140   0.080   1.143   4.155
   81SOL     OW 1141   1.633   0.196   4.268
   81SOL    HW1 1142   1.626   0.115   4.327
   81SOL    HW2 1143   1.626   0.279   4.323
   82SOL     OW 1144   0.001   4.473   5.643
   82SOL    HW1 1145   6.989   4.545   5.581
   82SOL    HW2 1146   0.093   4.443   5.617
   83SOL     OW 1147   6.673   6.932   6.602
   83SOL    HW1 1148   6.683   6.837   6.632
   83SOL    HW2 1149   6.617   6.934   6.518
   84SOL     OW 1150   6.036   3.391   1.494
   84SOL    HW1 1151   6.062   3.479   1.532
   84SOL    HW2 1152   5.996   3.334   1.566
   85SOL     OW 1153   0.855   1.796   5.369
   85SOL    HW1 1154   0.954   1.806   5.355
   85SOL    HW2 1155   0.809   1.800   5.280
   86SOL     OW 1156   2.085   1.025   4.811
   86SOL    HW1 1157   2.040   0.936   4.824
   86SOL    HW2 1158   2.038   1.095   4.864
   87SOL     OW 1159   4.492   0.185   1.242
   87SOL    HW1 1160   4.507   0.142   1.331
   87SOL    HW2 1161   4.419   0.137   1.193
   88SOL     OW 1162   5.709   0.648   0.284
   88SOL    HW1 1163   5.654   0.664   0.366
   88SOL    HW2 1164   5.694   0.723   0.219
   89SOL     OW 1165   2.475   1.702   5.593
   89SOL    HW1 1166   2.411   1.743   5.528
   89SOL    HW2 1167   2.460   1.740   5.684
   90SOL     OW 1168   6.600   6.116   3.706
   90SOL    HW1 1169   6.664   6.190   3.686
   90SOL    HW2 1170   6.507   6.144   3.680
   91SOL     OW 1171   4.618   5.198   4.778
   91SOL    HW1 1172   4.552   5.126   4.798
   91SOL    HW2 1173   4.679   5.168   4.704
   92SOL     OW 1174   3.375   6.479   1.518
   92SOL    HW1 1175   3.359   6.398   1.463
   92SOL    HW2 1176   3.362   6.561   1.462
   93SOL     OW 1177   3.586   4.897   5.986
   93SOL    HW1 1178   3.491   4.876   6.009
   93SOL    HW2 1179   3.590   4.938   5.895
   94SOL     OW 1180   2.291   6.215   1.262
   94SOL    HW1 1181   2.220   6.255   1.320
   94SOL    HW2 1182   2.268   6.120   1.240
   95SOL     OW 1183   6.550   0.049   5.221
   95SOL    HW1 1184   6.628   0.088   5.270
   95SOL    HW2 1185   6.568   0.050   5.123
   96SOL     OW 1186   1.430   6.978   5.186
   96SOL    HW1 1187   1.454   6.881   5.178
   96SOL    HW2 1188   1.511   0.012   5.211
   97SOL     OW 1189   6.198   3.088   4.849
   97SOL    HW1 1190   6.161   3.116   4.938
   97SOL    HW2 1191   6.280   3.033   4.863
   98SOL     OW 1192   5.707   2.228   5.830
   98SOL    HW1 1193   5.768   2.156   5.798
   98SOL    HW2 1194   5.661   2.270   5.752
   99SOL     OW 1195   4.049   2.275   1.254
   99SOL    HW1 1196   4.020   2.197   1.199
   99SOL    HW2 1197   4.009   2.359   1.217
  100SOL     OW 1198   6.274   4.699   6.584
  100SOL    HW1 1199   6.253   4.692   6.486
  100SOL    HW2 1200   6.276   4.796   6.610
  101SOL     OW 1201   0.885   6.334   4.253
  101SOL    HW1 1202   0.797   6.287   4.254
  101SOL    HW2 1203   0.927   6.325   4.163
  102SOL     OW 1204   4.587   0.353   3.268
  102SOL    HW1 1205   4.557   0.400   3.351
  102SOL    HW2 1206   4.508   0.315   3.220
  103SOL     OW 1207   3.554   1.798   1.581
  103SOL    HW1 1208   3.487   1.811   1.508
  103SOL    HW2 1209   3.508   1.802   1.670
  104SOL     OW 1210   6.927   5.922   1.814
  104SOL    HW1 1211   6.888   6.008   1.848
  104SOL    HW2 1212   6.934   5.856   1.889
  105SOL     OW 1213   5.066   1.322   5.582
  105SOL    HW1 1214   5.103   1.369   5.662
  105SOL    HW2 1215   5.123   1.341   5.502
  106SOL     OW 1216   3.429   6.526   0.662
  106SOL    HW1 1217   3.472   6.436   0.665
  106SOL    HW2 1218   3.499   6.597   0.660
  107SOL     OW 1219   2.408   3.284   1.262
  107SOL    HW1 1220   2.429   3.372   1.304
  107SOL    HW2 1221   2.315   3.257   1.287
  108SOL     OW 1222   4.987   4.372   5.382
  108SOL    HW1 1223   4.910   4.436   5.376
  108SOL    HW2 1224   4.973   4.297   5.318
  109SOL     OW 1225   6.040   0.882   1.241
  109SOL    HW1 1226   5.970   0.809   1.240
  109SOL    HW2 1227   6.115   0.854   1.301
  110SOL     OW 1228   2.880   5.953   4.799
  110SOL    HW1 1229   2.943   5.883   4.767
  110SOL    HW2 1230   2.871   5.946   4.899
  111SOL     OW 1231   3.915   1.057   3.466
  111SOL    HW1 1232   3.953   1.061   3.373
  111SOL    HW2 1233   3.893   1.149   3.497
  112SOL     OW 1234   6.796   1.207   6.468
  112SOL    HW1 1235   6.747   1.183   6.552
  112SOL    HW2 1236   6.890   1.231   6.490
  113SOL     OW 1237   6.892   6.121   3.896
  113SOL    HW1 1238   6.969   6.089   3.841
  113SOL    HW2 1239   6.847   6.197   3.850
  114SOL     OW 1240   1.130   6.646   6.919
  114SOL    HW1 1241   1.214   6.683   6.959
  114SOL    HW2 1242   1.065   6.626   6.992
  115SOL     OW 1243   5.802   0.983   5.357
  115SOL    HW1 1244   5.815   0.897   5.407
  115SOL    HW2 1245   5.715   1.024   5.383
  116SOL     OW 1246   5.843   4.569   2.716
  116SOL    HW1 1247   5.767   4.553   2.653
  116SOL    HW2 1248   5.812   4.550   2.810
  117SOL     OW 1249   1.314   6.574   6.154
  117SOL    HW1 1250   1.399   6.575   6.207
  117SOL    HW2 1251   1.317   6.499   6.088
  118SOL     OW 1252   1.742   0.213   2.735
  118SOL    HW1 1253   1.688   0.250   2.811
  118SOL    HW2 1254   1.685   0.205   2.654
  119SOL     OW 1255   6.550   2.739   6.368
  119SOL    HW1 1256   6.607   2.705   6.293
  119SOL    HW2 1257   6.523   2.662   6.425
  120SOL     OW 1258   5.648   6.568   1.372
  120SOL    HW1 1259   5.650   6.474   1.338
  120SOL    HW2 1260   5.607   6.571   1.463
  121SOL     OW 1261   2.833   3.296   5.913
  121SOL    HW1 1262   2.829   3.342   5.824
  121SOL    HW2 1263   2.850   3.199   5.899
  122SOL     OW 1264   0.683   3.192   4.463
  122SOL    HW1 1265   0.608   3.255   4.443
  122SOL    HW2 1266   0.725   3.216   4.550
  123SOL     OW 1267   0.817   2.107   1.561
  123SOL    HW1 1268   0.857   2.057   1.484
  123SOL    HW2 1269   0.800   2.043   1.636
  124SOL     OW 1270   4.671   3.328   0.922
  124SOL    HW1 1271   4.761   3.350   0.883
  124SOL    HW2 1272   4.600   3.377   0.871
  125SOL     OW 1273   2.069   3.653   1.863
  125SOL    HW1 1274   2.124   3.600   1.928
  125SOL    HW2 1275   2.010   3.590   1.812
  126SOL     OW 1276   3.532   4.545   1.037
  126SOL    HW1 1277   3.503   4.600   1.115
  126SOL    HW2 1278   3.452   4.524   0.980
  127SOL     OW 1279   0.898   5.168   5.935
  127SOL    HW1 1280   0.968   5.212   5.992
  127SOL    HW2 1281   0.933   5.158   5.842
  128SOL     OW 1282   4.400   2.584   1.241
  128SOL    HW1 1283   4.391   2.653   1.313
  128SOL    HW2 1284   4.327   2.516   1.251
  129SOL     OW 1285   2.651   3.710   6.350
  129SOL    HW1 1286   2.684   3.698   6.256
  129SOL    HW2 1287   2.562   3.754   6.348
  130SOL     OW 1288   1.548   2.273   4.630
  130SOL    HW1 1289   1.468   2.269   4.570
  130SOL    HW2 1290   1.570   2.180   4.661
  131SOL     OW 1291   5.306   1.818   2.843
  131SOL    HW1 1292   5.294   1.769   2.757
  131SOL    HW2 1293   5.247   1.778   2.914
  132SOL     OW 1294   0.339   2.603   1.992
  132SOL    HW1 1295   0.360   2.601   2.090
  132SOL    HW2 1296   0.316   2.510   1.961
  133SOL     OW 1297   6.564   5.904   2.437
  133SOL    HW1 1298   6.544   5.810   2.410
  133SOL    HW2 1299   6.660   5.911   2.465
  134SOL     OW 1300   0.750   3.812   2.417
  134SOL    HW1 1301   0.782   3.835   2.325
  134SOL    HW2 1302   0.651   3.794   2.415
  135SOL     OW 1303   4.168   1.744   4.096
  135SOL    HW1 1304   4.190   1.709   4.005
  135SOL    HW2 1305   4.247   1.790   4.135
  136SOL     OW 1306   4.803   4.979   5.725
  136SOL    HW1 1307   4.856   4.954   5.644
  136SOL    HW2 1308   4.857   4.965   5.807
  137SOL     OW 1309   3.412   0.797   5.888
  137SOL    HW1 1310   3.390   0.868   5.821
  137SOL    HW2 1311   3.448   0.840   5.971
  138SOL     OW 1312   6.178   4.849   4.837
  138SOL    HW1 1313   6.245   4.923   4.844
  138SOL    HW2 1314   6.123   4.846   4.921
  139SOL     OW 1315   3.145   5.936   5.282
  139SOL    HW1 1316   3.119   5.909   5.375
  139SOL    HW2 1317   3.193   6.023   5.284
  140SOL     OW 1318   6.403   4.657   4.691
  140SOL    HW1 1319   6.486   4.608   4.663
  140SOL    HW2 1320   6.384   4.730   4.625
  141SOL     OW 1321   1.523   2.142   2.587
  141SOL    HW1 1322   1.468   2.145   2.671
  141SOL    HW2 1323   1.586   2.064   2.592
  142SOL     OW 1324   1.451   5.676   1.554
  142SOL    HW1 1325   1.423   5.603   1.616
  142SOL    HW2 1326   1.440   5.764   1.599
  143SOL     OW 1327   5.038   4.135   2.121
  143SOL    HW1 1328   4.967   4.106   2.058
  143SOL    HW2 1329   5.117   4.074   2.113
  144SOL     OW 1330   2.549   6.153   0.868
  144SOL    HW1 1331   2.465   6.188   0.910
  144SOL    HW2 1332   2.602   6.104   0.936
  145SOL     OW 1333   6.737   5.318   0.642
  145SOL    HW1 1334   6.783   5.244   0.594
  145SOL    HW2 1335   6.638   5.304   0.638
  146SOL     OW 1336   6.307   4.891   0.664
  146SOL    HW1 1337   6.342   4.962   0.725
  146SOL    HW2 1338   6.210   4.905   0.647
  147SOL     OW 1339   6.009   2.341   1.318
  147SOL    HW1 1340   5.967   2.272   1.376
  147SOL    HW2 1341   5.991   2.320   1.222
  148SOL     OW 1342   1.090   5.194   5.673
  148SOL    HW1 1343   1.072   5.237   5.585
  148SOL    HW2 1344   1.085   5.095   5.664
  149SOL     OW 1345   3.056   1.434   5.880
  149SOL    HW1 1346   2.987   1.435   5.952
  149SOL    HW2 1347   3.135   1.379   5.911
  150SOL     OW 1348   0.268   5.762   5.829
  150SOL    HW1 1349   0.221   5.813   5.757
  150SOL    HW2 1350   0.240   5.666   5.826
  151SOL     OW 1351   3.918   0.769   1.631
  151SOL    HW1 1352   3.957   0.837   1.569
  151SOL    HW2 1353   3.859   0.815   1.698
  152SOL     OW 1354   3.491   0.885   4.744
  152SOL    HW1 1355   3.413   0.946   4.755
  152SOL    HW2 1356   3.507   0.835   4.830
  153SOL     OW 1357   1.412   0.588   3.308
  153SOL    HW1 1358   1.430   0.624   3.216
  153SOL    HW2 1359   1.431   0.490   3.309
  154SOL     OW 1360   6.327   2.140   3.134
  154SOL    HW1 1361   6.229   2.123   3.120
  154SOL    HW2 1362   6.380   2.068   3.091
  155SOL     OW 1363   0.501   1.342   2.593
  155SOL    HW1 1364   0.432   1.357   2.664
  155SOL    HW2 1365   0.467   1.380   2.507
  156SOL     OW 1366   0.533   2.220   1.568
  156SOL    HW1 1367   0.608   2.213   1.635
  156SOL    HW2 1368   0.448   2.190   1.611
  157SOL     OW 1369   5.857   2.897   2.656
  157SOL    HW1 1370   5.946   2.930   2.622
  157SOL    HW2 1371   5.795   2.974   2.667
  158SOL     OW 1372   1.555   1.497   3.552
  158SOL    HW1 1373   1.469   1.457   3.585
  158SOL    HW2 1374   1.544   1.596   3.545
  159SOL     OW 1375   5.013   3.588   2.306
  159SOL    HW1 1376   4.976   3.540   2.226
  159SOL    HW2 1377   4.967   3.676   2.315
  160SOL     OW 1378   6.589   4.418   5.618
  160SOL    HW1 1379   6.518   4.367   5.666
  160SOL    HW2 1380   6.651   4.354   5.573
  161SOL     OW 1381   3.644   4.644   5.679
  161SOL    HW1 1382   3.610   4.616   5.589
  161SOL    HW2 1383   3.571   4.632   5.747
  162SOL     OW 1384   4.599   6.307   2.148
  162SOL    HW1 1385   4.690   6.338   2.123
  162SOL    HW2 1386   4.560   6.369   2.216
  163SOL     OW 1387   5.202   0.539   1.808
  163SOL    HW1 1388   5.207   0.597   1.890
  163SOL    HW2 1389   5.211   0.443   1.835
  164SOL     OW 1390   6.451   3.323   1.376
  164SOL    HW1 1391   6.490   3.233   1.358
  164SOL    HW2 1392   6.524   3.385   1.406
  165SOL     OW 1393   5.885   4.157   6.267
  165SOL    HW1 1394   5.801   4.111   6.294
  165SOL    HW2 1395   5.864   4.227   6.198
  166SOL     OW 1396   1.467   0.244   1.331
  166SOL    HW1 1397   1.497   0.338   1.315
  166SOL    HW2 1398   1.372   0.234   1.304
  167SOL     OW 1399   6.356   3.366   0.554
  167SOL    HW1 1400   6.314   3.320   0.632
  167SOL    HW2 1401   6.381   3.459   0.579
  168SOL     OW 1402   2.697   5.504   1.587
  168SOL    HW1 1403   2.747   5.500   1.673
  168SOL    HW2 1404   2.636   5.426   1.580
  169SOL     OW 1405   1.203   0.028   1.409
  169SOL    HW1 1406   1.233   0.026   1.314
  169SOL    HW2 1407   1.264   6.989   1.464
  170SOL     OW 1408   0.689   1.656   3.051
  170SOL    HW1 1409   0.607   1.605   3.027
  170SOL    HW2 1410   0.671   1.712   3.131
  171SOL     OW 1411   3.185   3.765   0.593
  171SOL    HW1 1412   3.139   3.791   0.508
  171SOL    HW2 1413   3.255   3.696   0.574
  172SOL     OW 1414   6.913   3.019   1.049
  172SOL    HW1 1415   6.877   3.023   0.955
  172SOL    HW2 1416   7.012   3.035   1.048
  173SOL     OW 1417   0.413   6.127   5.734
  173SOL    HW1 1418   0.381   6.194   5.667
  173SOL    HW2 1419   0.479   6.065   5.691
  174SOL     OW 1420   2.665   5.606   3.397
  174SOL    HW1 1421   2.709   5.568   3.316
  174SOL    HW2 1422   2.652   5.704   3.385
  175SOL     OW 1423   0.640   5.573   2.768
  175SOL    HW1 1424   0.660   5.668   2.793
  175SOL    HW2 1425   0.577   5.572   2.691
  176SOL     OW 1426   3.202   5.577   0.630
  176SOL    HW1 1427   3.124   5.535   0.585
  176SOL    HW2 1428   3.287   5.538   0.595
  177SOL     OW 1429   4.416   2.483   3.247
  177SOL    HW1 1430   4.403   2.469   3.149
  177SOL    HW2 1431   4.472   2.565   3.261
  178SOL     OW 1432   5.638   4.255   5.947
  178SOL    HW1 1433   5.708   4.280   6.014
  178SOL    HW2 1434   5.645   4.314   5.867
  179SOL     OW 1435   3.078   7.005   1.445
  179SOL    HW1 1436   3.051   0.069   1.494
  179SOL    HW2 1437   2.996   6.953   1.420
  180SOL     OW 1438   1.152   2.386   6.900
  180SOL    HW1 1439   1.097   2.324   6.844
  180SOL    HW2 1440   1.190   2.336   6.978
  181SOL     OW 1441   3.244   2.937   4.673
  181SOL    HW1 1442   3.214   2.892   4.588
  181SOL    HW2 1443   3.164   2.971   4.723
  182SOL     OW 1444   4.679   2.840   5.187
  182SOL    HW1 1445   4.647   2.757   5.142
  182SOL    HW2 1446   4.773   2.858   5.159
  183SOL     OW 1447   5.642   1.713   2.530
  183SOL    HW1 1448   5.687   1.629   2.499
  183SOL    HW2 1449   5.699   1.792   2.506
  184SOL     OW 1450   0.239   4.390   2.914
  184SOL    HW1 1451   0.201   4.482   2.919
  184SOL    HW2 1452   0.165   4.323   2.916
  185SOL     OW 1453   2.764   3.296   6.411
  185SOL    HW1 1454   2.701   3.219   6.414
  185SOL    HW2 1455   2.715   3.380   6.436
  186SOL     OW 1456   6.002   6.621   3.623
  186SOL    HW1 1457   6.013   6.554   3.696
  186SOL    HW2 1458   5.909   6.616   3.587
  187SOL     OW 1459   5.634   0.944   4.129
  187SOL    HW1 1460   5.721   0.921   4.087
  187SOL    HW2 1461   5.605   1.035   4.098
  188SOL     OW 1462   6.162   2.392   4.415
  188SOL    HW1 1463   6.164   2.369   4.512
  188SOL    HW2 1464   6.091   2.338   4.369
  189SOL     OW 1465   1.637   4.173   2.629
  189SOL    HW1 1466   1.653   4.095   2.568
  189SOL    HW2 1467   1.648   4.258   2.577
  190SOL     OW 1468   2.986   1.384   6.855
  190SOL    HW1 1469   2.966   1.311   6.790
  190SOL    HW2 1470   3.069   1.432   6.828
  191SOL     OW 1471   4.116   6.429   5.578
  191SOL    HW1 1472   4.078   6.432   5.670
  191SOL    HW2 1473   4.171   6.346   5.567
  192SOL     OW 1474   6.862   0.210   1.140
  192SOL    HW1 1475   6.832   0.115   1.135
  192SOL    HW2 1476   6.890   0.240   1.049
  193SOL     OW 1477   5.479   4.247   0.155
  193SOL    HW1 1478   5.532   4.163   0.143
  193SOL    HW2 1479   5.382   4.227   0.148
  194SOL     OW 1480   4.495   0.116   4.474
  194SOL    HW1 1481   4.473   0.203   4.518
  194SOL    HW2 1482   4.413   0.081   4.428
  195SOL     OW 1483   6.684   5.281   3.584
  195SOL    HW1 1484   6.682   5.181   3.580
  195SOL    HW2 1485   6.706   5.310   3.677
  196SOL     OW 1486   1.062   0.895   1.004
  196SOL    HW1 1487   1.019   0.962   0.943
  196SOL    HW2 1488   1.159   0.885   0.980
  197SOL     OW 1489   1.990   1.134   0.487
  197SOL    HW1 1490   1.896   1.114   0.514
  197SOL    HW2 1491   2.051   1.121   0.566
  198SOL     OW 1492   2.808   1.389   3.819
  198SOL    HW1 1493   2.800   1.470   3.878
  198SOL    HW2 1494   2.724   1.335   3.824
  199SOL     OW 1495   0.872   1.818   4.576
  199SOL    HW1 1496   0.832   1.844   4.488
  199SOL    HW2 1497   0.936   1.742   4.561
  200SOL     OW 1498   6.434   2.028   6.937
  200SOL    HW1 1499   6.429   2.060   0.012
  200SOL    HW2 1500   6.344   1.998   6.906
  201SOL     OW 1501   0.502   0.865   6.623
  201SOL    HW1 1502   0.468   0.931   6.556
  201SOL    HW2 1503   0.430   0.799   6.644
  202SOL     OW 1504   5.016   0.092   0.651
  202SOL    HW1 1505   4.962   0.009   0.637
  202SOL    HW2 1506   5.020   0.144   0.565
  203SOL     OW 1507   6.166   2.677   6.065
  203SOL    HW1 1508   6.083   2.728   6.089
  203SOL    HW2 1509   6.191   2.697   5.970
  204SOL     OW 1510   6.350   0.772   5.085
  204SOL    HW1 1511   6.428   0.796   5.028
  204SOL    HW2 1512   6.270   0.754   5.028
  205SOL     OW 1513   2.078   3.704   2.799
  205SOL    HW1 1514   2.111   3.761   2.724
  205SOL    HW2 1515   2.044   3.763   2.873
  206SOL     OW 1516   6.775   3.336   0.510
  206SOL    HW1 1517   6.726   3.373   0.431
  206SOL    HW2 1518   6.795   3.239   0.494
  207SOL     OW 1519   6.042   2.694   4.625
  207SOL    HW1 1520   6.101   2.663   4.700
  207SOL    HW2 1521   6.099   2.712   4.544
  208SOL     OW 1522   1.292   3.580   5.122
  208SOL    HW1 1523   1.381   3.589   5.075
  208SOL    HW2 1524   1.285   3.489   5.162
  209SOL     OW 1525   6.808   4.572   3.017
  209SOL    HW1 1526   6.760   4.557   2.930
  209SOL    HW2 1527   6.848   4.664   3.018
  210SOL     OW 1528   4.635   2.989   0.165
  210SOL    HW1 1529   4.624   3.083   0.133
  210SOL    HW2 1530   4.635   2.987   0.265
  211SOL     OW 1531   1.143   1.370   2.091
  211SOL    HW1 1532   1.084   1.332   2.162
  211SOL    HW2 1533   1.106   1.456   2.059
  212SOL     OW 1534   2.199   3.810   2.323
  212SOL    HW1 1535   2.281   3.841   2.371
  212SOL    HW2 1536   2.182   3.714   2.345
  213SOL     OW 1537   1.294   4.912   0.914
  213SOL    HW1 1538   1.224   4.840   0.913
  213SOL    HW2 1539   1.306   4.949   0.822
  214SOL     OW 1540   5.516   6.833   2.019
  214SOL    HW1 1541   5.612   6.857   2.032
  214SOL    HW2 1542   5.458   6.911   2.042
  215SOL     OW 1543   2.265   5.104   3.049
  215SOL    HW1 1544   2.339   5.169   3.031
  215SOL    HW2 1545   2.303   5.011   3.053
  216SOL     OW 1546   1.207   5.890   3.103
  216SOL    HW1 1547   1.265   5.887   3.022
  216SOL    HW2 1548   1.231   5.969   3.160
  217SOL     OW 1549   0.957   4.430   5.765
  217SOL    HW1 1550   0.859   4.452   5.768
  217SOL    HW2 1551   1.006   4.499   5.713
  218SOL     OW 1552   2.099   1.821   5.156
  218SOL    HW1 1553   2.154   1.897   5.123
  218SOL    HW2 1554   2.151   1.736   5.148
  219SOL     OW 1555   4.549   2.372   1.408
  219SOL    HW1 1556   4.545   2.465   1.445
  219SOL    HW2 1557   4.458   2.345   1.378
  220SOL     OW 1558   3.563   6.776   1.291
  220SOL    HW1 1559   3.602   6.721   1.217
  220SOL    HW2 1560   3.634   6.794   1.359
  221SOL     OW 1561   5.302   4.395   2.123
  221SOL    HW1 1562   5.396   4.429   2.120
  221SOL    HW2 1563   5.243   4.459   2.074
  222SOL     OW 1564   2.200   4.403   6.272
  222SOL    HW1 1565   2.127   4.388   6.339
  222SOL    HW2 1566   2.224   4.499   6.270
  223SOL     OW 1567   6.142   2.571   4.836
  223SOL    HW1 1568   6.234   2.601   4.860
  223SOL    HW2 1569   6.108   2.508   4.905
  224SOL     OW 1570   3.148   1.983   5.523
  224SOL    HW1 1571   3.145   2.064   5.465
  224SOL    HW2 1572   3.174   2.010   5.616
  225SOL     OW 1573   4.032   6.559   6.348
  225SOL    HW1 1574   3.948   6.613   6.335
  225SOL    HW2 1575   4.078   6.547   6.260
  226SOL     OW 1576   1.370   2.522   6.421
  226SOL    HW1 1577   1.346   2.619   6.422
  226SOL    HW2 1578   1.315   2.474   6.489
  227SOL     OW 1579   1.729   3.612   1.474
  227SOL    HW1 1580   1.632   3.617   1.449
  227SOL    HW2 1581   1.770   3.703   1.467
  228SOL     OW 1582   0.810   0.413   2.170
  228SOL    HW1 1583   0.713   0.399   2.192
  228SOL    HW2 1584   0.864   0.415   2.254
  229SOL     OW 1585   3.752   6.630   6.159
  229SOL    HW1 1586   3.715   6.544   6.123
  229SOL    HW2 1587   3.679   6.681   6.205
  230SOL     OW 1588   5.761   5.580   5.566
  230SOL    HW1 1589   5.711   5.494   5.558
  230SOL    HW2 1590   5.698   5.651   5.599
  231SOL     OW 1591   5.277   1.631   6.831
  231SOL    HW1 1592   5.319   1.718   6.858
  231SOL    HW2 1593   5.177   1.640   6.834
  232SOL     OW 1594   1.369   1.685   6.030
  232SOL    HW1 1595   1.272   1.669   6.045
  232SOL    HW2 1596   1.384   1.719   5.937
  233SOL     OW 1597   3.225   1.756   3.083
  233SOL    HW1 1598   3.191   1.687   3.019
  233SOL    HW2 1599   3.148   1.804   3.125
  234SOL     OW 1600   5.132   0.732   1.089
  234SOL    HW1 1601   5.103   0.817   1.045
  234SOL    HW2 1602   5.073   0.657   1.059
  235SOL     OW 1603   4.841   3.105   2.592
  235SOL    HW1 1604   4.748   3.110   2.557
  235SOL    HW2 1605   4.897   3.050   2.530
  236SOL     OW 1606   4.102   4.634   6.142
  236SOL    HW1 1607   4.179   4.668   6.088
  236SOL    HW2 1608   4.127   4.546   6.183
  237SOL     OW 1609   6.105   3.534   2.857
  237SOL    HW1 1610   6.122   3.617   2.804
  237SOL    HW2 1611   6.055   3.468   2.801
  238SOL     OW 1612   6.278   2.046   0.506
  238SOL    HW1 1613   6.266   2.097   0.591
  238SOL    HW2 1614   6.323   1.959   0.526
  239SOL     OW 1615   1.147   3.093   0.087
  239SOL    HW1 1616   1.204   3.138   0.017
  239SOL    HW2 1617   1.157   2.993   0.078
  240SOL     OW 1618   4.924   3.632   3.611
  240SOL    HW1 1619   4.886   3.575   3.538
  240SOL    HW2 1620   5.010   3.593   3.642
  241SOL     OW 1621   2.255   2.034   4.001
  241SOL    HW1 1622   2.246   2.038   3.901
  241SOL    HW2 1623   2.320   1.962   4.026
  242SOL     OW 1624   3.588   3.581   2.500
  242SOL    HW1 1625   3.569   3.484   2.487
  242SOL    HW2 1626   3.548   3.612   2.586
  243SOL     OW 1627   3.993   2.583   6.360
  243SOL    HW1 1628   3.995   2.570   6.459
  243SOL    HW2 1629   4.050   2.512   6.316
  244SOL     OW 1630   4.874   3.240   4.722
  244SOL    HW1 1631   4.790   3.278   4.762
  244SOL    HW2 1632   4.947   3.307   4.729
  245SOL     OW 1633   3.833   0.776   3.130
  245SOL    HW1 1634   3.806   0.871   3.145
  245SOL    HW2 1635   3.789   0.717   3.198
  246SOL     OW 1636   6.397   1.471   2.237
  246SOL    HW1 1637   6.444   1.391   2.274
  246SOL    HW2 1638   6.410   1.474   2.137
  247SOL     OW 1639   1.273   1.559   1.498
  247SOL    HW1 1640   1.347   1.600   1.552
  247SOL    HW2 1641   1.196   1.622   1.495
  248SOL     OW 1642   2.301   2.896   1.831
  248SOL    HW1 1643   2.318   2.992   1.851
  248SOL    HW2 1644   2.237   2.889   1.755
  249SOL     OW 1645   4.883   6.435   4.686
  249SOL    HW1 1646   4.822   6.448   4.607
  249SOL    HW2 1647   4.829   6.415   4.767
  250SOL     OW 1648   3.827   2.261   0.380
  250SOL    HW1 1649   3.769   2.318   0.439
  250SOL    HW2 1650   3.906   2.230   0.432
  251SOL     OW 1651   3.992   4.309   5.287
  251SOL    HW1 1652   4.008   4.408   5.291
  251SOL    HW2 1653   4.063   4.262   5.339
  252SOL     OW 1654   6.842   6.705   5.889
  252SOL    HW1 1655   6.842   6.659   5.978
  252SOL    HW2 1656   6.908   6.780   5.890
  253SOL     OW 1657   4.105   6.301   6.215
  253SOL    HW1 1658   4.114   6.396   6.183
  253SOL    HW2 1659   4.086   6.301   6.313
  254SOL     OW 1660   5.984   2.197   5.475
  254SOL    HW1 1661   6.043   2.241   5.543
  254SOL    HW2 1662   5.893   2.238   5.478
  255SOL     OW 1663   1.181   3.938   6.695
  255SOL    HW1 1664   1.144   4.015   6.748
  255SOL    HW2 1665   1.257   3.971   6.638
  256SOL     OW 1666   5.472   2.092   4.938
  256SOL    HW1 1667   5.461   2.054   4.846
  256SOL    HW2 1668   5.421   2.037   5.004
  257SOL     OW 1669   4.747   6.581   2.266
  257SOL    HW1 1670   4.699   6.630   2.339
  257SOL    HW2 1671   4.719   6.618   2.178
  258SOL     OW 1672   1.727   3.179   6.219
  258SOL    HW1 1673   1.643   3.224   6.187
  258SOL    HW2 1674   1.796   3.248   6.240
  259SOL     OW 1675   3.910   6.723   3.878
  259SOL    HW1 1676   3.865   6.761   3.960
  259SOL    HW2 1677   3.870   6.634   3.856
  260SOL     OW 1678   3.688   5.343   3.064
  260SOL    HW1 1679   3.778   5.379   3.087
  260SOL    HW2 1680   3.680   5.249   3.099
  261SOL     OW 1681   4.380   5.035   0.343
  261SOL    HW1 1682   4.437   4.966   0.387
  261SOL    HW2 1683   4.410   5.047   0.248
  262SOL     OW 1684   0.576   4.173   6.416
  262SOL    HW1 1685   0.526   4.086   6.417
  262SOL    HW2 1686   0.674   4.155   6.415
  263SOL     OW 1687   0.802   6.661   4.180
  263SOL    HW1 1688   0.799   6.718   4.262
  263SOL    HW2 1689   0.897   6.630   4.165
  264SOL     OW 1690   6.507   3.571   6.104
  264SOL    HW1 1691   6.541   3.594   6.195
  264SOL    HW2 1692   6.576   3.597   6.036
  265SOL     OW 1693   6.664   0.543   3.533
  265SOL    HW1 1694   6.700   0.473   3.470
  265SOL    HW2 1695   6.690   0.634   3.500
  266SOL     OW 1696   3.479   1.047   5.695
  266SOL    HW1 1697   3.497   1.080   5.787
  266SOL    HW2 1698   3.399   1.093   5.658
  267SOL     OW 1699   2.035   0.472   3.817
  267SOL    HW1 1700   2.068   0.378   3.809
  267SOL    HW2 1701   1.942   0.471   3.855
  268SOL     OW 1702   3.029   2.406   1.265
  268SOL    HW1 1703   3.068   2.486   1.310
  268SOL    HW2 1704   3.004   2.338   1.333
  269SOL     OW 1705   4.137   2.068   0.266
  269SOL    HW1 1706   4.116   2.157   0.226
  269SOL    HW2 1707   4.231   2.069   0.301
  270SOL     OW 1708   5.531   1.198   6.922
  270SOL    HW1 1709   5.472   1.267   6.880
  270SOL    HW2 1710   5.543   1.121   6.859
  271SOL     OW 1711   0.569   3.369   6.774
  271SOL    HW1 1712   0.639   3.439   6.761
  271SOL    HW2 1713   0.546   3.363   6.871
  272SOL     OW 1714   3.135   5.967   3.502
  272SOL    HW1 1715   3.140   6.035   3.429
  272SOL    HW2 1716   3.222   5.919   3.509
  273SOL     OW 1717   2.165   4.881   6.060
  273SOL    HW1 1718   2.227   4.926   5.996
  273SOL    HW2 1719   2.071   4.891   6.029
  274SOL     OW 1720   5.131   2.746   3.698
  274SOL    HW1 1721   5.070   2.673   3.727
  274SOL    HW2 1722   5.112   2.769   3.602
  275SOL     OW 1723   6.031   6.281   1.295
  275SOL    HW1 1724   6.072   6.371   1.279
  275SOL    HW2 1725   6.047   6.253   1.390
  276SOL     OW 1726   0.762   0.732   4.931
  276SOL    HW1 1727   0.776   0.794   5.009
  276SOL    HW2 1728   0.836   0.665   4.929
  277SOL     OW 1729   1.821   4.376   0.720
  277SOL    HW1 1730   1.903   4.399   0.773
  277SOL    HW2 1731   1.752   4.338   0.781
  278SOL     OW 1732   0.625   3.154   2.616
  278SOL    HW1 1733   0.712   3.112   2.589
  278SOL    HW2 1734   0.552   3.086   2.610
  279SOL     OW 1735   6.360   1.368   3.858
  279SOL    HW1 1736   6.305   1.432   3.911
  279SOL    HW2 1737   6.326   1.364   3.764
  280SOL     OW 1738   1.368   4.671   2.077
  280SOL    HW1 1739   1.427   4.735   2.026
  280SOL    HW2 1740   1.296   4.722   2.123
  281SOL     OW 1741   2.100   4.343   1.350
  281SOL    HW1 1742   2.170   4.309   1.412
  281SOL    HW2 1743   2.140   4.409   1.288
  282SOL     OW 1744   2.841   1.673   6.080
  282SOL    HW1 1745   2.897   1.710   6.154
  282SOL    HW2 1746   2.829   1.742   6.009
  283SOL     OW 1747   3.580   2.152   5.716
  283SOL    HW1 1748   3.510   2.123   5.782
  283SOL    HW2 1749   3.567   2.102   5.631
  284SOL     OW 1750   1.322   3.712   4.129
  284SOL    HW1 1751   1.242   3.681   4.080
  284SOL    HW2 1752   1.307   3.806   4.163
  285SOL     OW 1753   5.003   4.831   4.191
  285SOL    HW1 1754   5.079   4.884   4.230
  285SOL    HW2 1755   4.940   4.894   4.146
  286SOL     OW 1756   2.960   3.372   6.929
  286SOL    HW1 1757   3.051   3.336   6.950
  286SOL    HW2 1758   2.962   3.415   6.838
  287SOL     OW 1759   1.376   2.916   0.304
  287SOL    HW1 1760   1.411   2.996   0.256
  287SOL    HW2 1761   1.393   2.926   0.402
  288SOL     OW 1762   4.500   3.508   0.765
  288SOL    HW1 1763   4.418   3.467   0.803
  288SOL    HW2 1764   4.486   3.606   0.752
  289SOL     OW 1765   3.764   5.434   6.310
  289SOL    HW1 1766   3.760   5.468   6.404
  289SOL    HW2 1767   3.671   5.429   6.273
  290SOL     OW 1768   1.607   1.282   4.588
  290SOL    HW1 1769   1.665   1.362   4.604
  290SOL    HW2 1770   1.512   1.312   4.575
  291SOL     OW 1771   6.609   2.340   2.474
  291SOL    HW1 1772   6.575   2.296   2.557
  291SOL    HW2 1773   6.577   2.290   2.394
  292SOL     OW 1774   3.035   0.004   4.098
  292SOL    HW1 1775   3.101   7.018   4.024
  292SOL    HW2 1776   2.971   0.079   4.080
  293SOL     OW 1777   3.511   4.978   3.494
  293SOL    HW1 1778   3.440   4.908   3.489
  293SOL    HW2 1779   3.470   5.068   3.479
  294SOL     OW 1780   4.264   0.778   0.373
  294SOL    HW1 1781   4.317   0.746   0.295
  294SOL    HW2 1782   4.227   0.700   0.423
  295SOL     OW 1783   5.856   6.905   3.001
  295SOL    HW1 1784   5.765   6.947   3.004
  295SOL    HW2 1785   5.910   6.936   3.080
  296SOL     OW 1786   2.561   2.017   3.030
  296SOL    HW1 1787   2.576   1.981   2.937
  296SOL    HW2 1788   2.493   2.089   3.027
  297SOL     OW 1789   1.512   5.406   1.931
  297SOL    HW1 1790   1.537   5.493   1.973
  297SOL    HW2 1791   1.590   5.344   1.933
  298SOL     OW 1792   6.696   4.591   0.853
  298SOL    HW1 1793   6.784   4.620   0.891
  298SOL    HW2 1794   6.686   4.630   0.761
  299SOL     OW 1795   5.692   2.496   4.447
  299SOL    HW1 1796   5.633   2.540   4.380
  299SOL    HW2 1797   5.705   2.557   4.526
  300SOL     OW 1798   6.857   6.920   2.236
  300SOL    HW1 1799   6.874   6.971   2.321
  300SOL    HW2 1800   6.871   6.980   2.158
  301SOL     OW 1801   4.262   2.607   5.825
  301SOL    HW1 1802   4.271   2.658   5.911
  301SOL    HW2 1803   4.298   2.661   5.750
  302SOL     OW 1804   0.570   6.367   3.841
  302SOL    HW1 1805   0.587   6.426   3.920
  302SOL    HW2 1806   0.541   6.276   3.873
  303SOL     OW 1807   6.208   6.744   2.772
  303SOL    HW1 1808   6.162   6.827   2.805
  303SOL    HW2 1809   6.201   6.672   2.840
  304SOL     OW 1810   3.711   0.025   3.643
  304SOL    HW1 1811   3.639   6.976   3.632
  304SOL    HW2 1812   3.745   0.052   3.553
  305SOL     OW 1813   1.634   4.266   1.187
  305SOL    HW1 1814   1.700   4.195   1.212
  305SOL    HW2 1815   1.543   4.225   1.177
  306SOL     OW 1816   2.116   0.622   3.601
  306SOL    HW1 1817   2.118   0.722   3.604
  306SOL    HW2 1818   2.088   0.586   3.690
  307SOL     OW 1819   3.156   0.354   1.735
  307SOL    HW1 1820   3.166   0.254   1.732
  307SOL    HW2 1821   3.246   0.396   1.737
  308SOL     OW 1822   0.884   4.937   4.109
  308SOL    HW1 1823   0.957   4.875   4.136
  308SOL    HW2 1824   0.922   5.027   4.088
  309SOL     OW 1825   3.091   5.050   5.232
  309SOL    HW1 1826   3.070   4.975   5.169
  309SOL    HW2 1827   3.079   5.138   5.185
  310SOL     OW 1828   1.211   5.544   6.292
  310SOL    HW1 1829   1.263   5.599   6.356
  310SOL    HW2 1830   1.267   5.468   6.260
  311SOL     OW 1831   6.935   0.798   1.534
  311SOL    HW1 1832   6.932   0.709   1.488
  311SOL    HW2 1833   7.013   0.800   1.596
  312SOL     OW 1834   3.705   1.248   5.377
  312SOL    HW1 1835   3.753   1.335   5.379
  312SOL    HW2 1836   3.671   1.227   5.469
  313SOL     OW 1837   0.566   4.811   0.494
  313SOL    HW1 1838   0.654   4.860   0.484
  313SOL    HW2 1839   0.536   4.778   0.404
  314SOL     OW 1840   3.353   6.178   1.527
  314SOL    HW1 1841   3.278   6.214   1.583
  314SOL    HW2 1842   3.342   6.079   1.518
  315SOL     OW 1843   1.080   3.505   2.427
  315SOL    HW1 1844   1.082   3.536   2.522
  315SOL    HW2 1845   1.084   3.584   2.366
  316SOL     OW 1846   2.082   3.619   4.928
  316SOL    HW1 1847   2.008   3.599   4.992
  316SOL    HW2 1848   2.142   3.539   4.921
  317SOL     OW 1849   6.652   1.048   6.963
  317SOL    HW1 1850   6.739   1.008   6.993
  317SOL    HW2 1851   6.637   1.135   7.011
  318SOL     OW 1852   2.561   4.590   1.083
  318SOL    HW1 1853   2.595   4.499   1.109
  318SOL    HW2 1854   2.634   4.657   1.095
  319SOL     OW 1855   1.397   0.138   6.687
  319SOL    HW1 1856   1.477   0.195   6.706
  319SOL    HW2 1857   1.318   0.172   6.739
  320SOL     OW 1858   5.615   3.119   0.723
  320SOL    HW1 1859   5.681   3.189   0.749
  320SOL    HW2 1860   5.629   3.038   0.780
  321SOL     OW 1861   2.278   1.368   2.424
  321SOL    HW1 1862   2.302   1.348   2.329
  321SOL    HW2 1863   2.307   1.292   2.482
  322SOL     OW 1864   3.428   2.029   5.526
  322SOL    HW1 1865   3.329   2.026   5.509
  322SOL    HW2 1866   3.475   1.968   5.462
  323SOL     OW 1867   0.427   4.584   1.839
  323SOL    HW1 1868   0.458   4.611   1.930
  323SOL    HW2 1869   0.374   4.499   1.845
  324SOL     OW 1870   0.502   2.989   4.468
  324SOL    HW1 1871   0.560   3.064   4.436
  324SOL    HW2 1872   0.511   2.980   4.567
  325SOL     OW 1873   2.093   2.010   3.078
  325SOL    HW1 1874   2.133   1.959   3.154
  325SOL    HW2 1875   2.159   2.079   3.047
  326SOL     OW 1876   2.058   4.411   5.338
  326SOL    HW1 1877   1.983   4.389   5.276
  326SOL    HW2 1878   2.144   4.378   5.300
  327SOL     OW 1879   6.176   5.134   6.356
  327SOL    HW1 1880   6.194   5.232   6.353
  327SOL    HW2 1881   6.262   5.084   6.363
  328SOL     OW 1882   3.809   5.710   1.781
  328SOL    HW1 1883   3.729   5.766   1.758
  328SOL    HW2 1884   3.856   5.750   1.860
  329SOL     OW 1885   3.156   4.057   2.571
  329SOL    HW1 1886   3.161   4.151   2.537
  329SOL    HW2 1887   3.248   4.021   2.584
  330SOL     OW 1888   2.575   2.049   2.009
  330SOL    HW1 1889   2.617   2.102   1.935
  330SOL    HW2 1890   2.611   2.079   2.097
  331SOL     OW 1891   5.772   4.322   5.367
  331SOL    HW1 1892   5.839   4.294   5.436
  331SOL    HW2 1893   5.682   4.287   5.391
  332SOL     OW 1894   4.388   2.117   3.358
  332SOL    HW1 1895   4.441   2.149   3.279
  332SOL    HW2 1896   4.367   2.195   3.417
  333SOL     OW 1897   4.606   5.861   0.409
  333SOL    HW1 1898   4.585   5.958   0.406
  333SOL    HW2 1899   4.591   5.826   0.502
  334SOL     OW 1900   5.194   6.429   2.466
  334SOL    HW1 1901   5.201   6.342   2.515
  334SOL    HW2 1902   5.284   6.455   2.431
  335SOL     OW 1903   3.592   6.824   2.950
  335SOL    HW1 1904   3.619   6.730   2.970
  335SOL    HW2 1905   3.519   6.851   3.013
  336SOL     OW 1906   3.502   0.115   4.771
  336SOL    HW1 1907   3.472   0.117   4.866
  336SOL    HW2 1908   3.485   0.204   4.728
  337SOL     OW 1909   0.175   4.105   1.964
  337SOL    HW1 1910   0.252   4.058   2.007
  337SOL    HW2 1911   0.210   4.172   1.898
  338SOL     OW 1912   2.422   2.183   1.711
  338SOL    HW1 1913   2.511   2.189   1.665
  338SOL    HW2 1914   2.405   2.266   1.763
  339SOL     OW 1915   4.558   1.366   3.033
  339SOL    HW1 1916   4.537   1.343   2.938
  339SOL    HW2 1917   4.533   1.289   3.092
  340SOL     OW 1918   4.775   4.579   4.440
  340SOL    HW1 1919   4.696   4.583   4.501
  340SOL    HW2 1920   4.852   4.627   4.482
  341SOL     OW 1921   4.531   4.945   5.642
  341SOL    HW1 1922   4.625   4.970   5.665
  341SOL    HW2 1923   4.522   4.937   5.543
  342SOL     OW 1924   5.779   3.783   0.287
  342SOL    HW1 1925   5.827   3.706   0.245
  342SOL    HW2 1926   5.845   3.848   0.324
  343SOL     OW 1927   2.240   0.628   2.435
  343SOL    HW1 1928   2.189   0.542   2.436
  343SOL    HW2 1929   2.275   0.646   2.527
  344SOL     OW 1930   4.071   6.292   0.280
  344SOL    HW1 1931   4.086   6.213   0.220
  344SOL    HW2 1932   4.089   6.265   0.374
  345SOL     OW 1933   1.468   1.424   6.063
  345SOL    HW1 1934   1.564   1.404   6.048
  345SOL    HW2 1935   1.446   1.513   6.023
  346SOL     OW 1936   3.299   0.741   4.419
  346SOL    HW1 1937   3.221   0.756   4.480
  346SOL    HW2 1938   3.267   0.697   4.335
  347SOL     OW 1939   4.536   6.688   5.837
  347SOL    HW1 1940   4.532   6.686   5.937
  347SOL    HW2 1941   4.486   6.609   5.801
  348SOL     OW 1942   2.321   6.278   2.737
  348SOL    HW1 1943   2.289   6.211   2.804
  348SOL    HW2 1944   2.306   6.370   2.772
  349SOL     OW 1945   2.731   4.907   2.097
  349SOL    HW1 1946   2.821   4.888   2.058
  349SOL    HW2 1947   2.699   4.826   2.146
  350SOL     OW 1948   4.287   3.394   0.878
  350SOL    HW1 1949   4.216   3.355   0.820
  350SOL    HW2 1950   4.256   3.392   0.974
  351SOL     OW 1951   3.015   1.789   0.665
  351SOL    HW1 1952   2.975   1.859   0.724
  351SOL    HW2 1953   2.946   1.721   0.642
  352SOL     OW 1954   2.874   1.897   5.892
  352SOL    HW1 1955   2.800   1.964   5.897
  352SOL    HW2 1956   2.920   1.905   5.803
  353SOL     OW 1957   2.086   0.147   1.280
  353SOL    HW1 1958   2.142   0.218   1.236
  353SOL    HW2 1959   2.145   0.091   1.338
  354SOL     OW 1960   5.193   0.502   2.289
  354SOL    HW1 1961   5.120   0.561   2.253
  354SOL    HW2 1962   5.155   0.438   2.355
  355SOL     OW 1963   1.528   1.260   1.936
  355SOL    HW1 1964   1.463   1.265   1.860
  355SOL    HW2 1965   1.478   1.246   2.022
  356SOL     OW 1966   3.903   6.738   2.915
  356SOL    HW1 1967   3.896   6.664   2.848
  356SOL    HW2 1968   3.998   6.768   2.921
  357SOL     OW 1969   1.311   4.681   5.254
  357SOL    HW1 1970   1.255   4.603   5.282
  357SOL    HW2 1971   1.254   4.747   5.205
  358SOL     OW 1972   5.347   1.079   3.113
  358SOL    HW1 1973   5.251   1.051   3.121
  358SOL    HW2 1974   5.365   1.153   3.178
  359SOL     OW 1975   0.779   1.710   0.318
  359SOL    HW1 1976   0.817   1.686   0.407
  359SOL    HW2 1977   0.730   1.797   0.325
  360SOL     OW 1978   5.312   0.130   0.398
  360SOL    HW1 1979   5.285   0.178   0.482
  360SOL    HW2 1980   5.395   0.172   0.361
  361SOL     OW 1981   3.259   0.936   3.060
  361SOL    HW1 1982   3.295   0.998   3.129
  361SOL    HW2 1983   3.164   0.961   3.039
  362SOL     OW 1984   2.626   3.855   1.166
  362SOL    HW1 1985   2.667   3.888   1.081
  362SOL    HW2 1986   2.690   3.868   1.242
  363SOL     OW 1987   4.584   4.490   3.590
  363SOL    HW1 1988   4.580   4.483   3.690
  363SOL    HW2 1989   4.671   4.531   3.563
  364SOL     OW 1990   2.213   6.027   6.152
  364SOL    HW1 1991   2.311   6.046   6.140
  364SOL    HW2 1992   2.183   5.961   6.083
  365SOL     OW 1993   4.936   0.061   2.963
  365SOL    HW1 1994   4.900   0.127   3.028
  365SOL    HW2 1995   4.881   0.061   2.880
  366SOL     OW 1996   5.329   1.149   0.474
  366SOL    HW1 1997   5.247   1.182   0.428
  366SOL    HW2 1998   5.366   1.221   0.533
  367SOL     OW 1999   4.608   1.968   2.378
  367SOL    HW1 2000   4.691   1.914   2.363
  367SOL    HW2 2001   4.530   1.922   2.337
  368SOL     OW 2002   1.509   5.122   5.264
  368SOL    HW1 2003   1.555   5.033   5.253
  368SOL    HW2 2004   1.429   5.111   5.323
  369SOL     OW 2005   0.760   3.754   1.182
  369SOL    HW1 2006   0.699   3.703   1.244
  369SOL    HW2 2007   0.709   3.827   1.138
  370SOL     OW 2008   3.657   1.867   6.566
  370SOL    HW1 2009   3.740   1.896   6.613
  370SOL    HW2 2010   3.629   1.938   6.501
  371SOL     OW 2011   3.342   2.983   6.239
  371SOL    HW1 2012   3.246   2.961   6.220
  371SOL    HW2 2013   3.381   3.031   6.161
  372SOL     OW 2014   2.357   5.287   0.125
  372SOL    HW1 2015   2.349   5.256   0.031
  372SOL    HW2 2016   2.270   5.326   0.155
  373SOL     OW 2017   6.113   6.773   6.520
  373SOL    HW1 2018   6.062   6.703   6.470
  373SOL    HW2 2019   6.098   6.762   6.618
  374SOL     OW 2020   4.436   0.758   1.254
  374SOL    HW1 2021   4.406   0.777   1.160
  374SOL    HW2 2022   4.356   0.746   1.313
  375SOL     OW 2023   6.730   4.214   0.564
  375SOL    HW1 2024   6.644   4.257   0.538
  375SOL    HW2 2025   6.749   4.231   0.661
  376SOL     OW 2026   1.764   3.976   4.786
  376SOL    HW1 2027   1.851   4.025   4.787
  376SOL    HW2 2028   1.771   3.894   4.841
  377SOL     OW 2029   4.839   1.748   4.665
  377SOL    HW1 2030   4.834   1.826   4.604
  377SOL    HW2 2031   4.811   1.775   4.757
  378SOL     OW 2032   5.573   2.316   5.040
  378SOL    HW1 2033   5.530   2.231   5.008
  378SOL    HW2 2034   5.502   2.379   5.072
  379SOL     OW 2035   6.712   2.536   1.585
  379SOL    HW1 2036   6.771   2.486   1.521
  379SOL    HW2 2037   6.768   2.590   1.648
  380SOL     OW 2038   1.406   1.959   6.837
  380SOL    HW1 2039   1.415   1.946   6.739
  380SOL    HW2 2040   1.316   1.998   6.858
  381SOL     OW 2041   4.155   5.162   0.392
  381SOL    HW1 2042   4.165   5.231   0.321
  381SOL    HW2 2043   4.231   5.097   0.387
  382SOL     OW 2044   2.745   5.402   0.339
  382SOL    HW1 2045   2.700   5.430   0.424
  382SOL    HW2 2046   2.682   5.413   0.262
  383SOL     OW 2047   6.474   1.852   0.166
  383SOL    HW1 2048   6.458   1.951   0.163
  383SOL    HW2 2049   6.387   1.804   0.149
  384SOL     OW 2050   1.279   5.477   5.288
  384SOL    HW1 2051   1.350   5.498   5.221
  384SOL    HW2 2052   1.195   5.450   5.240
  385SOL     OW 2053   4.719   5.242   1.901
  385SOL    HW1 2054   4.669   5.299   1.836
  385SOL    HW2 2055   4.799   5.291   1.934
  386SOL     OW 2056   2.640   6.277   4.490
  386SOL    HW1 2057   2.589   6.203   4.445
  386SOL    HW2 2058   2.587   6.362   4.483
  387SOL     OW 2059   6.803   0.478   6.073
  387SOL    HW1 2060   6.897   0.445   6.081
  387SOL    HW2 2061   6.769   0.502   6.164
  388SOL     OW 2062   0.107   1.844   4.370
  388SOL    HW1 2063   0.149   1.754   4.382
  388SOL    HW2 2064   0.176   1.915   4.379
  389SOL     OW 2065   4.791   3.457   1.816
  389SOL    HW1 2066   4.805   3.395   1.894
  389SOL    HW2 2067   4.795   3.404   1.732
  390SOL     OW 2068   4.088   2.814   6.723
  390SOL    HW1 2069   4.163   2.879   6.718
  390SOL    HW2 2070   4.025   2.830   6.646
  391SOL     OW 2071   3.921   3.954   3.781
  391SOL    HW1 2072   3.960   3.941   3.872
  391SOL    HW2 2073   3.972   3.899   3.715
  392SOL     OW 2074   1.942   4.019   1.548
  392SOL    HW1 2075   1.998   4.026   1.466
  392SOL    HW2 2076   1.991   3.965   1.617
  393SOL     OW 2077   1.327   5.925   1.726
  393SOL    HW1 2078   1.400   5.993   1.727
  393SOL    HW2 2079   1.246   5.963   1.772
  394SOL     OW 2080   6.043   0.960   6.373
  394SOL    HW1 2081   6.048   1.058   6.395
  394SOL    HW2 2082   6.078   0.945   6.281
  395SOL     OW 2083   6.243   4.254   6.876
  395SOL    HW1 2084   6.316   4.322   6.868
  395SOL    HW2 2085   6.249   4.189   6.801
  396SOL     OW 2086   0.898   0.828   1.267
  396SOL    HW1 2087   0.870   0.879   1.185
  396SOL    HW2 2088   0.894   0.889   1.347
  397SOL     OW 2089   4.564   2.429   4.867
  397SOL    HW1 2090   4.604   2.454   4.955
  397SOL    HW2 2091   4.479   2.380   4.882
  398SOL     OW 2092   0.419   1.581   3.040
  398SOL    HW1 2093   0.346   1.626   2.990
  398SOL    HW2 2094   0.381   1.508   3.098
  399SOL     OW 2095   5.721   6.154   3.300
  399SOL    HW1 2096   5.761   6.063   3.300
  399SOL    HW2 2097   5.622   6.147   3.314
  400SOL     OW 2098   6.942   6.436   3.220
  400SOL    HW1 2099   6.845   6.424   3.199
  400SOL    HW2 2100   6.961   6.532   3.239
  401SOL     OW 2101   1.202   5.240   4.875
  401SOL    HW1 2102   1.288   5.223   4.922
  401SOL    HW2 2103   1.136   5.169   4.900
  402SOL     OW 2104   5.878   1.433   3.951
  402SOL    HW1 2105   5.949   1.481   3.899
  402SOL    HW2 2106   5.828   1.371   3.890
  403SOL     OW 2107   2.784   1.889   4.843
  403SOL    HW1 2108   2.703   1.898   4.785
  403SOL    HW2 2109   2.819   1.980   4.865
  404SOL     OW 2110   2.933   5.038   3.919
  404SOL    HW1 2111   2.942   5.118   3.978
  404SOL    HW2 2112   2.890   5.064   3.834
  405SOL     OW 2113   2.872   4.794   4.038
  405SOL    HW1 2114   2.884   4.810   4.135
  405SOL    HW2 2115   2.923   4.863   3.986
  406SOL     OW 2116   0.434   6.909   6.600
  406SOL    HW1 2117   0.465   6.817   6.574
  406SOL    HW2 2118   0.407   6.959   6.518
  407SOL     OW 2119   2.099   3.565   3.880
  407SOL    HW1 2120   2.097   3.492   3.948
  407SOL    HW2 2121   2.110   3.653   3.926
  408SOL     OW 2122   2.662   2.237   2.228
  408SOL    HW1 2123   2.742   2.296   2.216
  408SOL    HW2 2124   2.584   2.293   2.255
  409SOL     OW 2125   0.272   2.763   2.594
  409SOL    HW1 2126   0.221   2.676   2.590
  409SOL    HW2 2127   0.234   2.826   2.526
  410SOL     OW 2128   1.829   3.273   2.011
  410SOL    HW1 2129   1.787   3.255   2.100
  410SOL    HW2 2130   1.925   3.246   2.014
  411SOL     OW 2131   7.015   1.663   0.679
  411SOL    HW1 2132   0.023   1.759   0.665
  411SOL    HW2 2133   0.033   1.631   0.766
  412SOL     OW 2134   1.654   4.815   2.528
  412SOL    HW1 2135   1.628   4.869   2.608
  412SOL    HW2 2136   1.641   4.870   2.445
  413SOL     OW 2137   6.196   4.794   1.882
  413SOL    HW1 2138   6.287   4.764   1.908
  413SOL    HW2 2139   6.202   4.882   1.835
  414SOL     OW 2140   2.318   6.610   3.131
  414SOL    HW1 2141   2.231   6.639   3.171
  414SOL    HW2 2142   2.381   6.687   3.129
  415SOL     OW 2143   5.734   2.250   0.189
  415SOL    HW1 2144   5.733   2.347   0.211
  415SOL    HW2 2145   5.708   2.237   0.093
  416SOL     OW 2146   5.775   3.306   6.237
  416SOL    HW1 2147   5.737   3.344   6.321
  416SOL    HW2 2148   5.709   3.317   6.162
  417SOL     OW 2149   2.246   2.371   5.577
  417SOL    HW1 2150   2.154   2.362   5.613
  417SOL    HW2 2151   2.299   2.288   5.599
  418SOL     OW 2152   3.662   5.987   6.095
  418SOL    HW1 2153   3.572   6.027   6.075
  418SOL    HW2 2154   3.733   6.057   6.088
  419SOL     OW 2155   5.314   0.800   6.978
  419SOL    HW1 2156   5.267   0.877   0.004
  419SOL    HW2 2157   5.260   0.716   6.991
  420SOL     OW 2158   3.380   6.769   1.045
  420SOL    HW1 2159   3.424   6.782   1.133
  420SOL    HW2 2160   3.383   6.672   1.020
  421SOL     OW 2161   4.813   4.119   2.885
  421SOL    HW1 2162   4.768   4.153   2.802
  421SOL    HW2 2163   4.763   4.150   2.965
  422SOL     OW 2164   4.057   1.957   2.067
  422SOL    HW1 2165   4.088   1.962   1.972
  422SOL    HW2 2166   3.989   2.029   2.083
  423SOL     OW 2167   3.263   1.444   6.261
  423SOL    HW1 2168   3.243   1.411   6.169
  423SOL    HW2 2169   3.181   1.482   6.303
  424SOL     OW 2170   1.662   3.964   4.533
  424SOL    HW1 2171   1.705   3.976   4.623
  424SOL    HW2 2172   1.726   3.988   4.461
  425SOL     OW 2173   3.191   1.401   0.263
  425SOL    HW1 2174   3.184   1.315   0.315
  425SOL    HW2 2175   3.117   1.405   0.195
  426SOL     OW 2176   2.451   2.142   3.725
  426SOL    HW1 2177   2.470   2.155   3.823
  426SOL    HW2 2178   2.505   2.207   3.672
  427SOL     OW 2179   4.438   1.547   3.992
  427SOL    HW1 2180   4.399   1.595   3.913
  427SOL    HW2 2181   4.519   1.595   4.024
  428SOL     OW 2182   2.358   2.093   6.498
  428SOL    HW1 2183   2.297   2.057   6.569
  428SOL    HW2 2184   2.452   2.061   6.515
  429SOL     OW 2185   0.035   6.265   3.477
  429SOL    HW1 2186   0.121   6.266   3.529
  429SOL    HW2 2187   0.051   6.297   3.384
  430SOL     OW 2188   2.199   1.065   3.391
  430SOL    HW1 2189   2.178   1.106   3.302
  430SOL    HW2 2190   2.242   1.134   3.449
  431SOL     OW 2191   2.682   0.900   1.720
  431SOL    HW1 2192   2.633   0.983   1.693
  431SOL    HW2 2193   2.768   0.925   1.764
  432SOL     OW 2194   5.139   1.935   1.234
  432SOL    HW1 2195   5.237   1.913   1.225
  432SOL    HW2 2196   5.126   2.034   1.231
  433SOL     OW 2197   2.161   4.642   0.490
  433SOL    HW1 2198   2.180   4.555   0.445
  433SOL    HW2 2199   2.197   4.640   0.584
  434SOL     OW 2200   3.983   5.807   2.660
  434SOL    HW1 2201   3.922   5.740   2.702
  434SOL    HW2 2202   3.950   5.829   2.568
  435SOL     OW 2203   3.100   2.661   6.243
  435SOL    HW1 2204   3.142   2.574   6.221
  435SOL    HW2 2205   3.076   2.663   6.340
  436SOL     OW 2206   5.402   6.562   2.350
  436SOL    HW1 2207   5.357   6.645   2.315
  436SOL    HW2 2208   5.489   6.586   2.392
  437SOL     OW 2209   6.984   0.809   5.431
  437SOL    HW1 2210   0.019   0.751   5.370
  437SOL    HW2 2211   6.895   0.767   5.446
  438SOL     OW 2212   0.763   4.304   2.235
  438SOL    HW1 2213   0.852   4.348   2.236
  438SOL    HW2 2214   0.695   4.365   2.276
  439SOL     OW 2215   0.536   0.711   6.200
  439SOL    HW1 2216   0.603   0.718   6.274
  439SOL    HW2 2217   0.538   0.618   6.162
  440SOL     OW 2218   3.619   1.910   1.207
  440SOL    HW1 2219   3.678   1.842   1.163
  440SOL    HW2 2220   3.673   1.990   1.231
  441SOL     OW 2221   0.553   4.811   2.261
  441SOL    HW1 2222   0.604   4.787   2.344
  441SOL    HW2 2223   0.462   4.845   2.287
  442SOL     OW 2224   3.696   3.281   4.940
  442SOL    HW1 2225   3.669   3.336   4.861
  442SOL    HW2 2226   3.711   3.186   4.910
  443SOL     OW 2227   4.584   2.622   2.895
  443SOL    HW1 2228   4.493   2.604   2.932
  443SOL    HW2 2229   4.641   2.664   2.965
  444SOL     OW 2230   4.134   2.531   1.081
  444SOL    HW1 2231   4.054   2.475   1.058
  444SOL    HW2 2232   4.183   2.556   0.998
  445SOL     OW 2233   2.308   5.525   2.902
  445SOL    HW1 2234   2.283   5.528   2.805
  445SOL    HW2 2235   2.370   5.601   2.923
  446SOL     OW 2236   6.401   6.963   0.813
  446SOL    HW1 2237   6.314   6.976   0.765
  446SOL    HW2 2238   6.383   6.937   0.908
  447SOL     OW 2239   5.920   3.685   6.795
  447SOL    HW1 2240   6.000   3.625   6.794
  447SOL    HW2 2241   5.944   3.771   6.841
  448SOL     OW 2242   3.539   6.379   3.759
  448SOL    HW1 2243   3.496   6.339   3.678
  448SOL    HW2 2244   3.493   6.345   3.841
  449SOL     OW 2245   0.620   3.992   4.582
  449SOL    HW1 2246   0.663   3.926   4.643
  449SOL    HW2 2247   0.526   4.008   4.612
  450SOL     OW 2248   6.801   4.128   3.001
  450SOL    HW1 2249   6.725   4.107   2.940
  450SOL    HW2 2250   6.860   4.197   2.960
  451SOL     OW 2251   2.136   2.060   0.173
  451SOL    HW1 2252   2.040   2.078   0.194
  451SOL    HW2 2253   2.166   2.123   0.102
  452SOL     OW 2254   4.235   5.552   1.739
  452SOL    HW1 2255   4.208   5.550   1.835
  452SOL    HW2 2256   4.159   5.520   1.682
  453SOL     OW 2257   4.675   0.667   0.321
  453SOL    HW1 2258   4.744   0.738   0.320
  453SOL    HW2 2259   4.616   0.677   0.241
  454SOL     OW 2260   6.818   3.189   4.067
  454SOL    HW1 2261   6.751   3.184   3.993
  454SOL    HW2 2262   6.901   3.139   4.040
  455SOL     OW 2263   5.516   5.410   7.006
  455SOL    HW1 2264   5.591   5.360   6.964
  455SOL    HW2 2265   5.510   5.386   0.084
  456SOL     OW 2266   1.460   0.630   3.050
  456SOL    HW1 2267   1.473   0.540   3.009
  456SOL    HW2 2268   1.537   0.690   3.025
  457SOL     OW 2269   3.014   5.949   0.201
  457SOL    HW1 2270   3.089   5.888   0.225
  457SOL    HW2 2271   2.927   5.909   0.231
  458SOL     OW 2272   3.314   1.251   3.707
  458SOL    HW1 2273   3.226   1.294   3.687
  458SOL    HW2 2274   3.298   1.156   3.734
  459SOL     OW 2275   2.562   0.906   3.221
  459SOL    HW1 2276   2.551   1.002   3.194
  459SOL    HW2 2277   2.645   0.869   3.179
  460SOL     OW 2278   0.793   1.652   6.849
  460SOL    HW1 2279   0.876   1.596   6.852
  460SOL    HW2 2280   0.817   1.748   6.859
  461SOL     OW 2281   1.182   6.824   5.463
  461SOL    HW1 2282   1.276   6.842   5.494
  461SOL    HW2 2283   1.130   6.783   5.538
  462SOL     OW 2284   3.793   3.673   4.872
  462SOL    HW1 2285   3.868   3.607   4.878
  462SOL    HW2 2286   3.820   3.759   4.917
  463SOL     OW 2287   5.084   6.132   2.953
  463SOL    HW1 2288   5.129   6.043   2.956
  463SOL    HW2 2289   5.023   6.136   2.875
  464SOL     OW 2290   4.358   6.232   5.023
  464SOL    HW1 2291   4.312   6.251   4.936
  464SOL    HW2 2292   4.352   6.313   5.082
  465SOL     OW 2293   0.118   4.951   0.193
  465SOL    HW1 2294   0.075   4.946   0.284
  465SOL    HW2 2295   0.123   4.859   0.153
  466SOL     OW 2296   3.935   4.876   4.473
  466SOL    HW1 2297   4.008   4.853   4.537
  466SOL    HW2 2298   3.847   4.878   4.522
  467SOL     OW 2299   6.689   7.003   1.629
  467SOL    HW1 2300   6.700   6.906   1.606
  467SOL    HW2 2301   6.595   0.012   1.608
  468SOL     OW 2302   2.525   5.986   6.104
  468SOL    HW1 2303   2.622   5.985   6.082
  468SOL    HW2 2304   2.503   6.071   6.153
  469SOL     OW 2305   3.349   4.551   5.443
  469SOL    HW1 2306   3.280   4.480   5.453
  469SOL    HW2 2307   3.305   4.636   5.413
  470SOL     OW 2308   1.858   5.273   2.294
  470SOL    HW1 2309   1.881   5.344   2.360
  470SOL    HW2 2310   1.934   5.208   2.287
  471SOL     OW 2311   1.639   1.940   4.168
  471SOL    HW1 2312   1.605   1.949   4.262
  471SOL    HW2 2313   1.650   1.844   4.145
  472SOL     OW 2314   5.403   4.101   6.273
  472SOL    HW1 2315   5.352   4.015   6.268
  472SOL    HW2 2316   5.483   4.089   6.330
  473SOL     OW 2317   5.552   3.078   2.259
  473SOL    HW1 2318   5.554   3.030   2.172
  473SOL    HW2 2319   5.532   3.013   2.333
  474SOL     OW 2320   4.765   5.429   3.234
  474SOL    HW1 2321   4.723   5.507   3.280
  474SOL    HW2 2322   4.842   5.460   3.179
  475SOL     OW 2323   4.760   1.421   0.377
  475SOL    HW1 2324   4.842   1.470   0.407
  475SOL    HW2 2325   4.729   1.360   0.450
  476SOL     OW 2326   0.841   3.048   0.226
  476SOL    HW1 2327   0.894   3.083   0.302
  476SOL    HW2 2328   0.889   3.066   0.140
  477SOL     OW 2329   6.609   5.553   3.506
  477SOL    HW1 2330   6.557   5.584   3.586
  477SOL    HW2 2331   6.657   5.468   3.528
  478SOL     OW 2332   6.446   5.170   2.630
  478SOL    HW1 2333   6.499   5.152   2.712
  478SOL    HW2 2334   6.369   5.106   2.625
  479SOL     OW 2335   3.239   3.643   2.882
  479SOL    HW1 2336   3.234   3.629   2.981
  479SOL    HW2 2337   3.167   3.705   2.853
  480SOL     OW 2338   0.520   0.886   1.561
  480SOL    HW1 2339   0.524   0.898   1.661
  480SOL    HW2 2340   0.444   0.938   1.524
  481SOL     OW 2341   5.826   5.816   0.741
  481SOL    HW1 2342   5.906   5.870   0.716
  481SOL    HW2 2343   5.848   5.718   0.739
  482SOL     OW 2344   3.919   5.221   2.657
  482SOL    HW1 2345   3.885   5.185   2.569
  482SOL    HW2 2346   3.917   5.148   2.725
  483SOL     OW 2347   6.394   0.601   4.002
  483SOL    HW1 2348   6.409   0.687   4.050
  483SOL    HW2 2349   6.434   0.606   3.911
  484SOL     OW 2350   2.204   4.743   3.259
  484SOL    HW1 2351   2.181   4.657   3.304
  484SOL    HW2 2352   2.160   4.746   3.169
  485SOL     OW 2353   4.841   2.725   0.813
  485SOL    HW1 2354   4.921   2.702   0.757
  485SOL    HW2 2355   4.868   2.735   0.908
  486SOL     OW 2356   6.165   6.248   5.382
  486SOL    HW1 2357   6.184   6.289   5.471
  486SOL    HW2 2358   6.251   6.216   5.341
  487SOL     OW 2359   0.116   0.559   6.493
  487SOL    HW1 2360   0.037   0.522   6.541
  487SOL    HW2 2361   0.145   0.494   6.423
  488SOL     OW 2362   1.869   5.701   3.048
  488SOL    HW1 2363   1.806   5.750   3.108
  488SOL    HW2 2364   1.943   5.661   3.103
  489SOL     OW 2365   2.751   4.658   5.354
  489SOL    HW1 2366   2.813   4.730   5.387
  489SOL    HW2 2367   2.799   4.603   5.286
  490SOL     OW 2368   1.468   3.450   4.953
  490SOL    HW1 2369   1.514   3.530   4.915
  490SOL    HW2 2370   1.535   3.385   4.988
  491SOL     OW 2371   6.022   3.686   1.107
  491SOL    HW1 2372   6.096   3.619   1.117
  491SOL    HW2 2373   6.060   3.772   1.072
  492SOL     OW 2374   1.572   2.455   5.789
  492SOL    HW1 2375   1.569   2.520   5.713
  492SOL    HW2 2376   1.568   2.362   5.754
  493SOL     OW 2377   1.568   5.642   3.760
  493SOL    HW1 2378   1.578   5.544   3.774
  493SOL    HW2 2379   1.658   5.686   3.768
  494SOL     OW 2380   2.939   0.273   4.144
  494SOL    HW1 2381   3.033   0.301   4.161
  494SOL    HW2 2382   2.886   0.281   4.229
  495SOL     OW 2383   3.763   4.981   0.080
  495SOL    HW1 2384   3.842   4.934   0.119
  495SOL    HW2 2385   3.720   5.038   0.150
  496SOL     OW 2386   5.056   0.990   3.057
  496SOL    HW1 2387   5.006   0.923   3.111
  496SOL    HW2 2388   5.043   1.081   3.095
  497SOL     OW 2389   4.580   2.821   0.703
  497SOL    HW1 2390   4.550   2.763   0.627
  497SOL    HW2 2391   4.674   2.798   0.728
  498SOL     OW 2392   0.302   0.488   1.103
  498SOL    HW1 2393   0.366   0.479   1.179
  498SOL    HW2 2394   0.347   0.458   1.019
  499SOL     OW 2395   3.113   0.086   6.792
  499SOL    HW1 2396   3.153   0.103   6.881
  499SOL    HW2 2397   3.015   0.069   6.803
  500SOL     OW 2398   5.821   1.762   6.620
  500SOL    HW1 2399   5.750   1.786   6.686
  500SOL    HW2 2400   5.779   1.734   6.534
  501SOL     OW 2401   1.572   2.069   4.398
  501SOL    HW1 2402   1.532   1.981   4.423
  501SOL    HW2 2403   1.502   2.140   4.402
  502SOL     OW 2404   2.422   3.228   6.886
  502SOL    HW1 2405   2.438   3.135   6.853
  502SOL    HW2 2406   2.488   3.290   6.844
  503SOL     OW 2407   3.900   4.894   1.308
  503SOL    HW1 2408   3.836   4.826   1.345
  503SOL    HW2 2409   3.934   4.863   1.220
  504SOL     OW 2410   6.302   0.004   0.118
  504SOL    HW1 2411   6.389   0.042   0.149
  504SOL    HW2 2412   6.241   7.011   0.197
  505SOL     OW 2413   6.406   3.645   5.578
  505SOL    HW1 2414   6.399   3.745   5.574
  505SOL    HW2 2415   6.475   3.620   5.646
  506SOL     OW 2416   2.698   5.512   2.155
  506SOL    HW1 2417   2.699   5.412   2.155
  506SOL    HW2 2418   2.762   5.546   2.085
  507SOL     OW 2419   2.874   7.003   3.184
  507SOL    HW1 2420   2.848   6.922   3.132
  507SOL    HW2 2421   2.953   0.027   3.141
  508SOL     OW 2422   0.499   5.264   3.667
  508SOL    HW1 2423   0.490   5.306   3.577
  508SOL    HW2 2424   0.453   5.175   3.667
  509SOL     OW 2425   4.298   0.366   5.831
  509SOL    HW1 2426   4.339   0.299   5.769
  509SOL    HW2 2427   4.337   0.456   5.813
  510SOL     OW 2428   6.694   4.578   6.807
  510SOL    HW1 2429   6.659   4.604   6.717
  510SOL    HW2 2430   6.736   4.657   6.851
  511SOL     OW 2431   0.991   1.174   0.149
  511SOL    HW1 2432   1.086   1.203   0.149
  511SOL    HW2 2433   0.965   1.145   0.057
  512SOL     OW 2434   1.031   1.768   4.071
  512SOL    HW1 2435   0.945   1.722   4.050
  512SOL    HW2 2436   1.012   1.856   4.115
  513SOL     OW 2437   5.524   6.208   2.781
  513SOL    HW1 2438   5.587   6.155   2.725
  513SOL    HW2 2439   5.544   6.306   2.771
  514SOL     OW 2440   4.676   1.469   4.514
  514SOL    HW1 2441   4.772   1.491   4.534
  514SOL    HW2 2442   4.658   1.373   4.538
  515SOL     OW 2443   3.328   0.985   0.334
  515SOL    HW1 2444   3.428   0.993   0.328
  515SOL    HW2 2445   3.301   0.894   0.302
  516SOL     OW 2446   0.710   6.083   2.160
  516SOL    HW1 2447   0.798   6.068   2.116
  516SOL    HW2 2448   0.724   6.123   2.251
  517SOL     OW 2449   3.299   4.608   1.257
  517SOL    HW1 2450   3.220   4.613   1.196
  517SOL    HW2 2451   3.324   4.701   1.286
  518SOL     OW 2452   2.601   6.260   3.637
  518SOL    HW1 2453   2.681   6.221   3.682
  518SOL    HW2 2454   2.630   6.331   3.572
  519SOL     OW 2455   6.788   0.553   2.720
  519SOL    HW1 2456   6.838   0.523   2.802
  519SOL    HW2 2457   6.849   0.549   2.641
  520SOL     OW 2458   2.879   5.597   1.005
  520SOL    HW1 2459   2.802   5.626   1.061
  520SOL    HW2 2460   2.906   5.672   0.944
  521SOL     OW 2461   6.800   6.116   5.253
  521SOL    HW1 2462   6.784   6.142   5.348
  521SOL    HW2 2463   6.719   6.136   5.199
  522SOL     OW 2464   3.647   4.813   6.936
  522SOL    HW1 2465   3.699   4.890   6.973
  522SOL    HW2 2466   3.549   4.831   6.947
  523SOL     OW 2467   1.828   6.869   5.959
  523SOL    HW1 2468   1.777   6.786   5.982
  523SOL    HW2 2469   1.897   6.848   5.890
  524SOL     OW 2470   6.906   0.973   0.868
  524SOL    HW1 2471   6.815   1.001   0.900
  524SOL    HW2 2472   6.906   0.874   0.853
  525SOL     OW 2473   0.995   3.582   3.540
  525SOL    HW1 2474   0.921   3.594   3.605
  525SOL    HW2 2475   1.056   3.661   3.543
  526SOL     OW 2476   3.834   6.640   4.755
  526SOL    HW1 2477   3.922   6.593   4.755
  526SOL    HW2 2478   3.842   6.727   4.802
  527SOL     OW 2479   0.238   1.062   1.109
  527SOL    HW1 2480   0.203   0.975   1.075
  527SOL    HW2 2481   0.282   1.048   1.197
  528SOL     OW 2482   6.825   1.428   4.371
  528SOL    HW1 2483   6.762   1.490   4.418
  528SOL    HW2 2484   6.806   1.333   4.399
  529SOL     OW 2485   1.302   1.287   5.865
  529SOL    HW1 2486   1.237   1.364   5.859
  529SOL    HW2 2487   1.390   1.321   5.899
  530SOL     OW 2488   3.241   4.429   1.558
  530SOL    HW1 2489   3.312   4.359   1.549
  530SOL    HW2 2490   3.280   4.512   1.597
  531SOL     OW 2491   0.533   1.066   6.402
  531SOL    HW1 2492   0.590   1.068   6.320
  531SOL    HW2 2493   0.555   1.143   6.461
  532SOL     OW 2494   3.374   0.901   6.793
  532SOL    HW1 2495   3.295   0.867   6.845
  532SOL    HW2 2496   3.450   0.920   6.855
  533SOL     OW 2497   4.425   6.925   4.673
  533SOL    HW1 2498   4.495   6.862   4.707
  533SOL    HW2 2499   4.466   6.989   4.609
  534SOL     OW 2500   1.988   4.136   1.868
  534SOL    HW1 2501   2.062   4.200   1.847
  534SOL    HW2 2502   1.990   4.060   1.803
  535SOL     OW 2503   4.462   4.641   4.239
  535SOL    HW1 2504   4.499   4.554   4.208
  535SOL    HW2 2505   4.412   4.685   4.165
  536SOL     OW 2506   6.015   6.297   0.958
  536SOL    HW1 2507   6.097   6.246   0.985
  536SOL    HW2 2508   5.974   6.339   1.039
  537SOL     OW 2509   3.372   1.855   2.460
  537SOL    HW1 2510   3.291   1.914   2.451
  537SOL    HW2 2511   3.345   1.760   2.448
  538SOL     OW 2512   4.121   4.550   5.330
  538SOL    HW1 2513   4.091   4.637   5.291
  538SOL    HW2 2514   4.191   4.510   5.272
  539SOL     OW 2515   2.400   0.341   6.971
  539SOL    HW1 2516   2.455   0.257   6.963
  539SOL    HW2 2517   2.344   0.352   6.889
  540SOL     OW 2518   2.210   1.324   5.084
  540SOL    HW1 2519   2.161   1.285   5.006
  540SOL    HW2 2520   2.204   1.261   5.162
  541SOL     OW 2521   4.813   6.158   3.076
  541SOL    HW1 2522   4.799   6.250   3.114
  541SOL    HW2 2523   4.907   6.151   3.041
  542SOL     OW 2524   3.857   6.077   5.691
  542SOL    HW1 2525   3.877   6.170   5.722
  542SOL    HW2 2526   3.934   6.017   5.713
  543SOL     OW 2527   6.435   2.058   4.957
  543SOL    HW1 2528   6.347   2.047   4.912
  543SOL    HW2 2529   6.493   2.119   4.903
  544SOL     OW 2530   0.611   2.853   0.921
  544SOL    HW1 2531   0.650   2.763   0.941
  544SOL    HW2 2532   0.616   2.870   0.822
  545SOL     OW 2533   6.823   5.101   0.493
  545SOL    HW1 2534   6.743   5.097   0.433
  545SOL    HW2 2535   6.899   5.143   0.443
  546SOL     OW 2536   6.970   5.066   2.228
  546SOL    HW1 2537   0.001   5.025   2.305
  546SOL    HW2 2538   6.948   5.161   2.249
  547SOL     OW 2539   4.030   7.004   6.773
  547SOL    HW1 2540   3.970   6.933   6.736
  547SOL    HW2 2541   4.111   6.961   6.813
  548SOL     OW 2542   3.856   2.471   0.189
  548SOL    HW1 2543   3.882   2.387   0.237
  548SOL    HW2 2544   3.862   2.548   0.253
  549SOL     OW 2545   5.278   2.521   3.780
  549SOL    HW1 2546   5.247   2.534   3.874
  549SOL    HW2 2547   5.204   2.542   3.717
  550SOL     OW 2548   6.935   5.998   3.458
  550SOL    HW1 2549   6.887   5.935   3.519
  550SOL    HW2 2550   6.950   6.085   3.505
  551SOL     OW 2551   5.303   0.846   0.329
  551SOL    HW1 2552   5.334   0.851   0.424
  551SOL    HW2 2553   5.302   0.938   0.290
  552SOL     OW 2554   0.260   0.195   4.859
  552SOL    HW1 2555   0.192   0.164   4.792
  552SOL    HW2 2556   0.216   0.259   4.923
  553SOL     OW 2557   3.643   2.535   5.495
  553SOL    HW1 2558   3.624   2.594   5.417
  553SOL    HW2 2559   3.572   2.465   5.502
  554SOL     OW 2560   6.754   5.566   0.476
  554SOL    HW1 2561   6.708   5.652   0.452
  554SOL    HW2 2562   6.693   5.510   0.532
  555SOL     OW 2563   2.802   4.200   6.301
  555SOL    HW1 2564   2.870   4.270   6.280
  555SOL    HW2 2565   2.724   4.242   6.346
  556SOL     OW 2566   5.961   6.274   2.080
  556SOL    HW1 2567   5.907   6.345   2.035
  556SOL    HW2 2568   5.954   6.286   2.179
  557SOL     OW 2569   5.826   3.617   6.485
  557SOL    HW1 2570   5.782   3.706   6.497
  557SOL    HW2 2571   5.917   3.619   6.525
  558SOL     OW 2572   3.379   3.750   2.205
  558SOL    HW1 2573   3.336   3.671   2.248
  558SOL    HW2 2574   3.330   3.833   2.231
  559SOL     OW 2575   6.110   1.125   6.634
  559SOL    HW1 2576   6.138   1.216   6.665
  559SOL    HW2 2577   6.020   1.104   6.670
  560SOL     OW 2578   0.271   2.283   3.506
  560SOL    HW1 2579   0.265   2.225   3.425
  560SOL    HW2 2580   0.180   2.316   3.531
  561SOL     OW 2581   0.267   3.703   6.945
  561SOL    HW1 2582   0.220   3.791   6.955
  561SOL    HW2 2583   0.359   3.710   6.985
  562SOL     OW 2584   4.189   6.494   3.773
  562SOL    HW1 2585   4.175   6.542   3.860
  562SOL    HW2 2586   4.261   6.540   3.721
  563SOL     OW 2587   0.856   1.030   4.293
  563SOL    HW1 2588   0.903   1.062   4.211
  563SOL    HW2 2589   0.829   1.108   4.349
  564SOL     OW 2590   6.047   1.719   5.409
  564SOL    HW1 2591   6.088   1.807   5.431
  564SOL    HW2 2592   6.084   1.648   5.469
  565SOL     OW 2593   2.878   3.410   4.002
  565SOL    HW1 2594   2.917   3.455   4.083
  565SOL    HW2 2595   2.823   3.332   4.031
  566SOL     OW 2596   1.757   2.461   3.492
  566SOL    HW1 2597   1.712   2.547   3.517
  566SOL    HW2 2598   1.843   2.480   3.446
  567SOL     OW 2599   1.632   3.111   5.563
  567SOL    HW1 2600   1.561   3.050   5.598
  567SOL    HW2 2601   1.721   3.083   5.597
  568SOL     OW 2602   1.371   0.077   0.277
  568SOL    HW1 2603   1.358   0.024   0.360
  568SOL    HW2 2604   1.455   0.047   0.231
  569SOL     OW 2605   5.111   3.735   5.485
  569SOL    HW1 2606   5.126   3.804   5.556
  569SOL    HW2 2607   5.036   3.674   5.513
  570SOL     OW 2608   3.412   1.130   6.233
  570SOL    HW1 2609   3.470   1.192   6.286
  570SOL    HW2 2610   3.316   1.157   6.243
  571SOL     OW 2611   2.713   4.340   1.626
  571SOL    HW1 2612   2.748   4.418   1.573
  571SOL    HW2 2613   2.691   4.371   1.718
  572SOL     OW 2614   2.683   1.259   4.335
  572SOL    HW1 2615   2.702   1.357   4.346
  572SOL    HW2 2616   2.740   1.207   4.398
  573SOL     OW 2617   0.296   0.565   5.411
  573SOL    HW1 2618   0.279   0.589   5.315
  573SOL    HW2 2619   0.369   0.498   5.416
  574SOL     OW 2620   2.278   1.255   6.110
  574SOL    HW1 2621   2.226   1.315   6.049
  574SOL    HW2 2622   2.267   1.160   6.080
  575SOL     OW 2623   3.828   3.572   0.668
  575SOL    HW1 2624   3.810   3.542   0.575
  575SOL    HW2 2625   3.921   3.608   0.675
  576SOL     OW 2626   0.526   1.072   2.706
  576SOL    HW1 2627   0.615   1.028   2.717
  576SOL    HW2 2628   0.540   1.167   2.676
  577SOL     OW 2629   0.238   0.066   1.853
  577SOL    HW1 2630   0.256   0.098   1.760
  577SOL    HW2 2631   0.167   0.123   1.895
  578SOL     OW 2632   3.936   0.021   0.367
  578SOL    HW1 2633   3.972   7.004   0.281
  578SOL    HW2 2634   4.004   0.081   0.409
  579SOL     OW 2635   1.062   3.854   1.661
  579SOL    HW1 2636   1.074   3.755   1.653
  579SOL    HW2 2637   1.145   3.900   1.629
  580SOL     OW 2638   4.664   5.075   4.482
  580SOL    HW1 2639   4.578   5.119   4.506
  580SOL    HW2 2640   4.654   5.027   4.395
  581SOL     OW 2641   1.703   2.277   3.872
  581SOL    HW1 2642   1.734   2.195   3.920
  581SOL    HW2 2643   1.604   2.283   3.877
  582SOL     OW 2644   5.727   4.294   4.849
  582SOL    HW1 2645   5.705   4.198   4.864
  582SOL    HW2 2646   5.643   4.348   4.853
  583SOL     OW 2647   3.031   6.405   5.563
  583SOL    HW1 2648   3.073   6.325   5.519
  583SOL    HW2 2649   3.010   6.473   5.493
  584SOL     OW 2650   4.176   1.091   5.120
  584SOL    HW1 2651   4.080   1.080   5.148
  584SOL    HW2 2652   4.192   1.186   5.094
  585SOL     OW 2653   3.849   6.746   1.719
  585SOL    HW1 2654   3.804   6.773   1.634
  585SOL    HW2 2655   3.948   6.742   1.703
  586SOL     OW 2656   3.586   6.821   0.670
  586SOL    HW1 2657   3.642   6.873   0.605
  586SOL    HW2 2658   3.489   6.838   0.651
  587SOL     OW 2659   4.999   1.791   2.426
  587SOL    HW1 2660   4.918   1.772   2.370
  587SOL    HW2 2661   5.065   1.717   2.414
  588SOL     OW 2662   1.914   4.253   3.029
  588SOL    HW1 2663   1.909   4.163   2.985
  588SOL    HW2 2664   1.847   4.259   3.102
  589SOL     OW 2665   3.345   5.287   6.918
  589SOL    HW1 2666   3.416   5.312   6.853
  589SOL    HW2 2667   3.255   5.314   6.881
  590SOL     OW 2668   2.875   1.953   6.405
  590SOL    HW1 2669   2.786   1.908   6.420
  590SOL    HW2 2670   2.871   2.010   6.324
  591SOL     OW 2671   2.468   6.777   3.513
  591SOL    HW1 2672   2.430   6.690   3.546
  591SOL    HW2 2673   2.567   6.778   3.529
  592SOL     OW 2674   5.281   2.738   5.006
  592SOL    HW1 2675   5.381   2.730   5.001
  592SOL    HW2 2676   5.253   2.822   4.960
  593SOL     OW 2677   2.028   0.842   6.619
  593SOL    HW1 2678   2.107   0.862   6.678
  593SOL    HW2 2679   1.966   0.920   6.619
  594SOL     OW 2680   3.839   1.016   4.378
  594SOL    HW1 2681   3.745   1.040   4.354
  594SOL    HW2 2682   3.839   0.938   4.441
  595SOL     OW 2683   6.014   3.975   2.093
  595SOL    HW1 2684   6.024   4.073   2.111
  595SOL    HW2 2685   6.097   3.927   2.123
  596SOL     OW 2686   5.785   5.065   4.069
  596SOL    HW1 2687   5.755   5.155   4.100
  596SOL    HW2 2688   5.838   5.021   4.141
  597SOL     OW 2689   3.187   1.580   6.898
  597SOL    HW1 2690   3.261   1.642   6.923
  597SOL    HW2 2691   3.102   1.631   6.887
  598SOL     OW 2692   2.920   3.691   3.280
  598SOL    HW1 2693   2.941   3.787   3.265
  598SOL    HW2 2694   2.999   3.635   3.252
  599SOL     OW 2695   2.144   4.581   1.188
  599SOL    HW1 2696   2.156   4.649   1.116
  599SOL    HW2 2697   2.146   4.627   1.277
  600SOL     OW 2698   0.545   3.416   5.119
  600SOL    HW1 2699   0.584   3.365   5.197
  600SOL    HW2 2700   0.474   3.478   5.152
  601SOL     OW 2701   0.110   6.518   5.914
  601SOL    HW1 2702   0.173   6.443   5.935
  601SOL    HW2 2703   0.031   6.513   5.975
  602SOL     OW 2704   1.250   0.580   3.524
  602SOL    HW1 2705   1.304   0.595   3.441
  602SOL    HW2 2706   1.278   0.646   3.594
  603SOL     OW 2707   1.531   1.330   3.936
  603SOL    HW1 2708   1.509   1.424   3.960
  603SOL    HW2 2709   1.585   1.328   3.851
  604SOL     OW 2710   5.184   2.778   1.168
  604SOL    HW1 2711   5.211   2.849   1.232
  604SOL    HW2 2712   5.224   2.691   1.196
  605SOL     OW 2713   5.566   6.301   1.313
  605SOL    HW1 2714   5.467   6.307   1.299
  605SOL    HW2 2715   5.608   6.255   1.235
  606SOL     OW 2716   2.989   6.671   5.130
  606SOL    HW1 2717   3.054   6.747   5.121
  606SOL    HW2 2718   2.977   6.650   5.227
  607SOL     OW 2719   1.779   2.952   6.085
  607SOL    HW1 2720   1.751   3.029   6.142
  607SOL    HW2 2721   1.724   2.872   6.108
  608SOL     OW 2722   3.307   1.181   0.041
  608SOL    HW1 2723   3.209   1.166   0.030
  608SOL    HW2 2724   3.341   1.234   6.982
  609SOL     OW 2725   3.728   3.213   2.308
  609SOL    HW1 2726   3.802   3.150   2.286
  609SOL    HW2 2727   3.706   3.207   2.405
  610SOL     OW 2728   5.000   3.018   1.848
  610SOL    HW1 2729   4.906   3.001   1.820
  610SOL    HW2 2730   5.001   3.054   1.942
  611SOL     OW 2731   3.897   1.455   2.020
  611SOL    HW1 2732   3.880   1.472   2.117
  611SOL    HW2 2733   3.851   1.525   1.965
  612SOL     OW 2734   4.621   4.895   4.279
  612SOL    HW1 2735   4.525   4.921   4.289
  612SOL    HW2 2736   4.632   4.798   4.299
  613SOL     OW 2737   4.272   5.238   6.520
  613SOL    HW1 2738   4.248   5.326   6.561
  613SOL    HW2 2739   4.205   5.169   6.548
  614SOL     OW 2740   3.122   6.272   6.271
  614SOL    HW1 2741   3.072   6.185   6.271
  614SOL    HW2 2742   3.134   6.303   6.365
  615SOL     OW 2743   6.817   4.850   3.073
  615SOL    HW1 2744   6.842   4.908   2.995
  615SOL    HW2 2745   6.745   4.896   3.125
  616SOL     OW 2746   6.004   2.879   3.767
  616SOL    HW1 2747   5.975   2.957   3.710
  616SOL    HW2 2748   5.960   2.885   3.856
  617SOL     OW 2749   2.324   0.329   6.411
  617SOL    HW1 2750   2.340   0.406   6.473
  617SOL    HW2 2751   2.411   0.290   6.383
  618SOL     OW 2752   2.539   0.679   3.658
  618SOL    HW1 2753   2.499   0.618   3.590
  618SOL    HW2 2754   2.467   0.721   3.713
  619SOL     OW 2755   0.840   2.377   0.143
  619SOL    HW1 2756   0.790   2.406   0.225
  619SOL    HW2 2757   0.800   2.292   0.109
  620SOL     OW 2758   4.694   3.479   0.580
  620SOL    HW1 2759   4.622   3.506   0.644
  620SOL    HW2 2760   4.727   3.560   0.531
  621SOL     OW 2761   0.211   5.346   0.998
  621SOL    HW1 2762   0.270   5.272   1.030
  621SOL    HW2 2763   0.138   5.362   1.064
  622SOL     OW 2764   0.332   1.086   0.324
  622SOL    HW1 2765   0.401   1.059   0.257
  622SOL    HW2 2766   0.316   1.011   0.389
  623SOL     OW 2767   6.818   5.067   5.104
  623SOL    HW1 2768   6.906   5.084   5.059
  623SOL    HW2 2769   6.822   5.099   5.198
  624SOL     OW 2770   0.683   1.751   1.339
  624SOL    HW1 2771   0.626   1.833   1.334
  624SOL    HW2 2772   0.700   1.729   1.435
  625SOL     OW 2773   1.435   1.280   2.668
  625SOL    HW1 2774   1.490   1.202   2.637
  625SOL    HW2 2775   1.446   1.290   2.767
  626SOL     OW 2776   3.035   5.718   4.679
  626SOL    HW1 2777   3.040   5.648   4.750
  626SOL    HW2 2778   3.106   5.701   4.611
  627SOL     OW 2779   4.674   6.212   6.645
  627SOL    HW1 2780   4.672   6.304   6.684
  627SOL    HW2 2781   4.703   6.147   6.715
  628SOL     OW 2782   5.917   4.329   3.100
  628SOL    HW1 2783   5.852   4.303   3.171
  628SOL    HW2 2784   5.921   4.258   3.030
  629SOL     OW 2785   1.652   0.181   0.937
  629SOL    HW1 2786   1.715   0.213   0.866
  629SOL    HW2 2787   1.564   0.228   0.928
  630SOL     OW 2788   2.550   1.388   2.074
  630SOL    HW1 2789   2.588   1.361   1.985
  630SOL    HW2 2790   2.625   1.403   2.139
  631SOL     OW 2791   2.513   0.837   4.603
  631SOL    HW1 2792   2.600   0.818   4.557
  631SOL    HW2 2793   2.439   0.789   4.556
  632SOL     OW 2794   2.908   0.638   1.076
  632SOL    HW1 2795   2.846   0.573   1.118
  632SOL    HW2 2796   2.988   0.590   1.039
  633SOL     OW 2797   2.375   0.103   4.998
  633SOL    HW1 2798   2.336   0.167   5.065
  633SOL    HW2 2799   2.352   0.009   5.023
  634SOL     OW 2800   3.121   5.867   1.679
  634SOL    HW1 2801   3.021   5.871   1.678
  634SOL    HW2 2802   3.151   5.802   1.747
  635SOL     OW 2803   3.366   6.921   3.106
  635SOL    HW1 2804   3.299   6.995   3.099
  635SOL    HW2 2805   3.390   6.905   3.202
  636SOL     OW 2806   4.441   4.861   6.012
  636SOL    HW1 2807   4.525   4.808   6.021
  636SOL    HW2 2808   4.367   4.803   5.979
  637SOL     OW 2809   5.878   5.379   6.302
  637SOL    HW1 2810   5.874   5.284   6.335
  637SOL    HW2 2811   5.912   5.380   6.209
  638SOL     OW 2812   5.195   1.833   3.457
  638SOL    HW1 2813   5.254   1.909   3.484
  638SOL    HW2 2814   5.219   1.805   3.363
  639SOL     OW 2815   4.663   3.918   1.726
  639SOL    HW1 2816   4.718   3.836   1.710
  639SOL    HW2 2817   4.568   3.893   1.743
  640SOL     OW 2818   2.628   3.125   5.465
  640SOL    HW1 2819   2.617   3.225   5.464
  640SOL    HW2 2820   2.562   3.084   5.401
  641SOL     OW 2821   6.825   6.198   4.937
  641SOL    HW1 2822   6.832   6.296   4.920
  641SOL    HW2 2823   6.749   6.160   4.883
  642SOL     OW 2824   1.160   4.391   6.406
  642SOL    HW1 2825   1.166   4.450   6.326
  642SOL    HW2 2826   1.251   4.356   6.429
  643SOL     OW 2827   6.113   6.263   4.996
  643SOL    HW1 2828   6.019   6.252   4.964
  643SOL    HW2 2829   6.147   6.353   4.969
  644SOL     OW 2830   2.894   6.345   1.561
  644SOL    HW1 2831   2.872   6.391   1.475
  644SOL    HW2 2832   2.890   6.246   1.549
  645SOL     OW 2833   0.224   2.637   3.323
  645SOL    HW1 2834   0.237   2.650   3.421
  645SOL    HW2 2835   0.196   2.723   3.281
  646SOL     OW 2836   1.408   3.026   4.407
  646SOL    HW1 2837   1.328   3.070   4.366
  646SOL    HW2 2838   1.428   3.070   4.495
  647SOL     OW 2839   5.567   3.617   0.333
  647SOL    HW1 2840   5.527   3.634   0.244
  647SOL    HW2 2841   5.650   3.672   0.343
  648SOL     OW 2842   4.376   2.420   4.237
  648SOL    HW1 2843   4.436   2.472   4.176
  648SOL    HW2 2844   4.351   2.333   4.193
  649SOL     OW 2845   4.635   4.518   1.813
  649SOL    HW1 2846   4.712   4.469   1.852
  649SOL    HW2 2847   4.555   4.459   1.812
  650SOL     OW 2848   5.386   4.880   0.747
  650SOL    HW1 2849   5.343   4.953   0.800
  650SOL    HW2 2850   5.320   4.805   0.734
  651SOL     OW 2851   1.653   5.570   6.620
  651SOL    HW1 2852   1.655   5.635   6.695
  651SOL    HW2 2853   1.747   5.542   6.597
  652SOL     OW 2854   4.954   1.979   1.909
  652SOL    HW1 2855   5.001   2.067   1.919
  652SOL    HW2 2856   4.939   1.960   1.812
  653SOL     OW 2857   3.351   4.938   2.713
  653SOL    HW1 2858   3.297   4.879   2.773
  653SOL    HW2 2859   3.299   4.955   2.629
  654SOL     OW 2860   6.731   4.874   6.281
  654SOL    HW1 2861   6.821   4.887   6.239
  654SOL    HW2 2862   6.722   4.936   6.359
  655SOL     OW 2863   1.172   2.053   6.940
  655SOL    HW1 2864   1.154   2.040   0.019
  655SOL    HW2 2865   1.110   2.121   6.903
  656SOL     OW 2866   1.938   6.060   1.388
  656SOL    HW1 2867   1.895   6.150   1.383
  656SOL    HW2 2868   1.870   5.992   1.414
  657SOL     OW 2869   4.200   0.617   6.902
  657SOL    HW1 2870   4.116   0.668   6.881
  657SOL    HW2 2871   4.212   0.545   6.833
  658SOL     OW 2872   3.691   5.364   0.041
  658SOL    HW1 2873   3.648   5.279   0.069
  658SOL    HW2 2874   3.691   5.371   6.960
  659SOL     OW 2875   3.995   0.600   6.371
  659SOL    HW1 2876   4.083   0.572   6.332
  659SOL    HW2 2877   3.966   0.534   6.440
  660SOL     OW 2878   3.640   6.380   3.221
  660SOL    HW1 2879   3.640   6.282   3.240
  660SOL    HW2 2880   3.575   6.425   3.283
  661SOL     OW 2881   5.758   5.252   2.591
  661SOL    HW1 2882   5.799   5.161   2.600
  661SOL    HW2 2883   5.711   5.276   2.676
  662SOL     OW 2884   4.297   1.700   0.016
  662SOL    HW1 2885   4.288   1.798   0.036
  662SOL    HW2 2886   4.211   1.666   6.997
  663SOL     OW 2887   1.079   4.312   4.789
  663SOL    HW1 2888   1.060   4.217   4.811
  663SOL    HW2 2889   1.146   4.316   4.715
  664SOL     OW 2890   6.043   0.123   6.569
  664SOL    HW1 2891   5.982   0.096   6.494
  664SOL    HW2 2892   6.059   0.222   6.565
  665SOL     OW 2893   0.939   4.225   1.690
  665SOL    HW1 2894   0.882   4.175   1.754
  665SOL    HW2 2895   0.884   4.293   1.642
  666SOL     OW 2896   4.669   1.346   1.930
  666SOL    HW1 2897   4.676   1.249   1.905
  666SOL    HW2 2898   4.755   1.392   1.909
  667SOL     OW 2899   0.771   0.434   1.897
  667SOL    HW1 2900   0.810   0.431   1.989
  667SOL    HW2 2901   0.821   0.502   1.843
  668SOL     OW 2902   5.984   3.201   6.874
  668SOL    HW1 2903   6.073   3.180   6.833
  668SOL    HW2 2904   5.983   3.168   6.969
  669SOL     OW 2905   5.237   1.780   3.182
  669SOL    HW1 2906   5.160   1.820   3.133
  669SOL    HW2 2907   5.275   1.705   3.129
  670SOL     OW 2908   3.802   2.107   2.428
  670SOL    HW1 2909   3.847   2.026   2.464
  670SOL    HW2 2910   3.703   2.091   2.425
  671SOL     OW 2911   1.800   5.999   2.129
  671SOL    HW1 2912   1.864   5.975   2.056
  671SOL    HW2 2913   1.771   5.917   2.177
  672SOL     OW 2914   0.682   0.002   1.498
  672SOL    HW1 2915   0.646   6.973   1.578
  672SOL    HW2 2916   0.773   0.037   1.519
  673SOL     OW 2917   5.964   6.530   6.440
  673SOL    HW1 2918   5.876   6.577   6.428
  673SOL    HW2 2919   5.967   6.450   6.380
  674SOL     OW 2920   5.283   0.331   4.034
  674SOL    HW1 2921   5.198   0.328   3.980
  674SOL    HW2 2922   5.286   0.417   4.085
  675SOL     OW 2923   0.454   3.973   2.039
  675SOL    HW1 2924   0.549   3.988   2.014
  675SOL    HW2 2925   0.449   3.903   2.110
  676SOL     OW 2926   2.609   5.906   6.594
  676SOL    HW1 2927   2.528   5.956   6.626
  676SOL    HW2 2928   2.598   5.883   6.498
  677SOL     OW 2929   5.795   1.392   1.115
  677SOL    HW1 2930   5.874   1.447   1.089
  677SOL    HW2 2931   5.816   1.295   1.099
  678SOL     OW 2932   1.140   5.390   3.845
  678SOL    HW1 2933   1.185   5.303   3.866
  678SOL    HW2 2934   1.209   5.460   3.828
  679SOL     OW 2935   4.940   1.593   5.604
  679SOL    HW1 2936   4.987   1.504   5.604
  679SOL    HW2 2937   4.999   1.662   5.561
  680SOL     OW 2938   5.740   6.708   3.856
  680SOL    HW1 2939   5.655   6.655   3.856
  680SOL    HW2 2940   5.727   6.790   3.800
  681SOL     OW 2941   4.489   4.946   2.495
  681SOL    HW1 2942   4.440   4.935   2.581
  681SOL    HW2 2943   4.552   5.022   2.502
  682SOL     OW 2944   0.221   1.748   2.893
  682SOL    HW1 2945   0.146   1.736   2.829
  682SOL    HW2 2946   0.191   1.807   2.969
  683SOL     OW 2947   3.275   4.242   0.724
  683SOL    HW1 2948   3.219   4.215   0.646
  683SOL    HW2 2949   3.234   4.207   0.808
  684SOL     OW 2950   6.553   1.494   5.995
  684SOL    HW1 2951   6.553   1.472   6.092
  684SOL    HW2 2952   6.459   1.506   5.963
  685SOL     OW 2953   3.154   6.630   3.237
  685SOL    HW1 2954   3.223   6.591   3.298
  685SOL    HW2 2955   3.195   6.648   3.147
  686SOL     OW 2956   4.017   0.496   5.636
  686SOL    HW1 2957   4.028   0.502   5.735
  686SOL    HW2 2958   4.005   0.400   5.610
  687SOL     OW 2959   0.358   1.007   4.556
  687SOL    HW1 2960   0.282   0.959   4.512
  687SOL    HW2 2961   0.444   0.977   4.515
  688SOL     OW 2962   5.674   2.243   6.933
  688SOL    HW1 2963   5.673   2.343   6.923
  688SOL    HW2 2964   5.734   2.203   6.864
  689SOL     OW 2965   2.334   5.784   0.013
  689SOL    HW1 2966   2.293   5.758   6.944
  689SOL    HW2 2967   2.320   5.710   0.079
  690SOL     OW 2968   5.446   3.812   3.605
  690SOL    HW1 2969   5.517   3.874   3.570
  690SOL    HW2 2970   5.374   3.865   3.648
  691SOL     OW 2971   5.872   1.529   2.166
  691SOL    HW1 2972   5.921   1.562   2.084
  691SOL    HW2 2973   5.931   1.468   2.218
  692SOL     OW 2974   1.374   0.950   3.521
  692SOL    HW1 2975   1.413   0.932   3.611
  692SOL    HW2 2976   1.449   0.958   3.454
  693SOL     OW 2977   5.732   4.768   3.127
  693SOL    HW1 2978   5.682   4.843   3.084
  693SOL    HW2 2979   5.758   4.793   3.220
  694SOL     OW 2980   3.972   5.504   4.141
  694SOL    HW1 2981   3.915   5.570   4.092
  694SOL    HW2 2982   4.061   5.496   4.095
  695SOL     OW 2983   4.747   6.704   3.543
  695SOL    HW1 2984   4.807   6.631   3.509
  695SOL    HW2 2985   4.797   6.761   3.608
  696SOL     OW 2986   5.873   3.883   1.871
  696SOL    HW1 2987   5.811   3.809   1.899
  696SOL    HW2 2988   5.906   3.931   1.952
  697SOL     OW 2989   0.248   6.331   2.501
  697SOL    HW1 2990   0.149   6.328   2.510
  697SOL    HW2 2991   0.284   6.237   2.495
  698SOL     OW 2992   5.616   6.508   6.185
  698SOL    HW1 2993   5.663   6.559   6.113
  698SOL    HW2 2994   5.669   6.426   6.207
  699SOL     OW 2995   3.870   3.943   0.850
  699SOL    HW1 2996   3.895   3.855   0.890
  699SOL    HW2 2997   3.787   3.932   0.795
  700SOL     OW 2998   3.441   0.086   5.350
  700SOL    HW1 2999   3.344   0.108   5.343
  700SOL    HW2 3000   3.495   0.163   5.317
  701SOL     OW 3001   4.580   4.900   2.102
  701SOL    HW1 3002   4.619   4.939   2.185
  701SOL    HW2 3003   4.552   4.975   2.041
  702SOL     OW 3004   4.457   0.315   4.696
  702SOL    HW1 3005   4.488   0.355   4.783
  702SOL    HW2 3006   4.360   0.291   4.702
  703SOL     OW 3007   3.549   3.113   0.286
  703SOL    HW1 3008   3.475   3.086   0.347
  703SOL    HW2 3009   3.635   3.113   0.337
  704SOL     OW 3010   3.808   1.507   6.437
  704SOL    HW1 3011   3.818   1.577   6.366
  704SOL    HW2 3012   3.740   1.537   6.504
  705SOL     OW 3013   0.132   6.071   6.087
  705SOL    HW1 3014   0.104   6.147   6.145
  705SOL    HW2 3015   0.053   6.037   6.036
  706SOL     OW 3016   3.933   0.621   4.990
  706SOL    HW1 3017   3.927   0.703   4.932
  706SOL    HW2 3018   3.900   0.643   5.082
  707SOL     OW 3019   3.401   5.190   4.514
  707SOL    HW1 3020   3.498   5.167   4.516
  707SOL    HW2 3021   3.353   5.130   4.450
  708SOL     OW 3022   3.486   5.944   3.690
  708SOL    HW1 3023   3.583   5.924   3.703
  708SOL    HW2 3024   3.475   6.039   3.661
  709SOL     OW 3025   2.426   0.169   1.928
  709SOL    HW1 3026   2.411   0.232   2.003
  709SOL    HW2 3027   2.467   0.085   1.962
  710SOL     OW 3028   5.055   3.810   2.657
  710SOL    HW1 3029   5.007   3.897   2.666
  710SOL    HW2 3030   5.152   3.822   2.678
  711SOL     OW 3031   0.801   1.498   0.896
  711SOL    HW1 3032   0.729   1.567   0.885
  711SOL    HW2 3033   0.775   1.433   0.967
  712SOL     OW 3034   5.463   3.677   0.098
  712SOL    HW1 3035   5.404   3.602   0.068
  712SOL    HW2 3036   5.533   3.695   0.028
  713SOL     OW 3037   3.845   2.978   6.237
  713SOL    HW1 3038   3.772   3.029   6.192
  713SOL    HW2 3039   3.881   2.909   6.175
  714SOL     OW 3040   4.549   6.642   2.886
  714SOL    HW1 3041   4.594   6.724   2.921
  714SOL    HW2 3042   4.468   6.622   2.941
  715SOL     OW 3043   6.265   4.821   5.174
  715SOL    HW1 3044   6.166   4.828   5.165
  715SOL    HW2 3045   6.300   4.755   5.107
  716SOL     OW 3046   3.499   1.769   3.723
  716SOL    HW1 3047   3.582   1.792   3.774
  716SOL    HW2 3048   3.523   1.721   3.639
  717SOL     OW 3049   5.035   5.138   3.672
  717SOL    HW1 3050   5.081   5.182   3.595
  717SOL    HW2 3051   4.937   5.130   3.653
  718SOL     OW 3052   6.126   2.200   5.224
  718SOL    HW1 3053   6.084   2.117   5.187
  718SOL    HW2 3054   6.074   2.230   5.304
  719SOL     OW 3055   4.564   5.999   2.689
  719SOL    HW1 3056   4.474   5.968   2.721
  719SOL    HW2 3057   4.599   5.936   2.620
  720SOL     OW 3058   3.057   1.207   1.463
  720SOL    HW1 3059   3.087   1.279   1.526
  720SOL    HW2 3060   2.976   1.237   1.413
  721SOL     OW 3061   6.810   2.951   1.957
  721SOL    HW1 3062   6.871   2.984   1.885
  721SOL    HW2 3063   6.715   2.956   1.925
  722SOL     OW 3064   5.608   6.218   1.588
  722SOL    HW1 3065   5.593   6.238   1.492
  722SOL    HW2 3066   5.521   6.208   1.635
  723SOL     OW 3067   1.977   1.080   4.443
  723SOL    HW1 3068   2.071   1.079   4.479
  723SOL    HW2 3069   1.972   1.144   4.367
  724SOL     OW 3070   1.318   2.210   4.410
  724SOL    HW1 3071   1.253   2.230   4.337
  724SOL    HW2 3072   1.278   2.144   4.473
  725SOL     OW 3073   1.816   4.729   2.926
  725SOL    HW1 3074   1.831   4.759   2.832
  725SOL    HW2 3075   1.721   4.700   2.937
  726SOL     OW 3076   2.064   3.816   0.449
  726SOL    HW1 3077   2.037   3.754   0.523
  726SOL    HW2 3078   2.001   3.893   0.445
  727SOL     OW 3079   3.834   5.232   4.973
  727SOL    HW1 3080   3.839   5.293   5.051
  727SOL    HW2 3081   3.843   5.137   5.004
  728SOL     OW 3082   6.614   3.144   3.894
  728SOL    HW1 3083   6.549   3.080   3.854
  728SOL    HW2 3084   6.581   3.237   3.881
  729SOL     OW 3085   0.732   4.575   0.312
  729SOL    HW1 3086   0.693   4.485   0.292
  729SOL    HW2 3087   0.709   4.638   0.237
  730SOL     OW 3088   4.410   1.551   3.250
  730SOL    HW1 3089   4.323   1.544   3.299
  730SOL    HW2 3090   4.396   1.529   3.153
  731SOL     OW 3091   4.712   4.881   4.686
  731SOL    HW1 3092   4.792   4.823   4.671
  731SOL    HW2 3093   4.696   4.937   4.605
  732SOL     OW 3094   4.032   0.466   3.944
  732SOL    HW1 3095   3.981   0.380   3.937
  732SOL    HW2 3096   4.077   0.472   4.033
  733SOL     OW 3097   0.211   4.792   3.896
  733SOL    HW1 3098   0.207   4.736   3.814
  733SOL    HW2 3099   0.177   4.884   3.875
  734SOL     OW 3100   6.162   6.504   2.932
  734SOL    HW1 3101   6.104   6.479   2.855
  734SOL    HW2 3102   6.109   6.554   3.000
  735SOL     OW 3103   4.192   0.539   2.340
  735SOL    HW1 3104   4.206   0.445   2.372
  735SOL    HW2 3105   4.232   0.549   2.248
  736SOL     OW 3106   1.947   1.736   3.631
  736SOL    HW1 3107   1.870   1.715   3.691
  736SOL    HW2 3108   2.032   1.734   3.684
  737SOL     OW 3109   3.112   1.195   6.168
  737SOL    HW1 3110   3.098   1.225   6.262
  737SOL    HW2 3111   3.028   1.156   6.132
  738SOL     OW 3112   1.861   5.014   6.969
  738SOL    HW1 3113   1.953   5.036   7.000
  738SOL    HW2 3114   1.799   5.089   6.992
  739SOL     OW 3115   1.383   0.184   3.518
  739SOL    HW1 3116   1.405   0.095   3.557
  739SOL    HW2 3117   1.373   0.252   3.591
  740SOL     OW 3118   5.264   3.139   3.134
  740SOL    HW1 3119   5.227   3.210   3.074
  740SOL    HW2 3120   5.363   3.137   3.127
  741SOL     OW 3121   3.106   1.139   3.374
  741SOL    HW1 3122   3.021   1.125   3.324
  741SOL    HW2 3123   3.085   1.180   3.463
  742SOL     OW 3124   1.684   7.005   2.313
  742SOL    HW1 3125   1.777   6.971   2.327
  742SOL    HW2 3126   1.656   0.040   2.393
  743SOL     OW 3127   0.182   6.307   3.238
  743SOL    HW1 3128   0.270   6.353   3.233
  743SOL    HW2 3129   0.111   6.366   3.200
  744SOL     OW 3130   4.979   1.721   1.207
  744SOL    HW1 3131   4.977   1.662   1.288
  744SOL    HW2 3132   5.045   1.795   1.222
  745SOL     OW 3133   2.048   6.530   5.269
  745SOL    HW1 3134   1.975   6.599   5.268
  745SOL    HW2 3135   2.095   6.530   5.181
  746SOL     OW 3136   6.542   5.394   5.036
  746SOL    HW1 3137   6.592   5.330   4.979
  746SOL    HW2 3138   6.493   5.344   5.107
  747SOL     OW 3139   4.589   5.408   2.766
  747SOL    HW1 3140   4.576   5.342   2.692
  747SOL    HW2 3141   4.645   5.366   2.838
  748SOL     OW 3142   6.018   4.490   1.200
  748SOL    HW1 3143   6.099   4.496   1.142
  748SOL    HW2 3144   6.042   4.443   1.285
  749SOL     OW 3145   4.668   4.322   5.133
  749SOL    HW1 3146   4.605   4.369   5.195
  749SOL    HW2 3147   4.687   4.230   5.169
  750SOL     OW 3148   2.466   1.858   3.346
  750SOL    HW1 3149   2.533   1.932   3.339
  750SOL    HW2 3150   2.480   1.792   3.272
  751SOL     OW 3151   4.153   0.903   0.684
  751SOL    HW1 3152   4.229   0.845   0.714
  751SOL    HW2 3153   4.161   0.918   0.585
  752SOL     OW 3154   3.672   3.197   4.439
  752SOL    HW1 3155   3.683   3.118   4.379
  752SOL    HW2 3156   3.621   3.170   4.521
  753SOL     OW 3157   3.618   4.135   3.554
  753SOL    HW1 3158   3.566   4.176   3.479
  753SOL    HW2 3159   3.683   4.069   3.517
  754SOL     OW 3160   5.046   0.113   0.010
  754SOL    HW1 3161   5.047   0.015   0.030
  754SOL    HW2 3162   5.077   0.164   0.090
  755SOL     OW 3163   4.611   4.716   4.983
  755SOL    HW1 3164   4.663   4.634   4.963
  755SOL    HW2 3165   4.518   4.691   5.011
  756SOL     OW 3166   3.544   5.309   5.919
  756SOL    HW1 3167   3.602   5.321   5.839
  756SOL    HW2 3168   3.509   5.398   5.948
  757SOL     OW 3169   1.413   0.126   2.214
  757SOL    HW1 3170   1.484   0.057   2.224
  757SOL    HW2 3171   1.437   0.189   2.140
  758SOL     OW 3172   4.261   1.085   4.173
  758SOL    HW1 3173   4.192   1.150   4.206
  758SOL    HW2 3174   4.326   1.133   4.114
  759SOL     OW 3175   0.069   3.251   3.785
  759SOL    HW1 3176   0.018   3.169   3.758
  759SOL    HW2 3177   0.007   3.330   3.786
  760SOL     OW 3178   6.821   5.726   3.601
  760SOL    HW1 3179   6.764   5.765   3.673
  760SOL    HW2 3180   6.763   5.677   3.535
  761SOL     OW 3181   4.192   4.838   5.899
  761SOL    HW1 3182   4.122   4.786   5.851
  761SOL    HW2 3183   4.241   4.896   5.833
  762SOL     OW 3184   3.715   5.572   3.740
  762SOL    HW1 3185   3.720   5.638   3.814
  762SOL    HW2 3186   3.756   5.486   3.769
  763SOL     OW 3187   5.772   0.942   0.490
  763SOL    HW1 3188   5.761   0.945   0.589
  763SOL    HW2 3189   5.683   0.931   0.447
  764SOL     OW 3190   4.939   6.236   5.501
  764SOL    HW1 3191   4.913   6.272   5.412
  764SOL    HW2 3192   5.039   6.236   5.509
  765SOL     OW 3193   5.580   5.893   0.570
  765SOL    HW1 3194   5.623   5.974   0.530
  765SOL    HW2 3195   5.650   5.836   0.613
  766SOL     OW 3196   2.452   2.201   4.309
  766SOL    HW1 3197   2.439   2.228   4.405
  766SOL    HW2 3198   2.363   2.203   4.263
  767SOL     OW 3199   6.781   6.330   3.763
  767SOL    HW1 3200   6.773   6.353   3.666
  767SOL    HW2 3201   6.703   6.369   3.812
  768SOL     OW 3202   2.472   5.651   2.194
  768SOL    HW1 3203   2.399   5.601   2.148
  768SOL    HW2 3204   2.560   5.622   2.157
  769SOL     OW 3205   3.552   1.526   5.369
  769SOL    HW1 3206   3.651   1.518   5.355
  769SOL    HW2 3207   3.507   1.542   5.281
  770SOL     OW 3208   0.798   5.031   5.226
  770SOL    HW1 3209   0.717   5.090   5.219
  770SOL    HW2 3210   0.784   4.948   5.172
  771SOL     OW 3211   1.658   4.989   2.328
  771SOL    HW1 3212   1.739   5.028   2.285
  771SOL    HW2 3213   1.579   5.047   2.309
  772SOL     OW 3214   5.580   5.069   0.330
  772SOL    HW1 3215   5.571   5.067   0.231
  772SOL    HW2 3216   5.489   5.071   0.372
  773SOL     OW 3217   1.877   4.737   4.042
  773SOL    HW1 3218   1.847   4.655   4.090
  773SOL    HW2 3219   1.938   4.711   3.966
  774SOL     OW 3220   2.199   2.023   3.679
  774SOL    HW1 3221   2.298   2.032   3.668
  774SOL    HW2 3222   2.159   2.113   3.700
  775SOL     OW 3223   1.263   3.947   2.379
  775SOL    HW1 3224   1.257   4.036   2.335
  775SOL    HW2 3225   1.263   3.958   2.478
  776SOL     OW 3226   3.152   5.334   6.274
  776SOL    HW1 3227   3.153   5.323   6.373
  776SOL    HW2 3228   3.196   5.420   6.250
  777SOL     OW 3229   1.940   3.353   6.754
  777SOL    HW1 3230   1.968   3.332   6.660
  777SOL    HW2 3231   1.951   3.451   6.771
  778SOL     OW 3232   3.709   5.535   6.573
  778SOL    HW1 3233   3.732   5.631   6.590
  778SOL    HW2 3234   3.613   5.527   6.549
  779SOL     OW 3235   5.770   1.913   3.265
  779SOL    HW1 3236   5.815   2.002   3.275
  779SOL    HW2 3237   5.765   1.869   3.355
  780SOL     OW 3238   6.739   1.259   4.128
  780SOL    HW1 3239   6.725   1.331   4.060
  780SOL    HW2 3240   6.837   1.245   4.141
  781SOL     OW 3241   0.517   4.841   6.442
  781SOL    HW1 3242   0.580   4.915   6.419
  781SOL    HW2 3243   0.563   4.775   6.501
  782SOL     OW 3244   2.593   4.164   5.344
  782SOL    HW1 3245   2.671   4.132   5.290
  782SOL    HW2 3246   2.516   4.181   5.283
  783SOL     OW 3247   6.491   5.090   6.258
  783SOL    HW1 3248   6.469   5.002   6.214
  783SOL    HW2 3249   6.582   5.084   6.299
  784SOL     OW 3250   2.283   5.560   0.230
  784SOL    HW1 3251   2.279   5.595   0.323
  784SOL    HW2 3252   2.360   5.497   0.221
  785SOL     OW 3253   0.636   0.241   4.490
  785SOL    HW1 3254   0.554   0.291   4.516
  785SOL    HW2 3255   0.611   0.149   4.460
  786SOL     OW 3256   5.930   0.820   4.747
  786SOL    HW1 3257   5.867   0.761   4.696
  786SOL    HW2 3258   6.007   0.845   4.688
  787SOL     OW 3259   1.866   6.331   1.360
  787SOL    HW1 3260   1.785   6.390   1.369
  787SOL    HW2 3261   1.945   6.377   1.400
  788SOL     OW 3262   2.286   2.691   2.535
  788SOL    HW1 3263   2.212   2.625   2.547
  788SOL    HW2 3264   2.276   2.736   2.446
  789SOL     OW 3265   3.959   5.465   2.430
  789SOL    HW1 3266   3.873   5.489   2.384
  789SOL    HW2 3267   3.938   5.413   2.513
  790SOL     OW 3268   0.308   3.300   2.167
  790SOL    HW1 3269   0.373   3.258   2.231
  790SOL    HW2 3270   0.231   3.238   2.154
  791SOL     OW 3271   3.252   0.665   3.696
  791SOL    HW1 3272   3.203   0.736   3.645
  791SOL    HW2 3273   3.220   0.665   3.791
  792SOL     OW 3274   2.671   0.309   1.527
  792SOL    HW1 3275   2.606   0.347   1.461
  792SOL    HW2 3276   2.753   0.278   1.479
  793SOL     OW 3277   1.788   5.686   5.015
  793SOL    HW1 3278   1.822   5.710   5.106
  793SOL    HW2 3279   1.855   5.714   4.946
  794SOL     OW 3280   3.210   3.559   2.608
  794SOL    HW1 3281   3.236   3.635   2.667
  794SOL    HW2 3282   3.123   3.520   2.639
  795SOL     OW 3283   4.932   0.545   5.316
  795SOL    HW1 3284   4.948   0.468   5.377
  795SOL    HW2 3285   5.015   0.565   5.264
  796SOL     OW 3286   0.902   1.979   0.381
  796SOL    HW1 3287   0.910   2.032   0.465
  796SOL    HW2 3288   0.806   1.975   0.353
  797SOL     OW 3289   3.637   6.872   1.576
  797SOL    HW1 3290   3.597   6.958   1.543
  797SOL    HW2 3291   3.572   6.825   1.635
  798SOL     OW 3292   4.997   4.109   1.672
  798SOL    HW1 3293   5.043   4.138   1.756
  798SOL    HW2 3294   4.918   4.168   1.655
  799SOL     OW 3295   3.398   2.380   5.855
  799SOL    HW1 3296   3.317   2.438   5.857
  799SOL    HW2 3297   3.475   2.432   5.816
  800SOL     OW 3298   5.247   2.744   2.668
  800SOL    HW1 3299   5.163   2.691   2.682
  800SOL    HW2 3300   5.232   2.838   2.697
  801SOL     OW 3301   1.893   5.799   0.022
  801SOL    HW1 3302   1.963   5.728   0.023
  801SOL    HW2 3303   1.903   5.855   6.958
  802SOL     OW 3304   4.079   2.569   6.620
  802SOL    HW1 3305   4.055   2.487   6.672
  802SOL    HW2 3306   4.085   2.647   6.681
  803SOL     OW 3307   2.359   2.519   3.943
  803SOL    HW1 3308   2.358   2.613   3.976
  803SOL    HW2 3309   2.453   2.486   3.937
  804SOL     OW 3310   5.237   0.345   3.015
  804SOL    HW1 3311   5.183   0.325   2.933
  804SOL    HW2 3312   5.275   0.259   3.051
  805SOL     OW 3313   3.574   1.309   4.146
  805SOL    HW1 3314   3.590   1.384   4.211
  805SOL    HW2 3315   3.547   1.347   4.058
  806SOL     OW 3316   3.422   6.109   6.062
  806SOL    HW1 3317   3.439   6.172   6.137
  806SOL    HW2 3318   3.381   6.159   5.985
  807SOL     OW 3319   1.350   6.130   6.624
  807SOL    HW1 3320   1.255   6.158   6.613
  807SOL    HW2 3321   1.368   6.047   6.570
  808SOL     OW 3322   5.319   2.735   6.138
  808SOL    HW1 3323   5.317   2.642   6.175
  808SOL    HW2 3324   5.343   2.799   6.211
  809SOL     OW 3325   3.329   6.527   6.320
  809SOL    HW1 3326   3.327   6.511   6.222
  809SOL    HW2 3327   3.294   6.619   6.340
  810SOL     OW 3328   3.474   3.675   6.930
  810SOL    HW1 3329   3.560   3.642   6.891
  810SOL    HW2 3330   3.481   3.673   0.011
  811SOL     OW 3331   5.313   5.538   4.012
  811SOL    HW1 3332   5.351   5.630   4.015
  811SOL    HW2 3333   5.215   5.541   4.035
  812SOL     OW 3334   1.182   3.635   1.241
  812SOL    HW1 3335   1.252   3.697   1.206
  812SOL    HW2 3336   1.128   3.682   1.310
  813SOL     OW 3337   3.056   1.418   4.804
  813SOL    HW1 3338   3.133   1.410   4.741
  813SOL    HW2 3339   3.020   1.511   4.800
  814SOL     OW 3340   0.257   4.816   1.709
  814SOL    HW1 3341   0.330   4.765   1.754
  814SOL    HW2 3342   0.229   4.768   1.626
  815SOL     OW 3343   4.651   1.577   3.661
  815SOL    HW1 3344   4.744   1.614   3.658
  815SOL    HW2 3345   4.652   1.489   3.707
  816SOL     OW 3346   5.138   3.708   6.127
  816SOL    HW1 3347   5.057   3.749   6.169
  816SOL    HW2 3348   5.142   3.611   6.150
  817SOL     OW 3349   6.993   4.937   6.400
  817SOL    HW1 3350   0.072   4.920   6.385
  817SOL    HW2 3351   6.982   5.018   6.457
  818SOL     OW 3352   6.863   1.492   5.190
  818SOL    HW1 3353   6.948   1.513   5.239
  818SOL    HW2 3354   6.793   1.465   5.256
  819SOL     OW 3355   5.471   3.270   1.162
  819SOL    HW1 3356   5.426   3.350   1.122
  819SOL    HW2 3357   5.435   3.254   1.254
  820SOL     OW 3358   2.552   2.086   4.959
  820SOL    HW1 3359   2.467   2.034   4.965
  820SOL    HW2 3360   2.569   2.110   4.864
  821SOL     OW 3361   4.699   3.694   6.762
  821SOL    HW1 3362   4.712   3.745   6.677
  821SOL    HW2 3363   4.751   3.608   6.757
  822SOL     OW 3364   0.259   4.707   3.423
  822SOL    HW1 3365   0.307   4.622   3.400
  822SOL    HW2 3366   0.165   4.702   3.389
  823SOL     OW 3367   2.161   2.571   4.575
  823SOL    HW1 3368   2.150   2.662   4.533
  823SOL    HW2 3369   2.199   2.581   4.666
  824SOL     OW 3370   5.141   0.703   6.517
  824SOL    HW1 3371   5.063   0.641   6.519
  824SOL    HW2 3372   5.154   0.744   6.608
  825SOL     OW 3373   5.829   5.556   0.896
  825SOL    HW1 3374   5.853   5.467   0.936
  825SOL    HW2 3375   5.807   5.620   0.969
  826SOL     OW 3376   3.842   1.982   0.620
  826SOL    HW1 3377   3.904   2.060   0.607
  826SOL    HW2 3378   3.747   2.016   0.625
  827SOL     OW 3379   3.584   3.623   4.691
  827SOL    HW1 3380   3.619   3.670   4.610
  827SOL    HW2 3381   3.643   3.643   4.770
  828SOL     OW 3382   0.638   6.413   6.564
  828SOL    HW1 3383   0.690   6.428   6.648
  828SOL    HW2 3384   0.571   6.340   6.579
  829SOL     OW 3385   3.822   3.345   1.812
  829SOL    HW1 3386   3.773   3.306   1.890
  829SOL    HW2 3387   3.766   3.415   1.768
  830SOL     OW 3388   6.547   3.970   5.826
  830SOL    HW1 3389   6.577   4.037   5.895
  830SOL    HW2 3390   6.501   3.894   5.872
  831SOL     OW 3391   5.748   1.207   3.096
  831SOL    HW1 3392   5.730   1.119   3.053
  831SOL    HW2 3393   5.698   1.279   3.048
  832SOL     OW 3394   3.202   2.078   4.419
  832SOL    HW1 3395   3.134   2.037   4.480
  832SOL    HW2 3396   3.157   2.143   4.358
  833SOL     OW 3397   4.194   3.047   0.151
  833SOL    HW1 3398   4.204   3.071   0.248
  833SOL    HW2 3399   4.097   3.035   0.130
  834SOL     OW 3400   5.602   2.988   0.481
  834SOL    HW1 3401   5.515   2.994   0.433
  834SOL    HW2 3402   5.590   3.017   0.576
  835SOL     OW 3403   6.778   6.781   4.904
  835SOL    HW1 3404   6.852   6.834   4.947
  835SOL    HW2 3405   6.761   6.698   4.958
  836SOL     OW 3406   5.573   0.321   3.773
  836SOL    HW1 3407   5.562   0.327   3.674
  836SOL    HW2 3408   5.544   0.407   3.815
  837SOL     OW 3409   1.558   0.364   6.776
  837SOL    HW1 3410   1.615   0.406   6.847
  837SOL    HW2 3411   1.576   0.410   6.688
  838SOL     OW 3412   1.780   5.596   3.407
  838SOL    HW1 3413   1.720   5.676   3.414
  838SOL    HW2 3414   1.782   5.547   3.494
  839SOL     OW 3415   1.217   2.275   0.384
  839SOL    HW1 3416   1.237   2.179   0.404
  839SOL    HW2 3417   1.126   2.298   0.417
  840SOL     OW 3418   4.148   5.301   0.629
  840SOL    HW1 3419   4.161   5.244   0.548
  840SOL    HW2 3420   4.052   5.326   0.637
  841SOL     OW 3421   2.681   5.247   6.232
  841SOL    HW1 3422   2.585   5.245   6.262
  841SOL    HW2 3423   2.741   5.225   6.308
  842SOL     OW 3424   4.528   6.732   0.632
  842SOL    HW1 3425   4.590   6.665   0.671
  842SOL    HW2 3426   4.580   6.801   0.583
  843SOL     OW 3427   1.339   0.577   1.843
  843SOL    HW1 3428   1.276   0.517   1.893
  843SOL    HW2 3429   1.433   0.558   1.872
  844SOL     OW 3430   6.870   0.105   1.485
  844SOL    HW1 3431   6.806   0.060   1.547
  844SOL    HW2 3432   6.888   0.046   1.406
  845SOL     OW 3433   4.070   1.683   2.141
  845SOL    HW1 3434   3.990   1.670   2.083
  845SOL    HW2 3435   4.094   1.780   2.143
  846SOL     OW 3436   1.508   1.579   1.078
  846SOL    HW1 3437   1.461   1.511   1.135
  846SOL    HW2 3438   1.567   1.532   1.012
  847SOL     OW 3439   2.438   3.457   1.461
  847SOL    HW1 3440   2.374   3.470   1.537
  847SOL    HW2 3441   2.460   3.546   1.421
  848SOL     OW 3442   6.410   6.063   0.065
  848SOL    HW1 3443   6.459   6.150   0.052
  848SOL    HW2 3444   6.474   5.994   0.098
  849SOL     OW 3445   5.608   3.122   6.547
  849SOL    HW1 3446   5.580   3.035   6.506
  849SOL    HW2 3447   5.578   3.124   6.643
  850SOL     OW 3448   1.663   0.948   4.217
  850SOL    HW1 3449   1.759   0.949   4.188
  850SOL    HW2 3450   1.655   0.994   4.305
  851SOL     OW 3451   4.938   2.448   6.259
  851SOL    HW1 3452   4.892   2.507   6.325
  851SOL    HW2 3453   4.899   2.356   6.264
  852SOL     OW 3454   6.530   4.911   1.869
  852SOL    HW1 3455   6.600   4.933   1.937
  852SOL    HW2 3456   6.535   4.976   1.793
  853SOL     OW 3457   3.371   3.010   0.477
  853SOL    HW1 3458   3.322   3.090   0.511
  853SOL    HW2 3459   3.306   2.934   0.465
  854SOL     OW 3460   0.092   0.049   5.558
  854SOL    HW1 3461   0.055   0.098   5.637
  854SOL    HW2 3462   0.118   6.975   5.586
  855SOL     OW 3463   4.732   2.189   0.266
  855SOL    HW1 3464   4.781   2.224   0.186
  855SOL    HW2 3465   4.724   2.090   0.259
  856SOL     OW 3466   1.955   5.430   1.776
  856SOL    HW1 3467   2.035   5.485   1.754
  856SOL    HW2 3468   1.872   5.477   1.747
  857SOL     OW 3469   6.662   5.834   5.105
  857SOL    HW1 3470   6.754   5.811   5.137
  857SOL    HW2 3471   6.601   5.756   5.120
  858SOL     OW 3472   3.654   4.199   0.268
  858SOL    HW1 3473   3.703   4.145   0.337
  858SOL    HW2 3474   3.679   4.167   0.177
  859SOL     OW 3475   5.094   5.507   5.204
  859SOL    HW1 3476   5.025   5.573   5.234
  859SOL    HW2 3477   5.056   5.415   5.209
  860SOL     OW 3478   4.540   2.839   6.212
  860SOL    HW1 3479   4.553   2.900   6.134
  860SOL    HW2 3480   4.598   2.758   6.201
  861SOL     OW 3481   1.249   5.545   2.622
  861SOL    HW1 3482   1.226   5.619   2.560
  861SOL    HW2 3483   1.335   5.503   2.594
  862SOL     OW 3484   0.942   4.169   3.990
  862SOL    HW1 3485   1.026   4.139   3.944
  862SOL    HW2 3486   0.945   4.268   4.003
  863SOL     OW 3487   5.756   0.652   1.511
  863SOL    HW1 3488   5.805   0.712   1.448
  863SOL    HW2 3489   5.700   0.588   1.460
  864SOL     OW 3490   5.945   5.723   2.562
  864SOL    HW1 3491   5.932   5.781   2.481
  864SOL    HW2 3492   5.873   5.742   2.628
  865SOL     OW 3493   1.464   5.090   4.682
  865SOL    HW1 3494   1.365   5.082   4.693
  865SOL    HW2 3495   1.509   5.036   4.753
  866SOL     OW 3496   3.893   0.239   1.893
  866SOL    HW1 3497   3.805   0.265   1.934
  866SOL    HW2 3498   3.894   0.267   1.797
  867SOL     OW 3499   5.909   3.541   5.481
  867SOL    HW1 3500   5.968   3.597   5.538
  867SOL    HW2 3501   5.964   3.476   5.429
  868SOL     OW 3502   0.554   1.937   2.116
  868SOL    HW1 3503   0.531   1.859   2.174
  868SOL    HW2 3504   0.508   1.927   2.028
  869SOL     OW 3505   6.687   3.015   2.615
  869SOL    HW1 3506   6.624   3.088   2.588
  869SOL    HW2 3507   6.635   2.938   2.651
  870SOL     OW 3508   3.793   5.041   1.886
  870SOL    HW1 3509   3.889   5.024   1.862
  870SOL    HW2 3510   3.751   4.956   1.916
  871SOL     OW 3511   4.939   1.641   3.682
  871SOL    HW1 3512   4.977   1.549   3.689
  871SOL    HW2 3513   5.004   1.707   3.719
  872SOL     OW 3514   1.294   2.085   4.938
  872SOL    HW1 3515   1.373   2.030   4.963
  872SOL    HW2 3516   1.319   2.146   4.862
  873SOL     OW 3517   4.203   0.152   6.637
  873SOL    HW1 3518   4.206   0.142   6.537
  873SOL    HW2 3519   4.142   0.083   6.676
  874SOL     OW 3520   6.072   3.645   1.551
  874SOL    HW1 3521   6.105   3.671   1.642
  874SOL    HW2 3522   6.059   3.727   1.496
  875SOL     OW 3523   5.380   5.758   2.269
  875SOL    HW1 3524   5.405   5.801   2.355
  875SOL    HW2 3525   5.384   5.825   2.195
  876SOL     OW 3526   6.000   0.480   6.743
  876SOL    HW1 3527   6.006   0.580   6.739
  876SOL    HW2 3528   6.015   0.442   6.651
  877SOL     OW 3529   1.047   3.234   6.833
  877SOL    HW1 3530   0.973   3.264   6.894
  877SOL    HW2 3531   1.128   3.211   6.888
  878SOL     OW 3532   3.665   6.441   4.070
  878SOL    HW1 3533   3.756   6.450   4.111
  878SOL    HW2 3534   3.643   6.344   4.059
  879SOL     OW 3535   5.746   6.860   6.823
  879SOL    HW1 3536   5.841   6.844   6.797
  879SOL    HW2 3537   5.731   6.958   6.835
  880SOL     OW 3538   3.215   3.701   3.160
  880SOL    HW1 3539   3.315   3.702   3.155
  880SOL    HW2 3540   3.183   3.793   3.185
  881SOL     OW 3541   4.033   2.156   0.552
  881SOL    HW1 3542   4.095   2.149   0.474
  881SOL    HW2 3543   4.083   2.185   0.633
  882SOL     OW 3544   1.868   3.105   3.234
  882SOL    HW1 3545   1.828   3.132   3.322
  882SOL    HW2 3546   1.848   3.009   3.216
  883SOL     OW 3547   2.270   6.533   2.852
  883SOL    HW1 3548   2.175   6.529   2.823
  883SOL    HW2 3549   2.274   6.548   2.951
  884SOL     OW 3550   2.621   3.456   6.010
  884SOL    HW1 3551   2.680   3.535   6.026
  884SOL    HW2 3552   2.675   3.382   5.970
  885SOL     OW 3553   4.385   2.932   6.400
  885SOL    HW1 3554   4.457   2.892   6.344
  885SOL    HW2 3555   4.311   2.965   6.341
  886SOL     OW 3556   3.599   1.417   6.761
  886SOL    HW1 3557   3.524   1.352   6.768
  886SOL    HW2 3558   3.574   1.490   6.697
  887SOL     OW 3559   4.993   1.017   5.052
  887SOL    HW1 3560   4.951   0.931   5.021
  887SOL    HW2 3561   4.963   1.036   5.145
  888SOL     OW 3562   6.635   6.550   1.660
  888SOL    HW1 3563   6.649   6.457   1.625
  888SOL    HW2 3564   6.673   6.616   1.595
  889SOL     OW 3565   0.044   3.463   0.309
  889SOL    HW1 3566   0.119   3.405   0.342
  889SOL    HW2 3567   0.028   3.444   0.212
  890SOL     OW 3568   2.478   6.217   4.164
  890SOL    HW1 3569   2.498   6.305   4.121
  890SOL    HW2 3570   2.387   6.221   4.206
  891SOL     OW 3571   5.374   4.858   2.542
  891SOL    HW1 3572   5.357   4.903   2.630
  891SOL    HW2 3573   5.472   4.859   2.522
  892SOL     OW 3574   2.610   4.711   0.806
  892SOL    HW1 3575   2.639   4.666   0.722
  892SOL    HW2 3576   2.595   4.643   0.877
  893SOL     OW 3577   1.222   5.083   2.988
  893SOL    HW1 3578   1.265   5.173   2.976
  893SOL    HW2 3579   1.140   5.078   2.931
  894SOL     OW 3580   0.984   4.484   0.658
  894SOL    HW1 3581   1.011   4.414   0.724
  894SOL    HW2 3582   0.965   4.441   0.569
  895SOL     OW 3583   0.035   5.148   3.768
  895SOL    HW1 3584   0.006   5.219   3.832
  895SOL    HW2 3585   0.020   5.058   3.809
  896SOL     OW 3586   0.752   0.759   6.573
  896SOL    HW1 3587   0.662   0.800   6.585
  896SOL    HW2 3588   0.743   0.660   6.560
  897SOL     OW 3589   4.820   1.241   0.643
  897SOL    HW1 3590   4.918   1.251   0.661
  897SOL    HW2 3591   4.798   1.144   0.634
  898SOL     OW 3592   3.580   0.673   2.761
  898SOL    HW1 3593   3.501   0.691   2.819
  898SOL    HW2 3594   3.571   0.583   2.719
  899SOL     OW 3595   6.659   5.948   0.124
  899SOL    HW1 3596   6.756   5.971   0.111
  899SOL    HW2 3597   6.651   5.860   0.171
  900SOL     OW 3598   5.218   5.106   0.848
  900SOL    HW1 3599   5.165   5.190   0.839
  900SOL    HW2 3600   5.244   5.093   0.943
  901SOL     OW 3601   0.982   0.207   3.218
  901SOL    HW1 3602   0.924   0.259   3.281
  901SOL    HW2 3603   0.936   0.198   3.130
  902SOL     OW 3604   6.543   2.990   1.874
  902SOL    HW1 3605   6.468   2.990   1.940
  902SOL    HW2 3606   6.509   3.021   1.785
  903SOL     OW 3607   0.363   1.457   1.095
  903SOL    HW1 3608   0.280   1.438   1.147
  903SOL    HW2 3609   0.437   1.484   1.158
  904SOL     OW 3610   2.190   0.917   3.050
  904SOL    HW1 3611   2.150   0.997   3.094
  904SOL    HW2 3612   2.228   0.856   3.119
  905SOL     OW 3613   6.169   1.898   6.577
  905SOL    HW1 3614   6.139   1.806   6.551
  905SOL    HW2 3615   6.114   1.966   6.529
  906SOL     OW 3616   5.325   2.744   0.423
  906SOL    HW1 3617   5.380   2.820   0.456
  906SOL    HW2 3618   5.231   2.774   0.408
  907SOL     OW 3619   5.378   4.353   6.474
  907SOL    HW1 3620   5.473   4.359   6.505
  907SOL    HW2 3621   5.344   4.444   6.452
  908SOL     OW 3622   0.825   4.278   3.468
  908SOL    HW1 3623   0.887   4.227   3.528
  908SOL    HW2 3624   0.857   4.373   3.461
  909SOL     OW 3625   5.306   6.015   5.880
  909SOL    HW1 3626   5.371   6.033   5.955
  909SOL    HW2 3627   5.323   5.923   5.843
  910SOL     OW 3628   2.886   4.593   0.386
  910SOL    HW1 3629   2.836   4.660   0.331
  910SOL    HW2 3630   2.844   4.503   0.376
  911SOL     OW 3631   1.270   4.403   5.555
  911SOL    HW1 3632   1.215   4.324   5.583
  911SOL    HW2 3633   1.360   4.372   5.525
  912SOL     OW 3634   4.941   1.502   4.605
  912SOL    HW1 3635   4.909   1.592   4.635
  912SOL    HW2 3636   5.035   1.488   4.636
  913SOL     OW 3637   5.117   6.671   2.884
  913SOL    HW1 3638   5.212   6.661   2.852
  913SOL    HW2 3639   5.062   6.594   2.850
  914SOL     OW 3640   3.224   6.351   6.023
  914SOL    HW1 3641   3.189   6.321   6.112
  914SOL    HW2 3642   3.245   6.449   6.028
  915SOL     OW 3643   5.035   5.795   1.376
  915SOL    HW1 3644   5.126   5.808   1.337
  915SOL    HW2 3645   5.043   5.769   1.472
  916SOL     OW 3646   1.537   3.248   2.767
  916SOL    HW1 3647   1.609   3.179   2.753
  916SOL    HW2 3648   1.451   3.202   2.786
  917SOL     OW 3649   0.500   6.589   6.825
  917SOL    HW1 3650   0.506   6.621   6.730
  917SOL    HW2 3651   0.535   6.660   6.886
  918SOL     OW 3652   3.213   6.661   6.835
  918SOL    HW1 3653   3.137   6.675   6.772
  918SOL    HW2 3654   3.191   6.704   6.923
  919SOL     OW 3655   4.872   1.088   5.768
  919SOL    HW1 3656   4.776   1.085   5.739
  919SOL    HW2 3657   4.910   1.178   5.749
  920SOL     OW 3658   2.912   4.974   1.752
  920SOL    HW1 3659   2.872   4.883   1.760
  920SOL    HW2 3660   3.011   4.968   1.760
  921SOL     OW 3661   4.925   5.729   4.790
  921SOL    HW1 3662   4.875   5.669   4.853
  921SOL    HW2 3663   4.895   5.823   4.803
  922SOL     OW 3664   3.330   3.259   3.673
  922SOL    HW1 3665   3.317   3.163   3.648
  922SOL    HW2 3666   3.360   3.264   3.769
  923SOL     OW 3667   2.178   3.424   5.526
  923SOL    HW1 3668   2.219   3.346   5.573
  923SOL    HW2 3669   2.194   3.507   5.579
  924SOL     OW 3670   0.524   3.228   1.265
  924SOL    HW1 3671   0.556   3.135   1.245
  924SOL    HW2 3672   0.553   3.254   1.357
  925SOL     OW 3673   0.514   1.459   0.244
  925SOL    HW1 3674   0.571   1.392   0.293
  925SOL    HW2 3675   0.568   1.541   0.225
  926SOL     OW 3676   1.854   1.967   1.552
  926SOL    HW1 3677   1.852   2.067   1.565
  926SOL    HW2 3678   1.792   1.942   1.478
  927SOL     OW 3679   7.011   3.635   4.442
  927SOL    HW1 3680   0.062   3.687   4.490
  927SOL    HW2 3681   0.034   3.558   4.394
  928SOL     OW 3682   3.180   5.108   5.487
  928SOL    HW1 3683   3.131   5.105   5.400
  928SOL    HW2 3684   3.277   5.091   5.472
  929SOL     OW 3685   0.540   2.009   4.450
  929SOL    HW1 3686   0.566   2.077   4.520
  929SOL    HW2 3687   0.448   2.030   4.416
  930SOL     OW 3688   5.594   5.550   4.366
  930SOL    HW1 3689   5.618   5.575   4.272
  930SOL    HW2 3690   5.598   5.631   4.424
  931SOL     OW 3691   6.389   0.989   3.348
  931SOL    HW1 3692   6.434   0.939   3.422
  931SOL    HW2 3693   6.421   0.955   3.260
  932SOL     OW 3694   3.458   0.421   3.915
  932SOL    HW1 3695   3.463   0.389   3.820
  932SOL    HW2 3696   3.370   0.466   3.930
  933SOL     OW 3697   1.224   5.707   1.854
  933SOL    HW1 3698   1.256   5.622   1.813
  933SOL    HW2 3699   1.298   5.775   1.852
  934SOL     OW 3700   2.086   3.239   0.776
  934SOL    HW1 3701   2.005   3.187   0.750
  934SOL    HW2 3702   2.167   3.181   0.768
  935SOL     OW 3703   5.566   2.856   5.668
  935SOL    HW1 3704   5.488   2.826   5.724
  935SOL    HW2 3705   5.631   2.906   5.725
  936SOL     OW 3706   1.994   0.643   5.903
  936SOL    HW1 3707   2.020   0.548   5.884
  936SOL    HW2 3708   1.947   0.681   5.823
  937SOL     OW 3709   3.427   2.148   5.978
  937SOL    HW1 3710   3.415   2.235   5.930
  937SOL    HW2 3711   3.504   2.155   6.041
  938SOL     OW 3712   5.072   6.245   4.739
  938SOL    HW1 3713   5.006   6.318   4.725
  938SOL    HW2 3714   5.157   6.268   4.692
  939SOL     OW 3715   1.451   0.272   5.586
  939SOL    HW1 3716   1.519   0.279   5.659
  939SOL    HW2 3717   1.359   0.279   5.625
  940SOL     OW 3718   1.916   5.619   0.827
  940SOL    HW1 3719   1.950   5.709   0.854
  940SOL    HW2 3720   1.945   5.551   0.894
  941SOL     OW 3721   3.776   6.755   0.901
  941SOL    HW1 3722   3.687   6.795   0.881
  941SOL    HW2 3723   3.823   6.811   0.968
  942SOL     OW 3724   6.443   4.826   6.982
  942SOL    HW1 3725   6.541   4.811   6.970
  942SOL    HW2 3726   6.407   4.873   6.901
  943SOL     OW 3727   3.643   5.631   1.446
  943SOL    HW1 3728   3.596   5.590   1.368
  943SOL    HW2 3729   3.742   5.622   1.434
  944SOL     OW 3730   6.676   6.144   3.329
  944SOL    HW1 3731   6.580   6.116   3.335
  944SOL    HW2 3732   6.735   6.068   3.357
  945SOL     OW 3733   0.493   5.600   6.450
  945SOL    HW1 3734   0.551   5.520   6.432
  945SOL    HW2 3735   0.504   5.666   6.375
  946SOL     OW 3736   6.093   2.153   4.190
  946SOL    HW1 3737   6.119   2.222   4.122
  946SOL    HW2 3738   5.999   2.124   4.173
  947SOL     OW 3739   3.909   3.951   3.066
  947SOL    HW1 3740   3.971   3.874   3.047
  947SOL    HW2 3741   3.904   4.009   2.985
  948SOL     OW 3742   3.370   1.115   4.100
  948SOL    HW1 3743   3.400   1.038   4.156
  948SOL    HW2 3744   3.442   1.185   4.098
  949SOL     OW 3745   3.062   0.149   5.656
  949SOL    HW1 3746   3.126   0.217   5.692
  949SOL    HW2 3747   3.023   0.183   5.570
  950SOL     OW 3748   6.768   0.245   2.131
  950SOL    HW1 3749   6.748   0.177   2.060
  950SOL    HW2 3750   6.724   0.332   2.108
  951SOL     OW 3751   1.084   0.195   3.512
  951SOL    HW1 3752   1.055   0.192   3.417
  951SOL    HW2 3753   1.184   0.206   3.516
  952SOL     OW 3754   3.708   1.790   3.232
  952SOL    HW1 3755   3.712   1.787   3.331
  952SOL    HW2 3756   3.780   1.851   3.197
  953SOL     OW 3757   0.660   5.467   5.997
  953SOL    HW1 3758   0.681   5.456   5.900
  953SOL    HW2 3759   0.741   5.502   6.044
  954SOL     OW 3760   4.578   6.699   2.463
  954SOL    HW1 3761   4.529   6.776   2.422
  954SOL    HW2 3762   4.629   6.731   2.543
  955SOL     OW 3763   2.391   5.221   1.148
  955SOL    HW1 3764   2.405   5.159   1.225
  955SOL    HW2 3765   2.480   5.253   1.115
  956SOL     OW 3766   4.335   0.435   1.272
  956SOL    HW1 3767   4.398   0.367   1.309
  956SOL    HW2 3768   4.362   0.458   1.178
  957SOL     OW 3769   6.110   6.744   3.073
  957SOL    HW1 3770   6.010   6.744   3.071
  957SOL    HW2 3771   6.143   6.837   3.088
  958SOL     OW 3772   5.378   6.182   1.722
  958SOL    HW1 3773   5.382   6.093   1.678
  958SOL    HW2 3774   5.326   6.175   1.807
  959SOL     OW 3775   5.306   0.111   3.137
  959SOL    HW1 3776   5.334   0.102   3.233
  959SOL    HW2 3777   5.258   0.028   3.108
  960SOL     OW 3778   1.846   6.442   6.161
  960SOL    HW1 3779   1.895   6.440   6.074
  960SOL    HW2 3780   1.907   6.476   6.233
  961SOL     OW 3781   4.185   1.351   3.831
  961SOL    HW1 3782   4.199   1.253   3.847
  961SOL    HW2 3783   4.253   1.384   3.766
  962SOL     OW 3784   0.107   0.075   4.669
  962SOL    HW1 3785   0.019   0.100   4.709
  962SOL    HW2 3786   0.100   7.005   4.624
  963SOL     OW 3787   5.694   2.987   1.249
  963SOL    HW1 3788   5.607   3.013   1.291
  963SOL    HW2 3789   5.725   3.061   1.188
  964SOL     OW 3790   3.665   6.698   5.098
  964SOL    HW1 3791   3.668   6.679   5.196
  964SOL    HW2 3792   3.727   6.774   5.077
  965SOL     OW 3793   4.894   2.324   3.904
  965SOL    HW1 3794   4.835   2.333   3.984
  965SOL    HW2 3795   4.983   2.289   3.932
  966SOL     OW 3796   5.217   1.302   3.887
  966SOL    HW1 3797   5.302   1.345   3.856
  966SOL    HW2 3798   5.220   1.290   3.986
  967SOL     OW 3799   3.957   5.013   6.355
  967SOL    HW1 3800   3.991   4.979   6.268
  967SOL    HW2 3801   3.954   5.113   6.353
  968SOL     OW 3802   3.685   0.504   1.131
  968SOL    HW1 3803   3.682   0.412   1.092
  968SOL    HW2 3804   3.710   0.569   1.059
  969SOL     OW 3805   2.605   3.941   6.644
  969SOL    HW1 3806   2.679   3.875   6.659
  969SOL    HW2 3807   2.635   4.012   6.580
  970SOL     OW 3808   4.918   6.702   5.262
  970SOL    HW1 3809   4.991   6.744   5.207
  970SOL    HW2 3810   4.928   6.603   5.261
  971SOL     OW 3811   5.147   3.643   3.275
  971SOL    HW1 3812   5.056   3.602   3.273
  971SOL    HW2 3813   5.203   3.603   3.203
  972SOL     OW 3814   0.247   2.208   0.909
  972SOL    HW1 3815   0.330   2.155   0.890
  972SOL    HW2 3816   0.258   2.259   0.994
  973SOL     OW 3817   0.191   2.711   4.882
  973SOL    HW1 3818   0.137   2.784   4.840
  973SOL    HW2 3819   0.263   2.751   4.939
  974SOL     OW 3820   0.855   3.606   1.955
  974SOL    HW1 3821   0.949   3.595   1.987
  974SOL    HW2 3822   0.836   3.536   1.886
  975SOL     OW 3823   2.989   0.450   2.553
  975SOL    HW1 3824   2.976   0.357   2.588
  975SOL    HW2 3825   2.946   0.458   2.464
  976SOL     OW 3826   0.279   2.951   3.838
  976SOL    HW1 3827   0.207   2.927   3.773
  976SOL    HW2 3828   0.335   3.025   3.801
  977SOL     OW 3829   6.348   1.442   2.570
  977SOL    HW1 3830   6.259   1.397   2.571
  977SOL    HW2 3831   6.377   1.457   2.475
  978SOL     OW 3832   4.924   2.997   0.579
  978SOL    HW1 3833   4.993   3.068   0.572
  978SOL    HW2 3834   4.923   2.960   0.672
  979SOL     OW 3835   0.171   4.755   6.578
  979SOL    HW1 3836   0.139   4.687   6.513
  979SOL    HW2 3837   0.268   4.740   6.598
  980SOL     OW 3838   4.327   1.402   4.512
  980SOL    HW1 3839   4.334   1.485   4.568
  980SOL    HW2 3840   4.323   1.429   4.415
  981SOL     OW 3841   1.068   6.033   5.503
  981SOL    HW1 3842   1.057   6.131   5.490
  981SOL    HW2 3843   1.077   5.988   5.414
  982SOL     OW 3844   0.201   0.747   6.745
  982SOL    HW1 3845   0.201   0.835   6.793
  982SOL    HW2 3846   0.125   0.691   6.777
  983SOL     OW 3847   0.165   3.721   2.863
  983SOL    HW1 3848   0.067   3.739   2.867
  983SOL    HW2 3849   0.200   3.746   2.772
  984SOL     OW 3850   0.487   3.470   3.882
  984SOL    HW1 3851   0.391   3.476   3.909
  984SOL    HW2 3852   0.542   3.441   3.960
  985SOL     OW 3853   5.807   5.695   5.124
  985SOL    HW1 3854   5.751   5.629   5.074
  985SOL    HW2 3855   5.751   5.776   5.144
  986SOL     OW 3856   4.442   5.609   1.234
  986SOL    HW1 3857   4.374   5.537   1.250
  986SOL    HW2 3858   4.452   5.624   1.136
  987SOL     OW 3859   4.883   4.565   4.822
  987SOL    HW1 3860   4.964   4.566   4.881
  987SOL    HW2 3861   4.879   4.478   4.773
  988SOL     OW 3862   2.981   4.806   2.037
  988SOL    HW1 3863   3.045   4.817   1.962
  988SOL    HW2 3864   2.921   4.727   2.019
  989SOL     OW 3865   0.384   2.690   1.117
  989SOL    HW1 3866   0.297   2.730   1.144
  989SOL    HW2 3867   0.390   2.688   1.017
  990SOL     OW 3868   3.642   0.264   5.270
  990SOL    HW1 3869   3.686   0.352   5.252
  990SOL    HW2 3870   3.711   0.195   5.289
  991SOL     OW 3871   1.066   5.977   4.318
  991SOL    HW1 3872   1.135   6.041   4.285
  991SOL    HW2 3873   1.063   5.896   4.259
  992SOL     OW 3874   6.598   2.338   0.246
  992SOL    HW1 3875   6.678   2.398   0.251
  992SOL    HW2 3876   6.541   2.352   0.327
  993SOL     OW 3877   1.801   4.591   0.081
  993SOL    HW1 3878   1.744   4.511   0.063
  993SOL    HW2 3879   1.882   4.588   0.024
  994SOL     OW 3880   2.547   0.089   1.650
  994SOL    HW1 3881   2.596   0.170   1.618
  994SOL    HW2 3882   2.496   0.111   1.734
  995SOL     OW 3883   6.076   3.884   5.421
  995SOL    HW1 3884   6.063   3.983   5.421
  995SOL    HW2 3885   6.066   3.848   5.328
  996SOL     OW 3886   4.159   6.584   5.184
  996SOL    HW1 3887   4.182   6.647   5.258
  996SOL    HW2 3888   4.061   6.569   5.182
  997SOL     OW 3889   1.793   6.220   3.515
  997SOL    HW1 3890   1.880   6.171   3.512
  997SOL    HW2 3891   1.721   6.158   3.546
  998SOL     OW 3892   4.632   0.220   0.150
  998SOL    HW1 3893   4.690   0.282   0.202
  998SOL    HW2 3894   4.645   0.237   0.052
  999SOL     OW 3895   5.547   2.902   2.475
  999SOL    HW1 3896   5.467   2.870   2.424
  999SOL    HW2 3897   5.595   2.823   2.515
 1000SOL     OW 3898   5.198   1.750   2.080
 1000SOL    HW1 3899   5.223   1.722   1.987
 1000SOL    HW2 3900   5.099   1.757   2.087
 1001SOL     OW 3901   2.645   6.603   2.658
 1001SOL    HW1 3902   2.612   6.526   2.714
 1001SOL    HW2 3903   2.679   6.568   2.571
 1002SOL     OW 3904   4.118   2.477   0.516
 1002SOL    HW1 3905   4.081   2.398   0.564
 1002SOL    HW2 3906   4.207   2.502   0.555
 1003SOL     OW 3907   0.616   0.527   3.313
 1003SOL    HW1 3908   0.662   0.607   3.351
 1003SOL    HW2 3909   0.613   0.536   3.213
 1004SOL     OW 3910   5.037   1.527   4.254
 1004SOL    HW1 3911   4.985   1.522   4.169
 1004SOL    HW2 3912   5.019   1.615   4.298
 1005SOL     OW 3913   0.646   5.497   1.701
 1005SOL    HW1 3914   0.665   5.405   1.736
 1005SOL    HW2 3915   0.732   5.549   1.697
 1006SOL     OW 3916   2.213   4.288   1.724
 1006SOL    HW1 3917   2.271   4.270   1.803
 1006SOL    HW2 3918   2.270   4.306   1.644
 1007SOL     OW 3919   4.721   1.119   6.368
 1007SOL    HW1 3920   4.703   1.141   6.272
 1007SOL    HW2 3921   4.731   1.204   6.420
 1008SOL     OW 3922   0.747   4.861   4.655
 1008SOL    HW1 3923   0.741   4.855   4.555
 1008SOL    HW2 3924   0.690   4.936   4.687
 1009SOL     OW 3925   6.484   5.972   6.118
 1009SOL    HW1 3926   6.471   6.064   6.155
 1009SOL    HW2 3927   6.405   5.946   6.064
 1010SOL     OW 3928   2.995   3.603   0.288
 1010SOL    HW1 3929   3.094   3.612   0.277
 1010SOL    HW2 3930   2.974   3.574   0.381
 1011SOL     OW 3931   6.796   4.663   2.301
 1011SOL    HW1 3932   6.797   4.649   2.202
 1011SOL    HW2 3933   6.729   4.732   2.325
 1012SOL     OW 3934   5.689   6.001   2.606
 1012SOL    HW1 3935   5.678   5.913   2.651
 1012SOL    HW2 3936   5.667   5.992   2.509
 1013SOL     OW 3937   0.531   0.187   6.049
 1013SOL    HW1 3938   0.485   0.273   6.069
 1013SOL    HW2 3939   0.527   0.168   5.951
 1014SOL     OW 3940   0.880   4.637   4.475
 1014SOL    HW1 3941   0.848   4.586   4.555
 1014SOL    HW2 3942   0.817   4.621   4.399
 1015SOL     OW 3943   2.010   6.522   0.343
 1015SOL    HW1 3944   1.930   6.520   0.283
 1015SOL    HW2 3945   2.084   6.572   0.299
 1016SOL     OW 3946   0.209   4.515   0.820
 1016SOL    HW1 3947   0.234   4.478   0.910
 1016SOL    HW2 3948   0.140   4.456   0.778
 1017SOL     OW 3949   2.292   1.035   2.811
 1017SOL    HW1 3950   2.373   0.982   2.786
 1017SOL    HW2 3951   2.245   0.990   2.886
 1018SOL     OW 3952   5.826   6.133   4.439
 1018SOL    HW1 3953   5.880   6.062   4.393
 1018SOL    HW2 3954   5.816   6.110   4.536
 1019SOL     OW 3955   5.972   4.158   1.023
 1019SOL    HW1 3956   5.907   4.214   1.075
 1019SOL    HW2 3957   6.001   4.208   0.942
 1020SOL     OW 3958   5.345   1.718   1.374
 1020SOL    HW1 3959   5.437   1.685   1.396
 1020SOL    HW2 3960   5.308   1.770   1.451
 1021SOL     OW 3961   0.999   6.874   1.017
 1021SOL    HW1 3962   1.028   6.968   0.997
 1021SOL    HW2 3963   1.003   6.858   1.116
 1022SOL     OW 3964   2.248   4.965   6.376
 1022SOL    HW1 3965   2.178   4.946   6.308
 1022SOL    HW2 3966   2.322   4.898   6.366
 1023SOL     OW 3967   0.920   2.073   2.320
 1023SOL    HW1 3968   0.979   2.146   2.355
 1023SOL    HW2 3969   0.976   2.000   2.282
 1024SOL     OW 3970   1.814   2.156   4.347
 1024SOL    HW1 3971   1.838   2.116   4.258
 1024SOL    HW2 3972   1.726   2.121   4.377
 1025SOL     OW 3973   4.762   4.305   1.089
 1025SOL    HW1 3974   4.830   4.249   1.041
 1025SOL    HW2 3975   4.673   4.259   1.086
 1026SOL     OW 3976   3.024   3.082   2.111
 1026SOL    HW1 3977   2.987   3.048   2.025
 1026SOL    HW2 3978   3.061   3.174   2.098
 1027SOL     OW 3979   6.506   6.315   0.072
 1027SOL    HW1 3980   6.494   6.360   0.161
 1027SOL    HW2 3981   6.447   6.358   0.004
 1028SOL     OW 3982   1.018   4.660   2.683
 1028SOL    HW1 3983   1.095   4.699   2.733
 1028SOL    HW2 3984   1.040   4.657   2.586
 1029SOL     OW 3985   1.134   0.843   5.017
 1029SOL    HW1 3986   1.120   0.915   4.949
 1029SOL    HW2 3987   1.124   0.882   5.109
 1030SOL     OW 3988   3.684   3.392   0.842
 1030SOL    HW1 3989   3.772   3.413   0.799
 1030SOL    HW2 3990   3.640   3.477   0.871
 1031SOL     OW 3991   4.537   3.255   0.505
 1031SOL    HW1 3992   4.599   3.325   0.538
 1031SOL    HW2 3993   4.470   3.297   0.443
 1032SOL     OW 3994   1.415   1.169   0.806
 1032SOL    HW1 3995   1.349   1.170   0.881
 1032SOL    HW2 3996   1.490   1.107   0.828
 1033SOL     OW 3997   6.591   0.646   2.250
 1033SOL    HW1 3998   6.662   0.594   2.202
 1033SOL    HW2 3999   6.587   0.615   2.345
 1034SOL     OW 4000   2.986   0.814   5.529
 1034SOL    HW1 4001   2.995   0.900   5.579
 1034SOL    HW2 4002   3.045   0.815   5.449
 1035SOL     OW 4003   1.480   0.206   0.557
 1035SOL    HW1 4004   1.464   0.223   0.654
 1035SOL    HW2 4005   1.444   0.282   0.503
 1036SOL     OW 4006   4.803   1.662   1.860
 1036SOL    HW1 4007   4.867   1.586   1.850
 1036SOL    HW2 4008   4.753   1.676   1.774
 1037SOL     OW 4009   1.543   3.694   2.754
 1037SOL    HW1 4010   1.467   3.635   2.727
 1037SOL    HW2 4011   1.539   3.780   2.702
 1038SOL     OW 4012   1.856   6.222   6.949
 1038SOL    HW1 4013   1.846   6.152   6.878
 1038SOL    HW2 4014   1.890   6.307   6.908
 1039SOL     OW 4015   3.094   3.402   3.139
 1039SOL    HW1 4016   3.102   3.329   3.207
 1039SOL    HW2 4017   3.161   3.473   3.159
 1040SOL     OW 4018   3.488   1.522   2.927
 1040SOL    HW1 4019   3.473   1.616   2.959
 1040SOL    HW2 4020   3.576   1.489   2.962
 1041SOL     OW 4021   6.876   6.660   6.442
 1041SOL    HW1 4022   6.905   6.714   6.363
 1041SOL    HW2 4023   6.779   6.635   6.431
 1042SOL     OW 4024   5.190   3.738   3.916
 1042SOL    HW1 4025   5.167   3.733   4.013
 1042SOL    HW2 4026   5.283   3.704   3.903
 1043SOL     OW 4027   2.858   1.952   3.620
 1043SOL    HW1 4028   2.896   1.899   3.544
 1043SOL    HW2 4029   2.759   1.937   3.623
 1044SOL     OW 4030   5.546   4.543   2.171
 1044SOL    HW1 4031   5.544   4.477   2.246
 1044SOL    HW2 4032   5.495   4.625   2.198
 1045SOL     OW 4033   2.042   0.219   2.809
 1045SOL    HW1 4034   2.076   0.308   2.778
 1045SOL    HW2 4035   1.948   0.206   2.776
 1046SOL     OW 4036   2.757   2.187   1.194
 1046SOL    HW1 4037   2.814   2.114   1.232
 1046SOL    HW2 4038   2.815   2.253   1.146
 1047SOL     OW 4039   3.882   0.777   3.512
 1047SOL    HW1 4040   3.979   0.756   3.519
 1047SOL    HW2 4041   3.869   0.876   3.508
 1048SOL     OW 4042   1.230   0.063   1.917
 1048SOL    HW1 4043   1.188   0.119   1.988
 1048SOL    HW2 4044   1.207   6.986   1.933
 1049SOL     OW 4045   4.023   6.887   0.151
 1049SOL    HW1 4046   4.103   6.832   0.175
 1049SOL    HW2 4047   3.970   6.840   0.081
 1050SOL     OW 4048   2.422   1.328   4.420
 1050SOL    HW1 4049   2.496   1.274   4.379
 1050SOL    HW2 4050   2.375   1.274   4.489
 1051SOL     OW 4051   1.825   1.813   5.131
 1051SOL    HW1 4052   1.788   1.801   5.223
 1051SOL    HW2 4053   1.924   1.830   5.136
 1052SOL     OW 4054   4.270   1.963   0.051
 1052SOL    HW1 4055   4.207   1.979   0.127
 1052SOL    HW2 4056   4.337   2.037   0.046
 1053SOL     OW 4057   4.942   2.692   4.429
 1053SOL    HW1 4058   5.024   2.749   4.425
 1053SOL    HW2 4059   4.864   2.747   4.455
 1054SOL     OW 4060   4.505   5.621   6.591
 1054SOL    HW1 4061   4.422   5.599   6.540
 1054SOL    HW2 4062   4.523   5.550   6.658
 1055SOL     OW 4063   5.077   5.655   6.613
 1055SOL    HW1 4064   5.062   5.735   6.671
 1055SOL    HW2 4065   4.990   5.611   6.592
 1056SOL     OW 4066   3.509   3.716   0.176
 1056SOL    HW1 4067   3.602   3.750   0.187
 1056SOL    HW2 4068   3.444   3.785   0.210
 1057SOL     OW 4069   3.093   3.399   6.401
 1057SOL    HW1 4070   3.005   3.392   6.354
 1057SOL    HW2 4071   3.167   3.406   6.334
 1058SOL     OW 4072   2.968   2.041   2.038
 1058SOL    HW1 4073   2.945   2.132   2.072
 1058SOL    HW2 4074   2.971   2.042   1.938
 1059SOL     OW 4075   2.398   6.027   2.514
 1059SOL    HW1 4076   2.444   6.115   2.506
 1059SOL    HW2 4077   2.382   5.989   2.424
 1060SOL     OW 4078   6.361   0.519   5.180
 1060SOL    HW1 4079   6.326   0.509   5.273
 1060SOL    HW2 4080   6.364   0.616   5.156
 1061SOL     OW 4081   0.068   3.315   6.477
 1061SOL    HW1 4082   0.167   3.313   6.488
 1061SOL    HW2 4083   0.039   3.404   6.441
 1062SOL     OW 4084   3.215   5.278   5.119
 1062SOL    HW1 4085   3.258   5.225   5.046
 1062SOL    HW2 4086   3.284   5.307   5.185
 1063SOL     OW 4087   2.871   6.527   3.988
 1063SOL    HW1 4088   2.893   6.607   3.931
 1063SOL    HW2 4089   2.786   6.486   3.955
 1064SOL     OW 4090   0.388   3.357   0.293
 1064SOL    HW1 4091   0.412   3.450   0.321
 1064SOL    HW2 4092   0.467   3.297   0.307
 1065SOL     OW 4093   6.110   0.699   4.953
 1065SOL    HW1 4094   6.041   0.743   4.895
 1065SOL    HW2 4095   6.066   0.633   5.013
 1066SOL     OW 4096   4.924   6.036   1.306
 1066SOL    HW1 4097   4.962   5.952   1.346
 1066SOL    HW2 4098   4.824   6.031   1.309
 1067SOL     OW 4099   2.845   1.751   0.373
 1067SOL    HW1 4100   2.782   1.708   0.308
 1067SOL    HW2 4101   2.931   1.772   0.326
 1068SOL     OW 4102   6.038   3.016   1.561
 1068SOL    HW1 4103   6.064   2.961   1.482
 1068SOL    HW2 4104   6.016   2.955   1.637
 1069SOL     OW 4105   6.627   2.574   2.740
 1069SOL    HW1 4106   6.574   2.566   2.656
 1069SOL    HW2 4107   6.671   2.486   2.760
 1070SOL     OW 4108   0.759   0.489   2.633
 1070SOL    HW1 4109   0.835   0.529   2.686
 1070SOL    HW2 4110   0.756   0.532   2.543
 1071SOL     OW 4111   0.680   2.887   6.093
 1071SOL    HW1 4112   0.670   2.962   6.027
 1071SOL    HW2 4113   0.596   2.832   6.094
 1072SOL     OW 4114   1.948   1.242   2.131
 1072SOL    HW1 4115   1.884   1.164   2.133
 1072SOL    HW2 4116   1.969   1.265   2.036
 1073SOL     OW 4117   5.567   2.281   2.763
 1073SOL    HW1 4118   5.575   2.182   2.752
 1073SOL    HW2 4119   5.484   2.313   2.717
 1074SOL     OW 4120   3.484   5.161   1.415
 1074SOL    HW1 4121   3.581   5.178   1.399
 1074SOL    HW2 4122   3.452   5.223   1.487
 1075SOL     OW 4123   6.198   3.956   5.002
 1075SOL    HW1 4124   6.204   3.914   4.911
 1075SOL    HW2 4125   6.232   3.892   5.070
 1076SOL     OW 4126   2.104   4.177   5.124
 1076SOL    HW1 4127   2.159   4.121   5.062
 1076SOL    HW2 4128   2.116   4.146   5.218
 1077SOL     OW 4129   6.882   6.263   0.654
 1077SOL    HW1 4130   6.785   6.242   0.643
 1077SOL    HW2 4131   6.926   6.192   0.709
 1078SOL     OW 4132   6.301   6.204   4.180
 1078SOL    HW1 4133   6.237   6.135   4.146
 1078SOL    HW2 4134   6.331   6.179   4.272
 1079SOL     OW 4135   0.834   6.920   1.256
 1079SOL    HW1 4136   0.892   6.853   1.303
 1079SOL    HW2 4137   0.766   6.954   1.320
 1080SOL     OW 4138   4.288   5.727   0.634
 1080SOL    HW1 4139   4.230   5.807   0.625
 1080SOL    HW2 4140   4.359   5.745   0.702
 1081SOL     OW 4141   6.743   6.617   3.578
 1081SOL    HW1 4142   6.739   6.529   3.531
 1081SOL    HW2 4143   6.657   6.632   3.627
 1082SOL     OW 4144   4.281   6.924   0.257
 1082SOL    HW1 4145   4.374   6.957   0.243
 1082SOL    HW2 4146   4.254   6.939   0.353
 1083SOL     OW 4147   5.862   3.890   2.310
 1083SOL    HW1 4148   5.895   3.899   2.216
 1083SOL    HW2 4149   5.772   3.933   2.317
 1084SOL     OW 4150   5.605   0.644   5.252
 1084SOL    HW1 4151   5.566   0.722   5.203
 1084SOL    HW2 4152   5.639   0.577   5.185
 1085SOL     OW 4153   1.937   3.270   5.097
 1085SOL    HW1 4154   2.012   3.271   5.031
 1085SOL    HW2 4155   1.959   3.206   5.171
 1086SOL     OW 4156   5.846   4.785   1.869
 1086SOL    HW1 4157   5.931   4.755   1.912
 1086SOL    HW2 4158   5.864   4.808   1.773
 1087SOL     OW 4159   4.104   0.539   5.888
 1087SOL    HW1 4160   4.189   0.487   5.893
 1087SOL    HW2 4161   4.113   0.622   5.945
 1088SOL     OW 4162   7.017   5.353   3.968
 1088SOL    HW1 4163   0.063   5.324   4.039
 1088SOL    HW2 4164   6.965   5.431   4.001
 1089SOL     OW 4165   5.612   5.352   3.807
 1089SOL    HW1 4166   5.674   5.382   3.879
 1089SOL    HW2 4167   5.623   5.253   3.792
 1090SOL     OW 4168   5.632   2.647   5.239
 1090SOL    HW1 4169   5.596   2.717   5.176
 1090SOL    HW2 4170   5.576   2.565   5.233
 1091SOL     OW 4171   2.010   3.665   3.178
 1091SOL    HW1 4172   2.057   3.701   3.258
 1091SOL    HW2 4173   2.009   3.735   3.106
 1092SOL     OW 4174   0.869   6.522   0.865
 1092SOL    HW1 4175   0.860   6.464   0.947
 1092SOL    HW2 4176   0.779   6.534   0.823
 1093SOL     OW 4177   1.519   0.589   3.691
 1093SOL    HW1 4178   1.576   0.541   3.623
 1093SOL    HW2 4179   1.539   0.687   3.688
 1094SOL     OW 4180   0.309   6.930   2.733
 1094SOL    HW1 4181   0.378   7.000   2.746
 1094SOL    HW2 4182   0.353   6.841   2.722
 1095SOL     OW 4183   5.960   3.991   0.385
 1095SOL    HW1 4184   5.970   3.982   0.484
 1095SOL    HW2 4185   5.926   4.082   0.363
 1096SOL     OW 4186   2.127   5.995   2.215
 1096SOL    HW1 4187   2.147   5.945   2.131
 1096SOL    HW2 4188   2.143   6.093   2.200
 1097SOL     OW 4189   3.243   6.365   4.528
 1097SOL    HW1 4190   3.186   6.302   4.476
 1097SOL    HW2 4191   3.189   6.447   4.550
 1098SOL     OW 4192   6.813   3.796   0.284
 1098SOL    HW1 4193   6.726   3.771   0.241
 1098SOL    HW2 4194   6.834   3.731   0.357
 1099SOL     OW 4195   5.371   0.367   6.505
 1099SOL    HW1 4196   5.285   0.337   6.463
 1099SOL    HW2 4197   5.436   0.291   6.507
 1100SOL     OW 4198   4.683   1.946   4.864
 1100SOL    HW1 4199   4.594   1.925   4.905
 1100SOL    HW2 4200   4.674   2.026   4.805
 1101SOL     OW 4201   5.168   2.186   6.571
 1101SOL    HW1 4202   5.138   2.100   6.613
 1101SOL    HW2 4203   5.118   2.201   6.485
 1102SOL     OW 4204   2.940   0.350   3.832
 1102SOL    HW1 4205   2.852   0.331   3.787
 1102SOL    HW2 4206   2.938   0.313   3.925
 1103SOL     OW 4207   3.516   6.096   1.043
 1103SOL    HW1 4208   3.554   6.137   1.125
 1103SOL    HW2 4209   3.551   6.003   1.033
 1104SOL     OW 4210   0.038   2.253   4.128
 1104SOL    HW1 4211   7.016   2.306   4.054
 1104SOL    HW2 4212   0.063   2.314   4.203
 1105SOL     OW 4213   4.983   1.002   6.584
 1105SOL    HW1 4214   4.971   0.944   6.503
 1105SOL    HW2 4215   4.954   0.951   6.665
 1106SOL     OW 4216   6.241   1.728   1.320
 1106SOL    HW1 4217   6.148   1.693   1.323
 1106SOL    HW2 4218   6.302   1.664   1.368
 1107SOL     OW 4219   1.026   1.664   0.167
 1107SOL    HW1 4220   0.950   1.702   0.218
 1107SOL    HW2 4221   1.106   1.654   0.227
 1108SOL     OW 4222   2.375   1.300   3.150
 1108SOL    HW1 4223   2.415   1.326   3.062
 1108SOL    HW2 4224   2.446   1.262   3.209
 1109SOL     OW 4225   5.034   1.914   5.064
 1109SOL    HW1 4226   4.966   1.846   5.091
 1109SOL    HW2 4227   5.112   1.869   5.022
 1110SOL     OW 4228   1.568   1.079   2.574
 1110SOL    HW1 4229   1.561   1.109   2.479
 1110SOL    HW2 4230   1.647   1.019   2.585
 1111SOL     OW 4231   5.954   3.259   6.471
 1111SOL    HW1 4232   5.913   3.315   6.543
 1111SOL    HW2 4233   5.941   3.304   6.383
 1112SOL     OW 4234   5.982   0.738   2.587
 1112SOL    HW1 4235   5.923   0.753   2.667
 1112SOL    HW2 4236   6.076   0.761   2.611
 1113SOL     OW 4237   6.531   2.942   3.039
 1113SOL    HW1 4238   6.586   3.021   3.064
 1113SOL    HW2 4239   6.532   2.931   2.939
 1114SOL     OW 4240   3.661   3.366   4.673
 1114SOL    HW1 4241   3.744   3.362   4.617
 1114SOL    HW2 4242   3.608   3.447   4.649
 1115SOL     OW 4243   1.966   4.647   5.838
 1115SOL    HW1 4244   1.869   4.661   5.858
 1115SOL    HW2 4245   1.981   4.652   5.739
 1116SOL     OW 4246   4.192   0.054   0.487
 1116SOL    HW1 4247   4.198   0.108   0.571
 1116SOL    HW2 4248   4.235   0.106   0.412
 1117SOL     OW 4249   1.863   2.412   2.110
 1117SOL    HW1 4250   1.814   2.325   2.102
 1117SOL    HW2 4251   1.926   2.422   2.032
 1118SOL     OW 4252   4.670   6.053   0.111
 1118SOL    HW1 4253   4.671   5.954   0.124
 1118SOL    HW2 4254   4.748   6.093   0.158
 1119SOL     OW 4255   3.647   5.097   3.730
 1119SOL    HW1 4256   3.708   5.038   3.782
 1119SOL    HW2 4257   3.585   5.041   3.675
 1120SOL     OW 4258   6.692   3.159   1.531
 1120SOL    HW1 4259   6.773   3.114   1.567
 1120SOL    HW2 4260   6.716   3.214   1.451
 1121SOL     OW 4261   6.259   4.294   5.543
 1121SOL    HW1 4262   6.331   4.271   5.609
 1121SOL    HW2 4263   6.206   4.371   5.578
 1122SOL     OW 4264   6.145   1.482   2.321
 1122SOL    HW1 4265   6.242   1.489   2.299
 1122SOL    HW2 4266   6.113   1.389   2.302
 1123SOL     OW 4267   3.805   2.048   4.863
 1123SOL    HW1 4268   3.713   2.088   4.860
 1123SOL    HW2 4269   3.873   2.118   4.842
 1124SOL     OW 4270   2.243   2.991   4.254
 1124SOL    HW1 4271   2.288   2.927   4.316
 1124SOL    HW2 4272   2.146   2.966   4.245
 1125SOL     OW 4273   1.310   3.135   3.397
 1125SOL    HW1 4274   1.226   3.083   3.380
 1125SOL    HW2 4275   1.305   3.177   3.487
 1126SOL     OW 4276   4.168   4.820   4.266
 1126SOL    HW1 4277   4.127   4.827   4.175
 1126SOL    HW2 4278   4.100   4.844   4.335
 1127SOL     OW 4279   6.337   6.541   1.461
 1127SOL    HW1 4280   6.342   6.579   1.553
 1127SOL    HW2 4281   6.242   6.542   1.430
 1128SOL     OW 4282   4.561   1.780   4.605
 1128SOL    HW1 4283   4.505   1.699   4.589
 1128SOL    HW2 4284   4.657   1.752   4.617
 1129SOL     OW 4285   1.217   0.429   0.100
 1129SOL    HW1 4286   1.139   0.489   0.085
 1129SOL    HW2 4287   1.302   0.478   0.081
 1130SOL     OW 4288   2.146   4.895   2.086
 1130SOL    HW1 4289   2.060   4.906   2.035
 1130SOL    HW2 4290   2.127   4.846   2.171
 1131SOL     OW 4291   2.050   5.461   3.989
 1131SOL    HW1 4292   2.016   5.374   4.025
 1131SOL    HW2 4293   2.084   5.448   3.896
 1132SOL     OW 4294   1.052   1.748   2.473
 1132SOL    HW1 4295   0.981   1.779   2.536
 1132SOL    HW2 4296   1.140   1.787   2.501
 1133SOL     OW 4297   1.549   6.551   6.678
 1133SOL    HW1 4298   1.459   6.557   6.722
 1133SOL    HW2 4299   1.557   6.622   6.608
 1134SOL     OW 4300   4.470   5.833   0.838
 1134SOL    HW1 4301   4.519   5.771   0.776
 1134SOL    HW2 4302   4.459   5.789   0.927
 1135SOL     OW 4303   1.509   6.845   3.333
 1135SOL    HW1 4304   1.551   6.755   3.346
 1135SOL    HW2 4305   1.410   6.835   3.329
 1136SOL     OW 4306   1.723   4.818   2.058
 1136SOL    HW1 4307   1.707   4.913   2.083
 1136SOL    HW2 4308   1.717   4.760   2.139
 1137SOL     OW 4309   1.337   5.683   4.143
 1137SOL    HW1 4310   1.270   5.649   4.209
 1137SOL    HW2 4311   1.301   5.765   4.097
 1138SOL     OW 4312   1.535   3.837   5.114
 1138SOL    HW1 4313   1.548   3.782   5.032
 1138SOL    HW2 4314   1.552   3.934   5.093
 1139SOL     OW 4315   2.595   5.548   4.970
 1139SOL    HW1 4316   2.652   5.521   4.893
 1139SOL    HW2 4317   2.499   5.542   4.945
 1140SOL     OW 4318   1.917   2.150   1.916
 1140SOL    HW1 4319   1.874   2.148   2.006
 1140SOL    HW2 4320   1.975   2.070   1.905
 1141SOL     OW 4321   6.371   4.937   5.397
 1141SOL    HW1 4322   6.341   4.941   5.302
 1141SOL    HW2 4323   6.470   4.930   5.400
 1142SOL     OW 4324   1.515   5.718   2.560
 1142SOL    HW1 4325   1.476   5.648   2.620
 1142SOL    HW2 4326   1.581   5.676   2.498
 1143SOL     OW 4327   6.872   4.278   1.708
 1143SOL    HW1 4328   6.903   4.278   1.803
 1143SOL    HW2 4329   6.939   4.230   1.651
 1144SOL     OW 4330   4.988   4.388   0.636
 1144SOL    HW1 4331   4.938   4.427   0.714
 1144SOL    HW2 4332   5.084   4.375   0.661
 1145SOL     OW 4333   5.976   0.153   0.282
 1145SOL    HW1 4334   5.962   0.229   0.345
 1145SOL    HW2 4335   6.052   0.096   0.314
 1146SOL     OW 4336   1.367   0.654   1.102
 1146SOL    HW1 4337   1.299   0.677   1.173
 1146SOL    HW2 4338   1.344   0.701   1.017
 1147SOL     OW 4339   1.819   6.084   1.116
 1147SOL    HW1 4340   1.896   6.064   1.055
 1147SOL    HW2 4341   1.841   6.053   1.209
 1148SOL     OW 4342   3.828   5.908   2.450
 1148SOL    HW1 4343   3.822   6.001   2.487
 1148SOL    HW2 4344   3.738   5.864   2.457
 1149SOL     OW 4345   5.088   2.668   1.863
 1149SOL    HW1 4346   5.116   2.600   1.795
 1149SOL    HW2 4347   4.993   2.654   1.888
 1150SOL     OW 4348   0.925   3.373   0.747
 1150SOL    HW1 4349   0.858   3.299   0.748
 1150SOL    HW2 4350   0.903   3.438   0.674
 1151SOL     OW 4351   5.403   5.335   4.181
 1151SOL    HW1 4352   5.356   5.372   4.261
 1151SOL    HW2 4353   5.415   5.408   4.113
 1152SOL     OW 4354   3.372   6.614   6.058
 1152SOL    HW1 4355   3.318   6.653   5.984
 1152SOL    HW2 4356   3.433   6.684   6.096
 1153SOL     OW 4357   6.013   6.877   1.458
 1153SOL    HW1 4358   5.949   6.828   1.400
 1153SOL    HW2 4359   6.074   6.812   1.504
 1154SOL     OW 4360   1.852   3.055   1.103
 1154SOL    HW1 4361   1.849   3.119   1.180
 1154SOL    HW2 4362   1.889   3.102   1.023
 1155SOL     OW 4363   3.793   5.879   3.731
 1155SOL    HW1 4364   3.776   5.833   3.643
 1155SOL    HW2 4365   3.854   5.822   3.786
 1156SOL     OW 4366   2.820   1.156   2.396
 1156SOL    HW1 4367   2.759   1.099   2.341
 1156SOL    HW2 4368   2.804   1.137   2.493
 1157SOL     OW 4369   2.767   1.641   0.662
 1157SOL    HW1 4370   2.716   1.589   0.593
 1157SOL    HW2 4371   2.703   1.686   0.723
 1158SOL     OW 4372   5.642   4.471   3.810
 1158SOL    HW1 4373   5.709   4.528   3.763
 1158SOL    HW2 4374   5.652   4.376   3.779
 1159SOL     OW 4375   6.023   4.885   0.550
 1159SOL    HW1 4376   6.000   4.976   0.516
 1159SOL    HW2 4377   5.940   4.838   0.580
 1160SOL     OW 4378   4.581   2.198   0.501
 1160SOL    HW1 4379   4.580   2.285   0.550
 1160SOL    HW2 4380   4.636   2.208   0.418
 1161SOL     OW 4381   6.404   5.385   0.872
 1161SOL    HW1 4382   6.361   5.462   0.824
 1161SOL    HW2 4383   6.347   5.303   0.862
 1162SOL     OW 4384   3.032   2.217   4.209
 1162SOL    HW1 4385   3.059   2.307   4.174
 1162SOL    HW2 4386   3.033   2.150   4.134
 1163SOL     OW 4387   5.738   2.405   1.533
 1163SOL    HW1 4388   5.813   2.453   1.577
 1163SOL    HW2 4389   5.673   2.471   1.496
 1164SOL     OW 4390   4.443   2.418   5.942
 1164SOL    HW1 4391   4.411   2.336   5.991
 1164SOL    HW2 4392   4.366   2.461   5.895
 1165SOL     OW 4393   4.704   6.945   3.385
 1165SOL    HW1 4394   4.749   7.013   3.443
 1165SOL    HW2 4395   4.684   6.863   3.438
 1166SOL     OW 4396   3.087   4.449   6.610
 1166SOL    HW1 4397   3.166   4.492   6.567
 1166SOL    HW2 4398   3.030   4.520   6.653
 1167SOL     OW 4399   4.682   4.238   3.100
 1167SOL    HW1 4400   4.673   4.239   3.199
 1167SOL    HW2 4401   4.711   4.328   3.068
 1168SOL     OW 4402   0.832   0.123   1.812
 1168SOL    HW1 4403   0.879   0.075   1.738
 1168SOL    HW2 4404   0.833   0.221   1.794
 1169SOL     OW 4405   4.483   1.740   5.335
 1169SOL    HW1 4406   4.462   1.834   5.363
 1169SOL    HW2 4407   4.534   1.694   5.407
 1170SOL     OW 4408   4.932   5.151   2.575
 1170SOL    HW1 4409   4.966   5.242   2.600
 1170SOL    HW2 4410   5.004   5.099   2.530
 1171SOL     OW 4411   0.261   6.119   1.078
 1171SOL    HW1 4412   0.184   6.073   1.121
 1171SOL    HW2 4413   0.343   6.106   1.133
 1172SOL     OW 4414   6.230   3.156   6.049
 1172SOL    HW1 4415   6.159   3.116   6.107
 1172SOL    HW2 4416   6.201   3.248   6.020
 1173SOL     OW 4417   3.414   2.743   0.698
 1173SOL    HW1 4418   3.331   2.765   0.647
 1173SOL    HW2 4419   3.482   2.816   0.685
 1174SOL     OW 4420   2.347   4.813   0.308
 1174SOL    HW1 4421   2.264   4.830   0.362
 1174SOL    HW2 4422   2.336   4.729   0.256
 1175SOL     OW 4423   3.338   2.864   3.895
 1175SOL    HW1 4424   3.265   2.926   3.867
 1175SOL    HW2 4425   3.308   2.808   3.972
 1176SOL     OW 4426   5.460   3.133   6.772
 1176SOL    HW1 4427   5.361   3.140   6.759
 1176SOL    HW2 4428   5.490   3.201   6.839
 1177SOL     OW 4429   1.398   1.624   4.623
 1177SOL    HW1 4430   1.427   1.599   4.715
 1177SOL    HW2 4431   1.369   1.542   4.573
 1178SOL     OW 4432   4.506   6.266   0.009
 1178SOL    HW1 4433   4.540   6.356   7.002
 1178SOL    HW2 4434   4.582   6.203   0.023
 1179SOL     OW 4435   0.363   5.889   0.152
 1179SOL    HW1 4436   0.440   5.951   0.167
 1179SOL    HW2 4437   0.321   5.908   0.063
 1180SOL     OW 4438   3.537   5.992   0.356
 1180SOL    HW1 4439   3.508   5.939   0.277
 1180SOL    HW2 4440   3.461   6.049   0.387
 1181SOL     OW 4441   6.491   6.594   6.534
 1181SOL    HW1 4442   6.490   6.512   6.592
 1181SOL    HW2 4443   6.452   6.671   6.584
 1182SOL     OW 4444   4.725   4.286   2.680
 1182SOL    HW1 4445   4.657   4.317   2.613
 1182SOL    HW2 4446   4.795   4.356   2.692
 1183SOL     OW 4447   1.694   3.963   6.565
 1183SOL    HW1 4448   1.601   3.948   6.600
 1183SOL    HW2 4449   1.716   3.895   6.496
 1184SOL     OW 4450   7.004   0.388   5.344
 1184SOL    HW1 4451   7.009   0.456   5.271
 1184SOL    HW2 4452   0.077   0.356   5.366
 1185SOL     OW 4453   6.325   1.112   6.974
 1185SOL    HW1 4454   6.386   1.169   6.918
 1185SOL    HW2 4455   6.263   1.171   0.007
 1186SOL     OW 4456   5.399   6.767   4.808
 1186SOL    HW1 4457   5.397   6.754   4.709
 1186SOL    HW2 4458   5.481   6.725   4.845
 1187SOL     OW 4459   6.110   1.431   5.844
 1187SOL    HW1 4460   6.112   1.332   5.859
 1187SOL    HW2 4461   6.170   1.476   5.910
 1188SOL     OW 4462   2.888   1.641   6.565
 1188SOL    HW1 4463   2.788   1.643   6.565
 1188SOL    HW2 4464   2.922   1.686   6.648
 1189SOL     OW 4465   5.345   3.564   3.489
 1189SOL    HW1 4466   5.357   3.633   3.560
 1189SOL    HW2 4467   5.293   3.603   3.413
 1190SOL     OW 4468   2.875   0.031   3.811
 1190SOL    HW1 4469   2.973   0.030   3.834
 1190SOL    HW2 4470   2.861   0.085   3.728
 1191SOL     OW 4471   4.164   6.373   2.958
 1191SOL    HW1 4472   4.077   6.353   3.003
 1191SOL    HW2 4473   4.149   6.386   2.860
 1192SOL     OW 4474   6.009   6.031   3.146
 1192SOL    HW1 4475   6.024   6.043   3.048
 1192SOL    HW2 4476   6.006   6.121   3.191
 1193SOL     OW 4477   7.001   5.810   4.786
 1193SOL    HW1 4478   6.905   5.837   4.791
 1193SOL    HW2 4479   0.039   5.880   4.831
 1194SOL     OW 4480   3.898   0.129   1.256
 1194SOL    HW1 4481   3.970   0.191   1.287
 1194SOL    HW2 4482   3.849   0.093   1.336
 1195SOL     OW 4483   4.927   2.343   3.525
 1195SOL    HW1 4484   4.987   2.264   3.536
 1195SOL    HW2 4485   4.918   2.365   3.428
 1196SOL     OW 4486   0.014   6.577   5.096
 1196SOL    HW1 4487   0.060   6.489   5.088
 1196SOL    HW2 4488   0.050   6.639   5.026
 1197SOL     OW 4489   1.926   6.245   0.413
 1197SOL    HW1 4490   1.982   6.325   0.393
 1197SOL    HW2 4491   1.869   6.224   0.333
 1198SOL     OW 4492   1.483   2.975   6.882
 1198SOL    HW1 4493   1.561   2.913   6.878
 1198SOL    HW2 4494   1.425   2.951   6.960
 1199SOL     OW 4495   6.430   3.616   2.192
 1199SOL    HW1 4496   6.408   3.590   2.286
 1199SOL    HW2 4497   6.365   3.573   2.129
 1200SOL     OW 4498   3.027   3.878   2.734
 1200SOL    HW1 4499   2.978   3.802   2.692
 1200SOL    HW2 4500   3.085   3.923   2.666
 1201SOL     OW 4501   1.444   1.827   4.455
 1201SOL    HW1 4502   1.459   1.763   4.530
 1201SOL    HW2 4503   1.352   1.867   4.463
 1202SOL     OW 4504   1.438   5.721   5.739
 1202SOL    HW1 4505   1.474   5.628   5.735
 1202SOL    HW2 4506   1.456   5.760   5.830
 1203SOL     OW 4507   3.369   6.131   5.306
 1203SOL    HW1 4508   3.432   6.186   5.252
 1203SOL    HW2 4509   3.410   6.043   5.327
 1204SOL     OW 4510   1.861   6.665   3.321
 1204SOL    HW1 4511   1.779   6.628   3.365
 1204SOL    HW2 4512   1.865   6.633   3.226
 1205SOL     OW 4513   5.748   3.661   1.945
 1205SOL    HW1 4514   5.784   3.568   1.949
 1205SOL    HW2 4515   5.695   3.680   2.028
 1206SOL     OW 4516   3.220   3.476   4.567
 1206SOL    HW1 4517   3.290   3.529   4.615
 1206SOL    HW2 4518   3.129   3.502   4.602
 1207SOL     OW 4519   1.052   5.998   2.816
 1207SOL    HW1 4520   1.101   5.926   2.865
 1207SOL    HW2 4521   0.961   6.011   2.857
 1208SOL     OW 4522   3.273   3.489   6.203
 1208SOL    HW1 4523   3.287   3.578   6.246
 1208SOL    HW2 4524   3.282   3.498   6.104
 1209SOL     OW 4525   3.745   6.170   5.483
 1209SOL    HW1 4526   3.663   6.225   5.494
 1209SOL    HW2 4527   3.763   6.118   5.566
 1210SOL     OW 4528   3.391   1.346   3.105
 1210SOL    HW1 4529   3.423   1.416   3.041
 1210SOL    HW2 4530   3.470   1.300   3.146
 1211SOL     OW 4531   0.900   2.614   0.714
 1211SOL    HW1 4532   0.948   2.601   0.627
 1211SOL    HW2 4533   0.801   2.601   0.700
 1212SOL     OW 4534   1.212   0.290   0.340
 1212SOL    HW1 4535   1.281   0.218   0.345
 1212SOL    HW2 4536   1.212   0.329   0.248
 1213SOL     OW 4537   5.476   3.051   1.388
 1213SOL    HW1 4538   5.385   3.012   1.373
 1213SOL    HW2 4539   5.474   3.108   1.470
 1214SOL     OW 4540   6.870   2.650   1.777
 1214SOL    HW1 4541   6.903   2.740   1.750
 1214SOL    HW2 4542   6.933   2.608   1.842
 1215SOL     OW 4543   1.700   5.797   3.214
 1215SOL    HW1 4544   1.751   5.879   3.239
 1215SOL    HW2 4545   1.609   5.800   3.256
 1216SOL     OW 4546   3.512   0.069   1.799
 1216SOL    HW1 4547   3.443   0.011   1.755
 1216SOL    HW2 4548   3.565   0.116   1.728
 1217SOL     OW 4549   2.736   4.528   0.001
 1217SOL    HW1 4550   2.791   4.457   0.046
 1217SOL    HW2 4551   2.699   4.493   6.934
 1218SOL     OW 4552   2.915   5.170   3.143
 1218SOL    HW1 4553   2.929   5.137   3.049
 1218SOL    HW2 4554   2.828   5.220   3.147
 1219SOL     OW 4555   3.769   6.140   2.141
 1219SOL    HW1 4556   3.834   6.067   2.119
 1219SOL    HW2 4557   3.795   6.184   2.227
 1220SOL     OW 4558   0.947   4.343   2.630
 1220SOL    HW1 4559   0.971   4.355   2.534
 1220SOL    HW2 4560   0.990   4.259   2.665
 1221SOL     OW 4561   4.682   4.530   6.366
 1221SOL    HW1 4562   4.681   4.530   6.466
 1221SOL    HW2 4563   4.764   4.580   6.334
 1222SOL     OW 4564   6.834   0.930   6.177
 1222SOL    HW1 4565   6.841   0.910   6.079
 1222SOL    HW2 4566   6.786   1.016   6.191
 1223SOL     OW 4567   3.403   6.493   0.985
 1223SOL    HW1 4568   3.490   6.540   1.000
 1223SOL    HW2 4569   3.414   6.423   0.915
 1224SOL     OW 4570   2.877   0.746   2.143
 1224SOL    HW1 4571   2.839   0.680   2.078
 1224SOL    HW2 4572   2.875   0.837   2.102
 1225SOL     OW 4573   2.872   3.960   5.721
 1225SOL    HW1 4574   2.869   4.051   5.681
 1225SOL    HW2 4575   2.791   3.945   5.778
 1226SOL     OW 4576   2.093   5.063   0.360
 1226SOL    HW1 4577   2.131   5.038   0.449
 1226SOL    HW2 4578   2.066   4.980   0.311
 1227SOL     OW 4579   0.807   3.609   5.928
 1227SOL    HW1 4580   0.825   3.618   5.830
 1227SOL    HW2 4581   0.893   3.616   5.978
 1228SOL     OW 4582   3.906   1.706   0.050
 1228SOL    HW1 4583   3.818   1.740   0.015
 1228SOL    HW2 4584   3.889   1.638   0.122
 1229SOL     OW 4585   2.868   4.262   6.676
 1229SOL    HW1 4586   2.953   4.313   6.658
 1229SOL    HW2 4587   2.886   4.164   6.668
 1230SOL     OW 4588   4.495   0.546   3.464
 1230SOL    HW1 4589   4.568   0.608   3.492
 1230SOL    HW2 4590   4.435   0.592   3.399
 1231SOL     OW 4591   1.158   3.917   4.490
 1231SOL    HW1 4592   1.177   4.009   4.453
 1231SOL    HW2 4593   1.242   3.863   4.490
 1232SOL     OW 4594   2.213   2.984   3.258
 1232SOL    HW1 4595   2.213   2.977   3.158
 1232SOL    HW2 4596   2.215   3.080   3.285
 1233SOL     OW 4597   0.928   2.568   4.346
 1233SOL    HW1 4598   0.912   2.666   4.339
 1233SOL    HW2 4599   0.841   2.521   4.361
 1234SOL     OW 4600   6.624   4.264   4.236
 1234SOL    HW1 4601   6.592   4.359   4.230
 1234SOL    HW2 4602   6.706   4.260   4.294
 1235SOL     OW 4603   6.633   5.852   3.765
 1235SOL    HW1 4604   6.667   5.863   3.858
 1235SOL    HW2 4605   6.637   5.941   3.718
 1236SOL     OW 4606   5.474   0.685   5.857
 1236SOL    HW1 4607   5.538   0.666   5.932
 1236SOL    HW2 4608   5.381   0.668   5.888
 1237SOL     OW 4609   2.456   4.833   6.241
 1237SOL    HW1 4610   2.442   4.892   6.162
 1237SOL    HW2 4611   2.507   4.751   6.214
 1238SOL     OW 4612   1.791   1.658   0.446
 1238SOL    HW1 4613   1.821   1.569   0.482
 1238SOL    HW2 4614   1.764   1.717   0.522
 1239SOL     OW 4615   0.845   0.373   5.630
 1239SOL    HW1 4616   0.870   0.348   5.723
 1239SOL    HW2 4617   0.828   0.290   5.577
 1240SOL     OW 4618   4.540   5.387   1.774
 1240SOL    HW1 4619   4.553   5.368   1.676
 1240SOL    HW2 4620   4.454   5.436   1.787
 1241SOL     OW 4621   0.313   2.071   4.314
 1241SOL    HW1 4622   0.265   2.117   4.388
 1241SOL    HW2 4623   0.359   2.138   4.256
 1242SOL     OW 4624   2.362   2.607   6.196
 1242SOL    HW1 4625   2.292   2.551   6.241
 1242SOL    HW2 4626   2.361   2.587   6.098
 1243SOL     OW 4627   2.452   5.430   5.298
 1243SOL    HW1 4628   2.375   5.367   5.306
 1243SOL    HW2 4629   2.462   5.458   5.202
 1244SOL     OW 4630   0.018   1.635   2.350
 1244SOL    HW1 4631   6.991   1.591   2.427
 1244SOL    HW2 4632   0.116   1.614   2.353
 1245SOL     OW 4633   2.873   3.381   5.639
 1245SOL    HW1 4634   2.949   3.446   5.634
 1245SOL    HW2 4635   2.838   3.363   5.547
 1246SOL     OW 4636   0.967   0.133   1.226
 1246SOL    HW1 4637   0.922   0.194   1.291
 1246SOL    HW2 4638   0.927   0.041   1.233
 1247SOL     OW 4639   1.464   6.888   6.677
 1247SOL    HW1 4640   1.459   6.987   6.689
 1247SOL    HW2 4641   1.423   6.863   6.589
 1248SOL     OW 4642   2.411   6.551   3.659
 1248SOL    HW1 4643   2.474   6.482   3.623
 1248SOL    HW2 4644   2.330   6.506   3.697
 1249SOL     OW 4645   5.485   2.859   3.072
 1249SOL    HW1 4646   5.483   2.825   2.978
 1249SOL    HW2 4647   5.503   2.957   3.072
 1250SOL     OW 4648   0.048   3.783   4.091
 1250SOL    HW1 4649   0.135   3.796   4.139
 1250SOL    HW2 4650   0.037   3.856   4.023
 1251SOL     OW 4651   3.449   0.526   6.204
 1251SOL    HW1 4652   3.484   0.462   6.273
 1251SOL    HW2 4653   3.446   0.618   6.243
 1252SOL     OW 4654   2.823   3.525   0.079
 1252SOL    HW1 4655   2.883   3.476   0.017
 1252SOL    HW2 4656   2.874   3.554   0.160
 1253SOL     OW 4657   4.531   0.668   2.704
 1253SOL    HW1 4658   4.618   0.635   2.666
 1253SOL    HW2 4659   4.461   0.666   2.632
 1254SOL     OW 4660   5.762   1.659   3.156
 1254SOL    HW1 4661   5.829   1.630   3.087
 1254SOL    HW2 4662   5.770   1.757   3.170
 1255SOL     OW 4663   6.323   0.446   0.529
 1255SOL    HW1 4664   6.394   0.509   0.498
 1255SOL    HW2 4665   6.364   0.378   0.590
 1256SOL     OW 4666   4.941   2.549   3.736
 1256SOL    HW1 4667   4.958   2.483   3.809
 1256SOL    HW2 4668   4.934   2.501   3.649
 1257SOL     OW 4669   6.128   0.962   3.993
 1257SOL    HW1 4670   6.121   1.005   3.903
 1257SOL    HW2 4671   6.173   1.024   4.056
 1258SOL     OW 4672   0.424   5.391   3.412
 1258SOL    HW1 4673   0.338   5.375   3.461
 1258SOL    HW2 4674   0.404   5.417   3.318
 1259SOL     OW 4675   4.825   2.501   4.968
 1259SOL    HW1 4676   4.838   2.581   5.027
 1259SOL    HW2 4677   4.835   2.528   4.872
 1260SOL     OW 4678   0.510   1.451   5.053
 1260SOL    HW1 4679   0.518   1.515   5.129
 1260SOL    HW2 4680   0.562   1.368   5.073
 1261SOL     OW 4681   6.649   3.904   0.842
 1261SOL    HW1 4682   6.594   3.983   0.815
 1261SOL    HW2 4683   6.745   3.930   0.844
 1262SOL     OW 4684   5.237   6.219   1.952
 1262SOL    HW1 4685   5.155   6.186   1.998
 1262SOL    HW2 4686   5.284   6.285   2.011
 1263SOL     OW 4687   0.028   2.377   3.572
 1263SOL    HW1 4688   6.976   2.325   3.620
 1263SOL    HW2 4689   7.014   2.403   3.482
 1264SOL     OW 4690   1.118   2.703   5.052
 1264SOL    HW1 4691   1.146   2.611   5.024
 1264SOL    HW2 4692   1.106   2.705   5.152
 1265SOL     OW 4693   5.482   0.136   5.468
 1265SOL    HW1 4694   5.447   0.043   5.480
 1265SOL    HW2 4695   5.412   0.202   5.497
 1266SOL     OW 4696   2.747   1.580   5.089
 1266SOL    HW1 4697   2.758   1.494   5.140
 1266SOL    HW2 4698   2.817   1.645   5.119
 1267SOL     OW 4699   3.558   0.205   2.486
 1267SOL    HW1 4700   3.577   0.152   2.403
 1267SOL    HW2 4701   3.513   0.147   2.553
 1268SOL     OW 4702   3.964   2.420   5.422
 1268SOL    HW1 4703   3.953   2.516   5.448
 1268SOL    HW2 4704   3.917   2.362   5.489
 1269SOL     OW 4705   5.625   1.729   3.785
 1269SOL    HW1 4706   5.673   1.762   3.866
 1269SOL    HW2 4707   5.679   1.658   3.740
 1270SOL     OW 4708   6.305   5.345   3.157
 1270SOL    HW1 4709   6.399   5.318   3.139
 1270SOL    HW2 4710   6.251   5.265   3.182
 1271SOL     OW 4711   1.935   1.324   1.591
 1271SOL    HW1 4712   1.942   1.410   1.539
 1271SOL    HW2 4713   1.844   1.317   1.630
 1272SOL     OW 4714   5.801   2.640   0.804
 1272SOL    HW1 4715   5.789   2.575   0.880
 1272SOL    HW2 4716   5.897   2.640   0.775
 1273SOL     OW 4717   1.779   4.347   5.698
 1273SOL    HW1 4718   1.854   4.297   5.741
 1273SOL    HW2 4719   1.696   4.291   5.702
 1274SOL     OW 4720   6.793   4.112   4.044
 1274SOL    HW1 4721   6.751   4.035   4.092
 1274SOL    HW2 4722   6.737   4.195   4.058
 1275SOL     OW 4723   2.175   1.673   2.768
 1275SOL    HW1 4724   2.079   1.687   2.746
 1275SOL    HW2 4725   2.185   1.651   2.865
 1276SOL     OW 4726   5.452   4.189   3.934
 1276SOL    HW1 4727   5.432   4.098   3.971
 1276SOL    HW2 4728   5.507   4.179   3.850
 1277SOL     OW 4729   0.763   5.791   6.853
 1277SOL    HW1 4730   0.699   5.716   6.835
 1277SOL    HW2 4731   0.756   5.858   6.780
 1278SOL     OW 4732   0.322   6.088   2.494
 1278SOL    HW1 4733   0.247   6.047   2.442
 1278SOL    HW2 4734   0.352   6.024   2.565
 1279SOL     OW 4735   2.701   3.236   0.922
 1279SOL    HW1 4736   2.709   3.185   0.837
 1279SOL    HW2 4737   2.793   3.259   0.956
 1280SOL     OW 4738   2.604   2.423   4.176
 1280SOL    HW1 4739   2.624   2.404   4.080
 1280SOL    HW2 4740   2.543   2.353   4.212
 1281SOL     OW 4741   5.707   6.061   4.675
 1281SOL    HW1 4742   5.773   6.016   4.735
 1281SOL    HW2 4743   5.617   6.061   4.719
 1282SOL     OW 4744   0.606   3.057   1.754
 1282SOL    HW1 4745   0.528   3.054   1.692
 1282SOL    HW2 4746   0.683   3.010   1.713
 1283SOL     OW 4747   0.040   1.452   4.269
 1283SOL    HW1 4748   0.031   1.522   4.199
 1283SOL    HW2 4749   6.972   1.440   4.316
 1284SOL     OW 4750   3.790   2.064   1.740
 1284SOL    HW1 4751   3.782   2.152   1.785
 1284SOL    HW2 4752   3.778   1.990   1.807
 1285SOL     OW 4753   4.306   1.473   4.253
 1285SOL    HW1 4754   4.207   1.475   4.272
 1285SOL    HW2 4755   4.322   1.500   4.158
 1286SOL     OW 4756   4.934   1.393   1.851
 1286SOL    HW1 4757   4.970   1.336   1.925
 1286SOL    HW2 4758   4.992   1.384   1.771
 1287SOL     OW 4759   4.819   5.343   5.776
 1287SOL    HW1 4760   4.800   5.334   5.874
 1287SOL    HW2 4761   4.886   5.274   5.749
 1288SOL     OW 4762   4.378   4.648   6.613
 1288SOL    HW1 4763   4.309   4.598   6.665
 1288SOL    HW2 4764   4.344   4.664   6.520
 1289SOL     OW 4765   6.885   6.859   0.478
 1289SOL    HW1 4766   6.908   6.782   0.418
 1289SOL    HW2 4767   6.916   6.839   0.571
 1290SOL     OW 4768   1.656   6.476   5.492
 1290SOL    HW1 4769   1.715   6.477   5.573
 1290SOL    HW2 4770   1.595   6.554   5.494
 1291SOL     OW 4771   5.776   5.489   3.611
 1291SOL    HW1 4772   5.715   5.473   3.688
 1291SOL    HW2 4773   5.863   5.444   3.627
 1292SOL     OW 4774   0.524   6.757   2.704
 1292SOL    HW1 4775   0.620   6.771   2.680
 1292SOL    HW2 4776   0.516   6.676   2.762
 1293SOL     OW 4777   4.775   0.687   1.046
 1293SOL    HW1 4778   4.795   0.773   1.092
 1293SOL    HW2 4779   4.859   0.632   1.041
 1294SOL     OW 4780   2.220   4.634   5.089
 1294SOL    HW1 4781   2.294   4.589   5.040
 1294SOL    HW2 4782   2.230   4.617   5.187
 1295SOL     OW 4783   6.824   4.582   0.158
 1295SOL    HW1 4784   6.841   4.656   0.223
 1295SOL    HW2 4785   6.824   4.494   0.206
 1296SOL     OW 4786   4.891   0.268   6.035
 1296SOL    HW1 4787   4.834   0.293   5.957
 1296SOL    HW2 4788   4.847   0.299   6.119
 1297SOL     OW 4789   6.294   6.729   0.061
 1297SOL    HW1 4790   6.382   6.766   0.031
 1297SOL    HW2 4791   6.225   6.802   0.057
 1298SOL     OW 4792   5.223   0.562   3.407
 1298SOL    HW1 4793   5.300   0.539   3.347
 1298SOL    HW2 4794   5.142   0.582   3.351
 1299SOL     OW 4795   1.296   3.650   4.640
 1299SOL    HW1 4796   1.283   3.690   4.731
 1299SOL    HW2 4797   1.310   3.551   4.649
 1300SOL     OW 4798   1.313   5.783   0.620
 1300SOL    HW1 4799   1.291   5.864   0.674
 1300SOL    HW2 4800   1.262   5.785   0.534
 1301SOL     OW 4801   6.542   0.609   0.392
 1301SOL    HW1 4802   6.622   0.639   0.444
 1301SOL    HW2 4803   6.567   0.535   0.330
 1302SOL     OW 4804   6.554   6.823   5.410
 1302SOL    HW1 4805   6.638   6.793   5.456
 1302SOL    HW2 4806   6.578   6.879   5.330
 1303SOL     OW 4807   3.099   6.810   1.823
 1303SOL    HW1 4808   3.128   6.754   1.901
 1303SOL    HW2 4809   3.172   6.873   1.798
 1304SOL     OW 4810   0.389   0.518   0.793
 1304SOL    HW1 4811   0.294   0.545   0.809
 1304SOL    HW2 4812   0.405   0.427   0.830
 1305SOL     OW 4813   4.045   4.375   6.229
 1305SOL    HW1 4814   3.992   4.301   6.190
 1305SOL    HW2 4815   4.088   4.345   6.314
 1306SOL     OW 4816   2.972   6.745   3.828
 1306SOL    HW1 4817   3.045   6.728   3.761
 1306SOL    HW2 4818   2.969   6.843   3.850
 1307SOL     OW 4819   1.814   2.631   4.285
 1307SOL    HW1 4820   1.901   2.673   4.258
 1307SOL    HW2 4821   1.825   2.586   4.373
 1308SOL     OW 4822   6.737   3.304   6.167
 1308SOL    HW1 4823   6.681   3.380   6.133
 1308SOL    HW2 4824   6.832   3.317   6.138
 1309SOL     OW 4825   5.651   3.847   6.554
 1309SOL    HW1 4826   5.562   3.803   6.538
 1309SOL    HW2 4827   5.643   3.910   6.631
 1310SOL     OW 4828   2.143   3.788   3.416
 1310SOL    HW1 4829   2.135   3.883   3.445
 1310SOL    HW2 4830   2.177   3.733   3.493
 1311SOL     OW 4831   5.216   5.100   0.167
 1311SOL    HW1 4832   5.134   5.085   0.221
 1311SOL    HW2 4833   5.208   5.053   0.079
 1312SOL     OW 4834   2.709   1.345   6.488
 1312SOL    HW1 4835   2.657   1.389   6.562
 1312SOL    HW2 4836   2.660   1.356   6.402
 1313SOL     OW 4837   5.811   5.177   1.625
 1313SOL    HW1 4838   5.796   5.137   1.715
 1313SOL    HW2 4839   5.833   5.274   1.635
 1314SOL     OW 4840   1.778   0.778   3.929
 1314SOL    HW1 4841   1.813   0.738   3.845
 1314SOL    HW2 4842   1.787   0.878   3.925
 1315SOL     OW 4843   6.525   0.983   2.816
 1315SOL    HW1 4844   6.443   0.983   2.875
 1315SOL    HW2 4845   6.607   0.978   2.873
 1316SOL     OW 4846   5.028   0.018   6.524
 1316SOL    HW1 4847   5.046   6.939   6.510
 1316SOL    HW2 4848   4.934   0.038   6.497
 1317SOL     OW 4849   3.512   2.825   5.073
 1317SOL    HW1 4850   3.529   2.824   4.975
 1317SOL    HW2 4851   3.417   2.853   5.091
 1318SOL     OW 4852   2.061   1.976   6.141
 1318SOL    HW1 4853   2.083   2.014   6.231
 1318SOL    HW2 4854   2.105   2.031   6.070
 1319SOL     OW 4855   7.012   0.699   0.394
 1319SOL    HW1 4856   0.006   0.725   0.298
 1319SOL    HW2 4857   0.082   0.680   0.435
 1320SOL     OW 4858   2.933   3.313   6.160
 1320SOL    HW1 4859   2.892   3.322   6.069
 1320SOL    HW2 4860   2.862   3.315   6.230
 1321SOL     OW 4861   0.021   2.434   1.027
 1321SOL    HW1 4862   6.970   2.369   0.995
 1321SOL    HW2 4863   7.010   2.527   1.007
 1322SOL     OW 4864   3.281   2.737   0.174
 1322SOL    HW1 4865   3.211   2.677   0.134
 1322SOL    HW2 4866   3.245   2.830   0.178
 1323SOL     OW 4867   4.217   0.208   1.549
 1323SOL    HW1 4868   4.252   0.269   1.619
 1323SOL    HW2 4869   4.149   0.256   1.493
 1324SOL     OW 4870   2.206   4.189   5.789
 1324SOL    HW1 4871   2.281   4.250   5.764
 1324SOL    HW2 4872   2.153   4.165   5.708
 1325SOL     OW 4873   3.858   6.161   4.995
 1325SOL    HW1 4874   3.826   6.196   5.083
 1325SOL    HW2 4875   3.792   6.186   4.924
 1326SOL     OW 4876   5.001   1.299   5.196
 1326SOL    HW1 4877   4.982   1.226   5.262
 1326SOL    HW2 4878   5.089   1.282   5.152
 1327SOL     OW 4879   4.923   6.109   2.755
 1327SOL    HW1 4880   4.837   6.161   2.761
 1327SOL    HW2 4881   4.902   6.011   2.759
 1328SOL     OW 4882   2.468   1.883   5.833
 1328SOL    HW1 4883   2.451   1.788   5.858
 1328SOL    HW2 4884   2.396   1.941   5.871
 1329SOL     OW 4885   1.522   3.094   3.674
 1329SOL    HW1 4886   1.521   3.013   3.733
 1329SOL    HW2 4887   1.547   3.067   3.581
 1330SOL     OW 4888   5.732   3.010   3.212
 1330SOL    HW1 4889   5.740   2.911   3.219
 1330SOL    HW2 4890   5.820   3.049   3.184
 1331SOL     OW 4891   4.577   2.450   3.869
 1331SOL    HW1 4892   4.643   2.410   3.933
 1331SOL    HW2 4893   4.520   2.516   3.918
 1332SOL     OW 4894   2.318   5.687   0.472
 1332SOL    HW1 4895   2.398   5.659   0.525
 1332SOL    HW2 4896   2.328   5.783   0.444
 1333SOL     OW 4897   3.518   3.626   2.762
 1333SOL    HW1 4898   3.593   3.657   2.821
 1333SOL    HW2 4899   3.445   3.587   2.819
 1334SOL     OW 4900   6.875   4.148   1.337
 1334SOL    HW1 4901   6.896   4.130   1.433
 1334SOL    HW2 4902   6.800   4.214   1.331
 1335SOL     OW 4903   6.831   3.495   3.276
 1335SOL    HW1 4904   6.748   3.469   3.228
 1335SOL    HW2 4905   6.891   3.416   3.286
 1336SOL     OW 4906   2.029   6.606   5.593
 1336SOL    HW1 4907   2.091   6.534   5.562
 1336SOL    HW2 4908   1.943   6.564   5.623
 1337SOL     OW 4909   0.800   0.062   2.079
 1337SOL    HW1 4910   0.700   0.062   2.082
 1337SOL    HW2 4911   0.830   0.083   1.986
 1338SOL     OW 4912   6.616   4.139   4.777
 1338SOL    HW1 4913   6.656   4.229   4.798
 1338SOL    HW2 4914   6.545   4.117   4.844
 1339SOL     OW 4915   5.804   1.388   6.728
 1339SOL    HW1 4916   5.860   1.414   6.650
 1339SOL    HW2 4917   5.800   1.288   6.735
 1340SOL     OW 4918   3.491   2.863   1.689
 1340SOL    HW1 4919   3.521   2.805   1.614
 1340SOL    HW2 4920   3.571   2.900   1.737
 1341SOL     OW 4921   4.846   5.509   6.252
 1341SOL    HW1 4922   4.926   5.473   6.204
 1341SOL    HW2 4923   4.846   5.609   6.245
 1342SOL     OW 4924   1.521   6.082   1.692
 1342SOL    HW1 4925   1.530   6.159   1.755
 1342SOL    HW2 4926   1.519   6.116   1.598
 1343SOL     OW 4927   4.673   5.932   3.010
 1343SOL    HW1 4928   4.739   6.007   3.021
 1343SOL    HW2 4929   4.581   5.970   3.007
 1344SOL     OW 4930   1.037   0.881   4.459
 1344SOL    HW1 4931   1.022   0.794   4.507
 1344SOL    HW2 4932   0.971   0.889   4.384
 1345SOL     OW 4933   1.783   6.909   6.237
 1345SOL    HW1 4934   1.708   6.974   6.254
 1345SOL    HW2 4935   1.811   6.915   6.142
 1346SOL     OW 4936   3.063   5.251   4.713
 1346SOL    HW1 4937   3.105   5.188   4.778
 1346SOL    HW2 4938   2.999   5.201   4.655
 1347SOL     OW 4939   1.786   0.667   6.115
 1347SOL    HW1 4940   1.793   0.712   6.204
 1347SOL    HW2 4941   1.878   0.650   6.079
 1348SOL     OW 4942   1.283   6.625   5.234
 1348SOL    HW1 4943   1.274   6.698   5.166
 1348SOL    HW2 4944   1.286   6.536   5.188
 1349SOL     OW 4945   5.249   4.159   4.281
 1349SOL    HW1 4946   5.183   4.199   4.218
 1349SOL    HW2 4947   5.341   4.174   4.246
 1350SOL     OW 4948   4.642   4.904   6.481
 1350SOL    HW1 4949   4.586   4.873   6.405
 1350SOL    HW2 4950   4.610   4.993   6.513
 1351SOL     OW 4951   0.344   2.333   5.882
 1351SOL    HW1 4952   0.252   2.330   5.921
 1351SOL    HW2 4953   0.399   2.402   5.929
 1352SOL     OW 4954   0.389   0.813   2.337
 1352SOL    HW1 4955   0.363   0.734   2.280
 1352SOL    HW2 4956   0.380   0.897   2.284
 1353SOL     OW 4957   6.824   1.370   6.779
 1353SOL    HW1 4958   6.766   1.390   6.699
 1353SOL    HW2 4959   6.831   1.452   6.836
 1354SOL     OW 4960   4.972   5.132   3.013
 1354SOL    HW1 4961   5.028   5.209   3.044
 1354SOL    HW2 4962   4.891   5.167   2.967
 1355SOL     OW 4963   4.495   3.378   5.358
 1355SOL    HW1 4964   4.528   3.437   5.284
 1355SOL    HW2 4965   4.559   3.302   5.372
 1356SOL     OW 4966   2.877   3.000   6.669
 1356SOL    HW1 4967   2.810   2.949   6.615
 1356SOL    HW2 4968   2.833   3.079   6.711
 1357SOL     OW 4969   1.565   2.658   5.613
 1357SOL    HW1 4970   1.500   2.732   5.626
 1357SOL    HW2 4971   1.602   2.660   5.520
 1358SOL     OW 4972   2.569   6.909   6.806
 1358SOL    HW1 4973   2.612   6.832   6.854
 1358SOL    HW2 4974   2.621   6.930   6.723
 1359SOL     OW 4975   6.161   4.340   0.471
 1359SOL    HW1 4976   6.115   4.368   0.386
 1359SOL    HW2 4977   6.152   4.414   0.538
 1360SOL     OW 4978   2.413   2.095   0.293
 1360SOL    HW1 4979   2.368   2.008   0.273
 1360SOL    HW2 4980   2.345   2.168   0.294
 1361SOL     OW 4981   6.538   5.021   5.066
 1361SOL    HW1 4982   6.637   5.036   5.061
 1361SOL    HW2 4983   6.500   5.080   5.138
 1362SOL     OW 4984   3.131   4.073   4.341
 1362SOL    HW1 4985   3.073   4.065   4.260
 1362SOL    HW2 4986   3.227   4.078   4.313
 1363SOL     OW 4987   0.494   6.351   3.422
 1363SOL    HW1 4988   0.404   6.369   3.461
 1363SOL    HW2 4989   0.555   6.427   3.442
 1364SOL     OW 4990   4.008   4.193   0.248
 1364SOL    HW1 4991   3.966   4.283   0.236
 1364SOL    HW2 4992   4.071   4.174   0.173
 1365SOL     OW 4993   6.062   2.365   6.465
 1365SOL    HW1 4994   6.039   2.412   6.379
 1365SOL    HW2 4995   6.005   2.401   6.538
 1366SOL     OW 4996   2.008   6.826   5.746
 1366SOL    HW1 4997   2.089   6.874   5.780
 1366SOL    HW2 4998   2.036   6.754   5.684
 1367SOL     OW 4999   3.014   1.509   2.658
 1367SOL    HW1 5000   2.929   1.470   2.624
 1367SOL    HW2 5001   3.008   1.609   2.657
 1368SOL     OW 5002   6.876   0.352   2.911
 1368SOL    HW1 5003   6.865   0.378   3.007
 1368SOL    HW2 5004   6.810   0.280   2.888
 1369SOL     OW 5005   0.481   0.393   2.096
 1369SOL    HW1 5006   0.460   0.480   2.052
 1369SOL    HW2 5007   0.544   0.408   2.172
 1370SOL     OW 5008   2.055   0.880   2.643
 1370SOL    HW1 5009   2.044   0.781   2.644
 1370SOL    HW2 5010   2.029   0.917   2.732
 1371SOL     OW 5011   3.175   0.785   6.460
 1371SOL    HW1 5012   3.226   0.842   6.524
 1371SOL    HW2 5013   3.112   0.726   6.510
 1372SOL     OW 5014   2.762   2.187   1.801
 1372SOL    HW1 5015   2.843   2.145   1.760
 1372SOL    HW2 5016   2.789   2.263   1.859
 1373SOL     OW 5017   1.780   6.206   0.188
 1373SOL    HW1 5018   1.698   6.264   0.190
 1373SOL    HW2 5019   1.816   6.203   0.095
 1374SOL     OW 5020   4.931   4.099   5.948
 1374SOL    HW1 5021   4.863   4.161   5.909
 1374SOL    HW2 5022   5.016   4.150   5.966
 1375SOL     OW 5023   0.854   4.030   4.434
 1375SOL    HW1 5024   0.775   4.003   4.488
 1375SOL    HW2 5025   0.826   4.093   4.362
 1376SOL     OW 5026   5.017   0.667   2.523
 1376SOL    HW1 5027   5.068   0.728   2.463
 1376SOL    HW2 5028   4.920   0.690   2.519
 1377SOL     OW 5029   0.590   4.304   4.325
 1377SOL    HW1 5030   0.591   4.371   4.399
 1377SOL    HW2 5031   0.496   4.272   4.311
 1378SOL     OW 5032   2.157   2.622   0.247
 1378SOL    HW1 5033   2.062   2.590   0.242
 1378SOL    HW2 5034   2.186   2.623   0.343
 1379SOL     OW 5035   3.951   6.205   1.178
 1379SOL    HW1 5036   3.947   6.105   1.181
 1379SOL    HW2 5037   4.017   6.237   1.245
 1380SOL     OW 5038   6.023   4.752   3.000
 1380SOL    HW1 5039   6.040   4.662   3.041
 1380SOL    HW2 5040   5.941   4.792   3.040
 1381SOL     OW 5041   5.022   6.737   2.445
 1381SOL    HW1 5042   5.094   6.783   2.497
 1381SOL    HW2 5043   5.057   6.711   2.355
 1382SOL     OW 5044   0.115   3.948   6.964
 1382SOL    HW1 5045   0.026   3.987   6.989
 1382SOL    HW2 5046   0.178   4.022   6.939
 1383SOL     OW 5047   2.743   6.997   1.363
 1383SOL    HW1 5048   2.655   6.978   1.320
 1383SOL    HW2 5049   2.783   6.911   1.395
 1384SOL     OW 5050   1.358   1.814   2.100
 1384SOL    HW1 5051   1.402   1.726   2.118
 1384SOL    HW2 5052   1.264   1.811   2.134
 1385SOL     OW 5053   5.139   3.657   4.195
 1385SOL    HW1 5054   5.158   3.733   4.258
 1385SOL    HW2 5055   5.048   3.620   4.215
 1386SOL     OW 5056   2.680   2.465   3.565
 1386SOL    HW1 5057   2.638   2.555   3.548
 1386SOL    HW2 5058   2.752   2.449   3.498
 1387SOL     OW 5059   3.248   0.615   3.986
 1387SOL    HW1 5060   3.209   0.670   4.060
 1387SOL    HW2 5061   3.333   0.658   3.954
 1388SOL     OW 5062   5.201   1.876   4.010
 1388SOL    HW1 5063   5.175   1.789   4.052
 1388SOL    HW2 5064   5.153   1.888   3.924
 1389SOL     OW 5065   6.954   0.266   3.529
 1389SOL    HW1 5066   6.953   0.355   3.574
 1389SOL    HW2 5067   0.013   0.213   3.563
 1390SOL     OW 5068   4.926   2.479   2.643
 1390SOL    HW1 5069   4.959   2.385   2.635
 1390SOL    HW2 5070   4.829   2.478   2.665
 1391SOL     OW 5071   5.790   0.901   5.108
 1391SOL    HW1 5072   5.692   0.881   5.102
 1391SOL    HW2 5073   5.812   0.930   5.201
 1392SOL     OW 5074   3.665   6.648   5.364
 1392SOL    HW1 5075   3.575   6.611   5.384
 1392SOL    HW2 5076   3.735   6.578   5.383
 1393SOL     OW 5077   4.965   0.570   0.140
 1393SOL    HW1 5078   5.035   0.521   0.087
 1393SOL    HW2 5079   5.004   0.599   0.227
 1394SOL     OW 5080   4.366   0.353   4.109
 1394SOL    HW1 5081   4.450   0.381   4.156
 1394SOL    HW2 5082   4.290   0.409   4.140
 1395SOL     OW 5083   0.590   5.371   2.388
 1395SOL    HW1 5084   0.612   5.295   2.326
 1395SOL    HW2 5085   0.582   5.456   2.335
 1396SOL     OW 5086   1.228   1.795   3.321
 1396SOL    HW1 5087   1.321   1.820   3.296
 1396SOL    HW2 5088   1.204   1.839   3.408
 1397SOL     OW 5089   2.283   4.836   5.401
 1397SOL    HW1 5090   2.276   4.763   5.469
 1397SOL    HW2 5091   2.368   4.886   5.414
 1398SOL     OW 5092   3.349   0.014   6.696
 1398SOL    HW1 5093   3.336   6.982   6.610
 1398SOL    HW2 5094   3.260   0.028   6.740
 1399SOL     OW 5095   3.709   6.955   0.187
 1399SOL    HW1 5096   3.759   6.934   0.272
 1399SOL    HW2 5097   3.758   0.007   0.137
 1400SOL     OW 5098   0.915   0.813   5.695
 1400SOL    HW1 5099   0.883   0.779   5.607
 1400SOL    HW2 5100   0.916   0.913   5.694
 1401SOL     OW 5101   5.071   0.117   2.204
 1401SOL    HW1 5102   5.010   0.042   2.228
 1401SOL    HW2 5103   5.124   0.092   2.122
 1402SOL     OW 5104   5.695   4.577   1.944
 1402SOL    HW1 5105   5.744   4.664   1.936
 1402SOL    HW2 5106   5.644   4.575   2.031
 1403SOL     OW 5107   3.239   3.316   6.941
 1403SOL    HW1 5108   3.320   3.297   6.996
 1403SOL    HW2 5109   3.254   3.286   6.847
 1404SOL     OW 5110   3.979   5.830   0.320
 1404SOL    HW1 5111   4.067   5.877   0.324
 1404SOL    HW2 5112   3.945   5.832   0.226
 1405SOL     OW 5113   0.827   3.352   0.027
 1405SOL    HW1 5114   0.855   3.365   0.123
 1405SOL    HW2 5115   0.727   3.354   0.021
 1406SOL     OW 5116   2.381   2.543   6.890
 1406SOL    HW1 5117   2.298   2.524   6.838
 1406SOL    HW2 5118   2.358   2.600   6.969
 1407SOL     OW 5119   0.093   2.494   1.603
 1407SOL    HW1 5120   0.183   2.536   1.610
 1407SOL    HW2 5121   0.065   2.489   1.507
 1408SOL     OW 5122   5.914   6.596   0.500
 1408SOL    HW1 5123   5.896   6.542   0.582
 1408SOL    HW2 5124   6.006   6.635   0.505
 1409SOL     OW 5125   6.130   2.259   5.691
 1409SOL    HW1 5126   6.158   2.351   5.665
 1409SOL    HW2 5127   6.209   2.211   5.731
 1410SOL     OW 5128   2.949   0.804   0.568
 1410SOL    HW1 5129   2.945   0.903   0.582
 1410SOL    HW2 5130   3.038   0.779   0.531
 1411SOL     OW 5131   3.730   6.076   0.056
 1411SOL    HW1 5132   3.684   6.119   6.997
 1411SOL    HW2 5133   3.711   6.128   0.139
 1412SOL     OW 5134   2.279   1.703   0.448
 1412SOL    HW1 5135   2.348   1.756   0.498
 1412SOL    HW2 5136   2.271   1.613   0.489
 1413SOL     OW 5137   2.271   1.601   5.064
 1413SOL    HW1 5138   2.283   1.502   5.053
 1413SOL    HW2 5139   2.352   1.648   5.030
 1414SOL     OW 5140   0.462   5.135   2.008
 1414SOL    HW1 5141   0.366   5.160   2.001
 1414SOL    HW2 5142   0.519   5.213   1.982
 1415SOL     OW 5143   3.840   2.058   5.421
 1415SOL    HW1 5144   3.815   2.124   5.351
 1415SOL    HW2 5145   3.771   1.985   5.424
 1416SOL     OW 5146   4.848   0.283   4.965
 1416SOL    HW1 5147   4.793   0.365   4.976
 1416SOL    HW2 5148   4.938   0.307   4.930
 1417SOL     OW 5149   3.739   3.625   4.200
 1417SOL    HW1 5150   3.686   3.704   4.168
 1417SOL    HW2 5151   3.681   3.543   4.198
 1418SOL     OW 5152   3.286   3.713   5.321
 1418SOL    HW1 5153   3.305   3.647   5.249
 1418SOL    HW2 5154   3.245   3.795   5.281
 1419SOL     OW 5155   0.284   5.504   2.035
 1419SOL    HW1 5156   0.281   5.484   2.133
 1419SOL    HW2 5157   0.278   5.603   2.021
 1420SOL     OW 5158   3.167   6.456   3.713
 1420SOL    HW1 5159   3.217   6.541   3.699
 1420SOL    HW2 5160   3.142   6.447   3.809
 1421SOL     OW 5161   1.623   5.644   0.827
 1421SOL    HW1 5162   1.719   5.664   0.844
 1421SOL    HW2 5163   1.571   5.653   0.912
 1422SOL     OW 5164   1.592   3.588   6.751
 1422SOL    HW1 5165   1.537   3.671   6.758
 1422SOL    HW2 5166   1.541   3.517   6.702
 1423SOL     OW 5167   5.062   1.163   4.844
 1423SOL    HW1 5168   5.133   1.103   4.808
 1423SOL    HW2 5169   5.031   1.129   4.933
 1424SOL     OW 5170   6.498   2.690   1.497
 1424SOL    HW1 5171   6.560   2.626   1.542
 1424SOL    HW2 5172   6.403   2.661   1.512
 1425SOL     OW 5173   5.492   6.535   3.169
 1425SOL    HW1 5174   5.401   6.498   3.147
 1425SOL    HW2 5175   5.498   6.629   3.136
 1426SOL     OW 5176   3.905   1.191   0.357
 1426SOL    HW1 5177   3.945   1.106   0.390
 1426SOL    HW2 5178   3.972   1.239   0.299
 1427SOL     OW 5179   0.772   0.444   4.050
 1427SOL    HW1 5180   0.852   0.409   4.002
 1427SOL    HW2 5181   0.802   0.509   4.121
 1428SOL     OW 5182   1.725   4.189   3.631
 1428SOL    HW1 5183   1.788   4.150   3.698
 1428SOL    HW2 5184   1.775   4.252   3.571
 1429SOL     OW 5185   6.129   0.449   1.678
 1429SOL    HW1 5186   6.222   0.464   1.710
 1429SOL    HW2 5187   6.088   0.373   1.728
 1430SOL     OW 5188   2.123   3.901   4.562
 1430SOL    HW1 5189   2.112   3.825   4.498
 1430SOL    HW2 5190   2.079   3.879   4.649
 1431SOL     OW 5191   3.475   2.352   0.571
 1431SOL    HW1 5192   3.472   2.434   0.515
 1431SOL    HW2 5193   3.383   2.328   0.601
 1432SOL     OW 5194   4.064   0.491   2.989
 1432SOL    HW1 5195   4.031   0.397   2.982
 1432SOL    HW2 5196   4.009   0.550   2.929
 1433SOL     OW 5197   2.821   2.023   4.053
 1433SOL    HW1 5198   2.895   1.995   4.114
 1433SOL    HW2 5199   2.858   2.056   3.967
 1434SOL     OW 5200   4.947   3.663   0.721
 1434SOL    HW1 5201   4.914   3.757   0.712
 1434SOL    HW2 5202   5.045   3.665   0.740
 1435SOL     OW 5203   0.464   6.119   3.907
 1435SOL    HW1 5204   0.399   6.186   3.943
 1435SOL    HW2 5205   0.421   6.070   3.831
 1436SOL     OW 5206   5.563   1.045   0.237
 1436SOL    HW1 5207   5.630   1.086   0.176
 1436SOL    HW2 5208   5.517   1.117   0.289
 1437SOL     OW 5209   4.239   1.818   0.855
 1437SOL    HW1 5210   4.213   1.834   0.759
 1437SOL    HW2 5211   4.337   1.832   0.866
 1438SOL     OW 5212   2.349   6.804   2.685
 1438SOL    HW1 5213   2.431   6.861   2.689
 1438SOL    HW2 5214   2.358   6.728   2.750
 1439SOL     OW 5215   0.504   5.426   4.948
 1439SOL    HW1 5216   0.475   5.485   5.025
 1439SOL    HW2 5217   0.432   5.425   4.879
 1440SOL     OW 5218   3.420   3.334   2.325
 1440SOL    HW1 5219   3.345   3.278   2.289
 1440SOL    HW2 5220   3.482   3.359   2.251
 1441SOL     OW 5221   0.336   1.843   5.663
 1441SOL    HW1 5222   0.356   1.866   5.568
 1441SOL    HW2 5223   0.242   1.812   5.671
 1442SOL     OW 5224   5.552   5.694   0.321
 1442SOL    HW1 5225   5.516   5.687   0.228
 1442SOL    HW2 5226   5.533   5.785   0.358
 1443SOL     OW 5227   1.315   3.275   3.642
 1443SOL    HW1 5228   1.394   3.230   3.683
 1443SOL    HW2 5229   1.332   3.373   3.633
 1444SOL     OW 5230   5.189   6.930   4.219
 1444SOL    HW1 5231   5.228   6.872   4.290
 1444SOL    HW2 5232   5.222   0.005   4.232
 1445SOL     OW 5233   6.868   1.848   0.490
 1445SOL    HW1 5234   6.808   1.849   0.410
 1445SOL    HW2 5235   6.907   1.757   0.501
 1446SOL     OW 5236   3.269   5.675   2.449
 1446SOL    HW1 5237   3.218   5.623   2.518
 1446SOL    HW2 5238   3.237   5.769   2.447
 1447SOL     OW 5239   6.723   0.543   4.620
 1447SOL    HW1 5240   6.667   0.618   4.655
 1447SOL    HW2 5241   6.819   0.570   4.620
 1448SOL     OW 5242   5.287   0.816   0.830
 1448SOL    HW1 5243   5.266   0.731   0.783
 1448SOL    HW2 5244   5.203   0.866   0.849
 1449SOL     OW 5245   4.414   5.353   0.019
 1449SOL    HW1 5246   4.452   5.394   6.955
 1449SOL    HW2 5247   4.364   5.422   0.070
 1450SOL     OW 5248   5.726   1.516   3.667
 1450SOL    HW1 5249   5.780   1.536   3.585
 1450SOL    HW2 5250   5.749   1.425   3.701
 1451SOL     OW 5251   1.449   0.108   1.760
 1451SOL    HW1 5252   1.528   0.046   1.760
 1451SOL    HW2 5253   1.393   0.091   1.840
 1452SOL     OW 5254   2.671   0.529   6.434
 1452SOL    HW1 5255   2.664   0.462   6.508
 1452SOL    HW2 5256   2.759   0.519   6.389
 1453SOL     OW 5257   5.407   4.481   4.445
 1453SOL    HW1 5258   5.501   4.453   4.425
 1453SOL    HW2 5259   5.359   4.500   4.360
 1454SOL     OW 5260   5.649   3.836   0.933
 1454SOL    HW1 5261   5.635   3.762   0.867
 1454SOL    HW2 5262   5.683   3.798   1.019
 1455SOL     OW 5263   1.725   1.927   1.910
 1455SOL    HW1 5264   1.797   1.990   1.883
 1455SOL    HW2 5265   1.658   1.976   1.967
 1456SOL     OW 5266   5.627   5.363   5.068
 1456SOL    HW1 5267   5.725   5.376   5.074
 1456SOL    HW2 5268   5.606   5.305   4.989
 1457SOL     OW 5269   1.878   0.828   4.544
 1457SOL    HW1 5270   1.779   0.838   4.557
 1457SOL    HW2 5271   1.919   0.918   4.533
 1458SOL     OW 5272   0.289   5.117   6.882
 1458SOL    HW1 5273   0.318   5.042   6.823
 1458SOL    HW2 5274   0.270   5.198   6.827
 1459SOL     OW 5275   2.445   6.544   1.728
 1459SOL    HW1 5276   2.543   6.533   1.739
 1459SOL    HW2 5277   2.426   6.624   1.672
 1460SOL     OW 5278   0.291   0.219   0.090
 1460SOL    HW1 5279   0.335   0.303   0.122
 1460SOL    HW2 5280   0.329   0.193   0.002
 1461SOL     OW 5281   4.890   4.875   2.375
 1461SOL    HW1 5282   4.950   4.911   2.447
 1461SOL    HW2 5283   4.945   4.821   2.311
 1462SOL     OW 5284   5.457   0.220   4.779
 1462SOL    HW1 5285   5.374   0.250   4.733
 1462SOL    HW2 5286   5.492   0.293   4.838
 1463SOL     OW 5287   1.066   2.436   5.500
 1463SOL    HW1 5288   1.063   2.436   5.400
 1463SOL    HW2 5289   1.161   2.424   5.530
 1464SOL     OW 5290   0.833   0.696   1.007
 1464SOL    HW1 5291   0.845   0.788   0.970
 1464SOL    HW2 5292   0.911   0.674   1.066
 1465SOL     OW 5293   1.823   0.670   3.649
 1465SOL    HW1 5294   1.911   0.662   3.602
 1465SOL    HW2 5295   1.751   0.688   3.582
 1466SOL     OW 5296   5.424   5.789   4.005
 1466SOL    HW1 5297   5.417   5.829   3.913
 1466SOL    HW2 5298   5.388   5.854   4.072
 1467SOL     OW 5299   0.018   4.089   4.325
 1467SOL    HW1 5300   6.973   4.054   4.257
 1467SOL    HW2 5301   0.097   4.129   4.278
 1468SOL     OW 5302   4.845   0.272   2.757
 1468SOL    HW1 5303   4.825   0.256   2.853
 1468SOL    HW2 5304   4.785   0.344   2.722
 1469SOL     OW 5305   0.616   0.663   2.105
 1469SOL    HW1 5306   0.713   0.657   2.125
 1469SOL    HW2 5307   0.569   0.709   2.181
 1470SOL     OW 5308   0.170   6.928   2.507
 1470SOL    HW1 5309   0.217   6.948   2.593
 1470SOL    HW2 5310   0.204   6.988   2.435
 1471SOL     OW 5311   6.384   1.243   0.778
 1471SOL    HW1 5312   6.335   1.329   0.791
 1471SOL    HW2 5313   6.326   1.178   0.728
 1472SOL     OW 5314   4.846   5.297   4.997
 1472SOL    HW1 5315   4.871   5.213   4.949
 1472SOL    HW2 5316   4.809   5.363   4.932
 1473SOL     OW 5317   6.861   3.668   3.833
 1473SOL    HW1 5318   6.847   3.651   3.931
 1473SOL    HW2 5319   6.772   3.671   3.787
 1474SOL     OW 5320   4.047   6.094   2.874
 1474SOL    HW1 5321   4.106   6.131   2.945
 1474SOL    HW2 5322   4.001   6.011   2.907
 1475SOL     OW 5323   6.492   6.763   2.817
 1475SOL    HW1 5324   6.520   6.668   2.832
 1475SOL    HW2 5325   6.394   6.767   2.798
 1476SOL     OW 5326   0.746   2.625   1.817
 1476SOL    HW1 5327   0.804   2.636   1.897
 1476SOL    HW2 5328   0.776   2.545   1.765
 1477SOL     OW 5329   2.681   6.596   4.674
 1477SOL    HW1 5330   2.628   6.656   4.734
 1477SOL    HW2 5331   2.625   6.517   4.647
 1478SOL     OW 5332   0.300   3.558   1.366
 1478SOL    HW1 5333   0.270   3.472   1.325
 1478SOL    HW2 5334   0.364   3.539   1.441
 1479SOL     OW 5335   1.666   5.643   0.239
 1479SOL    HW1 5336   1.647   5.706   0.164
 1479SOL    HW2 5337   1.581   5.616   0.283
 1480SOL     OW 5338   2.699   1.122   0.065
 1480SOL    HW1 5339   2.668   1.124   0.160
 1480SOL    HW2 5340   2.635   1.173   0.008
 1481SOL     OW 5341   6.914   3.365   0.068
 1481SOL    HW1 5342   7.000   3.406   0.038
 1481SOL    HW2 5343   6.888   3.291   0.006
 1482SOL     OW 5344   5.783   0.227   6.307
 1482SOL    HW1 5345   5.712   0.190   6.367
 1482SOL    HW2 5346   5.858   0.263   6.362
 1483SOL     OW 5347   6.651   2.249   6.859
 1483SOL    HW1 5348   6.581   2.178   6.870
 1483SOL    HW2 5349   6.677   2.255   6.763
 1484SOL     OW 5350   6.325   0.188   3.042
 1484SOL    HW1 5351   6.251   0.154   2.984
 1484SOL    HW2 5352   6.288   0.251   3.111
 1485SOL     OW 5353   5.573   3.583   4.080
 1485SOL    HW1 5354   5.641   3.652   4.055
 1485SOL    HW2 5355   5.609   3.524   4.152
 1486SOL     OW 5356   4.725   2.339   1.150
 1486SOL    HW1 5357   4.755   2.320   1.244
 1486SOL    HW2 5358   4.745   2.260   1.092
 1487SOL     OW 5359   0.448   7.014   5.552
 1487SOL    HW1 5360   0.490   0.004   5.462
 1487SOL    HW2 5361   0.365   6.958   5.545
 1488SOL     OW 5362   5.142   1.968   4.477
 1488SOL    HW1 5363   5.185   1.904   4.541
 1488SOL    HW2 5364   5.126   2.056   4.523
 1489SOL     OW 5365   3.407   5.027   5.044
 1489SOL    HW1 5366   3.457   5.087   4.982
 1489SOL    HW2 5367   3.322   4.998   5.000
 1490SOL     OW 5368   2.311   3.015   1.064
 1490SOL    HW1 5369   2.385   2.995   1.001
 1490SOL    HW2 5370   2.345   3.072   1.139
 1491SOL     OW 5371   0.497   2.199   4.646
 1491SOL    HW1 5372   0.457   2.256   4.575
 1491SOL    HW2 5373   0.520   2.255   4.726
 1492SOL     OW 5374   0.701   1.952   1.741
 1492SOL    HW1 5375   0.642   1.897   1.800
 1492SOL    HW2 5376   0.703   2.046   1.774
 1493SOL     OW 5377   6.398   2.929   4.928
 1493SOL    HW1 5378   6.397   2.856   4.997
 1493SOL    HW2 5379   6.492   2.963   4.918
 1494SOL     OW 5380   5.480   1.845   4.160
 1494SOL    HW1 5381   5.479   1.904   4.241
 1494SOL    HW2 5382   5.387   1.834   4.125
 1495SOL     OW 5383   1.338   3.910   2.050
 1495SOL    HW1 5384   1.296   3.978   1.989
 1495SOL    HW2 5385   1.377   3.957   2.129
 1496SOL     OW 5386   1.417   0.532   2.202
 1496SOL    HW1 5387   1.434   0.625   2.168
 1496SOL    HW2 5388   1.328   0.529   2.246
 1497SOL     OW 5389   5.940   5.397   6.040
 1497SOL    HW1 5390   5.873   5.453   5.992
 1497SOL    HW2 5391   5.986   5.336   5.975
 1498SOL     OW 5392   2.964   5.577   0.390
 1498SOL    HW1 5393   2.876   5.530   0.380
 1498SOL    HW2 5394   3.025   5.548   0.316
 1499SOL     OW 5395   0.821   4.195   4.237
 1499SOL    HW1 5396   0.820   4.167   4.141
 1499SOL    HW2 5397   0.728   4.221   4.265
 1500SOL     OW 5398   3.603   6.941   5.898
 1500SOL    HW1 5399   3.603   6.857   5.842
 1500SOL    HW2 5400   3.604   0.002   5.838
 1501SOL     OW 5401   3.559   0.126   0.831
 1501SOL    HW1 5402   3.550   0.130   0.731
 1501SOL    HW2 5403   3.473   0.094   0.871
 1502SOL     OW 5404   0.351   0.413   5.854
 1502SOL    HW1 5405   0.430   0.467   5.882
 1502SOL    HW2 5406   0.308   0.373   5.935
 1503SOL     OW 5407   3.453   4.238   5.193
 1503SOL    HW1 5408   3.443   4.148   5.236
 1503SOL    HW2 5409   3.512   4.230   5.113
 1504SOL     OW 5410   2.756   6.718   3.460
 1504SOL    HW1 5411   2.794   6.810   3.461
 1504SOL    HW2 5412   2.830   6.651   3.470
 1505SOL     OW 5413   5.498   6.833   3.030
 1505SOL    HW1 5414   5.533   6.911   2.978
 1505SOL    HW2 5415   5.470   6.864   3.121
 1506SOL     OW 5416   0.715   6.224   3.575
 1506SOL    HW1 5417   0.648   6.167   3.528
 1506SOL    HW2 5418   0.675   6.257   3.661
 1507SOL     OW 5419   2.019   1.528   6.977
 1507SOL    HW1 5420   1.950   1.589   7.016
 1507SOL    HW2 5421   2.017   1.536   6.877
 1508SOL     OW 5422   4.767   6.505   1.297
 1508SOL    HW1 5423   4.712   6.457   1.366
 1508SOL    HW2 5424   4.849   6.541   1.341
 1509SOL     OW 5425   5.687   1.653   6.403
 1509SOL    HW1 5426   5.755   1.587   6.372
 1509SOL    HW2 5427   5.666   1.716   6.329
 1510SOL     OW 5428   6.728   1.726   2.667
 1510SOL    HW1 5429   6.683   1.811   2.693
 1510SOL    HW2 5430   6.739   1.722   2.568
 1511SOL     OW 5431   0.557   2.631   0.272
 1511SOL    HW1 5432   0.482   2.655   0.210
 1511SOL    HW2 5433   0.629   2.700   0.267
 1512SOL     OW 5434   6.266   1.058   1.810
 1512SOL    HW1 5435   6.247   0.984   1.875
 1512SOL    HW2 5436   6.344   1.111   1.842
 1513SOL     OW 5437   2.402   0.652   2.673
 1513SOL    HW1 5438   2.468   0.594   2.721
 1513SOL    HW2 5439   2.422   0.748   2.692
 1514SOL     OW 5440   4.807   1.293   5.490
 1514SOL    HW1 5441   4.748   1.358   5.539
 1514SOL    HW2 5442   4.902   1.308   5.517
 1515SOL     OW 5443   5.495   5.516   5.748
 1515SOL    HW1 5444   5.581   5.566   5.756
 1515SOL    HW2 5445   5.440   5.532   5.831
 1516SOL     OW 5446   6.693   1.487   1.343
 1516SOL    HW1 5447   6.773   1.469   1.400
 1516SOL    HW2 5448   6.675   1.586   1.341
 1517SOL     OW 5449   3.353   5.222   2.240
 1517SOL    HW1 5450   3.383   5.197   2.147
 1517SOL    HW2 5451   3.397   5.307   2.267
 1518SOL     OW 5452   0.418   4.709   0.718
 1518SOL    HW1 5453   0.337   4.653   0.703
 1518SOL    HW2 5454   0.464   4.723   0.630
 1519SOL     OW 5455   0.414   4.027   1.197
 1519SOL    HW1 5456   0.468   3.969   1.258
 1519SOL    HW2 5457   0.319   4.030   1.229
 1520SOL     OW 5458   1.019   3.609   2.683
 1520SOL    HW1 5459   0.949   3.680   2.686
 1520SOL    HW2 5460   0.976   3.519   2.693
 1521SOL     OW 5461   2.642   5.061   5.436
 1521SOL    HW1 5462   2.726   5.020   5.472
 1521SOL    HW2 5463   2.601   4.999   5.369
 1522SOL     OW 5464   1.454   1.858   6.217
 1522SOL    HW1 5465   1.373   1.916   6.206
 1522SOL    HW2 5466   1.438   1.769   6.176
 1523SOL     OW 5467   5.772   1.306   1.374
 1523SOL    HW1 5468   5.683   1.304   1.420
 1523SOL    HW2 5469   5.766   1.362   1.292
 1524SOL     OW 5470   0.950   1.362   0.701
 1524SOL    HW1 5471   0.955   1.267   0.731
 1524SOL    HW2 5472   0.891   1.413   0.764
 1525SOL     OW 5473   5.138   1.747   5.505
 1525SOL    HW1 5474   5.142   1.829   5.448
 1525SOL    HW2 5475   5.166   1.668   5.451
 1526SOL     OW 5476   5.647   2.133   0.425
 1526SOL    HW1 5477   5.681   2.039   0.432
 1526SOL    HW2 5478   5.668   2.170   0.334
 1527SOL     OW 5479   2.972   1.060   5.633
 1527SOL    HW1 5480   2.901   1.128   5.615
 1527SOL    HW2 5481   2.973   1.037   5.730
 1528SOL     OW 5482   4.846   5.716   3.570
 1528SOL    HW1 5483   4.772   5.678   3.626
 1528SOL    HW2 5484   4.903   5.641   3.536
 1529SOL     OW 5485   1.935   6.827   5.433
 1529SOL    HW1 5486   1.953   6.911   5.484
 1529SOL    HW2 5487   1.961   6.748   5.488
 1530SOL     OW 5488   2.903   6.558   1.257
 1530SOL    HW1 5489   2.946   6.586   1.171
 1530SOL    HW2 5490   2.837   6.485   1.239
 1531SOL     OW 5491   5.747   1.134   6.441
 1531SOL    HW1 5492   5.723   1.167   6.349
 1531SOL    HW2 5493   5.765   1.036   6.438
 1532SOL     OW 5494   3.093   2.012   5.070
 1532SOL    HW1 5495   3.089   2.109   5.047
 1532SOL    HW2 5496   3.097   2.002   5.170
 1533SOL     OW 5497   4.876   2.944   0.002
 1533SOL    HW1 5498   4.778   2.955   7.004
 1533SOL    HW2 5499   4.909   3.021   0.055
 1534SOL     OW 5500   6.929   0.178   0.482
 1534SOL    HW1 5501   6.914   0.098   0.425
 1534SOL    HW2 5502   6.925   0.260   0.425
 1535SOL     OW 5503   5.283   4.726   4.591
 1535SOL    HW1 5504   5.197   4.688   4.558
 1535SOL    HW2 5505   5.350   4.727   4.517
 1536SOL     OW 5506   3.229   6.176   3.078
 1536SOL    HW1 5507   3.313   6.189   3.025
 1536SOL    HW2 5508   3.150   6.203   3.022
 1537SOL     OW 5509   2.676   6.071   4.250
 1537SOL    HW1 5510   2.612   6.132   4.203
 1537SOL    HW2 5511   2.625   5.994   4.289
 1538SOL     OW 5512   3.138   6.483   0.109
 1538SOL    HW1 5513   3.149   6.554   0.040
 1538SOL    HW2 5514   3.125   6.525   0.199
 1539SOL     OW 5515   2.551   6.359   2.058
 1539SOL    HW1 5516   2.456   6.327   2.051
 1539SOL    HW2 5517   2.613   6.284   2.039
 1540SOL     OW 5518   6.242   0.070   4.822
 1540SOL    HW1 5519   6.164   0.058   4.761
 1540SOL    HW2 5520   6.255   7.006   4.876
 1541SOL     OW 5521   5.293   1.860   2.352
 1541SOL    HW1 5522   5.233   1.811   2.416
 1541SOL    HW2 5523   5.268   1.835   2.258
 1542SOL     OW 5524   6.881   5.777   1.237
 1542SOL    HW1 5525   6.918   5.812   1.150
 1542SOL    HW2 5526   6.813   5.842   1.272
 1543SOL     OW 5527   3.041   3.399   3.569
 1543SOL    HW1 5528   3.021   3.346   3.486
 1543SOL    HW2 5529   3.139   3.393   3.588
 1544SOL     OW 5530   3.561   3.490   2.116
 1544SOL    HW1 5531   3.630   3.521   2.050
 1544SOL    HW2 5532   3.520   3.569   2.162
 1545SOL     OW 5533   0.540   6.543   5.371
 1545SOL    HW1 5534   0.483   6.500   5.441
 1545SOL    HW2 5535   0.581   6.627   5.408
 1546SOL     OW 5536   6.748   6.481   6.746
 1546SOL    HW1 5537   6.752   6.570   6.791
 1546SOL    HW2 5538   6.839   6.456   6.713
 1547SOL     OW 5539   3.230   6.082   0.094
 1547SOL    HW1 5540   3.246   6.157   0.158
 1547SOL    HW2 5541   3.159   6.021   0.130
 1548SOL     OW 5542   6.785   3.743   3.197
 1548SOL    HW1 5543   6.700   3.760   3.148
 1548SOL    HW2 5544   6.804   3.645   3.198
 1549SOL     OW 5545   6.599   2.206   1.012
 1549SOL    HW1 5546   6.669   2.136   0.996
 1549SOL    HW2 5547   6.508   2.163   1.010
 1550SOL     OW 5548   2.674   4.811   2.454
 1550SOL    HW1 5549   2.585   4.857   2.452
 1550SOL    HW2 5550   2.670   4.727   2.399
 1551SOL     OW 5551   0.496   2.770   1.853
 1551SOL    HW1 5552   0.589   2.742   1.829
 1551SOL    HW2 5553   0.445   2.691   1.885
 1552SOL     OW 5554   1.775   6.650   2.136
 1552SOL    HW1 5555   1.853   6.704   2.104
 1552SOL    HW2 5556   1.695   6.709   2.145
 1553SOL     OW 5557   5.852   1.584   5.732
 1553SOL    HW1 5558   5.775   1.557   5.791
 1553SOL    HW2 5559   5.889   1.671   5.763
 1554SOL     OW 5560   2.728   2.875   0.767
 1554SOL    HW1 5561   2.724   2.820   0.683
 1554SOL    HW2 5562   2.821   2.872   0.803
 1555SOL     OW 5563   4.153   1.521   0.893
 1555SOL    HW1 5564   4.208   1.572   0.958
 1555SOL    HW2 5565   4.211   1.488   0.818
 1556SOL     OW 5566   3.241   2.144   0.364
 1556SOL    HW1 5567   3.184   2.200   0.425
 1556SOL    HW2 5568   3.297   2.204   0.307
 1557SOL     OW 5569   1.311   2.877   0.917
 1557SOL    HW1 5570   1.357   2.953   0.965
 1557SOL    HW2 5571   1.377   2.805   0.898
 1558SOL     OW 5572   4.901   2.659   6.884
 1558SOL    HW1 5573   4.971   2.691   6.821
 1558SOL    HW2 5574   4.943   2.629   6.970
 1559SOL     OW 5575   2.817   6.289   3.395
 1559SOL    HW1 5576   2.863   6.255   3.477
 1559SOL    HW2 5577   2.755   6.363   3.420
 1560SOL     OW 5578   4.500   2.956   1.482
 1560SOL    HW1 5579   4.517   2.915   1.392
 1560SOL    HW2 5580   4.481   2.884   1.548
 1561SOL     OW 5581   5.848   6.353   0.098
 1561SOL    HW1 5582   5.838   6.278   0.164
 1561SOL    HW2 5583   5.794   6.432   0.128
 1562SOL     OW 5584   2.795   6.813   2.721
 1562SOL    HW1 5585   2.734   6.890   2.740
 1562SOL    HW2 5586   2.740   6.730   2.707
 1563SOL     OW 5587   1.992   3.833   3.713
 1563SOL    HW1 5588   1.928   3.897   3.755
 1563SOL    HW2 5589   1.985   3.744   3.759
 1564SOL     OW 5590   1.230   1.910   2.600
 1564SOL    HW1 5591   1.198   1.970   2.674
 1564SOL    HW2 5592   1.297   1.845   2.636
 1565SOL     OW 5593   4.847   1.713   5.204
 1565SOL    HW1 5594   4.833   1.615   5.221
 1565SOL    HW2 5595   4.767   1.751   5.158
 1566SOL     OW 5596   0.788   3.615   3.733
 1566SOL    HW1 5597   0.693   3.633   3.758
 1566SOL    HW2 5598   0.818   3.530   3.776
 1567SOL     OW 5599   5.555   0.667   4.857
 1567SOL    HW1 5600   5.612   0.653   4.776
 1567SOL    HW2 5601   5.557   0.763   4.883
 1568SOL     OW 5602   2.302   4.668   0.753
 1568SOL    HW1 5603   2.243   4.696   0.829
 1568SOL    HW2 5604   2.363   4.596   0.783
 1569SOL     OW 5605   2.114   0.873   2.378
 1569SOL    HW1 5606   2.173   0.793   2.388
 1569SOL    HW2 5607   2.074   0.896   2.467
 1570SOL     OW 5608   2.922   6.162   6.416
 1570SOL    HW1 5609   2.873   6.095   6.360
 1570SOL    HW2 5610   2.858   6.211   6.475
 1571SOL     OW 5611   0.247   1.429   4.425
 1571SOL    HW1 5612   0.186   1.430   4.346
 1571SOL    HW2 5613   0.201   1.470   4.503
 1572SOL     OW 5614   2.000   6.080   3.582
 1572SOL    HW1 5615   2.058   6.136   3.641
 1572SOL    HW2 5616   2.025   5.984   3.592
 1573SOL     OW 5617   5.690   6.159   0.525
 1573SOL    HW1 5618   5.741   6.184   0.443
 1573SOL    HW2 5619   5.742   6.185   0.606
 1574SOL     OW 5620   0.188   4.002   2.948
 1574SOL    HW1 5621   0.276   3.965   2.980
 1574SOL    HW2 5622   0.114   3.955   2.995
 1575SOL     OW 5623   6.859   2.068   0.681
 1575SOL    HW1 5624   6.878   2.011   0.601
 1575SOL    HW2 5625   6.935   2.131   0.696
 1576SOL     OW 5626   1.805   6.089   2.747
 1576SOL    HW1 5627   1.775   6.000   2.781
 1576SOL    HW2 5628   1.795   6.092   2.647
 1577SOL     OW 5629   4.222   5.844   4.113
 1577SOL    HW1 5630   4.244   5.904   4.190
 1577SOL    HW2 5631   4.305   5.800   4.079
 1578SOL     OW 5632   5.468   1.932   1.986
 1578SOL    HW1 5633   5.530   1.904   2.061
 1578SOL    HW2 5634   5.376   1.899   2.006
 1579SOL     OW 5635   1.537   3.315   2.042
 1579SOL    HW1 5636   1.591   3.377   1.985
 1579SOL    HW2 5637   1.561   3.329   2.138
 1580SOL     OW 5638   3.264   4.127   3.506
 1580SOL    HW1 5639   3.305   4.183   3.434
 1580SOL    HW2 5640   3.300   4.156   3.595
 1581SOL     OW 5641   4.767   4.773   5.316
 1581SOL    HW1 5642   4.815   4.824   5.388
 1581SOL    HW2 5643   4.809   4.795   5.227
 1582SOL     OW 5644   4.208   6.080   4.695
 1582SOL    HW1 5645   4.152   6.047   4.620
 1582SOL    HW2 5646   4.197   6.019   4.774
 1583SOL     OW 5647   0.950   5.175   5.008
 1583SOL    HW1 5648   0.937   5.144   5.102
 1583SOL    HW2 5649   0.923   5.103   4.945
 1584SOL     OW 5650   6.919   3.662   6.992
 1584SOL    HW1 5651   6.988   3.593   7.014
 1584SOL    HW2 5652   6.901   3.719   0.053
 1585SOL     OW 5653   5.120   6.558   4.470
 1585SOL    HW1 5654   5.073   6.470   4.484
 1585SOL    HW2 5655   5.069   6.613   4.405
 1586SOL     OW 5656   2.589   5.795   3.629
 1586SOL    HW1 5657   2.635   5.828   3.547
 1586SOL    HW2 5658   2.494   5.771   3.607
 1587SOL     OW 5659   3.535   6.340   0.386
 1587SOL    HW1 5660   3.564   6.298   0.472
 1587SOL    HW2 5661   3.614   6.348   0.325
 1588SOL     OW 5662   6.535   2.235   3.891
 1588SOL    HW1 5663   6.528   2.284   3.978
 1588SOL    HW2 5664   6.585   2.149   3.906
 1589SOL     OW 5665   6.863   1.896   4.377
 1589SOL    HW1 5666   6.962   1.888   4.373
 1589SOL    HW2 5667   6.829   1.856   4.462
 1590SOL     OW 5668   5.342   0.628   4.115
 1590SOL    HW1 5669   5.393   0.675   4.187
 1590SOL    HW2 5670   5.272   0.690   4.078
 1591SOL     OW 5671   0.353   5.887   0.544
 1591SOL    HW1 5672   0.398   5.901   0.632
 1591SOL    HW2 5673   0.359   5.791   0.518
 1592SOL     OW 5674   6.633   4.042   5.102
 1592SOL    HW1 5675   6.639   3.942   5.093
 1592SOL    HW2 5676   6.636   4.067   5.198
 1593SOL     OW 5677   3.720   5.911   1.409
 1593SOL    HW1 5678   3.688   5.996   1.450
 1593SOL    HW2 5679   3.673   5.834   1.451
 1594SOL     OW 5680   4.843   1.319   3.198
 1594SOL    HW1 5681   4.757   1.367   3.209
 1594SOL    HW2 5682   4.870   1.320   3.102
 1595SOL     OW 5683   0.140   3.480   0.044
 1595SOL    HW1 5684   0.223   3.430   0.066
 1595SOL    HW2 5685   0.163   3.576   0.025
 1596SOL     OW 5686   5.165   4.346   4.466
 1596SOL    HW1 5687   5.179   4.270   4.404
 1596SOL    HW2 5688   5.254   4.381   4.497
 1597SOL     OW 5689   4.002   6.544   1.010
 1597SOL    HW1 5690   3.931   6.540   0.940
 1597SOL    HW2 5691   3.967   6.504   1.095
 1598SOL     OW 5692   1.030   4.659   6.046
 1598SOL    HW1 5693   0.993   4.602   5.973
 1598SOL    HW2 5694   0.961   4.672   6.117
 1599SOL     OW 5695   4.655   5.609   3.717
 1599SOL    HW1 5696   4.615   5.519   3.698
 1599SOL    HW2 5697   4.675   5.616   3.815
 1600SOL     OW 5698   4.665   0.666   1.429
 1600SOL    HW1 5699   4.631   0.669   1.335
 1600SOL    HW2 5700   4.610   0.600   1.481
 1601SOL     OW 5701   6.553   0.772   4.932
 1601SOL    HW1 5702   6.622   0.718   4.980
 1601SOL    HW2 5703   6.507   0.715   4.864
 1602SOL     OW 5704   3.912   5.530   3.054
 1602SOL    HW1 5705   3.852   5.600   3.017
 1602SOL    HW2 5706   3.949   5.474   2.980
 1603SOL     OW 5707   3.190   4.848   1.868
 1603SOL    HW1 5708   3.255   4.868   1.942
 1603SOL    HW2 5709   3.236   4.793   1.798
 1604SOL     OW 5710   4.266   5.356   2.276
 1604SOL    HW1 5711   4.215   5.302   2.209
 1604SOL    HW2 5712   4.353   5.385   2.235
 1605SOL     OW 5713   5.062   4.772   0.427
 1605SOL    HW1 5714   5.094   4.815   0.512
 1605SOL    HW2 5715   5.031   4.843   0.364
 1606SOL     OW 5716   3.962   6.050   5.370
 1606SOL    HW1 5717   3.899   6.110   5.419
 1606SOL    HW2 5718   4.027   6.106   5.318
 1607SOL     OW 5719   4.921   3.742   3.872
 1607SOL    HW1 5720   5.020   3.726   3.880
 1607SOL    HW2 5721   4.886   3.692   3.793
 1608SOL     OW 5722   5.987   3.013   3.451
 1608SOL    HW1 5723   5.954   3.034   3.543
 1608SOL    HW2 5724   5.970   2.916   3.431
 1609SOL     OW 5725   2.239   6.973   1.001
 1609SOL    HW1 5726   2.219   0.052   0.998
 1609SOL    HW2 5727   2.159   6.922   0.971
 1610SOL     OW 5728   5.328   6.312   0.944
 1610SOL    HW1 5729   5.276   6.228   0.955
 1610SOL    HW2 5730   5.341   6.332   0.847
 1611SOL     OW 5731   0.553   3.795   6.752
 1611SOL    HW1 5732   0.536   3.699   6.730
 1611SOL    HW2 5733   0.644   3.804   6.791
 1612SOL     OW 5734   4.913   1.102   1.671
 1612SOL    HW1 5735   4.947   1.065   1.584
 1612SOL    HW2 5736   4.814   1.095   1.673
 1613SOL     OW 5737   0.103   5.991   2.285
 1613SOL    HW1 5738   0.057   5.987   2.374
 1613SOL    HW2 5739   0.064   6.066   2.232
 1614SOL     OW 5740   6.417   2.053   5.443
 1614SOL    HW1 5741   6.396   2.098   5.356
 1614SOL    HW2 5742   6.473   1.972   5.427
 1615SOL     OW 5743   0.220   3.318   5.191
 1615SOL    HW1 5744   0.174   3.361   5.113
 1615SOL    HW2 5745   0.164   3.243   5.225
 1616SOL     OW 5746   0.844   1.302   3.166
 1616SOL    HW1 5747   0.882   1.383   3.210
 1616SOL    HW2 5748   0.844   1.226   3.231
 1617SOL     OW 5749   6.458   5.425   4.104
 1617SOL    HW1 5750   6.466   5.468   4.194
 1617SOL    HW2 5751   6.407   5.485   4.042
 1618SOL     OW 5752   3.218   5.554   3.093
 1618SOL    HW1 5753   3.214   5.613   3.174
 1618SOL    HW2 5754   3.192   5.461   3.119
 1619SOL     OW 5755   0.846   3.554   6.372
 1619SOL    HW1 5756   0.767   3.517   6.324
 1619SOL    HW2 5757   0.839   3.653   6.376
 1620SOL     OW 5758   2.868   6.748   4.512
 1620SOL    HW1 5759   2.792   6.796   4.556
 1620SOL    HW2 5760   2.916   6.809   4.450
 1621SOL     OW 5761   5.654   4.827   0.900
 1621SOL    HW1 5762   5.619   4.795   0.988
 1621SOL    HW2 5763   5.577   4.840   0.837
 1622SOL     OW 5764   6.542   3.801   3.071
 1622SOL    HW1 5765   6.529   3.737   2.995
 1622SOL    HW2 5766   6.543   3.895   3.035
 1623SOL     OW 5767   0.768   2.368   3.790
 1623SOL    HW1 5768   0.805   2.286   3.832
 1623SOL    HW2 5769   0.818   2.387   3.705
 1624SOL     OW 5770   4.027   3.160   0.811
 1624SOL    HW1 5771   3.966   3.133   0.886
 1624SOL    HW2 5772   4.104   3.095   0.807
 1625SOL     OW 5773   0.660   6.421   0.425
 1625SOL    HW1 5774   0.746   6.467   0.450
 1625SOL    HW2 5775   0.679   6.324   0.406
 1626SOL     OW 5776   2.534   1.733   2.290
 1626SOL    HW1 5777   2.627   1.719   2.256
 1626SOL    HW2 5778   2.516   1.669   2.365
 1627SOL     OW 5779   4.364   1.472   5.995
 1627SOL    HW1 5780   4.311   1.528   6.059
 1627SOL    HW2 5781   4.460   1.474   6.021
 1628SOL     OW 5782   5.429   5.998   1.323
 1628SOL    HW1 5783   5.353   5.938   1.296
 1628SOL    HW2 5784   5.427   6.082   1.269
 1629SOL     OW 5785   1.598   6.751   3.637
 1629SOL    HW1 5786   1.570   6.717   3.727
 1629SOL    HW2 5787   1.579   6.680   3.569
 1630SOL     OW 5788   0.716   4.425   6.001
 1630SOL    HW1 5789   0.652   4.401   6.074
 1630SOL    HW2 5790   0.665   4.444   5.917
 1631SOL     OW 5791   5.117   3.837   0.239
 1631SOL    HW1 5792   5.143   3.933   0.233
 1631SOL    HW2 5793   5.187   3.787   0.291
 1632SOL     OW 5794   5.811   6.312   2.319
 1632SOL    HW1 5795   5.869   6.272   2.390
 1632SOL    HW2 5796   5.720   6.331   2.356
 1633SOL     OW 5797   6.062   3.806   4.544
 1633SOL    HW1 5798   6.103   3.784   4.633
 1633SOL    HW2 5799   6.108   3.886   4.505
 1634SOL     OW 5800   1.241   3.743   6.346
 1634SOL    HW1 5801   1.314   3.744   6.277
 1634SOL    HW2 5802   1.158   3.784   6.307
 1635SOL     OW 5803   2.411   0.231   3.791
 1635SOL    HW1 5804   2.415   0.137   3.755
 1635SOL    HW2 5805   2.316   0.255   3.809
 1636SOL     OW 5806   0.201   6.266   1.532
 1636SOL    HW1 5807   0.192   6.359   1.569
 1636SOL    HW2 5808   0.148   6.203   1.589
 1637SOL     OW 5809   1.346   1.385   2.381
 1637SOL    HW1 5810   1.373   1.341   2.466
 1637SOL    HW2 5811   1.258   1.431   2.393
 1638SOL     OW 5812   5.423   2.242   3.140
 1638SOL    HW1 5813   5.400   2.263   3.045
 1638SOL    HW2 5814   5.368   2.165   3.172
 1639SOL     OW 5815   4.814   2.323   1.404
 1639SOL    HW1 5816   4.854   2.390   1.466
 1639SOL    HW2 5817   4.714   2.332   1.406
 1640SOL     OW 5818   6.531   0.860   6.805
 1640SOL    HW1 5819   6.576   0.918   6.873
 1640SOL    HW2 5820   6.472   0.794   6.851
 1641SOL     OW 5821   5.954   0.908   3.287
 1641SOL    HW1 5822   5.981   1.005   3.289
 1641SOL    HW2 5823   5.855   0.901   3.294
 1642SOL     OW 5824   0.071   3.398   5.491
 1642SOL    HW1 5825   0.044   3.363   5.581
 1642SOL    HW2 5826   0.049   3.329   5.422
 1643SOL     OW 5827   2.270   4.923   3.820
 1643SOL    HW1 5828   2.275   4.857   3.745
 1643SOL    HW2 5829   2.355   4.920   3.874
 1644SOL     OW 5830   5.946   1.713   1.771
 1644SOL    HW1 5831   6.006   1.790   1.749
 1644SOL    HW2 5832   5.903   1.679   1.688
 1645SOL     OW 5833   2.709   0.461   4.763
 1645SOL    HW1 5834   2.803   0.430   4.778
 1645SOL    HW2 5835   2.647   0.411   4.825
 1646SOL     OW 5836   0.093   5.480   1.797
 1646SOL    HW1 5837   0.057   5.404   1.742
 1646SOL    HW2 5838   0.193   5.479   1.793
 1647SOL     OW 5839   6.241   3.504   4.887
 1647SOL    HW1 5840   6.327   3.478   4.843
 1647SOL    HW2 5841   6.164   3.470   4.833
 1648SOL     OW 5842   5.277   6.460   1.637
 1648SOL    HW1 5843   5.324   6.375   1.658
 1648SOL    HW2 5844   5.192   6.441   1.588
 1649SOL     OW 5845   3.514   1.167   2.625
 1649SOL    HW1 5846   3.608   1.201   2.624
 1649SOL    HW2 5847   3.454   1.238   2.664
 1650SOL     OW 5848   2.144   2.893   5.019
 1650SOL    HW1 5849   2.126   2.824   5.090
 1650SOL    HW2 5850   2.230   2.940   5.039
 1651SOL     OW 5851   1.142   1.871   3.576
 1651SOL    HW1 5852   1.054   1.889   3.532
 1651SOL    HW2 5853   1.129   1.866   3.675
 1652SOL     OW 5854   6.815   3.845   1.623
 1652SOL    HW1 5855   6.838   3.820   1.717
 1652SOL    HW2 5856   6.808   3.762   1.568
 1653SOL     OW 5857   6.615   4.387   1.689
 1653SOL    HW1 5858   6.617   4.435   1.602
 1653SOL    HW2 5859   6.704   4.344   1.706
 1654SOL     OW 5860   0.326   4.058   1.583
 1654SOL    HW1 5861   0.271   4.000   1.644
 1654SOL    HW2 5862   0.364   4.002   1.509
 1655SOL     OW 5863   0.312   0.713   6.036
 1655SOL    HW1 5864   0.401   0.702   6.079
 1655SOL    HW2 5865   0.323   0.717   5.937
 1656SOL     OW 5866   2.017   3.882   2.981
 1656SOL    HW1 5867   1.960   3.943   2.926
 1656SOL    HW2 5868   2.086   3.936   3.029
 1657SOL     OW 5869   0.835   0.726   6.283
 1657SOL    HW1 5870   0.842   0.807   6.225
 1657SOL    HW2 5871   0.859   0.750   6.377
 1658SOL     OW 5872   5.355   6.649   5.793
 1658SOL    HW1 5873   5.339   6.705   5.712
 1658SOL    HW2 5874   5.347   6.552   5.769
 1659SOL     OW 5875   3.788   0.277   6.252
 1659SOL    HW1 5876   3.718   0.288   6.322
 1659SOL    HW2 5877   3.757   0.319   6.167
 1660SOL     OW 5878   2.338   0.801   2.022
 1660SOL    HW1 5879   2.304   0.710   2.000
 1660SOL    HW2 5880   2.437   0.803   2.009
 1661SOL     OW 5881   5.043   4.402   3.367
 1661SOL    HW1 5882   5.106   4.360   3.303
 1661SOL    HW2 5883   4.993   4.476   3.322
 1662SOL     OW 5884   0.303   1.550   3.707
 1662SOL    HW1 5885   0.349   1.618   3.764
 1662SOL    HW2 5886   0.278   1.591   3.619
 1663SOL     OW 5887   5.295   3.849   0.989
 1663SOL    HW1 5888   5.271   3.813   1.079
 1663SOL    HW2 5889   5.368   3.917   0.999
 1664SOL     OW 5890   1.275   1.282   6.196
 1664SOL    HW1 5891   1.336   1.345   6.147
 1664SOL    HW2 5892   1.201   1.253   6.135
 1665SOL     OW 5893   2.257   3.562   6.635
 1665SOL    HW1 5894   2.238   3.613   6.552
 1665SOL    HW2 5895   2.218   3.470   6.628
 1666SOL     OW 5896   5.610   6.274   5.874
 1666SOL    HW1 5897   5.575   6.222   5.952
 1666SOL    HW2 5898   5.679   6.339   5.904
 1667SOL     OW 5899   6.997   5.381   1.121
 1667SOL    HW1 5900   6.930   5.447   1.087
 1667SOL    HW2 5901   6.971   5.352   1.213
 1668SOL     OW 5902   6.103   3.185   2.308
 1668SOL    HW1 5903   6.200   3.187   2.285
 1668SOL    HW2 5904   6.049   3.162   2.227
 1669SOL     OW 5905   6.246   3.045   5.545
 1669SOL    HW1 5906   6.176   3.095   5.597
 1669SOL    HW2 5907   6.324   3.105   5.528
 1670SOL     OW 5908   2.808   4.557   5.680
 1670SOL    HW1 5909   2.768   4.648   5.693
 1670SOL    HW2 5910   2.741   4.498   5.635
 1671SOL     OW 5911   5.570   1.964   0.888
 1671SOL    HW1 5912   5.570   2.064   0.880
 1671SOL    HW2 5913   5.479   1.929   0.864
 1672SOL     OW 5914   0.565   1.987   1.427
 1672SOL    HW1 5915   0.520   2.067   1.387
 1672SOL    HW2 5916   0.643   2.017   1.481
 1673SOL     OW 5917   1.950   0.545   5.120
 1673SOL    HW1 5918   1.856   0.519   5.141
 1673SOL    HW2 5919   1.998   0.467   5.081
 1674SOL     OW 5920   5.146   2.136   3.609
 1674SOL    HW1 5921   5.122   2.110   3.515
 1674SOL    HW2 5922   5.105   2.072   3.673
 1675SOL     OW 5923   5.576   0.566   2.067
 1675SOL    HW1 5924   5.626   0.579   2.153
 1675SOL    HW2 5925   5.520   0.647   2.048
 1676SOL     OW 5926   1.252   2.241   3.422
 1676SOL    HW1 5927   1.244   2.190   3.508
 1676SOL    HW2 5928   1.201   2.194   3.350
 1677SOL     OW 5929   2.903   3.639   2.684
 1677SOL    HW1 5930   2.812   3.661   2.719
 1677SOL    HW2 5931   2.919   3.541   2.694
 1678SOL     OW 5932   6.794   6.750   6.922
 1678SOL    HW1 5933   6.890   6.753   6.951
 1678SOL    HW2 5934   6.770   6.837   6.880
 1679SOL     OW 5935   6.057   1.813   0.322
 1679SOL    HW1 5936   5.988   1.884   0.309
 1679SOL    HW2 5937   6.092   1.817   0.416
 1680SOL     OW 5938   6.270   2.847   2.907
 1680SOL    HW1 5939   6.246   2.755   2.939
 1680SOL    HW2 5940   6.187   2.895   2.878
 1681SOL     OW 5941   3.461   6.018   4.995
 1681SOL    HW1 5942   3.377   5.992   4.948
 1681SOL    HW2 5943   3.537   6.017   4.931
 1682SOL     OW 5944   4.356   1.160   4.600
 1682SOL    HW1 5945   4.347   1.257   4.574
 1682SOL    HW2 5946   4.282   1.136   4.662
 1683SOL     OW 5947   0.917   2.584   3.093
 1683SOL    HW1 5948   0.858   2.618   3.020
 1683SOL    HW2 5949   0.883   2.617   3.181
 1684SOL     OW 5950   2.763   5.297   1.332
 1684SOL    HW1 5951   2.739   5.279   1.237
 1684SOL    HW2 5952   2.681   5.289   1.389
 1685SOL     OW 5953   0.244   1.368   5.655
 1685SOL    HW1 5954   0.150   1.375   5.688
 1685SOL    HW2 5955   0.245   1.369   5.555
 1686SOL     OW 5956   3.715   5.304   1.916
 1686SOL    HW1 5957   3.776   5.359   1.859
 1686SOL    HW2 5958   3.745   5.209   1.915
 1687SOL     OW 5959   4.748   4.038   0.590
 1687SOL    HW1 5960   4.714   4.126   0.555
 1687SOL    HW2 5961   4.844   4.028   0.566
 1688SOL     OW 5962   2.701   0.408   3.063
 1688SOL    HW1 5963   2.667   0.436   2.974
 1688SOL    HW2 5964   2.624   0.381   3.121
 1689SOL     OW 5965   4.010   0.567   1.932
 1689SOL    HW1 5966   3.914   0.548   1.911
 1689SOL    HW2 5967   4.049   0.488   1.980
 1690SOL     OW 5968   0.077   4.795   4.157
 1690SOL    HW1 5969   0.111   4.781   4.064
 1690SOL    HW2 5970   0.138   4.857   4.206
 1691SOL     OW 5971   3.979   2.758   5.305
 1691SOL    HW1 5972   4.018   2.849   5.295
 1691SOL    HW2 5973   4.017   2.697   5.235
 1692SOL     OW 5974   6.284   5.470   2.240
 1692SOL    HW1 5975   6.285   5.439   2.335
 1692SOL    HW2 5976   6.361   5.428   2.191
 1693SOL     OW 5977   5.559   6.898   5.159
 1693SOL    HW1 5978   5.597   6.987   5.137
 1693SOL    HW2 5979   5.594   6.829   5.095
 1694SOL     OW 5980   4.672   1.392   6.469
 1694SOL    HW1 5981   4.665   1.435   6.559
 1694SOL    HW2 5982   4.587   1.406   6.418
 1695SOL     OW 5983   4.258   0.185   4.969
 1695SOL    HW1 5984   4.310   0.113   4.922
 1695SOL    HW2 5985   4.255   0.164   5.067
 1696SOL     OW 5986   5.263   6.934   0.922
 1696SOL    HW1 5987   5.252   6.931   1.021
 1696SOL    HW2 5988   5.285   6.843   0.888
 1697SOL     OW 5989   4.521   2.804   1.721
 1697SOL    HW1 5990   4.534   2.870   1.794
 1697SOL    HW2 5991   4.462   2.729   1.753
 1698SOL     OW 5992   4.011   1.419   1.697
 1698SOL    HW1 5993   4.081   1.428   1.625
 1698SOL    HW2 5994   3.948   1.496   1.691
 1699SOL     OW 5995   1.823   0.848   1.237
 1699SOL    HW1 5996   1.755   0.889   1.297
 1699SOL    HW2 5997   1.861   0.766   1.280
 1700SOL     OW 5998   5.508   3.183   2.713
 1700SOL    HW1 5999   5.510   3.084   2.722
 1700SOL    HW2 6000   5.442   3.222   2.778
 1701SOL     OW 6001   1.013   5.695   5.048
 1701SOL    HW1 6002   0.927   5.646   5.061
 1701SOL    HW2 6003   1.074   5.642   4.989
 1702SOL     OW 6004   1.766   2.594   6.830
 1702SOL    HW1 6005   1.748   2.678   6.880
 1702SOL    HW2 6006   1.689   2.574   6.769
 1703SOL     OW 6007   1.511   2.064   2.100
 1703SOL    HW1 6008   1.561   2.105   2.176
 1703SOL    HW2 6009   1.455   1.989   2.134
 1704SOL     OW 6010   3.083   2.863   6.849
 1704SOL    HW1 6011   3.021   2.868   6.771
 1704SOL    HW2 6012   3.031   2.843   6.932
 1705SOL     OW 6013   5.330   3.224   0.648
 1705SOL    HW1 6014   5.366   3.261   0.563
 1705SOL    HW2 6015   5.402   3.219   0.716
 1706SOL     OW 6016   5.519   0.943   6.059
 1706SOL    HW1 6017   5.568   0.866   6.100
 1706SOL    HW2 6018   5.562   1.029   6.087
 1707SOL     OW 6019   3.841   1.179   2.037
 1707SOL    HW1 6020   3.867   1.148   1.946
 1707SOL    HW2 6021   3.837   1.279   2.038
 1708SOL     OW 6022   2.588   4.490   1.823
 1708SOL    HW1 6023   2.662   4.529   1.878
 1708SOL    HW2 6024   2.523   4.562   1.799
 1709SOL     OW 6025   5.071   4.378   1.307
 1709SOL    HW1 6026   4.975   4.403   1.317
 1709SOL    HW2 6027   5.079   4.278   1.300
 1710SOL     OW 6028   4.798   2.870   2.241
 1710SOL    HW1 6029   4.748   2.910   2.164
 1710SOL    HW2 6030   4.736   2.812   2.294
 1711SOL     OW 6031   4.123   5.750   6.951
 1711SOL    HW1 6032   4.050   5.784   7.010
 1711SOL    HW2 6033   4.088   5.672   6.898
 1712SOL     OW 6034   6.951   1.949   1.755
 1712SOL    HW1 6035   6.895   1.866   1.748
 1712SOL    HW2 6036   6.980   1.978   1.664
 1713SOL     OW 6037   3.049   1.339   2.166
 1713SOL    HW1 6038   3.073   1.243   2.182
 1713SOL    HW2 6039   2.983   1.369   2.235
 1714SOL     OW 6040   2.447   4.473   0.854
 1714SOL    HW1 6041   2.510   4.501   0.927
 1714SOL    HW2 6042   2.496   4.417   0.787
 1715SOL     OW 6043   0.968   6.158   1.253
 1715SOL    HW1 6044   0.882   6.135   1.297
 1715SOL    HW2 6045   1.039   6.095   1.285
 1716SOL     OW 6046   5.016   1.878   2.702
 1716SOL    HW1 6047   5.081   1.820   2.653
 1716SOL    HW2 6048   4.932   1.886   2.649
 1717SOL     OW 6049   3.686   6.524   3.526
 1717SOL    HW1 6050   3.714   6.521   3.622
 1717SOL    HW2 6051   3.716   6.440   3.480
 1718SOL     OW 6052   1.756   3.486   1.876
 1718SOL    HW1 6053   1.784   3.475   1.780
 1718SOL    HW2 6054   1.793   3.410   1.930
 1719SOL     OW 6055   1.170   5.190   3.233
 1719SOL    HW1 6056   1.190   5.150   3.143
 1719SOL    HW2 6057   1.071   5.196   3.245
 1720SOL     OW 6058   1.094   3.086   5.472
 1720SOL    HW1 6059   1.014   3.041   5.512
 1720SOL    HW2 6060   1.139   3.023   5.408
 1721SOL     OW 6061   2.489   2.689   0.364
 1721SOL    HW1 6062   2.529   2.603   0.332
 1721SOL    HW2 6063   2.489   2.691   0.464
 1722SOL     OW 6064   2.834   2.342   3.387
 1722SOL    HW1 6065   2.916   2.286   3.377
 1722SOL    HW2 6066   2.800   2.367   3.296
 1723SOL     OW 6067   6.275   4.445   1.159
 1723SOL    HW1 6068   6.272   4.545   1.154
 1723SOL    HW2 6069   6.345   4.416   1.224
 1724SOL     OW 6070   5.780   3.316   0.792
 1724SOL    HW1 6071   5.802   3.408   0.825
 1724SOL    HW2 6072   5.857   3.255   0.807
 1725SOL     OW 6073   1.725   6.713   6.417
 1725SOL    HW1 6074   1.764   6.788   6.364
 1725SOL    HW2 6075   1.635   6.690   6.381
 1726SOL     OW 6076   5.009   4.831   3.577
 1726SOL    HW1 6077   5.080   4.863   3.639
 1726SOL    HW2 6078   4.964   4.750   3.616
 1727SOL     OW 6079   3.203   2.971   3.271
 1727SOL    HW1 6080   3.242   2.886   3.237
 1727SOL    HW2 6081   3.229   3.046   3.210
 1728SOL     OW 6082   5.551   2.108   4.325
 1728SOL    HW1 6083   5.506   2.190   4.362
 1728SOL    HW2 6084   5.618   2.135   4.256
 1729SOL     OW 6085   1.161   3.144   3.004
 1729SOL    HW1 6086   1.110   3.223   2.970
 1729SOL    HW2 6087   1.192   3.090   2.926
 1730SOL     OW 6088   2.683   0.521   4.477
 1730SOL    HW1 6089   2.672   0.502   4.575
 1730SOL    HW2 6090   2.601   0.568   4.443
 1731SOL     OW 6091   5.330   4.344   3.617
 1731SOL    HW1 6092   5.270   4.362   3.694
 1731SOL    HW2 6093   5.411   4.294   3.648
 1732SOL     OW 6094   4.243   3.428   5.326
 1732SOL    HW1 6095   4.192   3.394   5.247
 1732SOL    HW2 6096   4.338   3.395   5.321
 1733SOL     OW 6097   1.662   1.850   6.658
 1733SOL    HW1 6098   1.706   1.937   6.637
 1733SOL    HW2 6099   1.627   1.809   6.574
 1734SOL     OW 6100   0.662   4.212   1.435
 1734SOL    HW1 6101   0.758   4.238   1.448
 1734SOL    HW2 6102   0.603   4.284   1.471
 1735SOL     OW 6103   3.062   5.114   5.923
 1735SOL    HW1 6104   3.057   5.036   5.985
 1735SOL    HW2 6105   3.152   5.158   5.933
 1736SOL     OW 6106   4.836   1.949   6.092
 1736SOL    HW1 6107   4.922   1.898   6.089
 1736SOL    HW2 6108   4.851   2.042   6.057
 1737SOL     OW 6109   2.921   1.198   6.387
 1737SOL    HW1 6110   2.891   1.144   6.308
 1737SOL    HW2 6111   2.850   1.263   6.412
 1738SOL     OW 6112   0.971   3.907   1.907
 1738SOL    HW1 6113   0.982   3.907   1.808
 1738SOL    HW2 6114   1.026   3.834   1.947
 1739SOL     OW 6115   4.662   5.140   2.643
 1739SOL    HW1 6116   4.753   5.108   2.616
 1739SOL    HW2 6117   4.659   5.149   2.742
 1740SOL     OW 6118   6.931   1.953   4.976
 1740SOL    HW1 6119   6.925   2.051   4.992
 1740SOL    HW2 6120   0.007   1.922   4.991
 1741SOL     OW 6121   1.240   2.845   4.861
 1741SOL    HW1 6122   1.279   2.779   4.796
 1741SOL    HW2 6123   1.197   2.795   4.936
 1742SOL     OW 6124   6.005   0.239   0.001
 1742SOL    HW1 6125   6.045   0.329   0.021
 1742SOL    HW2 6126   5.999   0.186   0.086
 1743SOL     OW 6127   1.113   2.312   1.807
 1743SOL    HW1 6128   1.137   2.381   1.739
 1743SOL    HW2 6129   1.196   2.266   1.838
 1744SOL     OW 6130   3.086   2.172   5.308
 1744SOL    HW1 6131   3.021   2.229   5.358
 1744SOL    HW2 6132   3.121   2.221   5.229
 1745SOL     OW 6133   6.296   6.306   0.701
 1745SOL    HW1 6134   6.261   6.368   0.770
 1745SOL    HW2 6135   6.278   6.343   0.610
 1746SOL     OW 6136   2.592   5.144   2.699
 1746SOL    HW1 6137   2.657   5.217   2.678
 1746SOL    HW2 6138   2.640   5.057   2.704
 1747SOL     OW 6139   2.968   0.135   2.404
 1747SOL    HW1 6140   2.904   0.193   2.455
 1747SOL    HW2 6141   2.997   0.059   2.462
 1748SOL     OW 6142   6.894   1.700   3.622
 1748SOL    HW1 6143   6.877   1.668   3.716
 1748SOL    HW2 6144   6.816   1.678   3.564
 1749SOL     OW 6145   6.422   5.536   2.859
 1749SOL    HW1 6146   6.327   5.511   2.878
 1749SOL    HW2 6147   6.481   5.501   2.932
 1750SOL     OW 6148   3.310   1.550   1.008
 1750SOL    HW1 6149   3.284   1.612   0.934
 1750SOL    HW2 6150   3.228   1.516   1.052
 1751SOL     OW 6151   6.251   4.519   4.920
 1751SOL    HW1 6152   6.153   4.503   4.914
 1751SOL    HW2 6153   6.274   4.605   4.874
 1752SOL     OW 6154   6.142   0.992   2.301
 1752SOL    HW1 6155   6.114   1.027   2.390
 1752SOL    HW2 6156   6.121   0.894   2.295
 1753SOL     OW 6157   6.402   1.524   1.419
 1753SOL    HW1 6158   6.462   1.460   1.370
 1753SOL    HW2 6159   6.343   1.473   1.482
 1754SOL     OW 6160   2.615   5.404   3.821
 1754SOL    HW1 6161   2.606   5.461   3.903
 1754SOL    HW2 6162   2.670   5.453   3.753
 1755SOL     OW 6163   6.244   6.753   5.031
 1755SOL    HW1 6164   6.221   6.659   5.054
 1755SOL    HW2 6165   6.337   6.756   4.994
 1756SOL     OW 6166   4.335   6.055   1.529
 1756SOL    HW1 6167   4.385   5.991   1.587
 1756SOL    HW2 6168   4.393   6.085   1.454
 1757SOL     OW 6169   2.848   5.228   4.982
 1757SOL    HW1 6170   2.882   5.294   4.915
 1757SOL    HW2 6171   2.838   5.274   5.071
 1758SOL     OW 6172   0.726   6.063   3.992
 1758SOL    HW1 6173   0.781   6.070   3.908
 1758SOL    HW2 6174   0.629   6.063   3.969
 1759SOL     OW 6175   1.602   5.541   6.247
 1759SOL    HW1 6176   1.668   5.467   6.261
 1759SOL    HW2 6177   1.636   5.602   6.175
 1760SOL     OW 6178   6.219   1.943   3.791
 1760SOL    HW1 6179   6.259   2.004   3.723
 1760SOL    HW2 6180   6.289   1.918   3.859
 1761SOL     OW 6181   5.441   2.545   3.538
 1761SOL    HW1 6182   5.391   2.550   3.625
 1761SOL    HW2 6183   5.490   2.458   3.532
 1762SOL     OW 6184   0.754   1.259   5.817
 1762SOL    HW1 6185   0.736   1.298   5.908
 1762SOL    HW2 6186   0.667   1.234   5.774
 1763SOL     OW 6187   1.486   4.934   3.842
 1763SOL    HW1 6188   1.514   4.978   3.757
 1763SOL    HW2 6189   1.565   4.927   3.903
 1764SOL     OW 6190   1.438   5.788   3.301
 1764SOL    HW1 6191   1.359   5.849   3.292
 1764SOL    HW2 6192   1.451   5.764   3.397
 1765SOL     OW 6193   5.350   3.597   1.912
 1765SOL    HW1 6194   5.267   3.622   1.963
 1765SOL    HW2 6195   5.327   3.585   1.816
 1766SOL     OW 6196   4.582   4.921   3.843
 1766SOL    HW1 6197   4.505   4.916   3.779
 1766SOL    HW2 6198   4.606   4.829   3.874
 1767SOL     OW 6199   1.346   4.279   1.308
 1767SOL    HW1 6200   1.352   4.289   1.209
 1767SOL    HW2 6201   1.303   4.360   1.348
 1768SOL     OW 6202   3.959   4.953   2.759
 1768SOL    HW1 6203   4.018   4.983   2.684
 1768SOL    HW2 6204   4.003   4.975   2.846
 1769SOL     OW 6205   5.563   0.473   0.854
 1769SOL    HW1 6206   5.512   0.537   0.912
 1769SOL    HW2 6207   5.623   0.524   0.792
 1770SOL     OW 6208   2.254   4.989   0.552
 1770SOL    HW1 6209   2.205   4.940   0.624
 1770SOL    HW2 6210   2.353   4.981   0.568
 1771SOL     OW 6211   0.929   2.802   6.170
 1771SOL    HW1 6212   0.913   2.735   6.243
 1771SOL    HW2 6213   0.848   2.859   6.158
 1772SOL     OW 6214   2.462   4.430   2.896
 1772SOL    HW1 6215   2.437   4.509   2.839
 1772SOL    HW2 6216   2.432   4.346   2.851
 1773SOL     OW 6217   2.275   6.602   5.031
 1773SOL    HW1 6218   2.330   6.618   4.949
 1773SOL    HW2 6219   2.320   6.534   5.089
 1774SOL     OW 6220   5.502   5.653   1.949
 1774SOL    HW1 6221   5.594   5.629   1.979
 1774SOL    HW2 6222   5.506   5.737   1.895
 1775SOL     OW 6223   1.193   6.316   1.161
 1775SOL    HW1 6224   1.222   6.353   1.073
 1775SOL    HW2 6225   1.107   6.267   1.150
 1776SOL     OW 6226   4.478   3.216   6.209
 1776SOL    HW1 6227   4.509   3.140   6.151
 1776SOL    HW2 6228   4.380   3.229   6.198
 1777SOL     OW 6229   4.639   5.779   0.155
 1777SOL    HW1 6230   4.550   5.735   0.141
 1777SOL    HW2 6231   4.639   5.827   0.243
 1778SOL     OW 6232   0.007   0.015   2.789
 1778SOL    HW1 6233   7.018   0.029   2.690
 1778SOL    HW2 6234   6.936   7.012   2.826
 1779SOL     OW 6235   6.501   0.078   4.909
 1779SOL    HW1 6236   6.555   0.124   4.839
 1779SOL    HW2 6237   6.403   0.093   4.891
 1780SOL     OW 6238   3.380   6.664   4.827
 1780SOL    HW1 6239   3.411   6.750   4.789
 1780SOL    HW2 6240   3.458   6.605   4.847
 1781SOL     OW 6241   5.048   1.457   6.072
 1781SOL    HW1 6242   5.009   1.430   6.160
 1781SOL    HW2 6243   4.982   1.513   6.021
 1782SOL     OW 6244   5.187   0.569   2.696
 1782SOL    HW1 6245   5.125   0.621   2.637
 1782SOL    HW2 6246   5.192   0.614   2.786
 1783SOL     OW 6247   1.308   3.188   6.894
 1783SOL    HW1 6248   1.309   3.248   6.814
 1783SOL    HW2 6249   1.384   3.123   6.888
 1784SOL     OW 6250   2.108   6.380   1.472
 1784SOL    HW1 6251   2.131   6.301   1.529
 1784SOL    HW2 6252   2.169   6.456   1.495
 1785SOL     OW 6253   1.975   5.820   4.641
 1785SOL    HW1 6254   1.993   5.813   4.543
 1785SOL    HW2 6255   1.877   5.812   4.657
 1786SOL     OW 6256   0.381   5.995   1.833
 1786SOL    HW1 6257   0.453   6.009   1.765
 1786SOL    HW2 6258   0.293   6.022   1.794
 1787SOL     OW 6259   2.075   2.570   5.945
 1787SOL    HW1 6260   2.116   2.659   5.923
 1787SOL    HW2 6261   1.976   2.575   5.932
 1788SOL     OW 6262   3.284   3.919   0.802
 1788SOL    HW1 6263   3.260   4.016   0.796
 1788SOL    HW2 6264   3.253   3.873   0.719
 1789SOL     OW 6265   6.050   2.456   2.356
 1789SOL    HW1 6266   6.079   2.521   2.426
 1789SOL    HW2 6267   5.950   2.457   2.348
 1790SOL     OW 6268   2.462   1.721   4.579
 1790SOL    HW1 6269   2.534   1.789   4.567
 1790SOL    HW2 6270   2.502   1.633   4.602
 1791SOL     OW 6271   6.329   0.385   3.519
 1791SOL    HW1 6272   6.412   0.397   3.463
 1791SOL    HW2 6273   6.351   0.405   3.615
 1792SOL     OW 6274   0.118   2.538   6.268
 1792SOL    HW1 6275   0.164   2.485   6.339
 1792SOL    HW2 6276   0.024   2.504   6.257
 1793SOL     OW 6277   0.444   1.283   4.576
 1793SOL    HW1 6278   0.417   1.187   4.570
 1793SOL    HW2 6279   0.378   1.340   4.527
 1794SOL     OW 6280   6.945   1.710   6.632
 1794SOL    HW1 6281   0.003   1.745   6.579
 1794SOL    HW2 6282   6.963   1.724   6.729
 1795SOL     OW 6283   5.475   4.494   0.482
 1795SOL    HW1 6284   5.454   4.542   0.397
 1795SOL    HW2 6285   5.515   4.405   0.461
 1796SOL     OW 6286   6.053   6.860   0.020
 1796SOL    HW1 6287   6.056   6.924   6.963
 1796SOL    HW2 6288   5.975   6.881   0.079
 1797SOL     OW 6289   2.756   6.350   5.264
 1797SOL    HW1 6290   2.745   6.276   5.330
 1797SOL    HW2 6291   2.832   6.329   5.203
 1798SOL     OW 6292   2.337   3.728   5.905
 1798SOL    HW1 6293   2.436   3.734   5.890
 1798SOL    HW2 6294   2.298   3.820   5.903
 1799SOL     OW 6295   3.384   1.606   2.261
 1799SOL    HW1 6296   3.362   1.695   2.222
 1799SOL    HW2 6297   3.331   1.593   2.346
 1800SOL     OW 6298   5.743   2.391   5.565
 1800SOL    HW1 6299   5.652   2.413   5.529
 1800SOL    HW2 6300   5.794   2.476   5.577
 1801SOL     OW 6301   0.382   1.523   2.025
 1801SOL    HW1 6302   0.293   1.547   2.063
 1801SOL    HW2 6303   0.453   1.574   2.073
 1802SOL     OW 6304   6.898   4.583   4.153
 1802SOL    HW1 6305   6.973   4.649   4.154
 1802SOL    HW2 6306   6.847   4.588   4.240
 1803SOL     OW 6307   0.295   6.315   3.938
 1803SOL    HW1 6308   0.205   6.326   3.980
 1803SOL    HW2 6309   0.333   6.406   3.919
 1804SOL     OW 6310   0.801   2.746   6.458
 1804SOL    HW1 6311   0.836   2.831   6.498
 1804SOL    HW2 6312   0.709   2.763   6.422
 1805SOL     OW 6313   6.434   4.855   6.101
 1805SOL    HW1 6314   6.347   4.834   6.055
 1805SOL    HW2 6315   6.504   4.790   6.070
 1806SOL     OW 6316   0.676   1.708   1.598
 1806SOL    HW1 6317   0.632   1.647   1.664
 1806SOL    HW2 6318   0.665   1.803   1.627
 1807SOL     OW 6319   6.624   2.400   1.845
 1807SOL    HW1 6320   6.542   2.358   1.806
 1807SOL    HW2 6321   6.675   2.447   1.772
 1808SOL     OW 6322   6.211   0.733   6.531
 1808SOL    HW1 6323   6.265   0.816   6.534
 1808SOL    HW2 6324   6.150   0.735   6.451
 1809SOL     OW 6325   5.291   0.479   5.184
 1809SOL    HW1 6326   5.223   0.548   5.158
 1809SOL    HW2 6327   5.249   0.413   5.248
 1810SOL     OW 6328   1.059   1.437   4.663
 1810SOL    HW1 6329   1.101   1.348   4.645
 1810SOL    HW2 6330   1.055   1.490   4.579
 1811SOL     OW 6331   3.390   5.853   1.949
 1811SOL    HW1 6332   3.445   5.881   1.870
 1811SOL    HW2 6333   3.436   5.881   2.033
 1812SOL     OW 6334   4.360   0.629   6.541
 1812SOL    HW1 6335   4.294   0.570   6.588
 1812SOL    HW2 6336   4.350   0.723   6.574
 1813SOL     OW 6337   5.341   3.246   2.269
 1813SOL    HW1 6338   5.316   3.269   2.175
 1813SOL    HW2 6339   5.417   3.182   2.268
 1814SOL     OW 6340   6.212   5.423   0.568
 1814SOL    HW1 6341   6.290   5.365   0.543
 1814SOL    HW2 6342   6.149   5.372   0.626
 1815SOL     OW 6343   6.113   5.252   1.347
 1815SOL    HW1 6344   6.133   5.271   1.444
 1815SOL    HW2 6345   6.187   5.288   1.290
 1816SOL     OW 6346   3.677   4.940   4.679
 1816SOL    HW1 6347   3.683   4.973   4.585
 1816SOL    HW2 6348   3.625   5.004   4.735
 1817SOL     OW 6349   6.645   3.039   3.461
 1817SOL    HW1 6350   6.654   2.939   3.457
 1817SOL    HW2 6351   6.698   3.074   3.538
 1818SOL     OW 6352   2.207   1.494   1.146
 1818SOL    HW1 6353   2.229   1.424   1.078
 1818SOL    HW2 6354   2.155   1.452   1.221
 1819SOL     OW 6355   1.190   3.883   0.831
 1819SOL    HW1 6356   1.170   3.819   0.905
 1819SOL    HW2 6357   1.285   3.915   0.840
 1820SOL     OW 6358   3.981   6.966   5.257
 1820SOL    HW1 6359   4.080   6.955   5.258
 1820SOL    HW2 6360   3.952   6.988   5.164
 1821SOL     OW 6361   3.922   1.373   2.683
 1821SOL    HW1 6362   3.982   1.360   2.762
 1821SOL    HW2 6363   3.858   1.296   2.677
 1822SOL     OW 6364   1.782   3.701   4.359
 1822SOL    HW1 6365   1.789   3.801   4.354
 1822SOL    HW2 6366   1.741   3.667   4.274
 1823SOL     OW 6367   3.937   0.238   3.714
 1823SOL    HW1 6368   3.914   0.289   3.798
 1823SOL    HW2 6369   3.888   0.151   3.714
 1824SOL     OW 6370   4.808   2.748   1.897
 1824SOL    HW1 6371   4.797   2.827   1.958
 1824SOL    HW2 6372   4.792   2.777   1.803
 1825SOL     OW 6373   0.875   3.438   0.281
 1825SOL    HW1 6374   0.831   3.525   0.259
 1825SOL    HW2 6375   0.928   3.448   0.365
 1826SOL     OW 6376   3.575   3.309   0.615
 1826SOL    HW1 6377   3.587   3.210   0.622
 1826SOL    HW2 6378   3.616   3.353   0.695
 1827SOL     OW 6379   5.244   4.581   0.612
 1827SOL    HW1 6380   5.265   4.493   0.655
 1827SOL    HW2 6381   5.314   4.602   0.543
 1828SOL     OW 6382   2.834   5.031   4.790
 1828SOL    HW1 6383   2.775   5.055   4.713
 1828SOL    HW2 6384   2.833   5.106   4.857
 1829SOL     OW 6385   1.797   6.220   2.255
 1829SOL    HW1 6386   1.871   6.277   2.218
 1829SOL    HW2 6387   1.789   6.137   2.200
 1830SOL     OW 6388   4.433   1.575   6.564
 1830SOL    HW1 6389   4.499   1.581   6.640
 1830SOL    HW2 6390   4.344   1.546   6.600
 1831SOL     OW 6391   3.512   4.916   0.687
 1831SOL    HW1 6392   3.491   4.820   0.668
 1831SOL    HW2 6393   3.556   4.957   0.607
 1832SOL     OW 6394   1.714   3.269   5.926
 1832SOL    HW1 6395   1.782   3.218   5.978
 1832SOL    HW2 6396   1.750   3.286   5.834
 1833SOL     OW 6397   6.061   1.105   0.216
 1833SOL    HW1 6398   6.155   1.078   0.193
 1833SOL    HW2 6399   6.008   1.023   0.236
 1834SOL     OW 6400   2.072   3.904   6.419
 1834SOL    HW1 6401   2.086   3.806   6.408
 1834SOL    HW2 6402   1.975   3.924   6.431
 1835SOL     OW 6403   6.634   6.855   0.555
 1835SOL    HW1 6404   6.661   6.859   0.651
 1835SOL    HW2 6405   6.715   6.843   0.497
 1836SOL     OW 6406   6.359   2.072   4.197
 1836SOL    HW1 6407   6.385   1.995   4.254
 1836SOL    HW2 6408   6.262   2.094   4.213
 1837SOL     OW 6409   1.174   1.988   0.491
 1837SOL    HW1 6410   1.244   2.012   0.423
 1837SOL    HW2 6411   1.103   1.933   0.447
 1838SOL     OW 6412   5.191   0.330   1.067
 1838SOL    HW1 6413   5.150   0.251   1.023
 1838SOL    HW2 6414   5.218   0.305   1.160
 1839SOL     OW 6415   6.655   1.445   6.544
 1839SOL    HW1 6416   6.585   1.378   6.520
 1839SOL    HW2 6417   6.732   1.437   6.480
 1840SOL     OW 6418   3.296   0.382   5.158
 1840SOL    HW1 6419   3.273   0.458   5.218
 1840SOL    HW2 6420   3.324   0.417   5.069
 1841SOL     OW 6421   2.130   0.475   1.806
 1841SOL    HW1 6422   2.076   0.422   1.870
 1841SOL    HW2 6423   2.214   0.506   1.851
 1842SOL     OW 6424   0.140   5.057   1.392
 1842SOL    HW1 6425   0.192   4.972   1.385
 1842SOL    HW2 6426   0.044   5.036   1.410
 1843SOL     OW 6427   3.332   1.327   6.843
 1843SOL    HW1 6428   3.300   1.416   6.876
 1843SOL    HW2 6429   3.298   1.311   6.751
 1844SOL     OW 6430   4.897   3.389   0.762
 1844SOL    HW1 6431   4.852   3.351   0.681
 1844SOL    HW2 6432   4.910   3.488   0.750
 1845SOL     OW 6433   1.006   2.749   4.570
 1845SOL    HW1 6434   0.972   2.669   4.520
 1845SOL    HW2 6435   0.968   2.832   4.529
 1846SOL     OW 6436   3.814   1.401   2.351
 1846SOL    HW1 6437   3.721   1.392   2.314
 1846SOL    HW2 6438   3.813   1.463   2.429
 1847SOL     OW 6439   2.980   5.891   6.869
 1847SOL    HW1 6440   3.044   5.846   6.932
 1847SOL    HW2 6441   3.011   5.985   6.852
 1848SOL     OW 6442   3.309   5.989   4.544
 1848SOL    HW1 6443   3.373   6.031   4.479
 1848SOL    HW2 6444   3.216   6.014   4.519
 1849SOL     OW 6445   4.720   2.747   2.686
 1849SOL    HW1 6446   4.797   2.798   2.722
 1849SOL    HW2 6447   4.663   2.714   2.761
 1850SOL     OW 6448   4.498   1.808   0.960
 1850SOL    HW1 6449   4.548   1.866   0.895
 1850SOL    HW2 6450   4.498   1.851   1.050
 1851SOL     OW 6451   0.870   5.106   4.461
 1851SOL    HW1 6452   0.953   5.066   4.422
 1851SOL    HW2 6453   0.806   5.033   4.486
 1852SOL     OW 6454   0.321   0.108   3.967
 1852SOL    HW1 6455   0.295   0.088   3.873
 1852SOL    HW2 6456   0.416   0.140   3.969
 1853SOL     OW 6457   0.651   1.979   5.454
 1853SOL    HW1 6458   0.724   1.911   5.445
 1853SOL    HW2 6459   0.689   2.064   5.489
 1854SOL     OW 6460   0.349   6.983   4.177
 1854SOL    HW1 6461   0.266   6.971   4.233
 1854SOL    HW2 6462   0.327   0.016   4.095
 1855SOL     OW 6463   6.746   1.184   4.897
 1855SOL    HW1 6464   6.667   1.123   4.901
 1855SOL    HW2 6465   6.719   1.270   4.854
 1856SOL     OW 6466   5.341   4.097   6.595
 1856SOL    HW1 6467   5.353   4.171   6.529
 1856SOL    HW2 6468   5.356   4.009   6.550
 1857SOL     OW 6469   4.503   1.005   6.465
 1857SOL    HW1 6470   4.535   0.912   6.447
 1857SOL    HW2 6471   4.580   1.069   6.456
 1858SOL     OW 6472   5.677   1.945   4.498
 1858SOL    HW1 6473   5.613   1.914   4.569
 1858SOL    HW2 6474   5.629   2.005   4.434
 1859SOL     OW 6475   6.615   6.608   2.473
 1859SOL    HW1 6476   6.583   6.612   2.378
 1859SOL    HW2 6477   6.639   6.514   2.496
 1860SOL     OW 6478   2.313   0.887   6.679
 1860SOL    HW1 6479   2.305   0.974   6.728
 1860SOL    HW2 6480   2.369   0.824   6.733
 1861SOL     OW 6481   6.571   6.608   5.202
 1861SOL    HW1 6482   6.661   6.651   5.196
 1861SOL    HW2 6483   6.513   6.660   5.265
 1862SOL     OW 6484   3.709   5.524   5.865
 1862SOL    HW1 6485   3.721   5.552   5.770
 1862SOL    HW2 6486   3.786   5.468   5.894
 1863SOL     OW 6487   6.975   1.226   1.603
 1863SOL    HW1 6488   0.002   1.151   1.556
 1863SOL    HW2 6489   6.953   1.298   1.537
 1864SOL     OW 6490   2.013   6.175   2.945
 1864SOL    HW1 6491   1.952   6.173   2.865
 1864SOL    HW2 6492   2.098   6.127   2.923
 1865SOL     OW 6493   6.730   2.564   5.840
 1865SOL    HW1 6494   6.691   2.652   5.866
 1865SOL    HW2 6495   6.657   2.500   5.817
 1866SOL     OW 6496   0.047   4.152   4.846
 1866SOL    HW1 6497   0.100   4.236   4.836
 1866SOL    HW2 6498   7.010   4.158   4.928
 1867SOL     OW 6499   1.183   1.024   1.229
 1867SOL    HW1 6500   1.143   0.954   1.171
 1867SOL    HW2 6501   1.113   1.064   1.288
 1868SOL     OW 6502   5.283   3.833   5.917
 1868SOL    HW1 6503   5.242   3.924   5.909
 1868SOL    HW2 6504   5.225   3.775   5.974
 1869SOL     OW 6505   5.147   0.677   5.534
 1869SOL    HW1 6506   5.239   0.649   5.505
 1869SOL    HW2 6507   5.084   0.668   5.457
 1870SOL     OW 6508   6.027   0.246   5.765
 1870SOL    HW1 6509   5.966   0.285   5.696
 1870SOL    HW2 6510   6.034   0.309   5.843
 1871SOL     OW 6511   2.209   5.306   6.886
 1871SOL    HW1 6512   2.173   5.399   6.890
 1871SOL    HW2 6513   2.275   5.298   6.812
 1872SOL     OW 6514   2.438   3.308   0.991
 1872SOL    HW1 6515   2.412   3.317   1.087
 1872SOL    HW2 6516   2.535   3.286   0.985
 1873SOL     OW 6517   5.969   1.629   2.568
 1873SOL    HW1 6518   5.892   1.570   2.543
 1873SOL    HW2 6519   5.944   1.685   2.647
 1874SOL     OW 6520   1.879   5.231   6.712
 1874SOL    HW1 6521   1.958   5.175   6.687
 1874SOL    HW2 6522   1.804   5.214   6.647
 1875SOL     OW 6523   1.179   6.573   2.447
 1875SOL    HW1 6524   1.102   6.521   2.483
 1875SOL    HW2 6525   1.190   6.658   2.498
 1876SOL     OW 6526   0.870   4.593   6.862
 1876SOL    HW1 6527   0.777   4.564   6.838
 1876SOL    HW2 6528   0.865   4.659   6.937
 1877SOL     OW 6529   0.976   0.853   2.948
 1877SOL    HW1 6530   1.052   0.788   2.949
 1877SOL    HW2 6531   1.006   0.942   2.982
 1878SOL     OW 6532   5.949   3.877   4.170
 1878SOL    HW1 6533   6.015   3.941   4.209
 1878SOL    HW2 6534   5.935   3.801   4.233
 1879SOL     OW 6535   4.003   6.849   5.528
 1879SOL    HW1 6536   3.930   6.785   5.553
 1879SOL    HW2 6537   3.978   6.898   5.445
 1880SOL     OW 6538   1.622   2.835   4.199
 1880SOL    HW1 6539   1.668   2.750   4.225
 1880SOL    HW2 6540   1.646   2.907   4.264
 1881SOL     OW 6541   2.056   1.605   3.379
 1881SOL    HW1 6542   2.141   1.601   3.431
 1881SOL    HW2 6543   1.988   1.659   3.429
 1882SOL     OW 6544   3.580   5.939   0.647
 1882SOL    HW1 6545   3.665   5.989   0.666
 1882SOL    HW2 6546   3.516   5.998   0.598
 1883SOL     OW 6547   2.016   3.078   2.534
 1883SOL    HW1 6548   1.974   2.987   2.537
 1883SOL    HW2 6549   2.036   3.103   2.439
 1884SOL     OW 6550   5.142   1.000   0.006
 1884SOL    HW1 6551   5.073   0.928   0.014
 1884SOL    HW2 6552   5.134   1.044   6.936
 1885SOL     OW 6553   0.548   1.322   0.948
 1885SOL    HW1 6554   0.490   1.300   0.869
 1885SOL    HW2 6555   0.505   1.395   1.001
 1886SOL     OW 6556   3.254   2.903   5.079
 1886SOL    HW1 6557   3.230   2.956   5.160
 1886SOL    HW2 6558   3.183   2.835   5.061
 1887SOL     OW 6559   0.821   6.019   4.792
 1887SOL    HW1 6560   0.894   5.980   4.848
 1887SOL    HW2 6561   0.860   6.085   4.728
 1888SOL     OW 6562   2.165   1.478   5.928
 1888SOL    HW1 6563   2.163   1.571   5.964
 1888SOL    HW2 6564   2.252   1.461   5.883
 1889SOL     OW 6565   3.751   3.349   0.268
 1889SOL    HW1 6566   3.659   3.316   0.249
 1889SOL    HW2 6567   3.750   3.448   0.278
 1890SOL     OW 6568   6.242   6.092   6.478
 1890SOL    HW1 6569   6.202   6.079   6.568
 1890SOL    HW2 6570   6.313   6.022   6.462
 1891SOL     OW 6571   4.912   3.494   6.462
 1891SOL    HW1 6572   4.816   3.507   6.437
 1891SOL    HW2 6573   4.918   3.438   6.544
 1892SOL     OW 6574   4.300   0.312   3.152
 1892SOL    HW1 6575   4.232   0.309   3.225
 1892SOL    HW2 6576   4.296   0.401   3.107
 1893SOL     OW 6577   2.974   1.792   6.829
 1893SOL    HW1 6578   2.965   1.882   6.786
 1893SOL    HW2 6579   2.929   1.793   6.918
 1894SOL     OW 6580   5.131   3.229   0.407
 1894SOL    HW1 6581   5.041   3.272   0.403
 1894SOL    HW2 6582   5.173   3.247   0.497
 1895SOL     OW 6583   4.296   5.718   2.979
 1895SOL    HW1 6584   4.313   5.713   2.880
 1895SOL    HW2 6585   4.312   5.812   3.010
 1896SOL     OW 6586   6.391   1.601   4.880
 1896SOL    HW1 6587   6.303   1.648   4.880
 1896SOL    HW2 6588   6.382   1.515   4.931
 1897SOL     OW 6589   4.945   5.563   3.065
 1897SOL    HW1 6590   4.894   5.646   3.090
 1897SOL    HW2 6591   4.933   5.545   2.967
 1898SOL     OW 6592   5.470   6.466   0.070
 1898SOL    HW1 6593   5.382   6.441   0.029
 1898SOL    HW2 6594   5.522   6.522   0.005
 1899SOL     OW 6595   2.404   2.622   3.613
 1899SOL    HW1 6596   2.461   2.557   3.664
 1899SOL    HW2 6597   2.371   2.693   3.675
 1900SOL     OW 6598   2.827   5.507   1.826
 1900SOL    HW1 6599   2.877   5.422   1.840
 1900SOL    HW2 6600   2.882   5.584   1.860
 1901SOL     OW 6601   1.398   0.788   5.705
 1901SOL    HW1 6602   1.421   0.692   5.693
 1901SOL    HW2 6603   1.445   0.824   5.786
 1902SOL     OW 6604   1.206   2.590   4.384
 1902SOL    HW1 6605   1.110   2.610   4.362
 1902SOL    HW2 6606   1.209   2.519   4.454
 1903SOL     OW 6607   6.545   5.083   3.857
 1903SOL    HW1 6608   6.566   5.132   3.773
 1903SOL    HW2 6609   6.584   5.133   3.935
 1904SOL     OW 6610   0.716   0.702   4.437
 1904SOL    HW1 6611   0.770   0.684   4.354
 1904SOL    HW2 6612   0.723   0.623   4.498
 1905SOL     OW 6613   5.886   3.078   5.446
 1905SOL    HW1 6614   5.791   3.053   5.430
 1905SOL    HW2 6615   5.912   3.054   5.539
 1906SOL     OW 6616   2.444   6.691   5.649
 1906SOL    HW1 6617   2.453   6.786   5.620
 1906SOL    HW2 6618   2.528   6.661   5.694
 1907SOL     OW 6619   4.107   0.057   3.136
 1907SOL    HW1 6620   4.043   7.001   3.157
 1907SOL    HW2 6621   4.119   0.114   3.217
 1908SOL     OW 6622   5.072   4.972   0.661
 1908SOL    HW1 6623   5.129   5.014   0.731
 1908SOL    HW2 6624   4.976   4.975   0.689
 1909SOL     OW 6625   5.080   5.514   3.451
 1909SOL    HW1 6626   5.092   5.417   3.427
 1909SOL    HW2 6627   5.158   5.566   3.416
 1910SOL     OW 6628   4.848   3.903   4.395
 1910SOL    HW1 6629   4.946   3.891   4.381
 1910SOL    HW2 6630   4.815   3.835   4.461
 1911SOL     OW 6631   1.306   2.397   5.634
 1911SOL    HW1 6632   1.378   2.338   5.597
 1911SOL    HW2 6633   1.310   2.395   5.734
 1912SOL     OW 6634   3.105   6.203   2.648
 1912SOL    HW1 6635   3.047   6.217   2.568
 1912SOL    HW2 6636   3.124   6.292   2.691
 1913SOL     OW 6637   2.794   3.900   6.895
 1913SOL    HW1 6638   2.762   3.811   6.928
 1913SOL    HW2 6639   2.819   3.893   6.799
 1914SOL     OW 6640   4.773   1.536   4.898
 1914SOL    HW1 6641   4.675   1.549   4.912
 1914SOL    HW2 6642   4.791   1.514   4.802
 1915SOL     OW 6643   2.871   6.775   5.607
 1915SOL    HW1 6644   2.950   6.835   5.594
 1915SOL    HW2 6645   2.881   6.726   5.694
 1916SOL     OW 6646   3.315   6.404   2.503
 1916SOL    HW1 6647   3.399   6.393   2.449
 1916SOL    HW2 6648   3.276   6.314   2.522
 1917SOL     OW 6649   3.411   4.080   3.735
 1917SOL    HW1 6650   3.498   4.106   3.693
 1917SOL    HW2 6651   3.423   4.073   3.834
 1918SOL     OW 6652   0.496   6.506   5.794
 1918SOL    HW1 6653   0.582   6.481   5.747
 1918SOL    HW2 6654   0.504   6.486   5.891
 1919SOL     OW 6655   5.779   0.731   2.375
 1919SOL    HW1 6656   5.769   0.782   2.289
 1919SOL    HW2 6657   5.869   0.748   2.413
 1920SOL     OW 6658   6.440   6.546   4.740
 1920SOL    HW1 6659   6.488   6.530   4.826
 1920SOL    HW2 6660   6.341   6.534   4.754
 1921SOL     OW 6661   2.370   6.420   0.267
 1921SOL    HW1 6662   2.328   6.337   0.230
 1921SOL    HW2 6663   2.318   6.500   0.236
 1922SOL     OW 6664   3.824   4.458   0.273
 1922SOL    HW1 6665   3.740   4.406   0.257
 1922SOL    HW2 6666   3.829   4.486   0.368
 1923SOL     OW 6667   2.177   2.969   1.440
 1923SOL    HW1 6668   2.186   2.884   1.492
 1923SOL    HW2 6669   2.080   2.990   1.426
 1924SOL     OW 6670   0.671   3.421   1.001
 1924SOL    HW1 6671   0.762   3.451   1.031
 1924SOL    HW2 6672   0.655   3.327   1.031
 1925SOL     OW 6673   3.068   4.510   0.598
 1925SOL    HW1 6674   3.098   4.416   0.579
 1925SOL    HW2 6675   3.019   4.546   0.518
 1926SOL     OW 6676   0.703   0.648   3.858
 1926SOL    HW1 6677   0.688   0.586   3.935
 1926SOL    HW2 6678   0.737   0.735   3.893
 1927SOL     OW 6679   5.328   3.370   1.430
 1927SOL    HW1 6680   5.246   3.314   1.446
 1927SOL    HW2 6681   5.392   3.357   1.507
 1928SOL     OW 6682   0.163   5.526   4.354
 1928SOL    HW1 6683   0.131   5.597   4.417
 1928SOL    HW2 6684   0.262   5.533   4.342
 1929SOL     OW 6685   0.650   5.352   2.920
 1929SOL    HW1 6686   0.608   5.430   2.966
 1929SOL    HW2 6687   0.698   5.382   2.838
 1930SOL     OW 6688   6.902   5.271   6.154
 1930SOL    HW1 6689   6.805   5.247   6.142
 1930SOL    HW2 6690   6.956   5.230   6.080
 1931SOL     OW 6691   1.405   2.051   4.070
 1931SOL    HW1 6692   1.501   2.030   4.093
 1931SOL    HW2 6693   1.350   1.969   4.085
 1932SOL     OW 6694   5.848   3.785   2.819
 1932SOL    HW1 6695   5.856   3.699   2.769
 1932SOL    HW2 6696   5.767   3.782   2.878
 1933SOL     OW 6697   3.059   5.086   0.186
 1933SOL    HW1 6698   3.048   4.987   0.194
 1933SOL    HW2 6699   2.993   5.131   0.245
 1934SOL     OW 6700   0.095   5.846   2.891
 1934SOL    HW1 6701   0.035   5.912   2.845
 1934SOL    HW2 6702   0.171   5.894   2.934
 1935SOL     OW 6703   1.229   1.085   3.347
 1935SOL    HW1 6704   1.273   1.030   3.418
 1935SOL    HW2 6705   1.268   1.063   3.258
 1936SOL     OW 6706   0.392   5.544   5.163
 1936SOL    HW1 6707   0.431   5.565   5.253
 1936SOL    HW2 6708   0.293   5.555   5.166
 1937SOL     OW 6709   4.387   1.596   2.965
 1937SOL    HW1 6710   4.371   1.615   2.868
 1937SOL    HW2 6711   4.447   1.666   3.003
 1938SOL     OW 6712   5.437   0.076   4.254
 1938SOL    HW1 6713   5.523   0.041   4.292
 1938SOL    HW2 6714   5.454   0.119   4.166
 1939SOL     OW 6715   3.080   0.036   4.529
 1939SOL    HW1 6716   3.039   0.084   4.606
 1939SOL    HW2 6717   3.008   0.012   4.463
 1940SOL     OW 6718   6.563   6.256   6.677
 1940SOL    HW1 6719   6.645   6.310   6.697
 1940SOL    HW2 6720   6.574   6.164   6.716
 1941SOL     OW 6721   4.787   5.045   2.207
 1941SOL    HW1 6722   4.811   4.978   2.278
 1941SOL    HW2 6723   4.840   5.026   2.124
 1942SOL     OW 6724   0.320   3.666   2.267
 1942SOL    HW1 6725   0.270   3.647   2.351
 1942SOL    HW2 6726   0.317   3.585   2.208
 1943SOL     OW 6727   2.804   5.297   3.420
 1943SOL    HW1 6728   2.725   5.262   3.369
 1943SOL    HW2 6729   2.842   5.376   3.372
 1944SOL     OW 6730   0.105   6.487   1.657
 1944SOL    HW1 6731   0.118   6.586   1.644
 1944SOL    HW2 6732   0.037   6.472   1.729
 1945SOL     OW 6733   2.848   4.781   2.877
 1945SOL    HW1 6734   2.818   4.763   2.971
 1945SOL    HW2 6735   2.817   4.708   2.817
 1946SOL     OW 6736   1.810   6.936   6.682
 1946SOL    HW1 6737   1.753   6.945   6.763
 1946SOL    HW2 6738   1.823   6.839   6.661
 1947SOL     OW 6739   4.775   0.271   3.039
 1947SOL    HW1 6740   4.682   0.233   3.039
 1947SOL    HW2 6741   4.785   0.332   3.118
 1948SOL     OW 6742   6.007   3.293   5.326
 1948SOL    HW1 6743   5.945   3.325   5.255
 1948SOL    HW2 6744   5.968   3.213   5.371
 1949SOL     OW 6745   4.626   4.242   6.384
 1949SOL    HW1 6746   4.650   4.339   6.391
 1949SOL    HW2 6747   4.527   4.232   6.376
 1950SOL     OW 6748   3.494   5.214   0.612
 1950SOL    HW1 6749   3.454   5.225   0.703
 1950SOL    HW2 6750   3.591   5.189   0.621
 1951SOL     OW 6751   6.125   2.328   0.067
 1951SOL    HW1 6752   6.140   2.272   0.148
 1951SOL    HW2 6753   6.090   2.271   7.012
 1952SOL     OW 6754   3.635   2.943   4.166
 1952SOL    HW1 6755   3.537   2.964   4.169
 1952SOL    HW2 6756   3.655   2.867   4.227
 1953SOL     OW 6757   0.858   2.825   4.328
 1953SOL    HW1 6758   0.853   2.920   4.361
 1953SOL    HW2 6759   0.798   2.815   4.248
 1954SOL     OW 6760   2.462   1.699   4.263
 1954SOL    HW1 6761   2.509   1.746   4.338
 1954SOL    HW2 6762   2.366   1.686   4.286
 1955SOL     OW 6763   6.040   5.612   1.998
 1955SOL    HW1 6764   6.110   5.653   2.056
 1955SOL    HW2 6765   6.081   5.583   1.911
 1956SOL     OW 6766   5.006   6.479   2.731
 1956SOL    HW1 6767   4.926   6.422   2.747
 1956SOL    HW2 6768   5.065   6.437   2.662
 1957SOL     OW 6769   2.155   6.153   4.892
 1957SOL    HW1 6770   2.200   6.077   4.845
 1957SOL    HW2 6771   2.195   6.163   4.984
 1958SOL     OW 6772   3.595   3.587   6.100
 1958SOL    HW1 6773   3.631   3.512   6.044
 1958SOL    HW2 6774   3.671   3.647   6.127
 1959SOL     OW 6775   2.466   0.429   0.931
 1959SOL    HW1 6776   2.397   0.496   0.956
 1959SOL    HW2 6777   2.505   0.453   0.842
 1960SOL     OW 6778   5.169   6.214   2.624
 1960SOL    HW1 6779   5.237   6.241   2.692
 1960SOL    HW2 6780   5.087   6.181   2.669
 1961SOL     OW 6781   5.168   5.266   5.425
 1961SOL    HW1 6782   5.169   5.363   5.449
 1961SOL    HW2 6783   5.087   5.245   5.371
 1962SOL     OW 6784   0.023   6.571   4.465
 1962SOL    HW1 6785   6.985   6.560   4.384
 1962SOL    HW2 6786   0.070   6.659   4.462
 1963SOL     OW 6787   2.563   0.914   3.492
 1963SOL    HW1 6788   2.565   0.829   3.544
 1963SOL    HW2 6789   2.553   0.894   3.395
 1964SOL     OW 6790   5.963   3.303   2.674
 1964SOL    HW1 6791   6.042   3.249   2.645
 1964SOL    HW2 6792   5.882   3.244   2.677
 1965SOL     OW 6793   2.171   6.218   3.319
 1965SOL    HW1 6794   2.150   6.238   3.415
 1965SOL    HW2 6795   2.129   6.131   3.294
 1966SOL     OW 6796   6.291   0.009   6.484
 1966SOL    HW1 6797   6.202   0.050   6.502
 1966SOL    HW2 6798   6.290   6.932   6.511
 1967SOL     OW 6799   5.594   3.346   5.117
 1967SOL    HW1 6800   5.567   3.441   5.103
 1967SOL    HW2 6801   5.673   3.325   5.058
 1968SOL     OW 6802   3.937   5.643   4.938
 1968SOL    HW1 6803   3.961   5.642   4.841
 1968SOL    HW2 6804   3.903   5.733   4.963
 1969SOL     OW 6805   6.574   1.049   1.862
 1969SOL    HW1 6806   6.545   1.051   1.766
 1969SOL    HW2 6807   6.674   1.050   1.867
 1970SOL     OW 6808   1.397   0.342   3.723
 1970SOL    HW1 6809   1.428   0.436   3.704
 1970SOL    HW2 6810   1.434   0.312   3.810
 1971SOL     OW 6811   0.098   1.265   6.262
 1971SOL    HW1 6812   0.076   1.287   6.357
 1971SOL    HW2 6813   0.141   1.175   6.258
 1972SOL     OW 6814   1.192   0.103   3.892
 1972SOL    HW1 6815   1.100   0.085   3.858
 1972SOL    HW2 6816   1.253   0.120   3.815
 1973SOL     OW 6817   2.162   3.412   0.558
 1973SOL    HW1 6818   2.127   3.360   0.635
 1973SOL    HW2 6819   2.259   3.389   0.543
 1974SOL     OW 6820   6.098   6.745   4.748
 1974SOL    HW1 6821   6.144   6.682   4.684
 1974SOL    HW2 6822   6.149   6.748   4.834
 1975SOL     OW 6823   2.488   0.025   2.911
 1975SOL    HW1 6824   2.491   0.005   2.813
 1975SOL    HW2 6825   2.563   6.996   2.957
 1976SOL     OW 6826   6.478   4.031   6.271
 1976SOL    HW1 6827   6.506   4.044   6.366
 1976SOL    HW2 6828   6.417   3.952   6.266
 1977SOL     OW 6829   3.432   2.220   5.280
 1977SOL    HW1 6830   3.357   2.278   5.249
 1977SOL    HW2 6831   3.436   2.220   5.380
 1978SOL     OW 6832   7.004   2.483   5.003
 1978SOL    HW1 6833   6.924   2.534   5.031
 1978SOL    HW2 6834   0.064   2.544   4.999
 1979SOL     OW 6835   6.877   3.903   2.135
 1979SOL    HW1 6836   6.819   3.984   2.123
 1979SOL    HW2 6837   6.827   3.834   2.188
 1980SOL     OW 6838   2.633   0.769   2.445
 1980SOL    HW1 6839   2.591   0.696   2.391
 1980SOL    HW2 6840   2.687   0.728   2.519
 1981SOL     OW 6841   5.167   3.000   2.110
 1981SOL    HW1 6842   5.192   2.915   2.062
 1981SOL    HW2 6843   5.234   3.017   2.182
 1982SOL     OW 6844   0.180   6.588   5.468
 1982SOL    HW1 6845   0.105   6.522   5.469
 1982SOL    HW2 6846   0.189   6.627   5.376
 1983SOL     OW 6847   0.773   4.819   1.547
 1983SOL    HW1 6848   0.698   4.777   1.596
 1983SOL    HW2 6849   0.860   4.785   1.583
 1984SOL     OW 6850   5.233   0.863   5.024
 1984SOL    HW1 6851   5.232   0.871   4.924
 1984SOL    HW2 6852   5.174   0.933   5.063
 1985SOL     OW 6853   1.728   5.841   1.471
 1985SOL    HW1 6854   1.636   5.879   1.460
 1985SOL    HW2 6855   1.733   5.752   1.425
 1986SOL     OW 6856   6.821   2.493   0.299
 1986SOL    HW1 6857   6.817   2.503   0.199
 1986SOL    HW2 6858   6.815   2.584   0.341
 1987SOL     OW 6859   2.385   3.673   6.851
 1987SOL    HW1 6860   2.335   3.610   6.791
 1987SOL    HW2 6861   2.407   3.757   6.800
 1988SOL     OW 6862   4.286   3.176   0.666
 1988SOL    HW1 6863   4.365   3.234   0.645
 1988SOL    HW2 6864   4.317   3.084   0.690
 1989SOL     OW 6865   2.077   2.321   3.753
 1989SOL    HW1 6866   2.062   2.386   3.828
 1989SOL    HW2 6867   2.103   2.371   3.670
 1990SOL     OW 6868   0.820   0.361   3.373
 1990SOL    HW1 6869   0.793   0.303   3.449
 1990SOL    HW2 6870   0.745   0.422   3.349
 1991SOL     OW 6871   4.490   6.214   2.966
 1991SOL    HW1 6872   4.555   6.244   3.036
 1991SOL    HW2 6873   4.405   6.186   3.010
 1992SOL     OW 6874   2.334   5.933   5.726
 1992SOL    HW1 6875   2.264   5.986   5.774
 1992SOL    HW2 6876   2.320   5.836   5.743
 1993SOL     OW 6877   3.145   3.023   3.813
 1993SOL    HW1 6878   3.109   3.116   3.813
 1993SOL    HW2 6879   3.158   2.992   3.718
 1994SOL     OW 6880   6.464   2.833   2.123
 1994SOL    HW1 6881   6.523   2.868   2.195
 1994SOL    HW2 6882   6.519   2.781   2.057
 1995SOL     OW 6883   3.845   2.069   1.466
 1995SOL    HW1 6884   3.835   1.980   1.422
 1995SOL    HW2 6885   3.815   2.062   1.561
 1996SOL     OW 6886   2.372   4.550   5.298
 1996SOL    HW1 6887   2.361   4.451   5.298
 1996SOL    HW2 6888   2.463   4.573   5.263
 1997SOL     OW 6889   5.830   6.315   3.650
 1997SOL    HW1 6890   5.795   6.394   3.599
 1997SOL    HW2 6891   5.873   6.347   3.734
 1998SOL     OW 6892   3.099   4.693   5.281
 1998SOL    HW1 6893   3.026   4.638   5.240
 1998SOL    HW2 6894   3.142   4.750   5.210
 1999SOL     OW 6895   2.229   1.700   1.959
 1999SOL    HW1 6896   2.214   1.603   1.978
 1999SOL    HW2 6897   2.321   1.713   1.923
 2000SOL     OW 6898   3.352   0.891   5.273
 2000SOL    HW1 6899   3.398   0.860   5.356
 2000SOL    HW2 6900   3.391   0.978   5.243
 2001SOL     OW 6901   2.466   2.973   6.801
 2001SOL    HW1 6902   2.380   2.942   6.761
 2001SOL    HW2 6903   2.536   2.903   6.790
 2002SOL     OW 6904   1.581   4.927   4.867
 2002SOL    HW1 6905   1.541   4.839   4.840
 2002SOL    HW2 6906   1.680   4.917   4.879
 2003SOL     OW 6907   6.796   4.154   3.442
 2003SOL    HW1 6908   6.870   4.088   3.431
 2003SOL    HW2 6909   6.743   4.158   3.358
 2004SOL     OW 6910   3.485   0.049   6.971
 2004SOL    HW1 6911   3.478   0.047   6.872
 2004SOL    HW2 6912   3.472   6.976   7.008
 2005SOL     OW 6913   2.516   6.262   4.900
 2005SOL    HW1 6914   2.454   6.243   4.824
 2005SOL    HW2 6915   2.611   6.253   4.869
 2006SOL     OW 6916   4.803   6.600   3.220
 2006SOL    HW1 6917   4.848   6.683   3.186
 2006SOL    HW2 6918   4.775   6.544   3.142
 2007SOL     OW 6919   6.379   5.350   6.778
 2007SOL    HW1 6920   6.290   5.370   6.737
 2007SOL    HW2 6921   6.367   5.334   6.876
 2008SOL     OW 6922   0.222   5.962   5.618
 2008SOL    HW1 6923   0.132   5.992   5.649
 2008SOL    HW2 6924   0.291   5.989   5.685
 2009SOL     OW 6925   1.110   0.268   6.905
 2009SOL    HW1 6926   1.032   0.311   6.951
 2009SOL    HW2 6927   1.158   0.210   6.971
 2010SOL     OW 6928   2.056   1.007   1.203
 2010SOL    HW1 6929   1.970   0.957   1.194
 2010SOL    HW2 6930   2.046   1.078   1.273
 2011SOL     OW 6931   0.162   1.866   4.965
 2011SOL    HW1 6932   0.187   1.923   4.886
 2011SOL    HW2 6933   0.205   1.776   4.956
 2012SOL     OW 6934   6.796   3.005   1.280
 2012SOL    HW1 6935   6.701   3.036   1.271
 2012SOL    HW2 6936   6.843   3.016   1.193
 2013SOL     OW 6937   4.380   2.063   2.077
 2013SOL    HW1 6938   4.313   2.099   2.143
 2013SOL    HW2 6939   4.429   2.139   2.035
 2014SOL     OW 6940   3.527   5.650   3.320
 2014SOL    HW1 6941   3.552   5.567   3.370
 2014SOL    HW2 6942   3.454   5.697   3.370
 2015SOL     OW 6943   3.287   6.286   0.252
 2015SOL    HW1 6944   3.373   6.318   0.291
 2015SOL    HW2 6945   3.247   6.357   0.194
 2016SOL     OW 6946   6.097   5.635   4.031
 2016SOL    HW1 6947   6.140   5.699   4.095
 2016SOL    HW2 6948   6.134   5.650   3.939
 2017SOL     OW 6949   2.391   5.131   2.248
 2017SOL    HW1 6950   2.368   5.160   2.341
 2017SOL    HW2 6951   2.426   5.037   2.251
 2018SOL     OW 6952   0.508   3.574   6.570
 2018SOL    HW1 6953   0.601   3.565   6.605
 2018SOL    HW2 6954   0.511   3.580   6.470
 2019SOL     OW 6955   5.387   1.088   2.840
 2019SOL    HW1 6956   5.350   1.000   2.809
 2019SOL    HW2 6957   5.377   1.095   2.940
 2020SOL     OW 6958   2.322   5.281   3.266
 2020SOL    HW1 6959   2.280   5.342   3.333
 2020SOL    HW2 6960   2.252   5.219   3.230
 2021SOL     OW 6961   2.271   6.347   1.680
 2021SOL    HW1 6962   2.341   6.419   1.679
 2021SOL    HW2 6963   2.315   6.259   1.697
 2022SOL     OW 6964   3.212   5.304   1.008
 2022SOL    HW1 6965   3.118   5.309   1.043
 2022SOL    HW2 6966   3.241   5.208   1.005
 2023SOL     OW 6967   6.606   2.235   6.141
 2023SOL    HW1 6968   6.519   2.204   6.179
 2023SOL    HW2 6969   6.606   2.335   6.136
 2024SOL     OW 6970   6.278   0.499   2.957
 2024SOL    HW1 6971   6.375   0.478   2.967
 2024SOL    HW2 6972   6.267   0.580   2.900
 2025SOL     OW 6973   6.291   0.989   0.923
 2025SOL    HW1 6974   6.347   0.976   1.005
 2025SOL    HW2 6975   6.334   1.057   0.864
 2026SOL     OW 6976   2.281   1.978   4.938
 2026SOL    HW1 6977   2.305   1.955   4.844
 2026SOL    HW2 6978   2.269   2.077   4.946
 2027SOL     OW 6979   6.976   0.592   2.213
 2027SOL    HW1 6980   6.958   0.593   2.115
 2027SOL    HW2 6981   6.965   0.685   2.250
 2028SOL     OW 6982   3.428   4.021   5.967
 2028SOL    HW1 6983   3.525   4.043   5.959
 2028SOL    HW2 6984   3.417   3.943   6.028
 2029SOL     OW 6985   1.934   0.550   0.600
 2029SOL    HW1 6986   1.875   0.557   0.520
 2029SOL    HW2 6987   1.993   0.631   0.605
 2030SOL     OW 6988   1.471   2.508   3.300
 2030SOL    HW1 6989   1.470   2.513   3.200
 2030SOL    HW2 6990   1.520   2.426   3.329
 2031SOL     OW 6991   6.374   0.208   2.757
 2031SOL    HW1 6992   6.358   0.223   2.854
 2031SOL    HW2 6993   6.449   0.142   2.745
 2032SOL     OW 6994   4.517   5.769   2.064
 2032SOL    HW1 6995   4.420   5.764   2.091
 2032SOL    HW2 6996   4.552   5.860   2.088
 2033SOL     OW 6997   7.010   5.214   6.514
 2033SOL    HW1 6998   7.013   5.298   6.460
 2033SOL    HW2 6999   0.083   5.192   6.547
 2034SOL     OW 7000   2.348   5.554   3.734
 2034SOL    HW1 7001   2.411   5.530   3.809
 2034SOL    HW2 7002   2.296   5.635   3.759
 2035SOL     OW 7003   0.481   1.990   2.441
 2035SOL    HW1 7004   0.513   1.957   2.530
 2035SOL    HW2 7005   0.395   1.945   2.418
 2036SOL     OW 7006   0.868   5.247   0.906
 2036SOL    HW1 7007   0.888   5.326   0.848
 2036SOL    HW2 7008   0.947   5.185   0.906
 2037SOL     OW 7009   0.131   1.679   6.884
 2037SOL    HW1 7010   0.113   1.771   6.917
 2037SOL    HW2 7011   0.219   1.647   6.919
 2038SOL     OW 7012   1.359   0.097   4.886
 2038SOL    HW1 7013   1.330   0.006   4.858
 2038SOL    HW2 7014   1.361   0.103   4.986
 2039SOL     OW 7015   0.964   5.753   1.949
 2039SOL    HW1 7016   1.061   5.735   1.932
 2039SOL    HW2 7017   0.922   5.673   1.992
 2040SOL     OW 7018   3.733   3.973   4.445
 2040SOL    HW1 7019   3.820   4.004   4.484
 2040SOL    HW2 7020   3.660   4.035   4.473
 2041SOL     OW 7021   5.125   2.771   6.766
 2041SOL    HW1 7022   5.148   2.768   6.669
 2041SOL    HW2 7023   5.206   2.796   6.819
 2042SOL     OW 7024   3.041   5.844   0.514
 2042SOL    HW1 7025   3.133   5.879   0.495
 2042SOL    HW2 7026   3.024   5.764   0.457
 2043SOL     OW 7027   4.513   5.479   2.243
 2043SOL    HW1 7028   4.500   5.555   2.179
 2043SOL    HW2 7029   4.605   5.485   2.283
 2044SOL     OW 7030   6.537   0.753   1.938
 2044SOL    HW1 7031   6.586   0.836   1.911
 2044SOL    HW2 7032   6.457   0.778   1.993
 2045SOL     OW 7033   3.217   6.350   6.509
 2045SOL    HW1 7034   3.248   6.364   6.603
 2045SOL    HW2 7035   3.275   6.403   6.447
 2046SOL     OW 7036   6.346   6.814   5.798
 2046SOL    HW1 7037   6.298   6.902   5.789
 2046SOL    HW2 7038   6.434   6.828   5.842
 2047SOL     OW 7039   4.933   2.760   0.187
 2047SOL    HW1 7040   4.846   2.719   0.216
 2047SOL    HW2 7041   4.920   2.810   0.101
 2048SOL     OW 7042   4.902   6.053   5.854
 2048SOL    HW1 7043   4.859   6.134   5.813
 2048SOL    HW2 7044   4.949   6.001   5.783
 2049SOL     OW 7045   4.673   5.340   0.127
 2049SOL    HW1 7046   4.702   5.336   0.032
 2049SOL    HW2 7047   4.577   5.369   0.131
 2050SOL     OW 7048   5.815   0.388   3.517
 2050SOL    HW1 7049   5.811   0.473   3.569
 2050SOL    HW2 7050   5.725   0.369   3.477
 2051SOL     OW 7051   2.986   5.409   1.169
 2051SOL    HW1 7052   2.956   5.489   1.118
 2051SOL    HW2 7053   2.936   5.328   1.137
 2052SOL     OW 7054   1.623   2.947   0.792
 2052SOL    HW1 7055   1.620   2.863   0.739
 2052SOL    HW2 7056   1.644   2.925   0.888
 2053SOL     OW 7057   5.074   1.365   0.817
 2053SOL    HW1 7058   5.172   1.372   0.840
 2053SOL    HW2 7059   5.020   1.369   0.901
 2054SOL     OW 7060   0.380   2.994   0.937
 2054SOL    HW1 7061   0.463   2.945   0.962
 2054SOL    HW2 7062   0.399   3.056   0.861
 2055SOL     OW 7063   6.396   1.639   3.984
 2055SOL    HW1 7064   6.453   1.596   3.915
 2055SOL    HW2 7065   6.400   1.738   3.974
 2056SOL     OW 7066   0.954   0.046   2.306
 2056SOL    HW1 7067   0.924   7.002   2.378
 2056SOL    HW2 7068   0.879   0.061   2.242
 2057SOL     OW 7069   5.555   2.838   4.328
 2057SOL    HW1 7070   5.651   2.860   4.346
 2057SOL    HW2 7071   5.539   2.741   4.346
 2058SOL     OW 7072   0.489   1.267   1.485
 2058SOL    HW1 7073   0.439   1.353   1.495
 2058SOL    HW2 7074   0.436   1.193   1.526
 2059SOL     OW 7075   1.306   0.623   6.545
 2059SOL    HW1 7076   1.292   0.550   6.612
 2059SOL    HW2 7077   1.395   0.666   6.560
 2060SOL     OW 7078   0.413   5.340   2.595
 2060SOL    HW1 7079   0.462   5.344   2.508
 2060SOL    HW2 7080   0.476   5.314   2.667
 2061SOL     OW 7081   1.316   0.866   0.902
 2061SOL    HW1 7082   1.297   0.852   0.805
 2061SOL    HW2 7083   1.390   0.932   0.912
 2062SOL     OW 7084   4.170   0.181   4.048
 2062SOL    HW1 7085   4.244   0.234   4.089
 2062SOL    HW2 7086   4.170   0.196   3.949
 2063SOL     OW 7087   2.565   1.771   0.800
 2063SOL    HW1 7088   2.542   1.818   0.715
 2063SOL    HW2 7089   2.489   1.712   0.828
 2064SOL     OW 7090   0.864   2.158   0.589
 2064SOL    HW1 7091   0.901   2.243   0.552
 2064SOL    HW2 7092   0.868   2.161   0.689
 2065SOL     OW 7093   6.832   3.604   2.675
 2065SOL    HW1 7094   6.799   3.520   2.631
 2065SOL    HW2 7095   6.840   3.590   2.773
 2066SOL     OW 7096   1.444   6.056   2.861
 2066SOL    HW1 7097   1.513   6.112   2.906
 2066SOL    HW2 7098   1.449   5.962   2.893
 2067SOL     OW 7099   0.509   6.866   0.329
 2067SOL    HW1 7100   0.417   6.877   0.291
 2067SOL    HW2 7101   0.502   6.840   0.425
 2068SOL     OW 7102   1.658   1.738   4.943
 2068SOL    HW1 7103   1.724   1.712   4.872
 2068SOL    HW2 7104   1.706   1.757   5.028
 2069SOL     OW 7105   1.080   2.005   1.730
 2069SOL    HW1 7106   1.069   2.085   1.788
 2069SOL    HW2 7107   1.000   1.996   1.670
 2070SOL     OW 7108   0.924   0.938   2.637
 2070SOL    HW1 7109   0.861   0.940   2.715
 2070SOL    HW2 7110   0.920   1.025   2.589
 2071SOL     OW 7111   2.517   6.503   5.306
 2071SOL    HW1 7112   2.477   6.477   5.394
 2071SOL    HW2 7113   2.609   6.465   5.299
 2072SOL     OW 7114   5.042   4.689   2.197
 2072SOL    HW1 7115   5.132   4.690   2.153
 2072SOL    HW2 7116   5.001   4.598   2.186
 2073SOL     OW 7117   3.417   6.803   5.249
 2073SOL    HW1 7118   3.377   6.880   5.200
 2073SOL    HW2 7119   3.470   6.747   5.185
 2074SOL     OW 7120   6.002   2.597   2.729
 2074SOL    HW1 7121   6.055   2.607   2.813
 2074SOL    HW2 7122   5.904   2.593   2.752
 2075SOL     OW 7123   3.398   3.133   6.000
 2075SOL    HW1 7124   3.428   3.136   5.904
 2075SOL    HW2 7125   3.444   3.205   6.051
 2076SOL     OW 7126   5.876   0.130   1.012
 2076SOL    HW1 7127   5.850   0.214   1.060
 2076SOL    HW2 7128   5.798   0.095   0.961
 2077SOL     OW 7129   4.593   1.332   3.742
 2077SOL    HW1 7130   4.516   1.376   3.696
 2077SOL    HW2 7131   4.568   1.239   3.768
 2078SOL     OW 7132   3.711   5.855   5.073
 2078SOL    HW1 7133   3.707   5.881   5.169
 2078SOL    HW2 7134   3.748   5.931   5.019
 2079SOL     OW 7135   6.190   0.135   3.673
 2079SOL    HW1 7136   6.107   0.170   3.716
 2079SOL    HW2 7137   6.270   0.169   3.721
 2080SOL     OW 7138   2.964   1.516   3.563
 2080SOL    HW1 7139   3.005   1.604   3.588
 2080SOL    HW2 7140   3.013   1.442   3.610
 2081SOL     OW 7141   1.316   6.427   4.329
 2081SOL    HW1 7142   1.370   6.352   4.367
 2081SOL    HW2 7143   1.290   6.405   4.235
 2082SOL     OW 7144   4.628   0.399   1.866
 2082SOL    HW1 7145   4.627   0.435   1.959
 2082SOL    HW2 7146   4.578   0.313   1.863
 2083SOL     OW 7147   4.031   4.237   5.839
 2083SOL    HW1 7148   4.032   4.139   5.817
 2083SOL    HW2 7149   3.939   4.273   5.829
 2084SOL     OW 7150   0.152   2.513   2.689
 2084SOL    HW1 7151   0.126   2.464   2.772
 2084SOL    HW2 7152   0.218   2.459   2.636
 2085SOL     OW 7153   5.748   6.669   6.383
 2085SOL    HW1 7154   5.696   6.616   6.315
 2085SOL    HW2 7155   5.687   6.734   6.428
 2086SOL     OW 7156   3.626   5.159   0.236
 2086SOL    HW1 7157   3.588   5.104   0.310
 2086SOL    HW2 7158   3.678   5.235   0.275
 2087SOL     OW 7159   6.079   6.208   3.553
 2087SOL    HW1 7160   6.005   6.265   3.589
 2087SOL    HW2 7161   6.069   6.200   3.454
 2088SOL     OW 7162   2.497   6.745   1.471
 2088SOL    HW1 7163   2.428   6.811   1.443
 2088SOL    HW2 7164   2.552   6.719   1.392
 2089SOL     OW 7165   2.353   1.010   0.172
 2089SOL    HW1 7166   2.305   0.964   0.246
 2089SOL    HW2 7167   2.301   0.999   0.087
 2090SOL     OW 7168   3.274   3.720   3.867
 2090SOL    HW1 7169   3.222   3.801   3.840
 2090SOL    HW2 7170   3.241   3.689   3.957
 2091SOL     OW 7171   2.421   4.851   1.172
 2091SOL    HW1 7172   2.415   4.898   1.083
 2091SOL    HW2 7173   2.467   4.763   1.161
 2092SOL     OW 7174   0.297   5.765   1.150
 2092SOL    HW1 7175   0.254   5.681   1.184
 2092SOL    HW2 7176   0.329   5.751   1.056
 2093SOL     OW 7177   1.124   2.832   1.705
 2093SOL    HW1 7178   1.158   2.867   1.617
 2093SOL    HW2 7179   1.121   2.732   1.702
 2094SOL     OW 7180   5.891   0.595   1.749
 2094SOL    HW1 7181   5.837   0.621   1.669
 2094SOL    HW2 7182   5.976   0.552   1.719
 2095SOL     OW 7183   6.394   5.077   4.835
 2095SOL    HW1 7184   6.443   5.039   4.913
 2095SOL    HW2 7185   6.310   5.121   4.866
 2096SOL     OW 7186   5.054   4.144   3.754
 2096SOL    HW1 7187   4.984   4.127   3.823
 2096SOL    HW2 7188   5.108   4.224   3.780
 2097SOL     OW 7189   6.530   3.614   6.388
 2097SOL    HW1 7190   6.553   3.706   6.418
 2097SOL    HW2 7191   6.590   3.548   6.434
 2098SOL     OW 7192   3.982   0.086   4.206
 2098SOL    HW1 7193   3.965   7.009   4.182
 2098SOL    HW2 7194   4.066   0.117   4.162
 2099SOL     OW 7195   2.762   1.757   3.205
 2099SOL    HW1 7196   2.817   1.746   3.122
 2099SOL    HW2 7197   2.708   1.841   3.198
 2100SOL     OW 7198   3.862   4.773   6.772
 2100SOL    HW1 7199   3.938   4.729   6.820
 2100SOL    HW2 7200   3.782   4.777   6.831
 2101SOL     OW 7201   6.334   0.361   2.102
 2101SOL    HW1 7202   6.412   0.330   2.157
 2101SOL    HW2 7203   6.300   0.447   2.139
 2102SOL     OW 7204   6.595   5.130   1.700
 2102SOL    HW1 7205   6.547   5.208   1.660
 2102SOL    HW2 7206   6.690   5.157   1.720
 2103SOL     OW 7207   3.512   3.314   6.136
 2103SOL    HW1 7208   3.595   3.299   6.189
 2103SOL    HW2 7209   3.451   3.377   6.185
 2104SOL     OW 7210   1.477   4.246   5.884
 2104SOL    HW1 7211   1.507   4.193   5.804
 2104SOL    HW2 7212   1.554   4.259   5.946
 2105SOL     OW 7213   5.560   6.354   1.845
 2105SOL    HW1 7214   5.507   6.433   1.876
 2105SOL    HW2 7215   5.507   6.304   1.776
 2106SOL     OW 7216   5.761   5.758   6.563
 2106SOL    HW1 7217   5.789   5.823   6.633
 2106SOL    HW2 7218   5.817   5.773   6.481
 2107SOL     OW 7219   2.615   5.181   0.614
 2107SOL    HW1 7220   2.547   5.162   0.543
 2107SOL    HW2 7221   2.605   5.114   0.688
 2108SOL     OW 7222   5.766   4.106   6.638
 2108SOL    HW1 7223   5.753   4.193   6.591
 2108SOL    HW2 7224   5.856   4.069   6.616
 2109SOL     OW 7225   5.527   5.582   2.516
 2109SOL    HW1 7226   5.600   5.643   2.546
 2109SOL    HW2 7227   5.440   5.612   2.555
 2110SOL     OW 7228   1.560   4.855   5.223
 2110SOL    HW1 7229   1.486   4.855   5.157
 2110SOL    HW2 7230   1.641   4.812   5.183
 2111SOL     OW 7231   1.901   2.559   0.119
 2111SOL    HW1 7232   1.890   2.630   0.049
 2111SOL    HW2 7233   1.936   2.476   0.078
 2112SOL     OW 7234   5.290   3.725   0.416
 2112SOL    HW1 7235   5.389   3.711   0.406
 2112SOL    HW2 7236   5.271   3.757   0.509
 2113SOL     OW 7237   6.466   1.957   2.986
 2113SOL    HW1 7238   6.499   1.953   2.892
 2113SOL    HW2 7239   6.468   1.865   3.026
 2114SOL     OW 7240   1.660   3.463   6.996
 2114SOL    HW1 7241   1.636   3.515   6.914
 2114SOL    HW2 7242   1.605   3.495   0.054
 2115SOL     OW 7243   3.535   5.600   1.684
 2115SOL    HW1 7244   3.562   5.640   1.597
 2115SOL    HW2 7245   3.612   5.607   1.749
 2116SOL     OW 7246   0.959   3.761   4.322
 2116SOL    HW1 7247   0.894   3.788   4.251
 2116SOL    HW2 7248   0.970   3.836   4.388
 2117SOL     OW 7249   6.851   5.771   6.142
 2117SOL    HW1 7250   6.852   5.862   6.102
 2117SOL    HW2 7251   6.760   5.753   6.181
 2118SOL     OW 7252   0.177   3.512   2.064
 2118SOL    HW1 7253   0.222   3.428   2.096
 2118SOL    HW2 7254   0.079   3.496   2.056
 2119SOL     OW 7255   4.132   6.224   0.541
 2119SOL    HW1 7256   4.085   6.252   0.624
 2119SOL    HW2 7257   4.141   6.125   0.539
 2120SOL     OW 7258   6.359   4.318   2.055
 2120SOL    HW1 7259   6.269   4.274   2.048
 2120SOL    HW2 7260   6.411   4.299   1.971
 2121SOL     OW 7261   0.709   3.774   4.707
 2121SOL    HW1 7262   0.807   3.786   4.695
 2121SOL    HW2 7263   0.686   3.781   4.804
 2122SOL     OW 7264   4.192   5.171   5.684
 2122SOL    HW1 7265   4.218   5.136   5.594
 2122SOL    HW2 7266   4.268   5.160   5.748
 2123SOL     OW 7267   4.871   4.588   3.528
 2123SOL    HW1 7268   4.918   4.519   3.472
 2123SOL    HW2 7269   4.846   4.666   3.471
 2124SOL     OW 7270   2.900   1.898   1.549
 2124SOL    HW1 7271   2.804   1.876   1.528
 2124SOL    HW2 7272   2.938   1.952   1.474
 2125SOL     OW 7273   5.145   6.032   0.632
 2125SOL    HW1 7274   5.061   6.023   0.579
 2125SOL    HW2 7275   5.128   6.001   0.726
 2126SOL     OW 7276   3.166   1.065   1.682
 2126SOL    HW1 7277   3.149   1.088   1.586
 2126SOL    HW2 7278   3.189   1.148   1.733
 2127SOL     OW 7279   5.455   3.092   5.040
 2127SOL    HW1 7280   5.497   3.176   5.074
 2127SOL    HW2 7281   5.401   3.113   4.958
 2128SOL     OW 7282   0.227   3.781   4.522
 2128SOL    HW1 7283   0.222   3.874   4.558
 2128SOL    HW2 7284   0.293   3.729   4.576
 2129SOL     OW 7285   4.406   2.383   5.270
 2129SOL    HW1 7286   4.467   2.312   5.234
 2129SOL    HW2 7287   4.455   2.470   5.277
 2130SOL     OW 7288   5.328   0.731   3.594
 2130SOL    HW1 7289   5.282   0.646   3.569
 2130SOL    HW2 7290   5.286   0.808   3.546
 2131SOL     OW 7291   5.185   1.696   6.357
 2131SOL    HW1 7292   5.271   1.714   6.404
 2131SOL    HW2 7293   5.124   1.774   6.369
 2132SOL     OW 7294   1.790   3.723   0.970
 2132SOL    HW1 7295   1.721   3.722   0.897
 2132SOL    HW2 7296   1.803   3.630   1.005
 2133SOL     OW 7297   2.425   4.225   6.160
 2133SOL    HW1 7298   2.387   4.135   6.180
 2133SOL    HW2 7299   2.377   4.294   6.215
 2134SOL     OW 7300   7.001   6.459   0.814
 2134SOL    HW1 7301   0.069   6.469   0.766
 2134SOL    HW2 7302   6.941   6.398   0.763
 2135SOL     OW 7303   6.728   4.765   5.250
 2135SOL    HW1 7304   6.747   4.698   5.321
 2135SOL    HW2 7305   6.806   4.827   5.241
 2136SOL     OW 7306   1.543   5.439   6.971
 2136SOL    HW1 7307   1.504   5.531   6.979
 2136SOL    HW2 7308   1.474   5.371   6.995
 2137SOL     OW 7309   1.186   6.417   3.602
 2137SOL    HW1 7310   1.125   6.485   3.641
 2137SOL    HW2 7311   1.215   6.353   3.673
 2138SOL     OW 7312   5.216   2.125   2.198
 2138SOL    HW1 7313   5.294   2.078   2.241
 2138SOL    HW2 7314   5.223   2.223   2.216
 2139SOL     OW 7315   2.698   6.527   5.703
 2139SOL    HW1 7316   2.648   6.441   5.708
 2139SOL    HW2 7317   2.767   6.530   5.775
 2140SOL     OW 7318   2.582   1.738   3.809
 2140SOL    HW1 7319   2.567   1.803   3.884
 2140SOL    HW2 7320   2.595   1.788   3.724
 2141SOL     OW 7321   6.672   3.446   3.502
 2141SOL    HW1 7322   6.710   3.495   3.424
 2141SOL    HW2 7323   6.643   3.355   3.474
 2142SOL     OW 7324   1.846   2.507   2.370
 2142SOL    HW1 7325   1.792   2.441   2.422
 2142SOL    HW2 7326   1.830   2.495   2.272
 2143SOL     OW 7327   0.169   5.495   5.868
 2143SOL    HW1 7328   0.088   5.512   5.925
 2143SOL    HW2 7329   0.229   5.431   5.915
 2144SOL     OW 7330   6.433   4.752   2.981
 2144SOL    HW1 7331   6.381   4.673   2.949
 2144SOL    HW2 7332   6.449   4.815   2.905
 2145SOL     OW 7333   4.125   1.568   2.966
 2145SOL    HW1 7334   4.097   1.638   2.900
 2145SOL    HW2 7335   4.223   1.574   2.982
 2146SOL     OW 7336   2.114   2.103   6.384
 2146SOL    HW1 7337   2.210   2.108   6.414
 2146SOL    HW2 7338   2.063   2.177   6.428
 2147SOL     OW 7339   5.821   6.414   4.842
 2147SOL    HW1 7340   5.851   6.380   4.753
 2147SOL    HW2 7341   5.822   6.339   4.908
 2148SOL     OW 7342   0.306   2.275   4.955
 2148SOL    HW1 7343   0.289   2.288   5.053
 2148SOL    HW2 7344   0.224   2.237   4.912
 2149SOL     OW 7345   0.928   6.238   6.997
 2149SOL    HW1 7346   0.942   6.152   0.027
 2149SOL    HW2 7347   0.903   6.309   0.043
 2150SOL     OW 7348   1.799   3.156   0.705
 2150SOL    HW1 7349   1.754   3.239   0.737
 2150SOL    HW2 7350   1.747   3.076   0.735
 2151SOL     OW 7351   0.668   4.671   6.623
 2151SOL    HW1 7352   0.672   4.762   6.663
 2151SOL    HW2 7353   0.760   4.639   6.602
 2152SOL     OW 7354   5.090   6.195   3.762
 2152SOL    HW1 7355   5.088   6.095   3.763
 2152SOL    HW2 7356   5.180   6.227   3.793
 2153SOL     OW 7357   5.219   0.069   3.738
 2153SOL    HW1 7358   5.176   0.158   3.747
 2153SOL    HW2 7359   5.177   0.004   3.802
 2154SOL     OW 7360   2.268   6.641   2.462
 2154SOL    HW1 7361   2.328   6.684   2.530
 2154SOL    HW2 7362   2.196   6.589   2.508
 2155SOL     OW 7363   4.132   1.117   0.987
 2155SOL    HW1 7364   4.100   1.207   0.958
 2155SOL    HW2 7365   4.217   1.126   1.040
 2156SOL     OW 7366   6.093   2.350   5.010
 2156SOL    HW1 7367   6.107   2.332   5.108
 2156SOL    HW2 7368   6.005   2.395   4.997
 2157SOL     OW 7369   3.969   6.348   4.751
 2157SOL    HW1 7370   3.958   6.259   4.795
 2157SOL    HW2 7371   3.918   6.349   4.666
 2158SOL     OW 7372   2.831   6.887   0.839
 2158SOL    HW1 7373   2.770   6.943   0.896
 2158SOL    HW2 7374   2.796   6.794   0.833
 2159SOL     OW 7375   0.560   0.606   5.835
 2159SOL    HW1 7376   0.609   0.681   5.881
 2159SOL    HW2 7377   0.469   0.637   5.810
 2160SOL     OW 7378   5.219   6.949   6.829
 2160SOL    HW1 7379   5.128   6.922   6.861
 2160SOL    HW2 7380   5.229   6.926   6.732
 2161SOL     OW 7381   1.531   4.019   0.630
 2161SOL    HW1 7382   1.487   4.023   0.540
 2161SOL    HW2 7383   1.618   4.067   0.626
 2162SOL     OW 7384   2.135   0.204   0.986
 2162SOL    HW1 7385   2.123   0.252   0.899
 2162SOL    HW2 7386   2.047   0.197   1.033
 2163SOL     OW 7387   1.557   3.068   3.382
 2163SOL    HW1 7388   1.459   3.080   3.368
 2163SOL    HW2 7389   1.586   2.981   3.342
 2164SOL     OW 7390   2.090   3.563   2.268
 2164SOL    HW1 7391   2.119   3.550   2.173
 2164SOL    HW2 7392   2.119   3.484   2.322
 2165SOL     OW 7393   6.476   1.247   4.705
 2165SOL    HW1 7394   6.478   1.183   4.782
 2165SOL    HW2 7395   6.512   1.336   4.734
 2166SOL     OW 7396   0.160   2.992   1.792
 2166SOL    HW1 7397   0.095   2.945   1.732
 2166SOL    HW2 7398   0.242   3.016   1.741
 2167SOL     OW 7399   1.524   2.314   3.055
 2167SOL    HW1 7400   1.526   2.261   3.140
 2167SOL    HW2 7401   1.618   2.340   3.030
 2168SOL     OW 7402   2.094   2.135   3.421
 2168SOL    HW1 7403   2.096   2.083   3.507
 2168SOL    HW2 7404   2.107   2.073   3.344
 2169SOL     OW 7405   6.569   0.167   1.248
 2169SOL    HW1 7406   6.621   0.245   1.282
 2169SOL    HW2 7407   6.581   0.159   1.149
 2170SOL     OW 7408   1.444   3.474   6.483
 2170SOL    HW1 7409   1.378   3.478   6.408
 2170SOL    HW2 7410   1.519   3.538   6.464
 2171SOL     OW 7411   6.898   5.939   0.987
 2171SOL    HW1 7412   6.814   5.960   0.937
 2171SOL    HW2 7413   6.899   5.990   1.073
 2172SOL     OW 7414   2.762   2.318   4.903
 2172SOL    HW1 7415   2.723   2.408   4.921
 2172SOL    HW2 7416   2.732   2.286   4.813
 2173SOL     OW 7417   4.653   0.650   4.745
 2173SOL    HW1 7418   4.740   0.606   4.722
 2173SOL    HW2 7419   4.592   0.584   4.787
 2174SOL     OW 7420   5.372   0.481   6.254
 2174SOL    HW1 7421   5.419   0.407   6.206
 2174SOL    HW2 7422   5.377   0.466   6.352
 2175SOL     OW 7423   3.440   3.557   5.750
 2175SOL    HW1 7424   3.435   3.617   5.670
 2175SOL    HW2 7425   3.474   3.609   5.829
 2176SOL     OW 7426   5.909   2.171   3.285
 2176SOL    HW1 7427   5.813   2.194   3.273
 2176SOL    HW2 7428   5.941   2.206   3.373
 2177SOL     OW 7429   0.994   1.040   4.872
 2177SOL    HW1 7430   0.931   0.985   4.816
 2177SOL    HW2 7431   0.944   1.115   4.914
 2178SOL     OW 7432   1.608   2.657   2.615
 2178SOL    HW1 7433   1.539   2.657   2.687
 2178SOL    HW2 7434   1.606   2.570   2.566
 2179SOL     OW 7435   1.265   3.788   0.044
 2179SOL    HW1 7436   1.257   3.885   0.022
 2179SOL    HW2 7437   1.266   3.734   6.979
 2180SOL     OW 7438   0.479   5.642   2.540
 2180SOL    HW1 7439   0.511   5.606   2.452
 2180SOL    HW2 7440   0.405   5.707   2.525
 2181SOL     OW 7441   4.375   4.913   4.416
 2181SOL    HW1 7442   4.406   4.832   4.467
 2181SOL    HW2 7443   4.327   4.883   4.334
 2182SOL     OW 7444   6.659   6.326   1.266
 2182SOL    HW1 7445   6.571   6.280   1.276
 2182SOL    HW2 7446   6.658   6.381   1.182
 2183SOL     OW 7447   3.416   3.121   6.681
 2183SOL    HW1 7448   3.324   3.157   6.693
 2183SOL    HW2 7449   3.427   3.037   6.735
 2184SOL     OW 7450   6.252   1.587   0.466
 2184SOL    HW1 7451   6.280   1.534   0.386
 2184SOL    HW2 7452   6.174   1.543   0.509
 2185SOL     OW 7453   0.930   1.269   6.083
 2185SOL    HW1 7454   0.941   1.343   6.149
 2185SOL    HW2 7455   0.839   1.229   6.092
 2186SOL     OW 7456   6.461   6.250   5.350
 2186SOL    HW1 7457   6.478   6.344   5.322
 2186SOL    HW2 7458   6.503   6.188   5.283
 2187SOL     OW 7459   5.606   4.557   1.651
 2187SOL    HW1 7460   5.636   4.584   1.743
 2187SOL    HW2 7461   5.637   4.625   1.585
 2188SOL     OW 7462   3.065   0.989   0.900
 2188SOL    HW1 7463   3.042   1.033   0.986
 2188SOL    HW2 7464   3.126   1.048   0.847
 2189SOL     OW 7465   1.944   0.604   2.567
 2189SOL    HW1 7466   1.944   0.576   2.471
 2189SOL    HW2 7467   1.850   0.600   2.602
 2190SOL     OW 7468   6.402   4.583   2.181
 2190SOL    HW1 7469   6.414   4.629   2.094
 2190SOL    HW2 7470   6.381   4.486   2.166
 2191SOL     OW 7471   3.590   0.386   6.807
 2191SOL    HW1 7472   3.563   0.481   6.790
 2191SOL    HW2 7473   3.631   0.348   6.724
 2192SOL     OW 7474   4.915   1.785   2.078
 2192SOL    HW1 7475   4.924   1.877   2.040
 2192SOL    HW2 7476   4.877   1.723   2.009
 2193SOL     OW 7477   2.208   0.606   4.831
 2193SOL    HW1 7478   2.134   0.672   4.812
 2193SOL    HW2 7479   2.276   0.649   4.889
 2194SOL     OW 7480   0.176   4.283   5.185
 2194SOL    HW1 7481   0.136   4.238   5.265
 2194SOL    HW2 7482   0.250   4.227   5.148
 2195SOL     OW 7483   6.820   3.831   4.999
 2195SOL    HW1 7484   6.815   3.784   4.910
 2195SOL    HW2 7485   6.844   3.927   4.985
 2196SOL     OW 7486   4.197   0.421   6.696
 2196SOL    HW1 7487   4.100   0.444   6.699
 2196SOL    HW2 7488   4.208   0.323   6.682
 2197SOL     OW 7489   3.286   5.376   6.518
 2197SOL    HW1 7490   3.333   5.459   6.490
 2197SOL    HW2 7491   3.232   5.395   6.601
 2198SOL     OW 7492   1.160   1.117   6.887
 2198SOL    HW1 7493   1.239   1.155   6.840
 2198SOL    HW2 7494   1.077   1.136   6.833
 2199SOL     OW 7495   4.383   6.768   3.764
 2199SOL    HW1 7496   4.301   6.808   3.723
 2199SOL    HW2 7497   4.435   6.840   3.810
 2200SOL     OW 7498   2.146   2.683   4.217
 2200SOL    HW1 7499   2.240   2.686   4.182
 2200SOL    HW2 7500   2.125   2.590   4.246
 2201SOL     OW 7501   5.516   4.109   4.841
 2201SOL    HW1 7502   5.520   4.022   4.791
 2201SOL    HW2 7503   5.554   4.096   4.933
 2202SOL     OW 7504   3.448   6.541   3.391
 2202SOL    HW1 7505   3.389   6.471   3.431
 2202SOL    HW2 7506   3.536   6.541   3.438
 2203SOL     OW 7507   2.371   5.677   1.110
 2203SOL    HW1 7508   2.369   5.737   1.030
 2203SOL    HW2 7509   2.335   5.587   1.084
 2204SOL     OW 7510   5.746   2.523   1.049
 2204SOL    HW1 7511   5.752   2.472   1.135
 2204SOL    HW2 7512   5.657   2.507   1.006
 2205SOL     OW 7513   5.720   5.915   0.982
 2205SOL    HW1 7514   5.753   5.860   1.059
 2205SOL    HW2 7515   5.761   5.881   0.897
 2206SOL     OW 7516   3.598   2.571   5.753
 2206SOL    HW1 7517   3.637   2.662   5.766
 2206SOL    HW2 7518   3.610   2.543   5.658
 2207SOL     OW 7519   4.749   5.731   1.882
 2207SOL    HW1 7520   4.650   5.739   1.896
 2207SOL    HW2 7521   4.777   5.789   1.806
 2208SOL     OW 7522   0.053   6.483   2.940
 2208SOL    HW1 7523   6.998   6.497   3.005
 2208SOL    HW2 7524   0.084   6.572   2.905
 2209SOL     OW 7525   2.859   5.509   3.226
 2209SOL    HW1 7526   2.882   5.481   3.133
 2209SOL    HW2 7527   2.915   5.587   3.253
 2210SOL     OW 7528   5.300   6.987   1.590
 2210SOL    HW1 7529   5.222   6.976   1.651
 2210SOL    HW2 7530   5.321   6.899   1.547
 2211SOL     OW 7531   1.604   2.254   1.163
 2211SOL    HW1 7532   1.631   2.230   1.256
 2211SOL    HW2 7533   1.621   2.351   1.148
 2212SOL     OW 7534   2.849   5.938   6.267
 2212SOL    HW1 7535   2.837   5.990   6.182
 2212SOL    HW2 7536   2.763   5.894   6.292
 2213SOL     OW 7537   3.564   1.619   4.538
 2213SOL    HW1 7538   3.517   1.703   4.509
 2213SOL    HW2 7539   3.612   1.636   4.624
 2214SOL     OW 7540   4.107   4.262   6.469
 2214SOL    HW1 7541   4.103   4.170   6.509
 2214SOL    HW2 7542   4.157   4.323   6.530
 2215SOL     OW 7543   5.194   5.923   0.318
 2215SOL    HW1 7544   5.144   5.911   0.404
 2215SOL    HW2 7545   5.167   5.853   0.253
 2216SOL     OW 7546   0.638   5.951   0.118
 2216SOL    HW1 7547   0.580   6.011   0.063
 2216SOL    HW2 7548   0.730   5.950   0.079
 2217SOL     OW 7549   3.935   1.446   3.737
 2217SOL    HW1 7550   3.857   1.448   3.801
 2217SOL    HW2 7551   4.016   1.411   3.785
 2218SOL     OW 7552   6.171   5.474   5.337
 2218SOL    HW1 7553   6.260   5.519   5.350
 2218SOL    HW2 7554   6.100   5.544   5.328
 2219SOL     OW 7555   5.419   1.881   0.274
 2219SOL    HW1 7556   5.412   1.879   0.174
 2219SOL    HW2 7557   5.458   1.795   0.306
 2220SOL     OW 7558   6.653   6.115   4.413
 2220SOL    HW1 7559   6.564   6.080   4.443
 2220SOL    HW2 7560   6.642   6.163   4.326
 2221SOL     OW 7561   5.771   0.765   4.364
 2221SOL    HW1 7562   5.715   0.829   4.312
 2221SOL    HW2 7563   5.797   0.688   4.306
 2222SOL     OW 7564   3.495   0.809   3.279
 2222SOL    HW1 7565   3.396   0.801   3.295
 2222SOL    HW2 7566   3.514   0.895   3.233
 2223SOL     OW 7567   1.085   0.217   5.244
 2223SOL    HW1 7568   1.097   0.119   5.234
 2223SOL    HW2 7569   1.026   0.252   5.171
 2224SOL     OW 7570   5.415   4.480   6.798
 2224SOL    HW1 7571   5.407   4.416   6.721
 2224SOL    HW2 7572   5.356   4.451   6.873
 2225SOL     OW 7573   6.304   6.281   1.131
 2225SOL    HW1 7574   6.282   6.366   1.082
 2225SOL    HW2 7575   6.308   6.299   1.229
 2226SOL     OW 7576   2.436   3.604   0.154
 2226SOL    HW1 7577   2.472   3.518   0.190
 2226SOL    HW2 7578   2.505   3.676   0.162
 2227SOL     OW 7579   3.875   2.157   2.168
 2227SOL    HW1 7580   3.792   2.168   2.112
 2227SOL    HW2 7581   3.849   2.137   2.262
 2228SOL     OW 7582   5.508   6.109   6.557
 2228SOL    HW1 7583   5.441   6.148   6.619
 2228SOL    HW2 7584   5.544   6.024   6.595
 2229SOL     OW 7585   3.110   3.089   4.087
 2229SOL    HW1 7586   3.060   3.051   4.010
 2229SOL    HW2 7587   3.208   3.086   4.069
 2230SOL     OW 7588   6.290   0.405   6.110
 2230SOL    HW1 7589   6.362   0.460   6.068
 2230SOL    HW2 7590   6.322   0.369   6.198
 2231SOL     OW 7591   1.727   0.409   6.123
 2231SOL    HW1 7592   1.731   0.508   6.114
 2231SOL    HW2 7593   1.637   0.376   6.096
 2232SOL     OW 7594   1.895   1.081   6.214
 2232SOL    HW1 7595   1.942   1.142   6.278
 2232SOL    HW2 7596   1.893   0.989   6.252
 2233SOL     OW 7597   3.024   4.774   1.242
 2233SOL    HW1 7598   3.013   4.842   1.314
 2233SOL    HW2 7599   3.064   4.816   1.161
 2234SOL     OW 7600   5.071   2.199   1.539
 2234SOL    HW1 7601   5.051   2.167   1.447
 2234SOL    HW2 7602   5.046   2.128   1.605
 2235SOL     OW 7603   0.755   2.060   2.526
 2235SOL    HW1 7604   0.771   2.061   2.428
 2235SOL    HW2 7605   0.816   2.126   2.570
 2236SOL     OW 7606   2.556   5.311   5.511
 2236SOL    HW1 7607   2.611   5.250   5.454
 2236SOL    HW2 7608   2.495   5.364   5.453
 2237SOL     OW 7609   6.687   6.296   6.184
 2237SOL    HW1 7610   6.599   6.280   6.138
 2237SOL    HW2 7611   6.697   6.232   6.260
 2238SOL     OW 7612   6.075   3.602   2.451
 2238SOL    HW1 7613   6.033   3.579   2.539
 2238SOL    HW2 7614   6.024   3.678   2.409
 2239SOL     OW 7615   4.258   0.137   2.792
 2239SOL    HW1 7616   4.345   0.184   2.778
 2239SOL    HW2 7617   4.210   0.179   2.869
 2240SOL     OW 7618   4.778   5.489   2.389
 2240SOL    HW1 7619   4.774   5.486   2.489
 2240SOL    HW2 7620   4.860   5.539   2.361
 2241SOL     OW 7621   0.779   1.790   2.551
 2241SOL    HW1 7622   0.783   1.890   2.553
 2241SOL    HW2 7623   0.775   1.755   2.645
 2242SOL     OW 7624   5.443   2.340   4.489
 2242SOL    HW1 7625   5.380   2.350   4.566
 2242SOL    HW2 7626   5.512   2.413   4.492
 2243SOL     OW 7627   2.622   0.005   0.507
 2243SOL    HW1 7628   2.714   0.004   0.547
 2243SOL    HW2 7629   2.554   0.020   0.579
 2244SOL     OW 7630   2.758   1.660   1.289
 2244SOL    HW1 7631   2.701   1.727   1.242
 2244SOL    HW2 7632   2.844   1.648   1.241
 2245SOL     OW 7633   0.468   0.465   0.096
 2245SOL    HW1 7634   0.520   0.499   0.017
 2245SOL    HW2 7635   0.530   0.454   0.174
 2246SOL     OW 7636   4.456   1.707   5.623
 2246SOL    HW1 7637   4.379   1.756   5.584
 2246SOL    HW2 7638   4.524   1.773   5.656
 2247SOL     OW 7639   2.846   3.522   1.997
 2247SOL    HW1 7640   2.874   3.429   1.971
 2247SOL    HW2 7641   2.761   3.517   2.051
 2248SOL     OW 7642   5.211   3.588   4.815
 2248SOL    HW1 7643   5.174   3.679   4.799
 2248SOL    HW2 7644   5.266   3.560   4.737
 2249SOL     OW 7645   2.343   6.167   3.783
 2249SOL    HW1 7646   2.439   6.182   3.759
 2249SOL    HW2 7647   2.338   6.115   3.868
 2250SOL     OW 7648   4.202   6.015   6.152
 2250SOL    HW1 7649   4.170   6.110   6.157
 2250SOL    HW2 7650   4.207   5.987   6.056
 2251SOL     OW 7651   4.725   6.440   4.902
 2251SOL    HW1 7652   4.710   6.532   4.937
 2251SOL    HW2 7653   4.642   6.385   4.917
 2252SOL     OW 7654   3.661   0.893   2.518
 2252SOL    HW1 7655   3.580   0.843   2.550
 2252SOL    HW2 7656   3.632   0.979   2.475
 2253SOL     OW 7657   0.695   3.736   1.683
 2253SOL    HW1 7658   0.712   3.690   1.596
 2253SOL    HW2 7659   0.644   3.676   1.744
 2254SOL     OW 7660   3.672   2.905   2.792
 2254SOL    HW1 7661   3.703   2.876   2.882
 2254SOL    HW2 7662   3.575   2.884   2.781
 2255SOL     OW 7663   1.197   2.376   6.580
 2255SOL    HW1 7664   1.259   2.322   6.637
 2255SOL    HW2 7665   1.159   2.319   6.507
 2256SOL     OW 7666   5.596   0.486   1.284
 2256SOL    HW1 7667   5.502   0.466   1.256
 2256SOL    HW2 7668   5.659   0.426   1.234
 2257SOL     OW 7669   0.193   0.197   5.352
 2257SOL    HW1 7670   0.155   0.161   5.437
 2257SOL    HW2 7671   0.293   0.192   5.354
 2258SOL     OW 7672   2.380   6.934   4.362
 2258SOL    HW1 7673   2.411   6.950   4.268
 2258SOL    HW2 7674   2.299   6.990   4.380
 2259SOL     OW 7675   6.077   1.218   4.391
 2259SOL    HW1 7676   6.037   1.232   4.301
 2259SOL    HW2 7677   6.043   1.133   4.430
 2260SOL     OW 7678   1.157   3.944   0.569
 2260SOL    HW1 7679   1.148   3.908   0.662
 2260SOL    HW2 7680   1.187   4.039   0.573
 2261SOL     OW 7681   5.338   4.597   6.370
 2261SOL    HW1 7682   5.400   4.662   6.413
 2261SOL    HW2 7683   5.339   4.612   6.271
 2262SOL     OW 7684   6.642   6.775   4.224
 2262SOL    HW1 7685   6.686   6.807   4.140
 2262SOL    HW2 7686   6.575   6.843   4.254
 2263SOL     OW 7687   1.895   4.218   6.955
 2263SOL    HW1 7688   1.825   4.289   6.963
 2263SOL    HW2 7689   1.868   4.139   7.010
 2264SOL     OW 7690   2.168   0.216   5.722
 2264SOL    HW1 7691   2.222   0.227   5.639
 2264SOL    HW2 7692   2.198   0.134   5.771
 2265SOL     OW 7693   6.900   6.251   4.134
 2265SOL    HW1 7694   6.814   6.234   4.182
 2265SOL    HW2 7695   6.897   6.208   4.044
 2266SOL     OW 7696   4.822   2.903   6.551
 2266SOL    HW1 7697   4.842   2.809   6.525
 2266SOL    HW2 7698   4.845   2.964   6.475
 2267SOL     OW 7699   5.932   3.194   4.710
 2267SOL    HW1 7700   6.017   3.156   4.744
 2267SOL    HW2 7701   5.917   3.163   4.616
 2268SOL     OW 7702   1.331   6.457   4.729
 2268SOL    HW1 7703   1.325   6.358   4.727
 2268SOL    HW2 7704   1.240   6.496   4.740
 2269SOL     OW 7705   1.771   2.165   5.359
 2269SOL    HW1 7706   1.730   2.144   5.271
 2269SOL    HW2 7707   1.831   2.244   5.351
 2270SOL     OW 7708   4.958   1.517   6.572
 2270SOL    HW1 7709   4.969   1.428   6.528
 2270SOL    HW2 7710   4.973   1.590   6.505
 2271SOL     OW 7711   4.227   5.975   5.480
 2271SOL    HW1 7712   4.127   5.978   5.488
 2271SOL    HW2 7713   4.264   5.913   5.549
 2272SOL     OW 7714   5.853   1.369   6.025
 2272SOL    HW1 7715   5.918   1.323   5.965
 2272SOL    HW2 7716   5.771   1.393   5.972
 2273SOL     OW 7717   0.838   3.079   3.468
 2273SOL    HW1 7718   0.860   3.001   3.527
 2273SOL    HW2 7719   0.911   3.147   3.474
 2274SOL     OW 7720   1.243   0.918   0.337
 2274SOL    HW1 7721   1.204   0.995   0.388
 2274SOL    HW2 7722   1.225   0.930   0.239
 2275SOL     OW 7723   5.591   4.040   3.153
 2275SOL    HW1 7724   5.540   4.097   3.088
 2275SOL    HW2 7725   5.653   4.098   3.206
 2276SOL     OW 7726   1.874   2.012   1.183
 2276SOL    HW1 7727   1.803   1.948   1.211
 2276SOL    HW2 7728   1.854   2.103   1.220
 2277SOL     OW 7729   4.048   3.150   3.508
 2277SOL    HW1 7730   3.971   3.123   3.451
 2277SOL    HW2 7731   4.108   3.072   3.523
 2278SOL     OW 7732   0.457   2.804   3.985
 2278SOL    HW1 7733   0.406   2.877   3.939
 2278SOL    HW2 7734   0.396   2.728   4.005
 2279SOL     OW 7735   1.271   4.740   5.922
 2279SOL    HW1 7736   1.184   4.712   5.963
 2279SOL    HW2 7737   1.313   4.661   5.878
 2280SOL     OW 7738   4.953   2.076   5.515
 2280SOL    HW1 7739   4.904   2.164   5.515
 2280SOL    HW2 7740   5.028   2.081   5.580
 2281SOL     OW 7741   5.640   6.814   2.445
 2281SOL    HW1 7742   5.589   6.889   2.402
 2281SOL    HW2 7743   5.634   6.823   2.544
 2282SOL     OW 7744   3.599   5.715   6.015
 2282SOL    HW1 7745   3.649   5.666   5.944
 2282SOL    HW2 7746   3.648   5.799   6.039
 2283SOL     OW 7747   0.214   0.701   4.571
 2283SOL    HW1 7748   0.282   0.774   4.570
 2283SOL    HW2 7749   0.209   0.658   4.481
 2284SOL     OW 7750   1.313   3.313   6.639
 2284SOL    HW1 7751   1.221   3.348   6.620
 2284SOL    HW2 7752   1.381   3.370   6.594
 2285SOL     OW 7753   1.782   4.010   0.054
 2285SOL    HW1 7754   1.832   3.932   0.091
 2285SOL    HW2 7755   1.740   4.060   0.130
 2286SOL     OW 7756   4.378   4.987   2.733
 2286SOL    HW1 7757   4.437   4.942   2.799
 2286SOL    HW2 7758   4.356   5.079   2.765
 2287SOL     OW 7759   1.177   1.507   4.250
 2287SOL    HW1 7760   1.197   1.422   4.201
 2287SOL    HW2 7761   1.116   1.564   4.195
 2288SOL     OW 7762   6.782   5.399   2.810
 2288SOL    HW1 7763   6.727   5.474   2.773
 2288SOL    HW2 7764   6.727   5.315   2.811
 2289SOL     OW 7765   0.619   5.324   0.423
 2289SOL    HW1 7766   0.535   5.343   0.372
 2289SOL    HW2 7767   0.597   5.306   0.519
 2290SOL     OW 7768   1.029   4.887   6.837
 2290SOL    HW1 7769   1.052   4.984   6.847
 2290SOL    HW2 7770   1.019   4.846   6.927
 2291SOL     OW 7771   2.327   1.814   0.179
 2291SOL    HW1 7772   2.317   1.789   0.275
 2291SOL    HW2 7773   2.238   1.839   0.141
 2292SOL     OW 7774   2.150   0.727   4.226
 2292SOL    HW1 7775   2.214   0.744   4.301
 2292SOL    HW2 7776   2.199   0.692   4.147
 2293SOL     OW 7777   5.522   3.973   2.616
 2293SOL    HW1 7778   5.576   3.951   2.697
 2293SOL    HW2 7779   5.460   4.049   2.637
 2294SOL     OW 7780   4.404   6.351   0.257
 2294SOL    HW1 7781   4.417   6.337   0.158
 2294SOL    HW2 7782   4.339   6.425   0.272
 2295SOL     OW 7783   0.762   1.546   2.062
 2295SOL    HW1 7784   0.763   1.607   2.142
 2295SOL    HW2 7785   0.854   1.539   2.024
 2296SOL     OW 7786   2.978   6.681   0.575
 2296SOL    HW1 7787   2.886   6.641   0.570
 2296SOL    HW2 7788   3.019   6.658   0.663
 2297SOL     OW 7789   4.145   6.400   6.899
 2297SOL    HW1 7790   4.129   6.426   6.804
 2297SOL    HW2 7791   4.229   6.346   6.905
 2298SOL     OW 7792   4.268   2.998   6.705
 2298SOL    HW1 7793   4.288   3.043   6.792
 2298SOL    HW2 7794   4.348   2.948   6.673
 2299SOL     OW 7795   4.557   6.994   0.242
 2299SOL    HW1 7796   4.594   6.985   0.334
 2299SOL    HW2 7797   4.576   0.066   0.206
 2300SOL     OW 7798   1.224   4.468   0.987
 2300SOL    HW1 7799   1.266   4.421   0.909
 2300SOL    HW2 7800   1.128   4.441   0.995
 2301SOL     OW 7801   4.067   3.658   1.734
 2301SOL    HW1 7802   4.074   3.750   1.775
 2301SOL    HW2 7803   3.973   3.627   1.738
 2302SOL     OW 7804   2.344   5.192   2.505
 2302SOL    HW1 7805   2.301   5.124   2.565
 2302SOL    HW2 7806   2.420   5.236   2.554
 2303SOL     OW 7807   0.042   3.163   5.314
 2303SOL    HW1 7808   6.984   3.172   5.251
 2303SOL    HW2 7809   0.053   3.066   5.339
 2304SOL     OW 7810   2.232   1.495   4.334
 2304SOL    HW1 7811   2.305   1.437   4.371
 2304SOL    HW2 7812   2.179   1.534   4.408
 2305SOL     OW 7813   4.067   4.619   1.750
 2305SOL    HW1 7814   4.160   4.616   1.787
 2305SOL    HW2 7815   4.050   4.537   1.695
 2306SOL     OW 7816   0.222   4.145   0.174
 2306SOL    HW1 7817   0.306   4.099   0.204
 2306SOL    HW2 7818   0.144   4.086   0.193
 2307SOL     OW 7819   0.283   1.624   2.414
 2307SOL    HW1 7820   0.336   1.649   2.495
 2307SOL    HW2 7821   0.317   1.538   2.376
 2308SOL     OW 7822   0.189   6.775   0.543
 2308SOL    HW1 7823   0.285   6.786   0.568
 2308SOL    HW2 7824   0.183   6.735   0.451
 2309SOL     OW 7825   3.264   4.963   5.747
 2309SOL    HW1 7826   3.218   5.031   5.803
 2309SOL    HW2 7827   3.276   4.879   5.800
 2310SOL     OW 7828   5.675   1.424   2.814
 2310SOL    HW1 7829   5.600   1.490   2.814
 2310SOL    HW2 7830   5.759   1.468   2.845
 2311SOL     OW 7831   2.449   0.309   2.527
 2311SOL    HW1 7832   2.535   0.308   2.476
 2311SOL    HW2 7833   2.376   0.346   2.469
 2312SOL     OW 7834   2.345   1.147   2.535
 2312SOL    HW1 7835   2.414   1.095   2.485
 2312SOL    HW2 7836   2.300   1.087   2.602
 2313SOL     OW 7837   5.138   3.573   1.710
 2313SOL    HW1 7838   5.109   3.488   1.754
 2313SOL    HW2 7839   5.057   3.621   1.674
 2314SOL     OW 7840   6.626   6.461   2.884
 2314SOL    HW1 7841   6.650   6.392   2.952
 2314SOL    HW2 7842   6.528   6.454   2.864
 2315SOL     OW 7843   4.310   5.760   4.572
 2315SOL    HW1 7844   4.313   5.685   4.638
 2315SOL    HW2 7845   4.398   5.808   4.572
 2316SOL     OW 7846   2.682   1.422   5.798
 2316SOL    HW1 7847   2.750   1.494   5.783
 2316SOL    HW2 7848   2.727   1.342   5.837
 2317SOL     OW 7849   0.146   5.630   3.021
 2317SOL    HW1 7850   0.150   5.708   2.958
 2317SOL    HW2 7851   0.084   5.562   2.984
 2318SOL     OW 7852   1.082   4.812   5.076
 2318SOL    HW1 7853   1.003   4.839   5.022
 2318SOL    HW2 7854   1.055   4.744   5.144
 2319SOL     OW 7855   1.720   5.051   3.702
 2319SOL    HW1 7856   1.777   4.993   3.759
 2319SOL    HW2 7857   1.711   5.010   3.611
 2320SOL     OW 7858   0.933   1.931   5.059
 2320SOL    HW1 7859   0.998   1.984   5.111
 2320SOL    HW2 7860   0.979   1.886   4.982
 2321SOL     OW 7861   2.003   4.525   5.567
 2321SOL    HW1 7862   2.025   4.490   5.476
 2321SOL    HW2 7863   1.947   4.458   5.616
 2322SOL     OW 7864   1.570   4.062   2.009
 2322SOL    HW1 7865   1.615   4.034   1.925
 2322SOL    HW2 7866   1.539   4.157   2.001
 2323SOL     OW 7867   2.707   5.360   0.805
 2323SOL    HW1 7868   2.684   5.295   0.732
 2323SOL    HW2 7869   2.754   5.439   0.765
 2324SOL     OW 7870   6.635   5.185   2.860
 2324SOL    HW1 7871   6.589   5.197   2.948
 2324SOL    HW2 7872   6.699   5.109   2.865
 2325SOL     OW 7873   6.555   5.524   1.949
 2325SOL    HW1 7874   6.503   5.456   1.898
 2325SOL    HW2 7875   6.496   5.603   1.968
 2326SOL     OW 7876   1.794   0.268   0.382
 2326SOL    HW1 7877   1.805   0.359   0.422
 2326SOL    HW2 7878   1.784   0.277   0.283
 2327SOL     OW 7879   0.238   6.770   2.277
 2327SOL    HW1 7880   0.281   6.796   2.364
 2327SOL    HW2 7881   0.151   6.725   2.295
 2328SOL     OW 7882   2.127   3.428   2.763
 2328SOL    HW1 7883   2.130   3.523   2.792
 2328SOL    HW2 7884   2.130   3.423   2.663
 2329SOL     OW 7885   0.344   5.213   2.916
 2329SOL    HW1 7886   0.438   5.179   2.920
 2329SOL    HW2 7887   0.335   5.294   2.974
 2330SOL     OW 7888   6.490   3.217   0.999
 2330SOL    HW1 7889   6.551   3.154   0.951
 2330SOL    HW2 7890   6.409   3.235   0.943
 2331SOL     OW 7891   4.679   5.884   1.381
 2331SOL    HW1 7892   4.707   5.789   1.367
 2331SOL    HW2 7893   4.655   5.925   1.294
 2332SOL     OW 7894   6.021   6.787   5.713
 2332SOL    HW1 7895   6.027   6.867   5.772
 2332SOL    HW2 7896   6.043   6.812   5.619
 2333SOL     OW 7897   0.547   4.479   2.394
 2333SOL    HW1 7898   0.450   4.499   2.377
 2333SOL    HW2 7899   0.555   4.407   2.463
 2334SOL     OW 7900   2.620   1.690   6.526
 2334SOL    HW1 7901   2.578   1.764   6.579
 2334SOL    HW2 7902   2.610   1.604   6.576
 2335SOL     OW 7903   6.742   1.327   3.198
 2335SOL    HW1 7904   6.728   1.303   3.294
 2335SOL    HW2 7905   6.837   1.309   3.173
 2336SOL     OW 7906   1.518   1.509   3.022
 2336SOL    HW1 7907   1.524   1.519   3.121
 2336SOL    HW2 7908   1.611   1.511   2.983
 2337SOL     OW 7909   4.559   1.927   1.644
 2337SOL    HW1 7910   4.598   1.953   1.732
 2337SOL    HW2 7911   4.459   1.925   1.650
 2338SOL     OW 7912   0.199   3.927   3.305
 2338SOL    HW1 7913   0.180   3.835   3.341
 2338SOL    HW2 7914   0.290   3.929   3.265
 2339SOL     OW 7915   3.396   2.880   2.769
 2339SOL    HW1 7916   3.344   2.885   2.855
 2339SOL    HW2 7917   3.343   2.922   2.696
 2340SOL     OW 7918   1.940   4.613   6.831
 2340SOL    HW1 7919   1.929   4.703   6.789
 2340SOL    HW2 7920   1.911   4.543   6.766
 2341SOL     OW 7921   2.321   4.332   4.035
 2341SOL    HW1 7922   2.231   4.362   4.068
 2341SOL    HW2 7923   2.391   4.360   4.100
 2342SOL     OW 7924   3.236   1.046   3.871
 2342SOL    HW1 7925   3.281   1.062   3.958
 2342SOL    HW2 7926   3.193   0.956   3.871
 2343SOL     OW 7927   1.091   0.267   1.718
 2343SOL    HW1 7928   1.189   0.268   1.699
 2343SOL    HW2 7929   1.053   0.178   1.693
 2344SOL     OW 7930   5.540   3.798   0.616
 2344SOL    HW1 7931   5.502   3.876   0.566
 2344SOL    HW2 7932   5.634   3.781   0.584
 2345SOL     OW 7933   3.073   6.073   4.460
 2345SOL    HW1 7934   3.036   6.040   4.372
 2345SOL    HW2 7935   3.002   6.124   4.508
 2346SOL     OW 7936   4.188   3.688   6.894
 2346SOL    HW1 7937   4.163   3.627   6.818
 2346SOL    HW2 7938   4.176   3.783   6.865
 2347SOL     OW 7939   1.367   2.145   1.776
 2347SOL    HW1 7940   1.457   2.182   1.797
 2347SOL    HW2 7941   1.363   2.048   1.802
 2348SOL     OW 7942   0.334   4.911   2.553
 2348SOL    HW1 7943   0.402   4.972   2.512
 2348SOL    HW2 7944   0.262   4.891   2.487
 2349SOL     OW 7945   0.390   4.128   5.091
 2349SOL    HW1 7946   0.432   4.113   5.180
 2349SOL    HW2 7947   0.390   4.042   5.039
 2350SOL     OW 7948   5.783   2.933   6.910
 2350SOL    HW1 7949   5.799   2.953   7.007
 2350SOL    HW2 7950   5.725   3.004   6.870
 2351SOL     OW 7951   2.865   5.186   2.378
 2351SOL    HW1 7952   2.916   5.102   2.395
 2351SOL    HW2 7953   2.919   5.247   2.319
 2352SOL     OW 7954   0.315   2.539   3.639
 2352SOL    HW1 7955   0.329   2.456   3.585
 2352SOL    HW2 7956   0.403   2.575   3.669
 2353SOL     OW 7957   3.516   5.171   4.828
 2353SOL    HW1 7958   3.544   5.255   4.876
 2353SOL    HW2 7959   3.478   5.195   4.739
 2354SOL     OW 7960   1.979   2.916   3.667
 2354SOL    HW1 7961   1.948   2.839   3.723
 2354SOL    HW2 7962   1.921   2.995   3.686
 2355SOL     OW 7963   2.298   5.872   4.540
 2355SOL    HW1 7964   2.234   5.847   4.612
 2355SOL    HW2 7965   2.291   5.806   4.465
 2356SOL     OW 7966   6.250   2.781   0.176
 2356SOL    HW1 7967   6.287   2.859   0.125
 2356SOL    HW2 7968   6.204   2.814   0.259
 2357SOL     OW 7969   2.499   6.295   2.529
 2357SOL    HW1 7970   2.591   6.325   2.553
 2357SOL    HW2 7971   2.441   6.295   2.611
 2358SOL     OW 7972   3.596   4.924   6.584
 2358SOL    HW1 7973   3.644   4.836   6.592
 2358SOL    HW2 7974   3.501   4.913   6.613
 2359SOL     OW 7975   1.613   0.081   4.727
 2359SOL    HW1 7976   1.581   7.006   4.734
 2359SOL    HW2 7977   1.559   0.139   4.788
 2360SOL     OW 7978   6.548   3.695   7.008
 2360SOL    HW1 7979   6.599   3.619   6.968
 2360SOL    HW2 7980   6.528   3.675   0.085
 2361SOL     OW 7981   3.864   1.339   6.802
 2361SOL    HW1 7982   3.770   1.365   6.779
 2361SOL    HW2 7983   3.880   1.245   6.773
 2362SOL     OW 7984   3.242   5.559   3.525
 2362SOL    HW1 7985   3.171   5.603   3.470
 2362SOL    HW2 7986   3.200   5.513   3.604
 2363SOL     OW 7987   3.892   0.394   4.296
 2363SOL    HW1 7988   3.962   0.430   4.235
 2363SOL    HW2 7989   3.806   0.443   4.281
 2364SOL     OW 7990   0.958   2.473   0.924
 2364SOL    HW1 7991   1.056   2.478   0.939
 2364SOL    HW2 7992   0.935   2.525   0.841
 2365SOL     OW 7993   5.320   2.416   6.501
 2365SOL    HW1 7994   5.357   2.421   6.594
 2365SOL    HW2 7995   5.265   2.333   6.492
 2366SOL     OW 7996   4.393   5.360   0.611
 2366SOL    HW1 7997   4.294   5.350   0.622
 2366SOL    HW2 7998   4.411   5.433   0.546
 2367SOL     OW 7999   2.233   3.310   6.198
 2367SOL    HW1 8000   2.284   3.394   6.180
 2367SOL    HW2 8001   2.296   3.232   6.198
 2368SOL     OW 8002   6.234   5.715   2.391
 2368SOL    HW1 8003   6.280   5.678   2.472
 2368SOL    HW2 8004   6.194   5.639   2.339
 2369SOL     OW 8005   2.334   0.718   3.198
 2369SOL    HW1 8006   2.418   0.771   3.208
 2369SOL    HW2 8007   2.353   0.636   3.143
 2370SOL     OW 8008   6.448   1.923   6.484
 2370SOL    HW1 8009   6.477   1.859   6.413
 2370SOL    HW2 8010   6.349   1.929   6.486
 2371SOL     OW 8011   2.724   6.505   1.747
 2371SOL    HW1 8012   2.766   6.432   1.693
 2371SOL    HW2 8013   2.769   6.592   1.727
 2372SOL     OW 8014   6.511   2.849   2.798
 2372SOL    HW1 8015   6.417   2.849   2.831
 2372SOL    HW2 8016   6.529   2.766   2.747
 2373SOL     OW 8017   2.556   3.492   6.477
 2373SOL    HW1 8018   2.594   3.560   6.415
 2373SOL    HW2 8019   2.462   3.470   6.449
 2374SOL     OW 8020   5.790   3.242   4.970
 2374SOL    HW1 8021   5.842   3.164   5.005
 2374SOL    HW2 8022   5.801   3.248   4.871
 2375SOL     OW 8023   2.705   6.670   5.098
 2375SOL    HW1 8024   2.803   6.654   5.089
 2375SOL    HW2 8025   2.665   6.597   5.154
 2376SOL     OW 8026   6.441   3.238   4.511
 2376SOL    HW1 8027   6.505   3.177   4.558
 2376SOL    HW2 8028   6.463   3.241   4.414
 2377SOL     OW 8029   4.021   3.263   3.752
 2377SOL    HW1 8030   3.959   3.205   3.806
 2377SOL    HW2 8031   4.047   3.214   3.668
 2378SOL     OW 8032   5.313   2.733   7.004
 2378SOL    HW1 8033   5.396   2.695   0.026
 2378SOL    HW2 8034   5.236   2.672   0.004
 2379SOL     OW 8035   6.804   0.010   6.916
 2379SOL    HW1 8036   6.792   0.077   6.842
 2379SOL    HW2 8037   6.802   0.056   7.004
 2380SOL     OW 8038   6.076   1.879   2.145
 2380SOL    HW1 8039   6.076   1.823   2.229
 2380SOL    HW2 8040   6.087   1.975   2.170
 2381SOL     OW 8041   1.604   6.569   3.389
 2381SOL    HW1 8042   1.568   6.531   3.304
 2381SOL    HW2 8043   1.576   6.512   3.466
 2382SOL     OW 8044   1.627   3.429   5.296
 2382SOL    HW1 8045   1.665   3.365   5.229
 2382SOL    HW2 8046   1.635   3.522   5.261
 2383SOL     OW 8047   6.043   6.175   1.551
 2383SOL    HW1 8048   5.952   6.135   1.537
 2383SOL    HW2 8049   6.098   6.113   1.607
 2384SOL     OW 8050   4.681   2.020   1.898
 2384SOL    HW1 8051   4.768   2.012   1.947
 2384SOL    HW2 8052   4.610   1.968   1.946
 2385SOL     OW 8053   0.594   2.282   6.997
 2385SOL    HW1 8054   0.662   2.226   6.951
 2385SOL    HW2 8055   0.506   2.273   6.950
 2386SOL     OW 8056   4.422   5.290   3.858
 2386SOL    HW1 8057   4.438   5.338   3.771
 2386SOL    HW2 8058   4.384   5.200   3.839
 2387SOL     OW 8059   1.907   1.183   2.915
 2387SOL    HW1 8060   1.917   1.084   2.910
 2387SOL    HW2 8061   1.959   1.226   2.841
 2388SOL     OW 8062   6.544   1.578   3.736
 2388SOL    HW1 8063   6.587   1.614   3.654
 2388SOL    HW2 8064   6.565   1.480   3.745
 2389SOL     OW 8065   3.782   6.237   2.456
 2389SOL    HW1 8066   3.863   6.293   2.435
 2389SOL    HW2 8067   3.787   6.205   2.550
 2390SOL     OW 8068   3.052   4.190   1.466
 2390SOL    HW1 8069   2.988   4.227   1.399
 2390SOL    HW2 8070   3.055   4.250   1.546
 2391SOL     OW 8071   3.792   5.261   5.521
 2391SOL    HW1 8072   3.849   5.336   5.488
 2391SOL    HW2 8073   3.792   5.188   5.453
 2392SOL     OW 8074   4.217   1.248   6.285
 2392SOL    HW1 8075   4.152   1.270   6.358
 2392SOL    HW2 8076   4.234   1.150   6.284
 2393SOL     OW 8077   3.528   5.308   5.606
 2393SOL    HW1 8078   3.625   5.306   5.581
 2393SOL    HW2 8079   3.492   5.215   5.610
 2394SOL     OW 8080   6.709   4.944   5.698
 2394SOL    HW1 8081   6.714   5.023   5.759
 2394SOL    HW2 8082   6.795   4.892   5.704
 2395SOL     OW 8083   4.450   6.934   6.274
 2395SOL    HW1 8084   4.481   7.010   6.216
 2395SOL    HW2 8085   4.364   6.898   6.239
 2396SOL     OW 8086   3.921   4.693   0.745
 2396SOL    HW1 8087   3.970   4.687   0.658
 2396SOL    HW2 8088   3.886   4.603   0.769
 2397SOL     OW 8089   0.216   4.007   3.736
 2397SOL    HW1 8090   0.195   4.042   3.645
 2397SOL    HW2 8091   0.143   3.946   3.766
 2398SOL     OW 8092   4.406   4.174   5.774
 2398SOL    HW1 8093   4.473   4.194   5.846
 2398SOL    HW2 8094   4.340   4.248   5.768
 2399SOL     OW 8095   4.228   2.040   1.859
 2399SOL    HW1 8096   4.299   2.066   1.925
 2399SOL    HW2 8097   4.264   1.970   1.797
 2400SOL     OW 8098   2.095   5.244   1.214
 2400SOL    HW1 8099   2.194   5.254   1.211
 2400SOL    HW2 8100   2.068   5.206   1.302
 2401SOL     OW 8101   0.190   6.189   6.465
 2401SOL    HW1 8102   0.130   6.124   6.512
 2401SOL    HW2 8103   0.139   6.233   6.391
 2402SOL     OW 8104   6.608   6.270   4.207
 2402SOL    HW1 8105   6.571   6.257   4.115
 2402SOL    HW2 8106   6.577   6.358   4.243
 2403SOL     OW 8107   0.215   1.004   5.254
 2403SOL    HW1 8108   0.175   1.083   5.301
 2403SOL    HW2 8109   0.264   1.035   5.172
 2404SOL     OW 8110   1.291   0.650   0.375
 2404SOL    HW1 8111   1.208   0.607   0.410
 2404SOL    HW2 8112   1.278   0.749   0.370
 2405SOL     OW 8113   3.027   3.901   1.548
 2405SOL    HW1 8114   3.014   3.894   1.647
 2405SOL    HW2 8115   3.052   3.994   1.524
 2406SOL     OW 8116   4.464   1.040   1.378
 2406SOL    HW1 8117   4.503   0.953   1.347
 2406SOL    HW2 8118   4.430   1.030   1.471
 2407SOL     OW 8119   5.020   0.577   3.931
 2407SOL    HW1 8120   4.926   0.592   3.899
 2407SOL    HW2 8121   5.065   0.666   3.942
 2408SOL     OW 8122   4.577   4.384   2.212
 2408SOL    HW1 8123   4.599   4.481   2.201
 2408SOL    HW2 8124   4.550   4.345   2.124
 2409SOL     OW 8125   1.007   4.176   0.206
 2409SOL    HW1 8126   0.944   4.226   0.146
 2409SOL    HW2 8127   0.959   4.097   0.245
 2410SOL     OW 8128   3.162   3.149   2.775
 2410SOL    HW1 8129   3.239   3.213   2.783
 2410SOL    HW2 8130   3.190   3.073   2.715
 2411SOL     OW 8131   4.151   6.816   4.199
 2411SOL    HW1 8132   4.090   6.791   4.275
 2411SOL    HW2 8133   4.242   6.778   4.216
 2412SOL     OW 8134   3.715   3.665   0.927
 2412SOL    HW1 8135   3.811   3.647   0.908
 2412SOL    HW2 8136   3.662   3.655   0.843
 2413SOL     OW 8137   4.151   6.940   2.686
 2413SOL    HW1 8138   4.181   0.015   2.706
 2413SOL    HW2 8139   4.137   6.890   2.772
 2414SOL     OW 8140   5.604   3.401   4.283
 2414SOL    HW1 8141   5.657   3.325   4.243
 2414SOL    HW2 8142   5.512   3.369   4.304
 2415SOL     OW 8143   4.325   1.238   3.396
 2415SOL    HW1 8144   4.383   1.208   3.321
 2415SOL    HW2 8145   4.239   1.187   3.395
 2416SOL     OW 8146   5.523   1.924   6.418
 2416SOL    HW1 8147   5.520   1.906   6.320
 2416SOL    HW2 8148   5.527   1.837   6.468
 2417SOL     OW 8149   3.171   4.150   5.149
 2417SOL    HW1 8150   3.138   4.208   5.224
 2417SOL    HW2 8151   3.130   4.059   5.157
 2418SOL     OW 8152   3.322   3.373   2.790
 2418SOL    HW1 8153   3.262   3.453   2.782
 2418SOL    HW2 8154   3.377   3.365   2.708
 2419SOL     OW 8155   0.163   0.387   3.107
 2419SOL    HW1 8156   0.178   0.375   3.009
 2419SOL    HW2 8157   0.100   0.317   3.140
 2420SOL     OW 8158   2.184   6.932   1.830
 2420SOL    HW1 8159   2.228   6.852   1.870
 2420SOL    HW2 8160   2.245   7.011   1.839
 2421SOL     OW 8161   3.552   1.580   3.531
 2421SOL    HW1 8162   3.488   1.579   3.454
 2421SOL    HW2 8163   3.604   1.494   3.533
 2422SOL     OW 8164   4.877   1.802   0.967
 2422SOL    HW1 8165   4.889   1.781   1.065
 2422SOL    HW2 8166   4.796   1.756   0.933
 2423SOL     OW 8167   2.061   5.083   2.288
 2423SOL    HW1 8168   2.118   5.058   2.210
 2423SOL    HW2 8169   2.098   5.042   2.371
 2424SOL     OW 8170   6.587   0.103   0.483
 2424SOL    HW1 8171   6.580   0.016   0.531
 2424SOL    HW2 8172   6.560   0.178   0.544
 2425SOL     OW 8173   6.851   6.797   4.427
 2425SOL    HW1 8174   6.796   6.831   4.351
 2425SOL    HW2 8175   6.856   6.697   4.423
 2426SOL     OW 8176   2.647   4.621   4.134
 2426SOL    HW1 8177   2.595   4.675   4.200
 2426SOL    HW2 8178   2.713   4.679   4.087
 2427SOL     OW 8179   6.248   0.077   5.688
 2427SOL    HW1 8180   6.179   0.140   5.723
 2427SOL    HW2 8181   6.327   0.129   5.656
 2428SOL     OW 8182   5.859   1.189   0.365
 2428SOL    HW1 8183   5.935   1.173   0.302
 2428SOL    HW2 8184   5.811   1.103   0.382
 2429SOL     OW 8185   5.139   5.017   2.431
 2429SOL    HW1 8186   5.155   4.990   2.336
 2429SOL    HW2 8187   5.207   4.973   2.490
 2430SOL     OW 8188   5.203   0.110   2.689
 2430SOL    HW1 8189   5.300   0.132   2.691
 2430SOL    HW2 8190   5.150   0.185   2.731
 2431SOL     OW 8191   4.605   0.029   2.246
 2431SOL    HW1 8192   4.694   7.011   2.274
 2431SOL    HW2 8193   4.592   0.119   2.288
 2432SOL     OW 8194   2.509   5.919   2.735
 2432SOL    HW1 8195   2.474   5.938   2.644
 2432SOL    HW2 8196   2.564   5.996   2.766
 2433SOL     OW 8197   4.691   0.619   0.787
 2433SOL    HW1 8198   4.703   0.656   0.879
 2433SOL    HW2 8199   4.655   0.526   0.793
 2434SOL     OW 8200   3.787   3.032   4.924
 2434SOL    HW1 8201   3.823   2.999   5.012
 2434SOL    HW2 8202   3.710   2.974   4.896
 2435SOL     OW 8203   6.143   6.207   6.120
 2435SOL    HW1 8204   6.105   6.119   6.149
 2435SOL    HW2 8205   6.078   6.280   6.142
 2436SOL     OW 8206   2.782   4.934   0.933
 2436SOL    HW1 8207   2.880   4.913   0.925
 2436SOL    HW2 8208   2.733   4.889   0.858
 2437SOL     OW 8209   6.485   0.901   5.957
 2437SOL    HW1 8210   6.581   0.893   5.930
 2437SOL    HW2 8211   6.442   0.811   5.957
 2438SOL     OW 8212   2.965   3.312   1.008
 2438SOL    HW1 8213   3.008   3.243   1.066
 2438SOL    HW2 8214   2.984   3.403   1.045
 2439SOL     OW 8215   6.187   4.660   6.044
 2439SOL    HW1 8216   6.151   4.725   5.977
 2439SOL    HW2 8217   6.153   4.568   6.023
 2440SOL     OW 8218   5.685   4.715   5.487
 2440SOL    HW1 8219   5.600   4.737   5.439
 2440SOL    HW2 8220   5.739   4.799   5.498
 2441SOL     OW 8221   6.424   2.324   0.810
 2441SOL    HW1 8222   6.485   2.362   0.880
 2441SOL    HW2 8223   6.479   2.291   0.733
 2442SOL     OW 8224   0.169   1.850   5.259
 2442SOL    HW1 8225   0.174   1.849   5.159
 2442SOL    HW2 8226   0.261   1.840   5.296
 2443SOL     OW 8227   2.986   4.869   5.021
 2443SOL    HW1 8228   2.915   4.798   5.026
 2443SOL    HW2 8229   2.946   4.952   4.984
 2444SOL     OW 8230   3.368   2.829   5.802
 2444SOL    HW1 8231   3.460   2.831   5.843
 2444SOL    HW2 8232   3.323   2.744   5.827
 2445SOL     OW 8233   0.837   0.207   0.862
 2445SOL    HW1 8234   0.918   0.165   0.902
 2445SOL    HW2 8235   0.807   0.283   0.919
 2446SOL     OW 8236   5.092   3.171   6.234
 2446SOL    HW1 8237   5.138   3.174   6.323
 2446SOL    HW2 8238   5.155   3.134   6.165
 2447SOL     OW 8239   0.739   3.209   6.622
 2447SOL    HW1 8240   0.687   3.162   6.550
 2447SOL    HW2 8241   0.675   3.255   6.684
 2448SOL     OW 8242   0.256   6.805   4.363
 2448SOL    HW1 8243   0.220   6.740   4.297
 2448SOL    HW2 8244   0.354   6.788   4.377
 2449SOL     OW 8245   0.966   3.017   5.069
 2449SOL    HW1 8246   0.954   2.957   4.990
 2449SOL    HW2 8247   1.016   3.099   5.042
 2450SOL     OW 8248   1.946   3.146   1.404
 2450SOL    HW1 8249   1.998   3.229   1.387
 2450SOL    HW2 8250   1.962   3.115   1.498
 2451SOL     OW 8251   2.137   5.906   4.129
 2451SOL    HW1 8252   2.232   5.908   4.097
 2451SOL    HW2 8253   2.106   6.000   4.144
 2452SOL     OW 8254   2.417   2.444   4.759
 2452SOL    HW1 8255   2.496   2.441   4.820
 2452SOL    HW2 8256   2.366   2.529   4.773
 2453SOL     OW 8257   0.929   3.750   0.697
 2453SOL    HW1 8258   0.839   3.789   0.716
 2453SOL    HW2 8259   0.993   3.776   0.769
 2454SOL     OW 8260   1.816   6.850   1.764
 2454SOL    HW1 8261   1.887   6.909   1.802
 2454SOL    HW2 8262   1.859   6.768   1.724
 2455SOL     OW 8263   5.482   3.679   1.242
 2455SOL    HW1 8264   5.569   3.729   1.247
 2455SOL    HW2 8265   5.476   3.631   1.154
 2456SOL     OW 8266   2.962   6.589   0.988
 2456SOL    HW1 8267   3.029   6.540   0.932
 2456SOL    HW2 8268   2.880   6.608   0.933
 2457SOL     OW 8269   5.647   6.183   1.043
 2457SOL    HW1 8270   5.673   6.088   1.023
 2457SOL    HW2 8271   5.639   6.234   0.958
 2458SOL     OW 8272   0.360   6.370   1.925
 2458SOL    HW1 8273   0.440   6.318   1.896
 2458SOL    HW2 8274   0.361   6.460   1.882
 2459SOL     OW 8275   1.159   1.157   0.432
 2459SOL    HW1 8276   1.194   1.171   0.339
 2459SOL    HW2 8277   1.153   1.246   0.478
 2460SOL     OW 8278   2.792   4.861   1.418
 2460SOL    HW1 8279   2.869   4.911   1.457
 2460SOL    HW2 8280   2.796   4.765   1.446
 2461SOL     OW 8281   4.919   1.241   2.936
 2461SOL    HW1 8282   4.858   1.164   2.955
 2461SOL    HW2 8283   4.892   1.285   2.851
 2462SOL     OW 8284   2.906   3.940   6.271
 2462SOL    HW1 8285   2.860   4.023   6.303
 2462SOL    HW2 8286   2.980   3.965   6.209
 2463SOL     OW 8287   0.784   2.568   5.054
 2463SOL    HW1 8288   0.828   2.478   5.058
 2463SOL    HW2 8289   0.835   2.632   5.112
 2464SOL     OW 8290   0.970   3.160   0.464
 2464SOL    HW1 8291   1.011   3.250   0.479
 2464SOL    HW2 8292   0.926   3.130   0.549
 2465SOL     OW 8293   6.245   4.935   2.550
 2465SOL    HW1 8294   6.168   4.874   2.568
 2465SOL    HW2 8295   6.284   4.915   2.460
 2466SOL     OW 8296   3.566   1.366   1.697
 2466SOL    HW1 8297   3.524   1.440   1.749
 2466SOL    HW2 8298   3.597   1.401   1.608
 2467SOL     OW 8299   0.768   0.916   4.749
 2467SOL    HW1 8300   0.752   0.852   4.825
 2467SOL    HW2 8301   0.748   0.870   4.662
 2468SOL     OW 8302   6.339   4.524   6.780
 2468SOL    HW1 8303   6.343   4.572   6.868
 2468SOL    HW2 8304   6.306   4.586   6.710
 2469SOL     OW 8305   2.861   2.561   5.831
 2469SOL    HW1 8306   2.933   2.520   5.775
 2469SOL    HW2 8307   2.831   2.647   5.789
 2470SOL     OW 8308   5.396   2.916   1.043
 2470SOL    HW1 8309   5.304   2.878   1.052
 2470SOL    HW2 8310   5.395   3.012   1.069
 2471SOL     OW 8311   0.304   1.363   2.372
 2471SOL    HW1 8312   0.265   1.326   2.456
 2471SOL    HW2 8313   0.263   1.319   2.293
 2472SOL     OW 8314   6.072   1.086   3.675
 2472SOL    HW1 8315   6.139   1.156   3.647
 2472SOL    HW2 8316   6.086   1.003   3.621
 2473SOL     OW 8317   0.630   6.054   5.573
 2473SOL    HW1 8318   0.692   5.976   5.567
 2473SOL    HW2 8319   0.587   6.069   5.484
 2474SOL     OW 8320   6.233   6.522   4.343
 2474SOL    HW1 8321   6.260   6.613   4.311
 2474SOL    HW2 8322   6.315   6.470   4.368
 2475SOL     OW 8323   4.193   1.888   6.292
 2475SOL    HW1 8324   4.262   1.868   6.222
 2475SOL    HW2 8325   4.183   1.987   6.301
 2476SOL     OW 8326   0.655   1.469   3.305
 2476SOL    HW1 8327   0.645   1.377   3.266
 2476SOL    HW2 8328   0.751   1.494   3.307
 2477SOL     OW 8329   4.516   4.667   2.522
 2477SOL    HW1 8330   4.603   4.716   2.534
 2477SOL    HW2 8331   4.444   4.733   2.499
 2478SOL     OW 8332   0.212   0.373   2.307
 2478SOL    HW1 8333   0.262   0.449   2.266
 2478SOL    HW2 8334   0.152   0.331   2.238
 2479SOL     OW 8335   0.731   2.783   6.802
 2479SOL    HW1 8336   0.737   2.692   6.843
 2479SOL    HW2 8337   0.823   2.815   6.779
 2480SOL     OW 8338   6.471   5.322   1.555
 2480SOL    HW1 8339   6.548   5.315   1.491
 2480SOL    HW2 8340   6.393   5.362   1.508
 2481SOL     OW 8341   4.088   4.993   2.526
 2481SOL    HW1 8342   4.061   5.039   2.441
 2481SOL    HW2 8343   4.094   4.895   2.509
 2482SOL     OW 8344   4.348   2.279   4.964
 2482SOL    HW1 8345   4.322   2.212   4.895
 2482SOL    HW2 8346   4.269   2.302   5.021
 2483SOL     OW 8347   0.565   2.849   7.016
 2483SOL    HW1 8348   0.607   2.840   6.926
 2483SOL    HW2 8349   0.637   2.850   0.067
 2484SOL     OW 8350   3.741   3.902   5.670
 2484SOL    HW1 8351   3.696   3.933   5.586
 2484SOL    HW2 8352   3.764   3.805   5.661
 2485SOL     OW 8353   0.889   5.952   0.025
 2485SOL    HW1 8354   0.917   5.891   0.099
 2485SOL    HW2 8355   0.846   5.898   6.971
 2486SOL     OW 8356   0.773   5.600   3.584
 2486SOL    HW1 8357   0.762   5.522   3.524
 2486SOL    HW2 8358   0.823   5.572   3.666
 2487SOL     OW 8359   3.359   1.492   1.416
 2487SOL    HW1 8360   3.371   1.394   1.400
 2487SOL    HW2 8361   3.441   1.541   1.386
 2488SOL     OW 8362   3.356   5.847   6.461
 2488SOL    HW1 8363   3.406   5.933   6.460
 2488SOL    HW2 8364   3.262   5.864   6.490
 2489SOL     OW 8365   0.077   5.801   4.506
 2489SOL    HW1 8366   0.020   5.873   4.467
 2489SOL    HW2 8367   0.070   5.802   4.605
 2490SOL     OW 8368   5.714   3.197   1.062
 2490SOL    HW1 8369   5.745   3.246   0.981
 2490SOL    HW2 8370   5.619   3.221   1.081
 2491SOL     OW 8371   6.914   3.898   3.382
 2491SOL    HW1 8372   6.864   3.850   3.310
 2491SOL    HW2 8373   6.970   3.833   3.433
 2492SOL     OW 8374   4.031   1.369   6.475
 2492SOL    HW1 8375   4.059   1.423   6.554
 2492SOL    HW2 8376   3.943   1.403   6.441
 2493SOL     OW 8377   6.537   0.409   5.015
 2493SOL    HW1 8378   6.494   0.385   4.929
 2493SOL    HW2 8379   6.467   0.444   5.079
 2494SOL     OW 8380   5.055   4.830   1.038
 2494SOL    HW1 8381   5.019   4.921   1.055
 2494SOL    HW2 8382   4.987   4.762   1.064
 2495SOL     OW 8383   0.230   1.052   2.304
 2495SOL    HW1 8384   0.148   0.995   2.303
 2495SOL    HW2 8385   0.268   1.054   2.397
 2496SOL     OW 8386   2.117   4.974   0.828
 2496SOL    HW1 8387   2.046   5.042   0.809
 2496SOL    HW2 8388   2.083   4.908   0.894
 2497SOL     OW 8389   5.450   0.653   6.578
 2497SOL    HW1 8390   5.497   0.569   6.607
 2497SOL    HW2 8391   5.352   0.634   6.568
 2498SOL     OW 8392   1.008   3.304   4.512
 2498SOL    HW1 8393   0.948   3.303   4.592
 2498SOL    HW2 8394   1.010   3.396   4.473
 2499SOL     OW 8395   5.307   1.219   0.096
 2499SOL    HW1 8396   5.396   1.220   0.048
 2499SOL    HW2 8397   5.262   1.131   0.080
 2500SOL     OW 8398   4.694   3.802   6.245
 2500SOL    HW1 8399   4.640   3.732   6.290
 2500SOL    HW2 8400   4.634   3.877   6.216
 2501SOL     OW 8401   0.187   4.943   0.819
 2501SOL    HW1 8402   0.205   4.898   0.907
 2501SOL    HW2 8403   0.118   5.014   0.832
 2502SOL     OW 8404   0.552   0.454   3.695
 2502SOL    HW1 8405   0.581   0.515   3.769
 2502SOL    HW2 8406   0.518   0.508   3.618
 2503SOL     OW 8407   5.596   6.562   4.841
 2503SOL    HW1 8408   5.680   6.512   4.862
 2503SOL    HW2 8409   5.518   6.500   4.848
 2504SOL     OW 8410   2.404   4.364   3.452
 2504SOL    HW1 8411   2.431   4.268   3.442
 2504SOL    HW2 8412   2.347   4.390   3.374
 2505SOL     OW 8413   4.835   4.297   4.757
 2505SOL    HW1 8414   4.769   4.265   4.689
 2505SOL    HW2 8415   4.792   4.296   4.847
 2506SOL     OW 8416   0.594   0.794   0.504
 2506SOL    HW1 8417   0.602   0.735   0.584
 2506SOL    HW2 8418   0.644   0.879   0.521
 2507SOL     OW 8419   6.286   6.410   6.728
 2507SOL    HW1 8420   6.349   6.340   6.696
 2507SOL    HW2 8421   6.309   6.435   6.822
 2508SOL     OW 8422   1.546   2.346   1.955
 2508SOL    HW1 8423   1.522   2.280   2.027
 2508SOL    HW2 8424   1.468   2.405   1.936
 2509SOL     OW 8425   6.234   0.677   3.604
 2509SOL    HW1 8426   6.212   0.596   3.548
 2509SOL    HW2 8427   6.198   0.759   3.559
 2510SOL     OW 8428   4.260   6.055   2.194
 2510SOL    HW1 8429   4.294   6.051   2.288
 2510SOL    HW2 8430   4.318   6.000   2.135
 2511SOL     OW 8431   0.283   6.389   3.600
 2511SOL    HW1 8432   0.235   6.464   3.555
 2511SOL    HW2 8433   0.323   6.422   3.686
 2512SOL     OW 8434   5.982   3.585   4.163
 2512SOL    HW1 8435   5.966   3.508   4.102
 2512SOL    HW2 8436   5.943   3.565   4.254
 2513SOL     OW 8437   0.118   4.723   0.657
 2513SOL    HW1 8438   0.141   4.647   0.718
 2513SOL    HW2 8439   0.140   4.809   0.703
 2514SOL     OW 8440   6.927   1.967   3.526
 2514SOL    HW1 8441   6.937   1.994   3.430
 2514SOL    HW2 8442   6.930   1.867   3.533
 2515SOL     OW 8443   1.092   4.431   6.810
 2515SOL    HW1 8444   1.165   4.483   6.854
 2515SOL    HW2 8445   1.003   4.469   6.835
 2516SOL     OW 8446   5.140   6.906   3.944
 2516SOL    HW1 8447   5.093   6.830   3.899
 2516SOL    HW2 8448   5.162   6.880   4.039
 2517SOL     OW 8449   2.298   5.429   1.016
 2517SOL    HW1 8450   2.281   5.434   0.918
 2517SOL    HW2 8451   2.306   5.333   1.044
 2518SOL     OW 8452   2.373   2.375   0.245
 2518SOL    HW1 8453   2.471   2.394   0.247
 2518SOL    HW2 8454   2.324   2.453   0.206
 2519SOL     OW 8455   5.977   4.431   4.940
 2519SOL    HW1 8456   5.998   4.455   5.035
 2519SOL    HW2 8457   5.911   4.356   4.939
 2520SOL     OW 8458   3.696   5.291   1.218
 2520SOL    HW1 8459   3.704   5.225   1.143
 2520SOL    HW2 8460   3.634   5.365   1.192
 2521SOL     OW 8461   5.926   6.356   5.912
 2521SOL    HW1 8462   5.913   6.430   5.846
 2521SOL    HW2 8463   5.979   6.391   5.989
 2522SOL     OW 8464   2.529   4.886   5.278
 2522SOL    HW1 8465   2.527   4.948   5.200
 2522SOL    HW2 8466   2.463   4.811   5.263
 2523SOL     OW 8467   0.894   2.086   6.051
 2523SOL    HW1 8468   0.817   2.087   5.987
 2523SOL    HW2 8469   0.980   2.086   6.001
 2524SOL     OW 8470   1.554   6.941   4.375
 2524SOL    HW1 8471   1.573   6.932   4.473
 2524SOL    HW2 8472   1.498   6.864   4.345
 2525SOL     OW 8473   2.648   4.652   2.215
 2525SOL    HW1 8474   2.690   4.618   2.131
 2525SOL    HW2 8475   2.568   4.595   2.237
 2526SOL     OW 8476   1.418   2.748   4.431
 2526SOL    HW1 8477   1.417   2.842   4.398
 2526SOL    HW2 8478   1.332   2.703   4.407
 2527SOL     OW 8479   6.876   6.511   4.253
 2527SOL    HW1 8480   6.828   6.577   4.194
 2527SOL    HW2 8481   6.901   6.431   4.199
 2528SOL     OW 8482   5.320   5.375   0.871
 2528SOL    HW1 8483   5.317   5.350   0.968
 2528SOL    HW2 8484   5.228   5.375   0.834
 2529SOL     OW 8485   5.144   4.664   5.590
 2529SOL    HW1 8486   5.150   4.639   5.493
 2529SOL    HW2 8487   5.058   4.628   5.627
 2530SOL     OW 8488   1.011   6.217   3.188
 2530SOL    HW1 8489   1.003   6.264   3.276
 2530SOL    HW2 8490   0.995   6.119   3.201
 2531SOL     OW 8491   5.501   2.047   6.859
 2531SOL    HW1 8492   5.450   2.095   6.789
 2531SOL    HW2 8493   5.555   2.113   6.912
 2532SOL     OW 8494   0.772   5.422   5.726
 2532SOL    HW1 8495   0.763   5.441   5.628
 2532SOL    HW2 8496   0.856   5.464   5.761
 2533SOL     OW 8497   5.902   0.615   5.107
 2533SOL    HW1 8498   5.854   0.530   5.131
 2533SOL    HW2 8499   5.836   0.684   5.079
 2534SOL     OW 8500   6.737   1.204   3.472
 2534SOL    HW1 8501   6.759   1.275   3.540
 2534SOL    HW2 8502   6.748   1.114   3.514
 2535SOL     OW 8503   2.903   1.017   1.839
 2535SOL    HW1 8504   2.957   1.032   1.756
 2535SOL    HW2 8505   2.906   1.099   1.896
 2536SOL     OW 8506   0.314   0.448   3.976
 2536SOL    HW1 8507   0.275   0.495   4.055
 2536SOL    HW2 8508   0.394   0.396   4.004
 2537SOL     OW 8509   2.958   6.240   2.409
 2537SOL    HW1 8510   2.962   6.280   2.318
 2537SOL    HW2 8511   2.894   6.163   2.410
 2538SOL     OW 8512   0.110   4.946   5.044
 2538SOL    HW1 8513   0.197   4.956   5.091
 2538SOL    HW2 8514   0.081   4.850   5.047
 2539SOL     OW 8515   1.841   0.495   5.445
 2539SOL    HW1 8516   1.923   0.516   5.499
 2539SOL    HW2 8517   1.846   0.401   5.413
 2540SOL     OW 8518   5.053   2.668   2.446
 2540SOL    HW1 8519   5.039   2.629   2.355
 2540SOL    HW2 8520   5.015   2.606   2.515
 2541SOL     OW 8521   1.368   1.612   6.896
 2541SOL    HW1 8522   1.399   1.531   6.946
 2541SOL    HW2 8523   1.433   1.686   6.909
 2542SOL     OW 8524   3.972   1.445   3.436
 2542SOL    HW1 8525   3.986   1.402   3.525
 2542SOL    HW2 8526   3.886   1.414   3.397
 2543SOL     OW 8527   5.999   0.329   5.395
 2543SOL    HW1 8528   5.901   0.319   5.415
 2543SOL    HW2 8529   6.026   0.260   5.327
 2544SOL     OW 8530   0.106   6.729   1.046
 2544SOL    HW1 8531   0.122   6.819   1.006
 2544SOL    HW2 8532   0.147   6.726   1.137
 2545SOL     OW 8533   0.030   1.380   0.095
 2545SOL    HW1 8534   0.011   1.458   0.155
 2545SOL    HW2 8535   0.124   1.387   0.060
 2546SOL     OW 8536   6.378   3.737   2.539
 2546SOL    HW1 8537   6.447   3.744   2.611
 2546SOL    HW2 8538   6.379   3.644   2.501
 2547SOL     OW 8539   5.530   3.530   0.990
 2547SOL    HW1 8540   5.623   3.496   1.006
 2547SOL    HW2 8541   5.510   3.526   0.892
 2548SOL     OW 8542   6.705   0.094   5.544
 2548SOL    HW1 8543   6.787   0.141   5.511
 2548SOL    HW2 8544   6.730   0.002   5.574
 2549SOL     OW 8545   3.080   5.293   0.522
 2549SOL    HW1 8546   3.135   5.230   0.468
 2549SOL    HW2 8547   3.006   5.330   0.465
 2550SOL     OW 8548   3.743   0.230   1.041
 2550SOL    HW1 8549   3.686   0.158   1.002
 2550SOL    HW2 8550   3.775   0.202   1.132
 2551SOL     OW 8551   3.482   4.441   1.387
 2551SOL    HW1 8552   3.571   4.469   1.353
 2551SOL    HW2 8553   3.410   4.485   1.333
 2552SOL     OW 8554   2.351   4.576   1.535
 2552SOL    HW1 8555   2.370   4.587   1.633
 2552SOL    HW2 8556   2.426   4.528   1.491
 2553SOL     OW 8557   4.669   1.482   0.124
 2553SOL    HW1 8558   4.683   1.438   0.212
 2553SOL    HW2 8559   4.573   1.506   0.113
 2554SOL     OW 8560   0.814   5.686   0.797
 2554SOL    HW1 8561   0.739   5.666   0.734
 2554SOL    HW2 8562   0.836   5.783   0.793
 2555SOL     OW 8563   0.966   6.306   5.507
 2555SOL    HW1 8564   0.945   6.323   5.411
 2555SOL    HW2 8565   1.056   6.343   5.529
 2556SOL     OW 8566   5.267   0.244   0.640
 2556SOL    HW1 8567   5.339   0.225   0.706
 2556SOL    HW2 8568   5.178   0.222   0.681
 2557SOL     OW 8569   2.772   1.309   0.416
 2557SOL    HW1 8570   2.732   1.222   0.384
 2557SOL    HW2 8571   2.867   1.294   0.443
 2558SOL     OW 8572   5.556   1.943   1.557
 2558SOL    HW1 8573   5.651   1.927   1.583
 2558SOL    HW2 8574   5.545   1.929   1.459
 2559SOL     OW 8575   6.190   5.170   3.364
 2559SOL    HW1 8576   6.106   5.141   3.410
 2559SOL    HW2 8577   6.191   5.270   3.358
 2560SOL     OW 8578   4.376   2.547   1.735
 2560SOL    HW1 8579   4.446   2.542   1.806
 2560SOL    HW2 8580   4.312   2.471   1.745
 2561SOL     OW 8581   3.501   0.379   4.637
 2561SOL    HW1 8582   3.532   0.468   4.668
 2561SOL    HW2 8583   3.524   0.368   4.540
 2562SOL     OW 8584   1.515   6.638   4.851
 2562SOL    HW1 8585   1.575   6.633   4.931
 2562SOL    HW2 8586   1.488   6.546   4.824
 2563SOL     OW 8587   4.084   2.183   6.340
 2563SOL    HW1 8588   3.992   2.220   6.348
 2563SOL    HW2 8589   4.149   2.244   6.388
 2564SOL     OW 8590   1.596   1.365   0.909
 2564SOL    HW1 8591   1.526   1.338   0.844
 2564SOL    HW2 8592   1.662   1.290   0.921
 2565SOL     OW 8593   0.104   0.652   1.185
 2565SOL    HW1 8594   0.109   0.724   1.115
 2565SOL    HW2 8595   0.164   0.576   1.160
 2566SOL     OW 8596   3.126   1.369   1.081
 2566SOL    HW1 8597   3.110   1.328   0.992
 2566SOL    HW2 8598   3.108   1.302   1.153
 2567SOL     OW 8599   2.294   1.069   6.439
 2567SOL    HW1 8600   2.281   0.994   6.374
 2567SOL    HW2 8601   2.314   1.031   6.529
 2568SOL     OW 8602   2.831   6.219   0.965
 2568SOL    HW1 8603   2.779   6.156   1.022
 2568SOL    HW2 8604   2.840   6.182   0.873
 2569SOL     OW 8605   2.414   6.444   6.705
 2569SOL    HW1 8606   2.362   6.529   6.695
 2569SOL    HW2 8607   2.358   6.377   6.753
 2570SOL     OW 8608   0.009   6.913   3.894
 2570SOL    HW1 8609   0.087   6.887   3.951
 2570SOL    HW2 8610   0.024   7.004   3.855
 2571SOL     OW 8611   3.751   3.407   3.204
 2571SOL    HW1 8612   3.778   3.490   3.253
 2571SOL    HW2 8613   3.768   3.327   3.262
 2572SOL     OW 8614   2.500   5.497   2.456
 2572SOL    HW1 8615   2.486   5.568   2.386
 2572SOL    HW2 8616   2.540   5.416   2.413
 2573SOL     OW 8617   0.052   1.107   3.261
 2573SOL    HW1 8618   0.115   1.089   3.185
 2573SOL    HW2 8619   0.018   1.200   3.254
 2574SOL     OW 8620   0.134   3.913   1.753
 2574SOL    HW1 8621   0.148   3.989   1.817
 2574SOL    HW2 8622   0.074   3.845   1.795
 2575SOL     OW 8623   4.588   3.730   5.336
 2575SOL    HW1 8624   4.493   3.709   5.359
 2575SOL    HW2 8625   4.618   3.670   5.262
 2576SOL     OW 8626   0.550   0.230   3.142
 2576SOL    HW1 8627   0.500   0.194   3.063
 2576SOL    HW2 8628   0.576   0.325   3.126
 2577SOL     OW 8629   1.602   4.627   0.961
 2577SOL    HW1 8630   1.647   4.539   0.949
 2577SOL    HW2 8631   1.550   4.650   0.879
 2578SOL     OW 8632   4.526   2.706   4.977
 2578SOL    HW1 8633   4.574   2.755   4.904
 2578SOL    HW2 8634   4.427   2.711   4.961
 2579SOL     OW 8635   0.315   1.340   0.010
 2579SOL    HW1 8636   0.369   1.359   0.092
 2579SOL    HW2 8637   0.353   1.261   6.981
 2580SOL     OW 8638   1.926   1.985   5.525
 2580SOL    HW1 8639   1.883   1.966   5.613
 2580SOL    HW2 8640   1.864   2.039   5.468
 2581SOL     OW 8641   5.705   0.049   4.346
 2581SOL    HW1 8642   5.718   0.053   4.445
 2581SOL    HW2 8643   5.760   6.993   4.309
 2582SOL     OW 8644   6.653   4.199   3.215
 2582SOL    HW1 8645   6.611   4.290   3.207
 2582SOL    HW2 8646   6.688   4.171   3.125
 2583SOL     OW 8647   3.120   1.140   0.374
 2583SOL    HW1 8648   3.186   1.064   0.369
 2583SOL    HW2 8649   3.044   1.114   0.433
 2584SOL     OW 8650   4.093   0.865   3.192
 2584SOL    HW1 8651   4.159   0.852   3.118
 2584SOL    HW2 8652   4.008   0.818   3.168
 2585SOL     OW 8653   3.573   0.442   2.193
 2585SOL    HW1 8654   3.522   0.526   2.212
 2585SOL    HW2 8655   3.611   0.406   2.278
 2586SOL     OW 8656   0.846   1.468   3.794
 2586SOL    HW1 8657   0.848   1.372   3.821
 2586SOL    HW2 8658   0.816   1.476   3.699
 2587SOL     OW 8659   6.430   4.843   2.723
 2587SOL    HW1 8660   6.511   4.848   2.665
 2587SOL    HW2 8661   6.350   4.870   2.670
 2588SOL     OW 8662   3.666   6.747   2.661
 2588SOL    HW1 8663   3.626   6.732   2.752
 2588SOL    HW2 8664   3.686   6.844   2.649
 2589SOL     OW 8665   4.554   6.555   1.653
 2589SOL    HW1 8666   4.552   6.492   1.731
 2589SOL    HW2 8667   4.563   6.649   1.687
 2590SOL     OW 8668   4.017   5.879   3.952
 2590SOL    HW1 8669   4.085   5.897   4.023
 2590SOL    HW2 8670   4.058   5.824   3.879
 2591SOL     OW 8671   5.942   0.526   0.335
 2591SOL    HW1 8672   5.862   0.581   0.314
 2591SOL    HW2 8673   6.011   0.583   0.379
 2592SOL     OW 8674   2.758   4.741   1.750
 2592SOL    HW1 8675   2.686   4.799   1.788
 2592SOL    HW2 8676   2.797   4.684   1.822
 2593SOL     OW 8677   3.145   0.037   3.831
 2593SOL    HW1 8678   3.205   0.011   3.755
 2593SOL    HW2 8679   3.192   0.104   3.888
 2594SOL     OW 8680   1.967   5.951   6.819
 2594SOL    HW1 8681   2.042   5.966   6.885
 2594SOL    HW2 8682   2.006   5.928   6.730
 2595SOL     OW 8683   0.031   3.031   4.016
 2595SOL    HW1 8684   0.095   3.031   4.093
 2595SOL    HW2 8685   0.081   3.042   3.931
 2596SOL     OW 8686   4.210   1.990   1.082
 2596SOL    HW1 8687   4.218   1.924   1.008
 2596SOL    HW2 8688   4.237   2.081   1.049
 2597SOL     OW 8689   2.514   2.263   6.146
 2597SOL    HW1 8690   2.503   2.276   6.245
 2597SOL    HW2 8691   2.432   2.296   6.099
 2598SOL     OW 8692   0.038   1.257   2.835
 2598SOL    HW1 8693   7.013   1.342   2.863
 2598SOL    HW2 8694   0.106   1.231   2.903
 2599SOL     OW 8695   4.853   5.864   6.445
 2599SOL    HW1 8696   4.838   5.962   6.440
 2599SOL    HW2 8697   4.859   5.825   6.353
 2600SOL     OW 8698   0.838   2.577   4.710
 2600SOL    HW1 8699   0.882   2.657   4.752
 2600SOL    HW2 8700   0.739   2.585   4.717
 2601SOL     OW 8701   4.143   3.944   5.426
 2601SOL    HW1 8702   4.186   4.035   5.421
 2601SOL    HW2 8703   4.066   3.940   5.362
 2602SOL     OW 8704   5.782   6.620   5.995
 2602SOL    HW1 8705   5.838   6.675   6.058
 2602SOL    HW2 8706   5.836   6.597   5.914
 2603SOL     OW 8707   1.658   1.680   6.847
 2603SOL    HW1 8708   1.629   1.744   6.776
 2603SOL    HW2 8709   1.758   1.684   6.857
 2604SOL     OW 8710   5.233   1.582   0.653
 2604SOL    HW1 8711   5.163   1.646   0.620
 2604SOL    HW2 8712   5.281   1.622   0.731
 2605SOL     OW 8713   5.688   3.502   4.513
 2605SOL    HW1 8714   5.779   3.536   4.490
 2605SOL    HW2 8715   5.650   3.452   4.435
 2606SOL     OW 8716   6.655   4.629   1.254
 2606SOL    HW1 8717   6.610   4.665   1.171
 2606SOL    HW2 8718   6.739   4.680   1.270
 2607SOL     OW 8719   0.536   1.038   4.207
 2607SOL    HW1 8720   0.469   1.091   4.155
 2607SOL    HW2 8721   0.621   1.031   4.155
 2608SOL     OW 8722   4.558   0.675   0.555
 2608SOL    HW1 8723   4.620   0.642   0.626
 2608SOL    HW2 8724   4.594   0.652   0.465
 2609SOL     OW 8725   1.029   3.545   3.259
 2609SOL    HW1 8726   0.934   3.535   3.232
 2609SOL    HW2 8727   1.036   3.542   3.359
 2610SOL     OW 8728   5.246   5.769   4.422
 2610SOL    HW1 8729   5.320   5.751   4.488
 2610SOL    HW2 8730   5.178   5.696   4.427
 2611SOL     OW 8731   2.892   5.616   2.357
 2611SOL    HW1 8732   2.803   5.573   2.353
 2611SOL    HW2 8733   2.949   5.582   2.282
 2612SOL     OW 8734   0.523   0.049   5.283
 2612SOL    HW1 8735   0.510   0.138   5.240
 2612SOL    HW2 8736   0.583   7.011   5.225
 2613SOL     OW 8737   4.213   1.257   0.467
 2613SOL    HW1 8738   4.309   1.232   0.480
 2613SOL    HW2 8739   4.160   1.226   0.546
 2614SOL     OW 8740   6.162   6.048   6.729
 2614SOL    HW1 8741   6.073   6.087   6.706
 2614SOL    HW2 8742   6.179   6.058   6.827
 2615SOL     OW 8743   6.356   3.723   1.402
 2615SOL    HW1 8744   6.288   3.795   1.389
 2615SOL    HW2 8745   6.407   3.710   1.317
 2616SOL     OW 8746   4.051   3.905   1.836
 2616SOL    HW1 8747   4.029   3.902   1.933
 2616SOL    HW2 8748   4.133   3.962   1.822
 2617SOL     OW 8749   2.639   6.208   1.399
 2617SOL    HW1 8750   2.562   6.206   1.463
 2617SOL    HW2 8751   2.681   6.118   1.394
 2618SOL     OW 8752   1.187   6.232   0.282
 2618SOL    HW1 8753   1.144   6.158   0.334
 2618SOL    HW2 8754   1.249   6.192   0.214
 2619SOL     OW 8755   6.114   1.353   1.925
 2619SOL    HW1 8756   6.092   1.445   1.956
 2619SOL    HW2 8757   6.053   1.327   1.851
 2620SOL     OW 8758   1.717   5.832   4.174
 2620SOL    HW1 8759   1.716   5.760   4.244
 2620SOL    HW2 8760   1.778   5.805   4.099
 2621SOL     OW 8761   0.948   5.654   4.758
 2621SOL    HW1 8762   1.007   5.733   4.769
 2621SOL    HW2 8763   0.968   5.587   4.830
 2622SOL     OW 8764   2.284   2.670   4.834
 2622SOL    HW1 8765   2.271   2.763   4.799
 2622SOL    HW2 8766   2.278   2.671   4.934
 2623SOL     OW 8767   3.021   0.807   6.251
 2623SOL    HW1 8768   3.086   0.783   6.179
 2623SOL    HW2 8769   3.069   0.819   6.337
 2624SOL     OW 8770   5.837   2.117   4.091
 2624SOL    HW1 8771   5.752   2.170   4.092
 2624SOL    HW2 8772   5.859   2.092   3.997
 2625SOL     OW 8773   2.753   0.328   6.150
 2625SOL    HW1 8774   2.781   0.421   6.176
 2625SOL    HW2 8775   2.709   0.331   6.060
 2626SOL     OW 8776   1.634   6.986   3.105
 2626SOL    HW1 8777   1.604   6.935   3.186
 2626SOL    HW2 8778   1.671   0.055   3.134
 2627SOL     OW 8779   0.423   6.839   4.894
 2627SOL    HW1 8780   0.423   6.937   4.914
 2627SOL    HW2 8781   0.331   6.802   4.907
 2628SOL     OW 8782   4.369   5.667   0.195
 2628SOL    HW1 8783   4.340   5.728   0.122
 2628SOL    HW2 8784   4.297   5.601   0.215
 2629SOL     OW 8785   2.971   3.741   1.814
 2629SOL    HW1 8786   2.995   3.829   1.854
 2629SOL    HW2 8787   2.914   3.690   1.879
 2630SOL     OW 8788   3.357   1.962   2.829
 2630SOL    HW1 8789   3.399   1.983   2.916
 2630SOL    HW2 8790   3.393   2.023   2.758
 2631SOL     OW 8791   3.822   6.144   4.306
 2631SOL    HW1 8792   3.867   6.226   4.340
 2631SOL    HW2 8793   3.841   6.134   4.208
 2632SOL     OW 8794   5.029   1.441   1.074
 2632SOL    HW1 8795   5.019   1.517   1.139
 2632SOL    HW2 8796   4.993   1.357   1.114
 2633SOL     OW 8797   0.000   2.391   6.800
 2633SOL    HW1 8798   0.044   2.461   6.744
 2633SOL    HW2 8799   6.957   2.337   6.744
 2634SOL     OW 8800   3.025   4.832   0.821
 2634SOL    HW1 8801   2.977   4.813   0.735
 2634SOL    HW2 8802   3.078   4.916   0.812
 2635SOL     OW 8803   5.842   4.911   3.353
 2635SOL    HW1 8804   5.939   4.910   3.331
 2635SOL    HW2 8805   5.822   4.991   3.410
 2636SOL     OW 8806   5.980   5.934   5.182
 2636SOL    HW1 8807   5.988   6.033   5.193
 2636SOL    HW2 8808   5.884   5.909   5.171
 2637SOL     OW 8809   4.463   6.409   2.763
 2637SOL    HW1 8810   4.481   6.500   2.801
 2637SOL    HW2 8811   4.457   6.343   2.838
 2638SOL     OW 8812   4.896   5.497   1.139
 2638SOL    HW1 8813   4.982   5.469   1.182
 2638SOL    HW2 8814   4.826   5.510   1.208
 2639SOL     OW 8815   6.666   6.638   0.317
 2639SOL    HW1 8816   6.629   6.708   0.257
 2639SOL    HW2 8817   6.766   6.635   0.309
 2640SOL     OW 8818   6.643   6.555   6.321
 2640SOL    HW1 8819   6.647   6.469   6.270
 2640SOL    HW2 8820   6.560   6.555   6.378
 2641SOL     OW 8821   0.108   5.416   0.743
 2641SOL    HW1 8822   0.157   5.388   0.825
 2641SOL    HW2 8823   0.011   5.426   0.764
 2642SOL     OW 8824   6.562   0.567   3.787
 2642SOL    HW1 8825   6.625   0.530   3.856
 2642SOL    HW2 8826   6.604   0.559   3.696
 2643SOL     OW 8827   1.780   0.255   2.177
 2643SOL    HW1 8828   1.698   0.312   2.175
 2643SOL    HW2 8829   1.753   0.159   2.190
 2644SOL     OW 8830   6.687   6.043   4.709
 2644SOL    HW1 8831   6.632   6.119   4.744
 2644SOL    HW2 8832   6.693   6.048   4.609
 2645SOL     OW 8833   5.712   6.021   6.225
 2645SOL    HW1 8834   5.709   6.119   6.245
 2645SOL    HW2 8835   5.781   5.978   6.282
 2646SOL     OW 8836   5.927   5.914   6.352
 2646SOL    HW1 8837   5.975   5.850   6.412
 2646SOL    HW2 8838   5.973   5.918   6.263
 2647SOL     OW 8839   3.206   3.620   6.908
 2647SOL    HW1 8840   3.193   3.527   6.942
 2647SOL    HW2 8841   3.302   3.646   6.919
 2648SOL     OW 8842   4.158   1.599   3.313
 2648SOL    HW1 8843   4.097   1.571   3.387
 2648SOL    HW2 8844   4.110   1.663   3.253
 2649SOL     OW 8845   2.984   3.675   5.105
 2649SOL    HW1 8846   3.049   3.712   5.038
 2649SOL    HW2 8847   2.929   3.603   5.061
 2650SOL     OW 8848   0.592   6.680   2.312
 2650SOL    HW1 8849   0.526   6.638   2.374
 2650SOL    HW2 8850   0.676   6.626   2.310
 2651SOL     OW 8851   0.560   7.014   3.283
 2651SOL    HW1 8852   0.576   0.015   3.379
 2651SOL    HW2 8853   0.545   0.081   3.233
 2652SOL     OW 8854   3.008   3.396   2.768
 2652SOL    HW1 8855   2.959   3.376   2.853
 2652SOL    HW2 8856   3.072   3.322   2.749
 2653SOL     OW 8857   0.030   6.042   0.779
 2653SOL    HW1 8858   0.086   5.969   0.739
 2653SOL    HW2 8859   6.995   6.005   0.855
 2654SOL     OW 8860   6.697   2.060   5.816
 2654SOL    HW1 8861   6.654   2.081   5.904
 2654SOL    HW2 8862   6.627   2.029   5.751
 2655SOL     OW 8863   5.364   5.350   4.462
 2655SOL    HW1 8864   5.421   5.419   4.507
 2655SOL    HW2 8865   5.409   5.261   4.467
 2656SOL     OW 8866   5.868   3.436   5.147
 2656SOL    HW1 8867   5.865   3.374   5.068
 2656SOL    HW2 8868   5.786   3.493   5.147
 2657SOL     OW 8869   3.754   2.560   5.981
 2657SOL    HW1 8870   3.728   2.526   5.891
 2657SOL    HW2 8871   3.852   2.548   5.995
 2658SOL     OW 8872   5.988   4.128   4.998
 2658SOL    HW1 8873   5.942   4.125   5.086
 2658SOL    HW2 8874   6.063   4.061   4.997
 2659SOL     OW 8875   6.663   1.658   3.484
 2659SOL    HW1 8876   6.605   1.589   3.441
 2659SOL    HW2 8877   6.613   1.745   3.488
 2660SOL     OW 8878   0.455   2.319   3.139
 2660SOL    HW1 8879   0.478   2.243   3.200
 2660SOL    HW2 8880   0.504   2.308   3.053
 2661SOL     OW 8881   3.480   0.010   3.325
 2661SOL    HW1 8882   3.566   0.024   3.274
 2661SOL    HW2 8883   3.428   0.096   3.325
 2662SOL     OW 8884   3.725   0.917   3.887
 2662SOL    HW1 8885   3.651   0.935   3.823
 2662SOL    HW2 8886   3.784   0.844   3.852
 2663SOL     OW 8887   0.650   4.244   3.080
 2663SOL    HW1 8888   0.643   4.200   3.170
 2663SOL    HW2 8889   0.645   4.174   3.008
 2664SOL     OW 8890   4.472   4.279   1.591
 2664SOL    HW1 8891   4.420   4.260   1.675
 2664SOL    HW2 8892   4.432   4.357   1.543
 2665SOL     OW 8893   4.562   6.719   4.830
 2665SOL    HW1 8894   4.559   6.702   4.929
 2665SOL    HW2 8895   4.509   6.649   4.783
 2666SOL     OW 8896   5.123   5.668   1.613
 2666SOL    HW1 8897   5.043   5.614   1.639
 2666SOL    HW2 8898   5.142   5.735   1.684
 2667SOL     OW 8899   1.859   5.265   3.100
 2667SOL    HW1 8900   1.848   5.343   3.038
 2667SOL    HW2 8901   1.846   5.296   3.194
 2668SOL     OW 8902   6.922   2.208   5.079
 2668SOL    HW1 8903   6.978   2.177   5.156
 2668SOL    HW2 8904   6.931   2.307   5.069
 2669SOL     OW 8905   4.047   5.959   4.947
 2669SOL    HW1 8906   3.978   6.029   4.966
 2669SOL    HW2 8907   4.117   5.961   5.019
 2670SOL     OW 8908   2.711   6.573   4.310
 2670SOL    HW1 8909   2.809   6.583   4.292
 2670SOL    HW2 8910   2.692   6.592   4.406
 2671SOL     OW 8911   3.288   4.115   6.664
 2671SOL    HW1 8912   3.259   4.051   6.735
 2671SOL    HW2 8913   3.283   4.071   6.574
 2672SOL     OW 8914   0.624   4.327   0.242
 2672SOL    HW1 8915   0.631   4.290   0.335
 2672SOL    HW2 8916   0.529   4.350   0.223
 2673SOL     OW 8917   3.446   2.127   3.068
 2673SOL    HW1 8918   3.464   2.187   2.990
 2673SOL    HW2 8919   3.520   2.136   3.135
 2674SOL     OW 8920   5.938   5.654   5.369
 2674SOL    HW1 8921   5.912   5.671   5.274
 2674SOL    HW2 8922   5.866   5.603   5.415
 2675SOL     OW 8923   0.196   4.731   5.890
 2675SOL    HW1 8924   0.215   4.782   5.973
 2675SOL    HW2 8925   0.250   4.647   5.889
 2676SOL     OW 8926   4.262   0.454   1.693
 2676SOL    HW1 8927   4.264   0.387   1.767
 2676SOL    HW2 8928   4.275   0.546   1.730
 2677SOL     OW 8929   2.400   4.492   2.309
 2677SOL    HW1 8930   2.369   4.409   2.264
 2677SOL    HW2 8931   2.393   4.569   2.246
 2678SOL     OW 8932   0.470   6.182   6.557
 2678SOL    HW1 8933   0.380   6.159   6.519
 2678SOL    HW2 8934   0.497   6.113   6.624
 2679SOL     OW 8935   2.559   4.927   1.827
 2679SOL    HW1 8936   2.604   4.943   1.914
 2679SOL    HW2 8937   2.599   4.987   1.757
 2680SOL     OW 8938   0.732   2.635   1.061
 2680SOL    HW1 8939   0.819   2.588   1.046
 2680SOL    HW2 8940   0.717   2.648   1.159
 2681SOL     OW 8941   2.100   1.945   1.856
 2681SOL    HW1 8942   2.175   2.012   1.853
 2681SOL    HW2 8943   2.124   1.871   1.918
 2682SOL     OW 8944   6.883   2.817   3.972
 2682SOL    HW1 8945   6.937   2.899   3.988
 2682SOL    HW2 8946   6.796   2.824   4.021
 2683SOL     OW 8947   1.339   6.814   0.409
 2683SOL    HW1 8948   1.353   6.727   0.362
 2683SOL    HW2 8949   1.283   6.799   0.490
 2684SOL     OW 8950   2.016   5.666   2.684
 2684SOL    HW1 8951   2.113   5.649   2.702
 2684SOL    HW2 8952   2.003   5.763   2.662
 2685SOL     OW 8953   5.341   5.549   5.519
 2685SOL    HW1 8954   5.411   5.554   5.590
 2685SOL    HW2 8955   5.383   5.522   5.432
 2686SOL     OW 8956   1.108   3.271   5.047
 2686SOL    HW1 8957   1.130   3.313   4.959
 2686SOL    HW2 8958   1.183   3.210   5.073
 2687SOL     OW 8959   4.484   5.046   3.215
 2687SOL    HW1 8960   4.435   5.109   3.154
 2687SOL    HW2 8961   4.522   5.098   3.291
 2688SOL     OW 8962   3.501   4.366   5.672
 2688SOL    HW1 8963   3.457   4.446   5.712
 2688SOL    HW2 8964   3.434   4.314   5.619
 2689SOL     OW 8965   6.425   2.390   4.367
 2689SOL    HW1 8966   6.453   2.485   4.364
 2689SOL    HW2 8967   6.325   2.385   4.370
 2690SOL     OW 8968   3.093   3.898   3.736
 2690SOL    HW1 8969   3.114   3.964   3.664
 2690SOL    HW2 8970   3.000   3.862   3.722
 2691SOL     OW 8971   1.461   6.210   2.065
 2691SOL    HW1 8972   1.460   6.178   2.159
 2691SOL    HW2 8973   1.528   6.283   2.055
 2692SOL     OW 8974   0.026   4.713   3.268
 2692SOL    HW1 8975   7.010   4.624   3.241
 2692SOL    HW2 8976   6.992   4.785   3.222
 2693SOL     OW 8977   1.626   3.419   3.112
 2693SOL    HW1 8978   1.689   3.380   3.044
 2693SOL    HW2 8979   1.543   3.364   3.116
 2694SOL     OW 8980   1.897   1.637   2.736
 2694SOL    HW1 8981   1.884   1.637   2.637
 2694SOL    HW2 8982   1.905   1.731   2.769
 2695SOL     OW 8983   4.058   1.953   2.614
 2695SOL    HW1 8984   4.055   1.911   2.705
 2695SOL    HW2 8985   4.126   1.906   2.558
 2696SOL     OW 8986   3.742   3.445   5.910
 2696SOL    HW1 8987   3.771   3.541   5.902
 2696SOL    HW2 8988   3.738   3.404   5.819
 2697SOL     OW 8989   2.781   1.134   5.081
 2697SOL    HW1 8990   2.846   1.061   5.061
 2697SOL    HW2 8991   2.829   1.212   5.120
 2698SOL     OW 8992   1.759   2.068   6.512
 2698SOL    HW1 8993   1.835   2.132   6.498
 2698SOL    HW2 8994   1.709   2.055   6.427
 2699SOL     OW 8995   1.485   5.349   3.259
 2699SOL    HW1 8996   1.388   5.374   3.256
 2699SOL    HW2 8997   1.503   5.294   3.340
 2700SOL     OW 8998   2.117   4.426   2.966
 2700SOL    HW1 8999   2.121   4.406   2.868
 2700SOL    HW2 9000   2.044   4.372   3.008
 2701SOL     OW 9001   3.000   0.526   5.561
 2701SOL    HW1 9002   3.007   0.626   5.560
 2701SOL    HW2 9003   2.990   0.494   5.656
 2702SOL     OW 9004   6.386   6.326   2.526
 2702SOL    HW1 9005   6.482   6.328   2.499
 2702SOL    HW2 9006   6.350   6.234   2.515
 2703SOL     OW 9007   1.826   1.974   3.094
 2703SOL    HW1 9008   1.792   2.052   3.146
 2703SOL    HW2 9009   1.921   1.989   3.069
 2704SOL     OW 9010   1.369   6.269   0.648
 2704SOL    HW1 9011   1.285   6.318   0.669
 2704SOL    HW2 9012   1.420   6.319   0.577
 2705SOL     OW 9013   6.806   3.336   2.554
 2705SOL    HW1 9014   6.816   3.268   2.482
 2705SOL    HW2 9015   6.896   3.363   2.588
 2706SOL     OW 9016   6.656   2.316   3.658
 2706SOL    HW1 9017   6.593   2.314   3.736
 2706SOL    HW2 9018   6.659   2.408   3.619
 2707SOL     OW 9019   2.558   1.461   6.660
 2707SOL    HW1 9020   2.464   1.486   6.635
 2707SOL    HW2 9021   2.557   1.406   6.744
 2708SOL     OW 9022   1.609   4.778   7.011
 2708SOL    HW1 9023   1.677   4.710   0.019
 2708SOL    HW2 9024   1.651   4.845   6.949
 2709SOL     OW 9025   4.817   6.720   1.579
 2709SOL    HW1 9026   4.719   6.704   1.580
 2709SOL    HW2 9027   4.839   6.801   1.634
 2710SOL     OW 9028   6.690   4.363   2.676
 2710SOL    HW1 9029   6.632   4.357   2.594
 2710SOL    HW2 9030   6.737   4.276   2.690
 2711SOL     OW 9031   1.532   0.133   2.556
 2711SOL    HW1 9032   1.492   0.041   2.562
 2711SOL    HW2 9033   1.465   0.196   2.517
 2712SOL     OW 9034   3.230   5.426   2.751
 2712SOL    HW1 9035   3.149   5.423   2.692
 2712SOL    HW2 9036   3.222   5.355   2.821
 2713SOL     OW 9037   2.002   2.655   5.465
 2713SOL    HW1 9038   1.969   2.698   5.549
 2713SOL    HW2 9039   2.102   2.651   5.466
 2714SOL     OW 9040   5.390   0.142   6.883
 2714SOL    HW1 9041   5.316   0.210   6.880
 2714SOL    HW2 9042   5.350   0.051   6.882
 2715SOL     OW 9043   6.409   0.694   6.973
 2715SOL    HW1 9044   6.497   0.679   7.019
 2715SOL    HW2 9045   6.374   0.607   6.939
 2716SOL     OW 9046   6.513   6.951   1.994
 2716SOL    HW1 9047   6.470   6.934   2.082
 2716SOL    HW2 9048   6.444   6.956   1.922
 2717SOL     OW 9049   0.411   6.695   3.121
 2717SOL    HW1 9050   0.319   6.734   3.116
 2717SOL    HW2 9051   0.478   6.769   3.116
 2718SOL     OW 9052   0.696   4.110   3.304
 2718SOL    HW1 9053   0.758   4.165   3.360
 2718SOL    HW2 9054   0.603   4.118   3.339
 2719SOL     OW 9055   4.239   4.730   3.008
 2719SOL    HW1 9056   4.309   4.750   3.077
 2719SOL    HW2 9057   4.262   4.646   2.960
 2720SOL     OW 9058   0.668   6.167   4.228
 2720SOL    HW1 9059   0.569   6.156   4.224
 2720SOL    HW2 9060   0.709   6.135   4.142
 2721SOL     OW 9061   5.253   6.153   3.410
 2721SOL    HW1 9062   5.180   6.126   3.472
 2721SOL    HW2 9063   5.229   6.241   3.368
 2722SOL     OW 9064   0.814   5.978   1.804
 2722SOL    HW1 9065   0.821   5.960   1.902
 2722SOL    HW2 9066   0.895   5.943   1.757
 2723SOL     OW 9067   2.050   1.732   4.464
 2723SOL    HW1 9068   1.997   1.807   4.503
 2723SOL    HW2 9069   2.066   1.662   4.534
 2724SOL     OW 9070   4.402   5.788   6.196
 2724SOL    HW1 9071   4.390   5.884   6.173
 2724SOL    HW2 9072   4.460   5.780   6.278
 2725SOL     OW 9073   2.679   4.722   3.834
 2725SOL    HW1 9074   2.771   4.689   3.856
 2725SOL    HW2 9075   2.614   4.646   3.843
 2726SOL     OW 9076   4.282   6.344   2.539
 2726SOL    HW1 9077   4.187   6.370   2.558
 2726SOL    HW2 9078   4.330   6.330   2.626
 2727SOL     OW 9079   1.707   6.119   4.154
 2727SOL    HW1 9080   1.674   6.030   4.185
 2727SOL    HW2 9081   1.710   6.183   4.231
 2728SOL     OW 9082   2.751   7.015   5.270
 2728SOL    HW1 9083   2.752   0.080   5.216
 2728SOL    HW2 9084   2.658   6.979   5.275
 2729SOL     OW 9085   0.312   4.649   2.606
 2729SOL    HW1 9086   0.331   4.747   2.603
 2729SOL    HW2 9087   0.307   4.613   2.513
 2730SOL     OW 9088   1.404   4.594   1.163
 2730SOL    HW1 9089   1.474   4.599   1.092
 2730SOL    HW2 9090   1.322   4.550   1.127
 2731SOL     OW 9091   2.774   3.984   0.983
 2731SOL    HW1 9092   2.865   3.988   1.025
 2731SOL    HW2 9093   2.780   3.934   0.897
 2732SOL     OW 9094   5.336   3.315   4.343
 2732SOL    HW1 9095   5.301   3.285   4.254
 2732SOL    HW2 9096   5.260   3.329   4.406
 2733SOL     OW 9097   2.127   0.681   6.352
 2733SOL    HW1 9098   2.193   0.736   6.300
 2733SOL    HW2 9099   2.071   0.740   6.410
 2734SOL     OW 9100   1.891   0.064   4.316
 2734SOL    HW1 9101   1.881   6.985   4.331
 2734SOL    HW2 9102   1.851   0.088   4.228
 2735SOL     OW 9103   1.697   5.543   1.724
 2735SOL    HW1 9104   1.657   5.628   1.689
 2735SOL    HW2 9105   1.677   5.534   1.821
 2736SOL     OW 9106   4.312   6.885   6.880
 2736SOL    HW1 9107   4.288   6.799   6.926
 2736SOL    HW2 9108   4.383   6.867   6.812
 2737SOL     OW 9109   3.927   3.679   5.495
 2737SOL    HW1 9110   3.983   3.754   5.460
 2737SOL    HW2 9111   3.835   3.685   5.457
 2738SOL     OW 9112   6.120   4.048   4.257
 2738SOL    HW1 9113   6.132   4.081   4.350
 2738SOL    HW2 9114   6.201   4.072   4.202
 2739SOL     OW 9115   4.374   4.436   6.969
 2739SOL    HW1 9116   4.447   4.504   6.978
 2739SOL    HW2 9117   4.393   4.376   6.892
 2740SOL     OW 9118   6.214   2.665   4.381
 2740SOL    HW1 9119   6.165   2.700   4.301
 2740SOL    HW2 9120   6.202   2.566   4.387
 2741SOL     OW 9121   2.197   3.319   5.002
 2741SOL    HW1 9122   2.181   3.271   4.916
 2741SOL    HW2 9123   2.295   3.323   5.020
 2742SOL     OW 9124   2.693   6.080   5.411
 2742SOL    HW1 9125   2.789   6.104   5.424
 2742SOL    HW2 9126   2.652   6.058   5.500
 2743SOL     OW 9127   5.657   4.518   6.942
 2743SOL    HW1 9128   5.688   4.423   6.930
 2743SOL    HW2 9129   5.563   4.526   6.908
 2744SOL     OW 9130   4.694   6.433   0.454
 2744SOL    HW1 9131   4.780   6.475   0.482
 2744SOL    HW2 9132   4.665   6.471   0.366
 2745SOL     OW 9133   3.080   6.061   1.880
 2745SOL    HW1 9134   3.111   6.155   1.889
 2745SOL    HW2 9135   3.142   6.011   1.820
 2746SOL     OW 9136   0.894   1.888   6.449
 2746SOL    HW1 9137   0.893   1.976   6.402
 2746SOL    HW2 9138   0.849   1.819   6.391
 2747SOL     OW 9139   5.040   5.950   3.639
 2747SOL    HW1 9140   5.012   5.881   3.706
 2747SOL    HW2 9141   4.978   5.947   3.560
 2748SOL     OW 9142   5.968   1.331   4.953
 2748SOL    HW1 9143   5.932   1.246   4.915
 2748SOL    HW2 9144   5.893   1.392   4.976
 2749SOL     OW 9145   5.198   4.942   3.397
 2749SOL    HW1 9146   5.151   4.875   3.453
 2749SOL    HW2 9147   5.276   4.980   3.448
 2750SOL     OW 9148   1.141   6.408   0.701
 2750SOL    HW1 9149   1.043   6.430   0.710
 2750SOL    HW2 9150   1.186   6.478   0.645
 2751SOL     OW 9151   1.923   0.216   6.770
 2751SOL    HW1 9152   1.914   0.120   6.796
 2751SOL    HW2 9153   1.947   0.223   6.673
 2752SOL     OW 9154   0.930   6.412   6.201
 2752SOL    HW1 9155   0.961   6.507   6.195
 2752SOL    HW2 9156   0.923   6.385   6.297
 2753SOL     OW 9157   3.372   5.355   5.360
 2753SOL    HW1 9158   3.406   5.314   5.445
 2753SOL    HW2 9159   3.428   5.434   5.337
 2754SOL     OW 9160   0.857   6.080   4.486
 2754SOL    HW1 9161   0.910   6.047   4.407
 2754SOL    HW2 9162   0.766   6.107   4.455
 2755SOL     OW 9163   4.662   6.258   2.634
 2755SOL    HW1 9164   4.591   6.319   2.670
 2755SOL    HW2 9165   4.641   6.163   2.660
 2756SOL     OW 9166   0.326   2.850   5.167
 2756SOL    HW1 9167   0.384   2.872   5.245
 2756SOL    HW2 9168   0.280   2.762   5.184
 2757SOL     OW 9169   5.376   3.821   6.226
 2757SOL    HW1 9170   5.307   3.778   6.168
 2757SOL    HW2 9171   5.465   3.781   6.206
 2758SOL     OW 9172   0.084   6.393   1.279
 2758SOL    HW1 9173   0.086   6.337   1.362
 2758SOL    HW2 9174   0.042   6.341   1.205
 2759SOL     OW 9175   3.633   3.720   5.127
 2759SOL    HW1 9176   3.615   3.766   5.040
 2759SOL    HW2 9177   3.570   3.642   5.137
 2760SOL     OW 9178   5.120   5.349   2.633
 2760SOL    HW1 9179   5.201   5.305   2.671
 2760SOL    HW2 9180   5.148   5.416   2.564
 2761SOL     OW 9181   1.606   3.251   4.218
 2761SOL    HW1 9182   1.534   3.312   4.249
 2761SOL    HW2 9183   1.567   3.182   4.157
 2762SOL     OW 9184   4.452   1.488   1.883
 2762SOL    HW1 9185   4.534   1.438   1.910
 2762SOL    HW2 9186   4.394   1.502   1.964
 2763SOL     OW 9187   5.856   0.857   4.016
 2763SOL    HW1 9188   5.943   0.907   4.010
 2763SOL    HW2 9189   5.870   0.772   4.067
 2764SOL     OW 9190   6.701   2.770   3.464
 2764SOL    HW1 9191   6.666   2.712   3.538
 2764SOL    HW2 9192   6.800   2.757   3.455
 2765SOL     OW 9193   0.247   6.438   6.623
 2765SOL    HW1 9194   0.291   6.451   6.712
 2765SOL    HW2 9195   0.246   6.340   6.601
 2766SOL     OW 9196   4.984   0.191   0.382
 2766SOL    HW1 9197   4.899   0.231   0.346
 2766SOL    HW2 9198   5.062   0.235   0.337
 2767SOL     OW 9199   0.565   5.624   5.705
 2767SOL    HW1 9200   0.508   5.634   5.786
 2767SOL    HW2 9201   0.507   5.622   5.623
 2768SOL     OW 9202   3.968   6.477   1.479
 2768SOL    HW1 9203   4.041   6.490   1.413
 2768SOL    HW2 9204   4.007   6.454   1.568
 2769SOL     OW 9205   0.558   4.865   5.465
 2769SOL    HW1 9206   0.624   4.930   5.502
 2769SOL    HW2 9207   0.465   4.894   5.488
 2770SOL     OW 9208   2.598   6.758   0.438
 2770SOL    HW1 9209   2.624   6.843   0.484
 2770SOL    HW2 9210   2.502   6.763   0.411
 2771SOL     OW 9211   4.244   6.906   5.197
 2771SOL    HW1 9212   4.331   6.951   5.216
 2771SOL    HW2 9213   4.244   6.873   5.102
 2772SOL     OW 9214   5.422   2.074   3.560
 2772SOL    HW1 9215   5.429   2.012   3.639
 2772SOL    HW2 9216   5.331   2.114   3.558
 2773SOL     OW 9217   5.812   2.273   6.272
 2773SOL    HW1 9218   5.797   2.370   6.287
 2773SOL    HW2 9219   5.880   2.260   6.199
 2774SOL     OW 9220   6.720   0.490   3.989
 2774SOL    HW1 9221   6.682   0.402   4.019
 2774SOL    HW2 9222   6.772   0.532   4.063
 2775SOL     OW 9223   6.918   1.786   4.774
 2775SOL    HW1 9224   6.892   1.835   4.857
 2775SOL    HW2 9225   6.946   1.693   4.798
 2776SOL     OW 9226   4.500   3.995   6.181
 2776SOL    HW1 9227   4.414   3.944   6.185
 2776SOL    HW2 9228   4.496   4.073   6.244
 2777SOL     OW 9229   1.877   2.127   0.245
 2777SOL    HW1 9230   1.919   2.177   0.321
 2777SOL    HW2 9231   1.820   2.190   0.192
 2778SOL     OW 9232   3.244   0.353   5.731
 2778SOL    HW1 9233   3.318   0.411   5.696
 2778SOL    HW2 9234   3.280   0.289   5.798
 2779SOL     OW 9235   5.051   0.869   2.810
 2779SOL    HW1 9236   5.063   0.925   2.892
 2779SOL    HW2 9237   4.964   0.820   2.816
 2780SOL     OW 9238   0.706   1.400   4.496
 2780SOL    HW1 9239   0.702   1.469   4.568
 2780SOL    HW2 9240   0.637   1.331   4.512
 2781SOL     OW 9241   0.526   0.154   2.844
 2781SOL    HW1 9242   0.561   0.083   2.783
 2781SOL    HW2 9243   0.524   0.241   2.795
 2782SOL     OW 9244   5.726   0.099   5.042
 2782SOL    HW1 9245   5.644   0.149   5.068
 2782SOL    HW2 9246   5.788   0.094   5.119
 2783SOL     OW 9247   5.724   2.753   1.622
 2783SOL    HW1 9248   5.810   2.754   1.673
 2783SOL    HW2 9249   5.742   2.760   1.524
 2784SOL     OW 9250   0.363   2.955   1.988
 2784SOL    HW1 9251   0.296   2.990   1.923
 2784SOL    HW2 9252   0.420   2.887   1.943
 2785SOL     OW 9253   5.450   4.104   3.656
 2785SOL    HW1 9254   5.379   4.051   3.702
 2785SOL    HW2 9255   5.429   4.110   3.558
 2786SOL     OW 9256   0.019   5.709   0.688
 2786SOL    HW1 9257   6.967   5.646   0.719
 2786SOL    HW2 9258   0.095   5.707   0.753
 2787SOL     OW 9259   0.776   6.558   5.893
 2787SOL    HW1 9260   0.809   6.551   5.798
 2787SOL    HW2 9261   0.709   6.631   5.900
 2788SOL     OW 9262   2.796   6.467   0.277
 2788SOL    HW1 9263   2.788   6.495   0.372
 2788SOL    HW2 9264   2.784   6.368   0.270
 2789SOL     OW 9265   1.873   1.465   3.831
 2789SOL    HW1 9266   1.827   1.378   3.811
 2789SOL    HW2 9267   1.907   1.504   3.746
 2790SOL     OW 9268   6.686   5.312   1.358
 2790SOL    HW1 9269   6.667   5.248   1.283
 2790SOL    HW2 9270   6.784   5.320   1.371
 2791SOL     OW 9271   0.686   3.043   5.123
 2791SOL    HW1 9272   0.669   3.141   5.116
 2791SOL    HW2 9273   0.785   3.027   5.126
 2792SOL     OW 9274   3.274   2.437   6.231
 2792SOL    HW1 9275   3.310   2.360   6.284
 2792SOL    HW2 9276   3.350   2.489   6.193
 2793SOL     OW 9277   3.884   3.499   6.544
 2793SOL    HW1 9278   3.887   3.399   6.542
 2793SOL    HW2 9279   3.806   3.531   6.489
 2794SOL     OW 9280   1.950   1.808   6.850
 2794SOL    HW1 9281   1.922   1.787   6.944
 2794SOL    HW2 9282   1.940   1.907   6.834
 2795SOL     OW 9283   1.573   6.783   0.940
 2795SOL    HW1 9284   1.557   6.853   1.010
 2795SOL    HW2 9285   1.591   6.695   0.985
 2796SOL     OW 9286   3.108   6.166   6.865
 2796SOL    HW1 9287   3.042   6.241   6.869
 2796SOL    HW2 9288   3.148   6.151   6.955
 2797SOL     OW 9289   4.775   4.107   4.206
 2797SOL    HW1 9290   4.733   4.189   4.245
 2797SOL    HW2 9291   4.765   4.031   4.271
 2798SOL     OW 9292   5.264   2.369   1.902
 2798SOL    HW1 9293   5.288   2.445   1.841
 2798SOL    HW2 9294   5.341   2.351   1.964
 2799SOL     OW 9295   3.508   6.268   5.112
 2799SOL    HW1 9296   3.510   6.183   5.059
 2799SOL    HW2 9297   3.452   6.336   5.064
 2800SOL     OW 9298   5.009   1.668   6.803
 2800SOL    HW1 9299   4.979   1.642   6.895
 2800SOL    HW2 9300   4.976   1.601   6.737
 2801SOL     OW 9301   0.380   4.473   3.388
 2801SOL    HW1 9302   0.381   4.443   3.293
 2801SOL    HW2 9303   0.411   4.398   3.447
 2802SOL     OW 9304   1.301   4.922   4.391
 2802SOL    HW1 9305   1.387   4.883   4.358
 2802SOL    HW2 9306   1.225   4.874   4.348
 2803SOL     OW 9307   3.254   2.277   6.571
 2803SOL    HW1 9308   3.305   2.362   6.554
 2803SOL    HW2 9309   3.316   2.210   6.611
 2804SOL     OW 9310   6.028   2.762   4.149
 2804SOL    HW1 9311   6.058   2.857   4.136
 2804SOL    HW2 9312   5.959   2.740   4.080
 2805SOL     OW 9313   4.274   4.513   0.261
 2805SOL    HW1 9314   4.302   4.486   0.169
 2805SOL    HW2 9315   4.308   4.446   0.328
 2806SOL     OW 9316   0.330   3.447   4.570
 2806SOL    HW1 9317   0.258   3.501   4.614
 2806SOL    HW2 9318   0.409   3.442   4.631
 2807SOL     OW 9319   4.396   1.881   4.207
 2807SOL    HW1 9320   4.419   1.885   4.304
 2807SOL    HW2 9321   4.478   1.860   4.153
 2808SOL     OW 9322   1.224   6.070   6.264
 2808SOL    HW1 9323   1.279   6.032   6.339
 2808SOL    HW2 9324   1.136   6.102   6.300
 2809SOL     OW 9325   0.773   5.990   1.024
 2809SOL    HW1 9326   0.779   5.935   1.107
 2809SOL    HW2 9327   0.703   6.061   1.036
 2810SOL     OW 9328   0.686   6.354   2.587
 2810SOL    HW1 9329   0.645   6.290   2.522
 2810SOL    HW2 9330   0.613   6.401   2.637
 2811SOL     OW 9331   0.801   0.960   0.610
 2811SOL    HW1 9332   0.795   1.048   0.656
 2811SOL    HW2 9333   0.896   0.928   0.611
 2812SOL     OW 9334   1.836   1.273   1.150
 2812SOL    HW1 9335   1.813   1.266   1.053
 2812SOL    HW2 9336   1.935   1.270   1.161
 2813SOL     OW 9337   6.649   1.891   1.094
 2813SOL    HW1 9338   6.551   1.875   1.081
 2813SOL    HW2 9339   6.697   1.874   1.008
 2814SOL     OW 9340   2.532   4.259   6.972
 2814SOL    HW1 9341   2.602   4.192   6.997
 2814SOL    HW2 9342   2.560   4.309   6.890
 2815SOL     OW 9343   6.869   5.470   4.986
 2815SOL    HW1 9344   6.868   5.486   4.887
 2815SOL    HW2 9345   6.775   5.457   5.018
 2816SOL     OW 9346   1.224   4.934   4.670
 2816SOL    HW1 9347   1.253   4.928   4.574
 2816SOL    HW2 9348   1.262   4.857   4.721
 2817SOL     OW 9349   2.475   0.617   2.242
 2817SOL    HW1 9350   2.433   0.684   2.181
 2817SOL    HW2 9351   2.423   0.613   2.327
 2818SOL     OW 9352   1.579   0.882   0.552
 2818SOL    HW1 9353   1.576   0.859   0.455
 2818SOL    HW2 9354   1.601   0.800   0.605
 2819SOL     OW 9355   6.814   0.562   6.406
 2819SOL    HW1 9356   6.790   0.466   6.394
 2819SOL    HW2 9357   6.759   0.619   6.344
 2820SOL     OW 9358   2.050   1.882   0.397
 2820SOL    HW1 9359   2.121   1.949   0.379
 2820SOL    HW2 9360   2.090   1.802   0.442
 2821SOL     OW 9361   3.028   2.300   6.337
 2821SOL    HW1 9362   3.123   2.320   6.359
 2821SOL    HW2 9363   3.025   2.235   6.261
 2822SOL     OW 9364   4.253   2.914   1.328
 2822SOL    HW1 9365   4.303   2.868   1.401
 2822SOL    HW2 9366   4.318   2.953   1.263
 2823SOL     OW 9367   5.952   3.913   2.597
 2823SOL    HW1 9368   5.914   3.892   2.506
 2823SOL    HW2 9369   5.893   3.872   2.667
 2824SOL     OW 9370   0.504   4.620   5.173
 2824SOL    HW1 9371   0.465   4.644   5.084
 2824SOL    HW2 9372   0.442   4.560   5.223
 2825SOL     OW 9373   5.373   2.032   5.661
 2825SOL    HW1 9374   5.457   1.995   5.699
 2825SOL    HW2 9375   5.340   1.972   5.588
 2826SOL     OW 9376   2.773   3.239   6.751
 2826SOL    HW1 9377   2.842   3.282   6.810
 2826SOL    HW2 9378   2.705   3.308   6.725
 2827SOL     OW 9379   6.611   1.699   0.004
 2827SOL    HW1 9380   6.550   1.753   0.063
 2827SOL    HW2 9381   6.558   1.629   6.976
 2828SOL     OW 9382   1.673   4.179   0.275
 2828SOL    HW1 9383   1.717   4.268   0.283
 2828SOL    HW2 9384   1.598   4.173   0.341
 2829SOL     OW 9385   3.341   4.055   1.893
 2829SOL    HW1 9386   3.248   4.031   1.919
 2829SOL    HW2 9387   3.390   4.091   1.973
 2830SOL     OW 9388   3.141   5.426   4.244
 2830SOL    HW1 9389   3.188   5.515   4.247
 2830SOL    HW2 9390   3.048   5.437   4.277
 2831SOL     OW 9391   6.437   1.355   1.996
 2831SOL    HW1 9392   6.509   1.349   1.928
 2831SOL    HW2 9393   6.352   1.384   1.953
 2832SOL     OW 9394   1.304   4.080   1.734
 2832SOL    HW1 9395   1.335   3.986   1.743
 2832SOL    HW2 9396   1.299   4.122   1.825
 2833SOL     OW 9397   6.407   3.221   3.495
 2833SOL    HW1 9398   6.409   3.294   3.426
 2833SOL    HW2 9399   6.453   3.140   3.458
 2834SOL     OW 9400   2.953   0.527   4.476
 2834SOL    HW1 9401   3.008   0.554   4.397
 2834SOL    HW2 9402   2.856   0.535   4.454
 2835SOL     OW 9403   6.885   0.951   0.314
 2835SOL    HW1 9404   6.833   0.969   0.397
 2835SOL    HW2 9405   6.968   1.006   0.314
 2836SOL     OW 9406   3.346   5.706   1.361
 2836SOL    HW1 9407   3.328   5.754   1.275
 2836SOL    HW2 9408   3.300   5.617   1.359
 2837SOL     OW 9409   5.622   3.991   2.354
 2837SOL    HW1 9410   5.587   3.976   2.446
 2837SOL    HW2 9411   5.549   4.024   2.295
 2838SOL     OW 9412   6.898   4.097   5.878
 2838SOL    HW1 9413   6.868   4.158   5.804
 2838SOL    HW2 9414   6.973   4.140   5.928
 2839SOL     OW 9415   5.735   2.981   5.825
 2839SOL    HW1 9416   5.727   3.073   5.787
 2839SOL    HW2 9417   5.706   2.982   5.921
 2840SOL     OW 9418   6.145   6.512   5.140
 2840SOL    HW1 9419   6.131   6.417   5.166
 2840SOL    HW2 9420   6.159   6.568   5.222
 2841SOL     OW 9421   5.577   3.841   2.884
 2841SOL    HW1 9422   5.564   3.745   2.858
 2841SOL    HW2 9423   5.555   3.853   2.981
 2842SOL     OW 9424   0.746   6.643   3.679
 2842SOL    HW1 9425   0.721   6.738   3.661
 2842SOL    HW2 9426   0.681   6.604   3.745
 2843SOL     OW 9427   1.204   3.172   4.331
 2843SOL    HW1 9428   1.144   3.206   4.405
 2843SOL    HW2 9429   1.285   3.230   4.326
 2844SOL     OW 9430   5.475   4.015   0.489
 2844SOL    HW1 9431   5.467   3.972   0.399
 2844SOL    HW2 9432   5.536   4.094   0.483
 2845SOL     OW 9433   3.813   1.806   1.405
 2845SOL    HW1 9434   3.737   1.789   1.467
 2845SOL    HW2 9435   3.779   1.815   1.311
 2846SOL     OW 9436   4.814   6.871   0.149
 2846SOL    HW1 9437   4.749   6.944   0.168
 2846SOL    HW2 9438   4.768   6.782   0.156
 2847SOL     OW 9439   5.367   4.746   2.280
 2847SOL    HW1 9440   5.342   4.767   2.375
 2847SOL    HW2 9441   5.322   4.811   2.219
 2848SOL     OW 9442   0.500   3.327   0.011
 2848SOL    HW1 9443   0.532   3.383   0.088
 2848SOL    HW2 9444   0.462   3.241   0.046
 2849SOL     OW 9445   5.480   0.763   1.388
 2849SOL    HW1 9446   5.382   0.744   1.391
 2849SOL    HW2 9447   5.531   0.677   1.386
 2850SOL     OW 9448   0.764   0.984   1.041
 2850SOL    HW1 9449   0.711   1.005   0.958
 2850SOL    HW2 9450   0.712   1.012   1.122
 2851SOL     OW 9451   3.690   3.629   1.882
 2851SOL    HW1 9452   3.614   3.581   1.838
 2851SOL    HW2 9453   3.658   3.715   1.922
 2852SOL     OW 9454   0.592   5.064   4.749
 2852SOL    HW1 9455   0.548   5.150   4.726
 2852SOL    HW2 9456   0.623   5.066   4.844
 2853SOL     OW 9457   0.299   4.775   5.653
 2853SOL    HW1 9458   0.291   4.679   5.627
 2853SOL    HW2 9459   0.271   4.787   5.748
 2854SOL     OW 9460   3.234   0.557   6.810
 2854SOL    HW1 9461   3.318   0.521   6.768
 2854SOL    HW2 9462   3.243   0.656   6.820
 2855SOL     OW 9463   1.989   2.065   4.125
 2855SOL    HW1 9464   1.908   2.053   4.068
 2855SOL    HW2 9465   2.071   2.071   4.067
 2856SOL     OW 9466   1.334   5.896   4.962
 2856SOL    HW1 9467   1.346   5.930   5.056
 2856SOL    HW2 9468   1.374   5.805   4.955
 2857SOL     OW 9469   0.452   4.322   0.850
 2857SOL    HW1 9470   0.539   4.279   0.830
 2857SOL    HW2 9471   0.391   4.312   0.771
 2858SOL     OW 9472   5.398   4.593   3.797
 2858SOL    HW1 9473   5.322   4.545   3.840
 2858SOL    HW2 9474   5.484   4.548   3.820
 2859SOL     OW 9475   6.321   4.860   2.280
 2859SOL    HW1 9476   6.321   4.914   2.196
 2859SOL    HW2 9477   6.322   4.763   2.258
 2860SOL     OW 9478   1.039   6.788   3.529
 2860SOL    HW1 9479   1.007   6.828   3.443
 2860SOL    HW2 9480   1.108   6.848   3.570
 2861SOL     OW 9481   5.315   3.648   5.102
 2861SOL    HW1 9482   5.280   3.635   5.010
 2861SOL    HW2 9483   5.305   3.744   5.128
 2862SOL     OW 9484   4.528   0.633   0.093
 2862SOL    HW1 9485   4.432   0.608   0.084
 2862SOL    HW2 9486   4.575   0.623   0.005
 2863SOL     OW 9487   5.655   1.477   5.873
 2863SOL    HW1 9488   5.602   1.399   5.840
 2863SOL    HW2 9489   5.593   1.554   5.891
 2864SOL     OW 9490   4.093   4.475   0.965
 2864SOL    HW1 9491   4.097   4.431   1.055
 2864SOL    HW2 9492   4.185   4.499   0.935
 2865SOL     OW 9493   5.408   5.261   5.969
 2865SOL    HW1 9494   5.436   5.195   5.899
 2865SOL    HW2 9495   5.488   5.289   6.023
 2866SOL     OW 9496   4.005   5.734   1.008
 2866SOL    HW1 9497   4.086   5.698   1.055
 2866SOL    HW2 9498   3.975   5.669   0.938
 2867SOL     OW 9499   0.281   6.348   2.919
 2867SOL    HW1 9500   0.317   6.366   3.011
 2867SOL    HW2 9501   0.186   6.376   2.914
 2868SOL     OW 9502   6.739   6.856   5.618
 2868SOL    HW1 9503   6.772   6.762   5.619
 2868SOL    HW2 9504   6.656   6.862   5.674
 2869SOL     OW 9505   5.116   4.992   5.314
 2869SOL    HW1 9506   5.204   5.034   5.338
 2869SOL    HW2 9507   5.103   4.996   5.215
 2870SOL     OW 9508   0.589   1.493   1.268
 2870SOL    HW1 9509   0.644   1.576   1.262
 2870SOL    HW2 9510   0.556   1.482   1.362
 2871SOL     OW 9511   4.651   1.468   3.364
 2871SOL    HW1 9512   4.639   1.524   3.446
 2871SOL    HW2 9513   4.566   1.468   3.311
 2872SOL     OW 9514   3.582   1.746   2.640
 2872SOL    HW1 9515   3.500   1.707   2.682
 2872SOL    HW2 9516   3.556   1.798   2.559
 2873SOL     OW 9517   0.820   0.240   2.764
 2873SOL    HW1 9518   0.814   0.297   2.682
 2873SOL    HW2 9519   0.782   0.149   2.744
 2874SOL     OW 9520   1.826   0.614   3.251
 2874SOL    HW1 9521   1.773   0.605   3.335
 2874SOL    HW2 9522   1.912   0.663   3.270
 2875SOL     OW 9523   2.422   0.299   2.814
 2875SOL    HW1 9524   2.424   0.209   2.857
 2875SOL    HW2 9525   2.404   0.289   2.716
 2876SOL     OW 9526   0.717   6.819   1.007
 2876SOL    HW1 9527   0.808   6.861   1.000
 2876SOL    HW2 9528   0.698   6.797   1.103
 2877SOL     OW 9529   1.251   3.346   6.070
 2877SOL    HW1 9530   1.319   3.275   6.053
 2877SOL    HW2 9531   1.243   3.362   6.168
 2878SOL     OW 9532   3.156   2.992   4.370
 2878SOL    HW1 9533   3.057   3.000   4.356
 2878SOL    HW2 9534   3.192   3.079   4.402
 2879SOL     OW 9535   5.810   5.707   0.394
 2879SOL    HW1 9536   5.714   5.694   0.371
 2879SOL    HW2 9537   5.831   5.657   0.478
 2880SOL     OW 9538   1.343   1.656   2.879
 2880SOL    HW1 9539   1.404   1.597   2.933
 2880SOL    HW2 9540   1.291   1.599   2.815
 2881SOL     OW 9541   4.985   5.218   7.004
 2881SOL    HW1 9542   5.063   5.278   6.987
 2881SOL    HW2 9543   5.006   5.127   6.968
 2882SOL     OW 9544   4.566   6.543   6.997
 2882SOL    HW1 9545   4.620   6.533   6.914
 2882SOL    HW2 9546   4.513   6.628   6.993
 2883SOL     OW 9547   5.322   6.336   2.976
 2883SOL    HW1 9548   5.366   6.303   2.893
 2883SOL    HW2 9549   5.226   6.306   2.977
 2884SOL     OW 9550   6.178   5.697   3.481
 2884SOL    HW1 9551   6.237   5.618   3.500
 2884SOL    HW2 9552   6.094   5.689   3.535
 2885SOL     OW 9553   0.093   3.734   3.498
 2885SOL    HW1 9554   0.118   3.710   3.591
 2885SOL    HW2 9555   0.075   3.651   3.445
 2886SOL     OW 9556   2.267   4.134   4.717
 2886SOL    HW1 9557   2.220   4.074   4.653
 2886SOL    HW2 9558   2.290   4.083   4.800
 2887SOL     OW 9559   0.040   5.125   2.485
 2887SOL    HW1 9560   0.086   5.038   2.467
 2887SOL    HW2 9561   0.099   5.184   2.540
 2888SOL     OW 9562   4.393   6.242   6.405
 2888SOL    HW1 9563   4.451   6.238   6.324
 2888SOL    HW2 9564   4.391   6.153   6.451
 2889SOL     OW 9565   3.872   5.865   4.729
 2889SOL    HW1 9566   3.894   5.909   4.641
 2889SOL    HW2 9567   3.926   5.907   4.801
 2890SOL     OW 9568   1.939   2.255   0.480
 2890SOL    HW1 9569   1.977   2.189   0.545
 2890SOL    HW2 9570   1.909   2.337   0.530
 2891SOL     OW 9571   1.098   1.345   5.522
 2891SOL    HW1 9572   1.132   1.440   5.521
 2891SOL    HW2 9573   1.009   1.343   5.567
 2892SOL     OW 9574   5.558   4.285   1.789
 2892SOL    HW1 9575   5.597   4.377   1.783
 2892SOL    HW2 9576   5.481   4.277   1.725
 2893SOL     OW 9577   6.527   5.909   5.408
 2893SOL    HW1 9578   6.593   5.941   5.340
 2893SOL    HW2 9579   6.558   5.934   5.499
 2894SOL     OW 9580   1.421   5.628   1.009
 2894SOL    HW1 9581   1.449   5.533   1.001
 2894SOL    HW2 9582   1.472   5.672   1.084
 2895SOL     OW 9583   4.804   6.856   6.163
 2895SOL    HW1 9584   4.727   6.795   6.143
 2895SOL    HW2 9585   4.828   6.909   6.081
 2896SOL     OW 9586   6.427   0.447   5.729
 2896SOL    HW1 9587   6.360   0.510   5.688
 2896SOL    HW2 9588   6.454   0.379   5.661
 2897SOL     OW 9589   3.576   5.976   3.353
 2897SOL    HW1 9590   3.623   5.890   3.369
 2897SOL    HW2 9591   3.489   5.959   3.306
 2898SOL     OW 9592   5.104   2.648   3.215
 2898SOL    HW1 9593   5.204   2.642   3.208
 2898SOL    HW2 9594   5.064   2.559   3.197
 2899SOL     OW 9595   6.426   2.822   1.263
 2899SOL    HW1 9596   6.481   2.764   1.324
 2899SOL    HW2 9597   6.381   2.765   1.195
 2900SOL     OW 9598   2.952   2.914   5.368
 2900SOL    HW1 9599   2.987   2.929   5.460
 2900SOL    HW2 9600   2.980   2.823   5.336
 2901SOL     OW 9601   1.376   3.808   1.676
 2901SOL    HW1 9602   1.404   3.758   1.594
 2901SOL    HW2 9603   1.410   3.761   1.758
 2902SOL     OW 9604   5.437   6.185   3.195
 2902SOL    HW1 9605   5.388   6.240   3.128
 2902SOL    HW2 9606   5.379   6.170   3.275
 2903SOL     OW 9607   0.619   5.495   1.125
 2903SOL    HW1 9608   0.576   5.510   1.215
 2903SOL    HW2 9609   0.670   5.577   1.099
 2904SOL     OW 9610   2.852   4.736   4.760
 2904SOL    HW1 9611   2.850   4.835   4.776
 2904SOL    HW2 9612   2.841   4.688   4.847
 2905SOL     OW 9613   1.132   4.962   1.411
 2905SOL    HW1 9614   1.121   5.043   1.354
 2905SOL    HW2 9615   1.093   4.882   1.364
 2906SOL     OW 9616   6.846   6.018   6.043
 2906SOL    HW1 9617   6.801   6.054   6.125
 2906SOL    HW2 9618   6.842   6.087   5.970
 2907SOL     OW 9619   6.819   1.223   5.740
 2907SOL    HW1 9620   6.864   1.146   5.695
 2907SOL    HW2 9621   6.726   1.233   5.705
 2908SOL     OW 9622   4.149   6.180   4.099
 2908SOL    HW1 9623   4.195   6.165   4.011
 2908SOL    HW2 9624   4.050   6.174   4.085
 2909SOL     OW 9625   0.215   6.768   1.663
 2909SOL    HW1 9626   0.267   6.735   1.742
 2909SOL    HW2 9627   0.268   6.838   1.615
 2910SOL     OW 9628   1.235   0.967   4.300
 2910SOL    HW1 9629   1.298   0.900   4.261
 2910SOL    HW2 9630   1.178   0.922   4.369
 2911SOL     OW 9631   6.425   3.772   4.220
 2911SOL    HW1 9632   6.447   3.833   4.145
 2911SOL    HW2 9633   6.507   3.724   4.249
 2912SOL     OW 9634   0.627   1.333   2.151
 2912SOL    HW1 9635   0.531   1.345   2.129
 2912SOL    HW2 9636   0.680   1.409   2.111
 2913SOL     OW 9637   1.023   6.191   4.026
 2913SOL    HW1 9638   0.998   6.258   3.956
 2913SOL    HW2 9639   1.041   6.103   3.983
 2914SOL     OW 9640   3.612   4.153   1.179
 2914SOL    HW1 9641   3.555   4.130   1.259
 2914SOL    HW2 9642   3.611   4.077   1.114
 2915SOL     OW 9643   1.932   0.992   4.113
 2915SOL    HW1 9644   2.019   0.964   4.071
 2915SOL    HW2 9645   1.949   1.028   4.204
 2916SOL     OW 9646   0.253   5.459   6.497
 2916SOL    HW1 9647   0.190   5.485   6.423
 2916SOL    HW2 9648   0.344   5.493   6.477
 2917SOL     OW 9649   2.355   0.497   3.512
 2917SOL    HW1 9650   2.336   0.461   3.420
 2917SOL    HW2 9651   2.285   0.564   3.536
 2918SOL     OW 9652   5.026   2.204   1.265
 2918SOL    HW1 9653   5.087   2.282   1.256
 2918SOL    HW2 9654   4.935   2.236   1.292
 2919SOL     OW 9655   1.328   6.390   5.064
 2919SOL    HW1 9656   1.281   6.335   5.133
 2919SOL    HW2 9657   1.260   6.433   5.004
 2920SOL     OW 9658   2.645   2.483   1.815
 2920SOL    HW1 9659   2.734   2.454   1.849
 2920SOL    HW2 9660   2.580   2.487   1.891
 2921SOL     OW 9661   0.628   5.556   3.150
 2921SOL    HW1 9662   0.665   5.611   3.225
 2921SOL    HW2 9663   0.529   5.550   3.159
 2922SOL     OW 9664   3.878   4.959   3.217
 2922SOL    HW1 9665   3.971   4.923   3.217
 2922SOL    HW2 9666   3.851   4.982   3.123
 2923SOL     OW 9667   1.670   5.514   4.514
 2923SOL    HW1 9668   1.713   5.425   4.497
 2923SOL    HW2 9669   1.728   5.587   4.479
 2924SOL     OW 9670   5.401   1.692   6.528
 2924SOL    HW1 9671   5.366   1.652   6.612
 2924SOL    HW2 9672   5.471   1.632   6.489
 2925SOL     OW 9673   5.677   0.032   4.628
 2925SOL    HW1 9674   5.619   0.094   4.680
 2925SOL    HW2 9675   5.690   6.966   4.679
 2926SOL     OW 9676   6.206   3.159   4.587
 2926SOL    HW1 9677   6.205   3.115   4.676
 2926SOL    HW2 9678   6.295   3.200   4.570
 2927SOL     OW 9679   1.257   2.574   2.462
 2927SOL    HW1 9680   1.345   2.609   2.433
 2927SOL    HW2 9681   1.185   2.613   2.405
 2928SOL     OW 9682   5.226   4.344   0.746
 2928SOL    HW1 9683   5.210   4.408   0.821
 2928SOL    HW2 9684   5.230   4.251   0.782
 2929SOL     OW 9685   2.186   1.888   3.290
 2929SOL    HW1 9686   2.284   1.894   3.310
 2929SOL    HW2 9687   2.143   1.822   3.352
 2930SOL     OW 9688   0.818   3.108   4.239
 2930SOL    HW1 9689   0.777   3.142   4.324
 2930SOL    HW2 9690   0.917   3.119   4.243
 2931SOL     OW 9691   6.437   4.317   6.208
 2931SOL    HW1 9692   6.448   4.245   6.277
 2931SOL    HW2 9693   6.474   4.285   6.120
 2932SOL     OW 9694   6.307   5.986   0.997
 2932SOL    HW1 9695   6.334   5.896   1.033
 2932SOL    HW2 9696   6.282   6.046   1.073
 2933SOL     OW 9697   0.929   6.940   0.141
 2933SOL    HW1 9698   0.960   6.985   0.225
 2933SOL    HW2 9699   0.845   6.984   0.109
 2934SOL     OW 9700   5.895   5.081   1.911
 2934SOL    HW1 9701   5.988   5.098   1.943
 2934SOL    HW2 9702   5.856   5.003   1.961
 2935SOL     OW 9703   0.996   3.854   5.663
 2935SOL    HW1 9704   1.022   3.887   5.754
 2935SOL    HW2 9705   0.994   3.754   5.664
 2936SOL     OW 9706   3.817   5.788   2.133
 2936SOL    HW1 9707   3.887   5.855   2.158
 2936SOL    HW2 9708   3.732   5.836   2.110
 2937SOL     OW 9709   6.028   3.701   3.073
 2937SOL    HW1 9710   5.929   3.690   3.073
 2937SOL    HW2 9711   6.070   3.632   3.015
 2938SOL     OW 9712   0.567   5.265   0.677
 2938SOL    HW1 9713   0.492   5.199   0.681
 2938SOL    HW2 9714   0.555   5.334   0.749
 2939SOL     OW 9715   6.111   6.675   1.614
 2939SOL    HW1 9716   6.077   6.581   1.614
 2939SOL    HW2 9717   6.200   6.678   1.658
 2940SOL     OW 9718   4.514   6.611   4.013
 2940SOL    HW1 9719   4.599   6.618   3.960
 2940SOL    HW2 9720   4.462   6.531   3.982
 2941SOL     OW 9721   2.915   5.058   2.868
 2941SOL    HW1 9722   2.877   5.124   2.802
 2941SOL    HW2 9723   2.877   4.968   2.850
 2942SOL     OW 9724   3.559   2.096   1.549
 2942SOL    HW1 9725   3.535   2.005   1.515
 2942SOL    HW2 9726   3.610   2.088   1.635
 2943SOL     OW 9727   0.451   3.852   3.776
 2943SOL    HW1 9728   0.522   3.860   3.707
 2943SOL    HW2 9729   0.373   3.909   3.752
 2944SOL     OW 9730   0.564   5.921   3.012
 2944SOL    HW1 9731   0.641   5.875   2.968
 2944SOL    HW2 9732   0.566   5.903   3.111
 2945SOL     OW 9733   6.012   3.977   0.654
 2945SOL    HW1 9734   6.091   4.038   0.661
 2945SOL    HW2 9735   5.943   4.005   0.722
 2946SOL     OW 9736   3.459   3.799   4.398
 2946SOL    HW1 9737   3.414   3.844   4.475
 2946SOL    HW2 9738   3.558   3.794   4.416
 2947SOL     OW 9739   6.160   5.386   6.608
 2947SOL    HW1 9740   6.148   5.471   6.660
 2947SOL    HW2 9741   6.083   5.325   6.626
 2948SOL     OW 9742   6.546   4.148   0.822
 2948SOL    HW1 9743   6.499   4.197   0.748
 2948SOL    HW2 9744   6.590   4.214   0.882
 2949SOL     OW 9745   1.428   6.217   1.249
 2949SOL    HW1 9746   1.335   6.231   1.214
 2949SOL    HW2 9747   1.494   6.247   1.180
 2950SOL     OW 9748   5.638   5.374   2.367
 2950SOL    HW1 9749   5.611   5.450   2.427
 2950SOL    HW2 9750   5.706   5.318   2.414
 2951SOL     OW 9751   0.785   2.244   1.253
 2951SOL    HW1 9752   0.846   2.317   1.223
 2951SOL    HW2 9753   0.836   2.159   1.264
 2952SOL     OW 9754   0.434   1.560   4.296
 2952SOL    HW1 9755   0.490   1.602   4.368
 2952SOL    HW2 9756   0.360   1.507   4.338
 2953SOL     OW 9757   1.516   5.823   2.976
 2953SOL    HW1 9758   1.581   5.833   3.051
 2953SOL    HW2 9759   1.546   5.748   2.917
 2954SOL     OW 9760   0.942   4.220   5.959
 2954SOL    HW1 9761   0.883   4.299   5.940
 2954SOL    HW2 9762   1.034   4.238   5.924
 2955SOL     OW 9763   1.622   4.600   6.607
 2955SOL    HW1 9764   1.708   4.619   6.560
 2955SOL    HW2 9765   1.549   4.585   6.539
 2956SOL     OW 9766   5.642   4.128   4.490
 2956SOL    HW1 9767   5.703   4.074   4.547
 2956SOL    HW2 9768   5.667   4.225   4.496
 2957SOL     OW 9769   1.523   5.223   2.791
 2957SOL    HW1 9770   1.573   5.146   2.831
 2957SOL    HW2 9771   1.443   5.243   2.847
 2958SOL     OW 9772   1.592   4.521   1.667
 2958SOL    HW1 9773   1.505   4.484   1.700
 2958SOL    HW2 9774   1.604   4.497   1.571
 2959SOL     OW 9775   0.297   4.329   3.726
 2959SOL    HW1 9776   0.295   4.425   3.754
 2959SOL    HW2 9777   0.206   4.289   3.735
 2960SOL     OW 9778   4.881   6.216   0.919
 2960SOL    HW1 9779   4.919   6.125   0.939
 2960SOL    HW2 9780   4.856   6.221   0.823
 2961SOL     OW 9781   5.887   2.307   1.983
 2961SOL    HW1 9782   5.858   2.256   2.064
 2961SOL    HW2 9783   5.810   2.357   1.945
 2962SOL     OW 9784   6.777   6.934   3.986
 2962SOL    HW1 9785   6.876   6.931   3.971
 2962SOL    HW2 9786   6.746   0.010   3.981
 2963SOL     OW 9787   1.897   1.501   5.436
 2963SOL    HW1 9788   1.917   1.593   5.402
 2963SOL    HW2 9789   1.818   1.505   5.497
 2964SOL     OW 9790   1.542   0.429   6.471
 2964SOL    HW1 9791   1.447   0.406   6.451
 2964SOL    HW2 9792   1.601   0.354   6.442
 2965SOL     OW 9793   6.098   0.385   6.500
 2965SOL    HW1 9794   6.189   0.425   6.492
 2965SOL    HW2 9795   6.032   0.442   6.450
 2966SOL     OW 9796   3.651   5.915   2.738
 2966SOL    HW1 9797   3.660   5.980   2.813
 2966SOL    HW2 9798   3.568   5.935   2.685
 2967SOL     OW 9799   5.685   6.862   4.881
 2967SOL    HW1 9800   5.727   6.926   4.946
 2967SOL    HW2 9801   5.736   6.776   4.883
 2968SOL     OW 9802   1.192   4.317   1.644
 2968SOL    HW1 9803   1.239   4.230   1.636
 2968SOL    HW2 9804   1.097   4.302   1.675
 2969SOL     OW 9805   4.589   2.612   4.674
 2969SOL    HW1 9806   4.517   2.573   4.617
 2969SOL    HW2 9807   4.600   2.555   4.756
 2970SOL     OW 9808   2.556   2.372   5.818
 2970SOL    HW1 9809   2.592   2.315   5.892
 2970SOL    HW2 9810   2.559   2.320   5.732
 2971SOL     OW 9811   4.159   3.706   6.390
 2971SOL    HW1 9812   4.184   3.628   6.447
 2971SOL    HW2 9813   4.171   3.683   6.293
 2972SOL     OW 9814   0.547   5.765   6.249
 2972SOL    HW1 9815   0.461   5.817   6.247
 2972SOL    HW2 9816   0.587   5.764   6.158
 2973SOL     OW 9817   5.456   0.882   4.326
 2973SOL    HW1 9818   5.431   0.957   4.388
 2973SOL    HW2 9819   5.512   0.918   4.251
 2974SOL     OW 9820   5.305   5.703   2.588
 2974SOL    HW1 9821   5.329   5.790   2.543
 2974SOL    HW2 9822   5.207   5.703   2.609
 2975SOL     OW 9823   6.696   3.540   4.431
 2975SOL    HW1 9824   6.711   3.638   4.435
 2975SOL    HW2 9825   6.752   3.500   4.359
 2976SOL     OW 9826   3.798   0.531   1.548
 2976SOL    HW1 9827   3.857   0.539   1.467
 2976SOL    HW2 9828   3.824   0.602   1.614
 2977SOL     OW 9829   1.730   1.051   2.263
 2977SOL    HW1 9830   1.753   1.110   2.340
 2977SOL    HW2 9831   1.680   1.103   2.194
 2978SOL     OW 9832   3.796   6.050   0.459
 2978SOL    HW1 9833   3.698   6.038   0.443
 2978SOL    HW2 9834   3.834   6.109   0.388
 2979SOL     OW 9835   2.535   1.381   5.586
 2979SOL    HW1 9836   2.507   1.444   5.514
 2979SOL    HW2 9837   2.566   1.432   5.666
 2980SOL     OW 9838   3.608   2.937   3.916
 2980SOL    HW1 9839   3.616   2.932   4.016
 2980SOL    HW2 9840   3.515   2.912   3.889
 2981SOL     OW 9841   3.035   2.055   1.773
 2981SOL    HW1 9842   2.972   2.035   1.697
 2981SOL    HW2 9843   3.085   2.139   1.754
 2982SOL     OW 9844   1.606   0.668   1.495
 2982SOL    HW1 9845   1.665   0.589   1.511
 2982SOL    HW2 9846   1.511   0.643   1.512
 2983SOL     OW 9847   6.443   2.862   6.593
 2983SOL    HW1 9848   6.458   2.785   6.656
 2983SOL    HW2 9849   6.502   2.850   6.513
 2984SOL     OW 9850   0.649   6.159   1.309
 2984SOL    HW1 9851   0.578   6.093   1.334
 2984SOL    HW2 9852   0.637   6.187   1.214
 2985SOL     OW 9853   6.549   0.113   5.957
 2985SOL    HW1 9854   6.570   0.019   5.930
 2985SOL    HW2 9855   6.512   0.113   6.050
 2986SOL     OW 9856   3.860   3.444   2.762
 2986SOL    HW1 9857   3.899   3.488   2.680
 2986SOL    HW2 9858   3.768   3.480   2.779
 2987SOL     OW 9859   2.289   5.575   4.960
 2987SOL    HW1 9860   2.222   5.649   4.950
 2987SOL    HW2 9861   2.258   5.511   5.031
 2988SOL     OW 9862   0.783   1.324   6.707
 2988SOL    HW1 9863   0.737   1.412   6.720
 2988SOL    HW2 9864   0.794   1.305   6.610
 2989SOL     OW 9865   5.567   3.989   5.972
 2989SOL    HW1 9866   5.468   4.002   5.967
 2989SOL    HW2 9867   5.613   4.078   5.964
 2990SOL     OW 9868   4.960   0.906   5.589
 2990SOL    HW1 9869   4.928   0.980   5.649
 2990SOL    HW2 9870   4.893   0.832   5.588
 2991SOL     OW 9871   6.505   2.613   0.214
 2991SOL    HW1 9872   6.444   2.677   0.169
 2991SOL    HW2 9873   6.453   2.534   0.247
 2992SOL     OW 9874   0.927   4.321   5.199
 2992SOL    HW1 9875   0.952   4.287   5.290
 2992SOL    HW2 9876   0.844   4.275   5.167
 2993SOL     OW 9877   3.395   4.950   0.053
 2993SOL    HW1 9878   3.451   5.030   0.029
 2993SOL    HW2 9879   3.301   4.966   0.023
 2994SOL     OW 9880   2.555   5.061   5.063
 2994SOL    HW1 9881   2.637   5.111   5.089
 2994SOL    HW2 9882   2.557   5.041   4.965
 2995SOL     OW 9883   5.017   0.052   1.612
 2995SOL    HW1 9884   5.046   0.140   1.575
 2995SOL    HW2 9885   5.064   0.036   1.700
 2996SOL     OW 9886   6.861   0.964   4.202
 2996SOL    HW1 9887   6.954   0.997   4.216
 2996SOL    HW2 9888   6.799   1.009   4.266
 2997SOL     OW 9889   4.788   5.951   4.046
 2997SOL    HW1 9890   4.880   5.990   4.041
 2997SOL    HW2 9891   4.749   5.972   4.136
 2998SOL     OW 9892   2.445   6.978   2.142
 2998SOL    HW1 9893   2.528   6.980   2.199
 2998SOL    HW2 9894   2.380   6.913   2.180
 2999SOL     OW 9895   1.791   5.013   0.268
 2999SOL    HW1 9896   1.764   4.962   0.350
 2999SOL    HW2 9897   1.822   4.949   0.198
 3000SOL     OW 9898   2.258   4.047   6.276
 3000SOL    HW1 9899   2.307   4.087   6.354
 3000SOL    HW2 9900   2.179   3.996   6.310
 3001SOL     OW 9901   3.938   0.861   6.215
 3001SOL    HW1 9902   3.911   0.954   6.240
 3001SOL    HW2 9903   3.973   0.813   6.295
 3002SOL     OW 9904   1.237   2.278   2.217
 3002SOL    HW1 9905   1.260   2.190   2.256
 3002SOL    HW2 9906   1.141   2.299   2.237
 3003SOL     OW 9907   1.045   6.082   0.628
 3003SOL    HW1 9908   1.045   6.182   0.621
 3003SOL    HW2 9909   1.128   6.052   0.674
 3004SOL     OW 9910   3.187   6.804   4.445
 3004SOL    HW1 9911   3.212   6.810   4.349
 3004SOL    HW2 9912   3.135   6.886   4.471
 3005SOL     OW 9913   2.479   2.177   0.809
 3005SOL    HW1 9914   2.385   2.145   0.792
 3005SOL    HW2 9915   2.530   2.106   0.858
 3006SOL     OW 9916   5.599   1.146   5.859
 3006SOL    HW1 9917   5.597   1.061   5.911
 3006SOL    HW2 9918   5.682   1.150   5.803
 3007SOL     OW 9919   6.275   5.881   5.956
 3007SOL    HW1 9920   6.303   5.951   5.891
 3007SOL    HW2 9921   6.287   5.791   5.914
 3008SOL     OW 9922   5.426   4.314   5.699
 3008SOL    HW1 9923   5.467   4.393   5.743
 3008SOL    HW2 9924   5.344   4.342   5.649
 3009SOL     OW 9925   5.330   3.332   2.021
 3009SOL    HW1 9926   5.409   3.296   1.971
 3009SOL    HW2 9927   5.324   3.430   2.006
 3010SOL     OW 9928   4.270   4.778   1.520
 3010SOL    HW1 9929   4.189   4.789   1.578
 3010SOL    HW2 9930   4.343   4.734   1.571
 3011SOL     OW 9931   5.834   6.952   0.174
 3011SOL    HW1 9932   5.888   0.013   0.198
 3011SOL    HW2 9933   5.762   6.978   0.110
 3012SOL     OW 9934   2.603   1.483   4.666
 3012SOL    HW1 9935   2.527   1.420   4.647
 3012SOL    HW2 9936   2.671   1.438   4.722
 3013SOL     OW 9937   0.774   5.558   5.078
 3013SOL    HW1 9938   0.702   5.509   5.029
 3013SOL    HW2 9939   0.761   5.549   5.176
 3014SOL     OW 9940   3.723   0.281   0.293
 3014SOL    HW1 9941   3.634   0.262   0.335
 3014SOL    HW2 9942   3.714   0.283   0.194
 3015SOL     OW 9943   2.216   6.984   5.840
 3015SOL    HW1 9944   2.144   7.006   5.906
 3015SOL    HW2 9945   2.286   6.928   5.883
 3016SOL     OW 9946   3.047   1.210   4.386
 3016SOL    HW1 9947   2.998   1.167   4.309
 3016SOL    HW2 9948   3.077   1.301   4.359
 3017SOL     OW 9949   1.478   6.209   0.199
 3017SOL    HW1 9950   1.504   6.274   0.270
 3017SOL    HW2 9951   1.451   6.260   0.117
 3018SOL     OW 9952   2.680   2.427   1.546
 3018SOL    HW1 9953   2.630   2.347   1.515
 3018SOL    HW2 9954   2.691   2.423   1.645
 3019SOL     OW 9955   1.609   0.531   5.066
 3019SOL    HW1 9956   1.652   0.501   4.981
 3019SOL    HW2 9957   1.613   0.631   5.072
 3020SOL     OW 9958   4.716   4.360   6.799
 3020SOL    HW1 9959   4.717   4.458   6.779
 3020SOL    HW2 9960   4.781   4.314   6.740
 3021SOL     OW 9961   4.468   6.435   4.407
 3021SOL    HW1 9962   4.429   6.512   4.356
 3021SOL    HW2 9963   4.555   6.462   4.447
 3022SOL     OW 9964   4.137   6.867   3.692
 3022SOL    HW1 9965   4.128   6.910   3.782
 3022SOL    HW2 9966   4.072   6.793   3.684
 3023SOL     OW 9967   5.148   4.700   5.109
 3023SOL    HW1 9968   5.157   4.687   5.208
 3023SOL    HW2 9969   5.144   4.611   5.063
 3024SOL     OW 9970   6.487   1.391   0.036
 3024SOL    HW1 9971   6.470   1.371   6.959
 3024SOL    HW2 9972   6.567   1.341   0.068
 3025SOL     OW 9973   4.397   5.065   0.722
 3025SOL    HW1 9974   4.321   5.123   0.753
 3025SOL    HW2 9975   4.408   5.073   0.623
 3026SOL     OW 9976   0.240   0.097   2.339
 3026SOL    HW1 9977   0.261   0.185   2.381
 3026SOL    HW2 9978   0.232   0.108   2.240
 3027SOL     OW 9979   4.151   0.214   0.734
 3027SOL    HW1 9980   4.075   0.151   0.750
 3027SOL    HW2 9981   4.230   0.185   0.789
 3028SOL     OW 9982   3.886   3.373   4.494
 3028SOL    HW1 9983   3.809   3.314   4.471
 3028SOL    HW2 9984   3.924   3.413   4.411
 3029SOL     OW 9985   0.264   2.530   4.711
 3029SOL    HW1 9986   0.243   2.613   4.764
 3029SOL    HW2 9987   0.284   2.455   4.773
 3030SOL     OW 9988   0.666   3.078   6.391
 3030SOL    HW1 9989   0.653   2.980   6.372
 3030SOL    HW2 9990   0.742   3.112   6.335
 3031SOL     OW 9991   0.431   4.544   6.704
 3031SOL    HW1 9992   0.409   4.449   6.682
 3031SOL    HW2 9993   0.525   4.564   6.677
 3032SOL     OW 9994   3.847   7.003   3.864
 3032SOL    HW1 9995   3.913   6.928   3.860
 3032SOL    HW2 9996   3.777   6.989   3.793
 3033SOL     OW 9997   1.945   1.117   6.713
 3033SOL    HW1 9998   1.950   1.108   6.813
 3033SOL    HW2 9999   1.875   1.185   6.689
 3034SOL     OW10000   5.612   3.456   3.318
 3034SOL    HW110001   5.560   3.537   3.291
 3034SOL    HW210002   5.549   3.383   3.345
 3035SOL     OW10003   6.725   3.540   6.566
 3035SOL    HW110004   6.756   3.609   6.501
 3035SOL    HW210005   6.745   3.448   6.531
 3036SOL     OW10006   3.228   2.126   6.155
 3036SOL    HW110007   3.280   2.121   6.070
 3036SOL    HW210008   3.130   2.121   6.135
 3037SOL     OW10009   0.367   5.134   6.456
 3037SOL    HW110010   0.328   5.105   6.369
 3037SOL    HW210011   0.383   5.232   6.455
 3038SOL     OW10012   5.743   4.780   4.945
 3038SOL    HW110013   5.645   4.761   4.944
 3038SOL    HW210014   5.780   4.774   4.852
 3039SOL     OW10015   5.886   3.594   6.211
 3039SOL    HW110016   5.858   3.598   6.308
 3039SOL    HW210017   5.807   3.568   6.155
 3040SOL     OW10018   4.115   6.474   6.605
 3040SOL    HW110019   4.073   6.502   6.518
 3040SOL    HW210020   4.100   6.376   6.619
 3041SOL     OW10021   2.265   5.698   6.792
 3041SOL    HW110022   2.186   5.666   6.740
 3041SOL    HW210023   2.333   5.624   6.796
 3042SOL     OW10024   0.318   5.318   3.866
 3042SOL    HW110025   0.294   5.246   3.932
 3042SOL    HW210026   0.392   5.286   3.807
 3043SOL     OW10027   2.422   4.044   1.349
 3043SOL    HW110028   2.489   4.067   1.278
 3043SOL    HW210029   2.432   3.948   1.375
 3044SOL     OW10030   3.984   3.756   4.647
 3044SOL    HW110031   3.996   3.658   4.664
 3044SOL    HW210032   3.919   3.793   4.713
 3045SOL     OW10033   5.639   0.523   3.116
 3045SOL    HW110034   5.613   0.567   3.030
 3045SOL    HW210035   5.683   0.590   3.175
 3046SOL     OW10036   6.614   5.567   1.293
 3046SOL    HW110037   6.610   5.472   1.324
 3046SOL    HW210038   6.666   5.621   1.359
 3047SOL     OW10039   5.265   1.676   3.669
 3047SOL    HW110040   5.276   1.734   3.589
 3047SOL    HW210041   5.344   1.687   3.729
 3048SOL     OW10042   4.516   4.753   1.156
 3048SOL    HW110043   4.448   4.817   1.191
 3048SOL    HW210044   4.544   4.780   1.064
 3049SOL     OW10045   0.160   0.759   1.641
 3049SOL    HW110046   0.170   0.850   1.680
 3049SOL    HW210047   0.191   0.759   1.546
 3050SOL     OW10048   3.812   2.287   6.465
 3050SOL    HW110049   3.718   2.304   6.433
 3050SOL    HW210050   3.831   2.344   6.544
 3051SOL     OW10051   2.038   5.036   6.562
 3051SOL    HW110052   2.107   5.014   6.494
 3051SOL    HW210053   1.960   5.081   6.518
 3052SOL     OW10054   5.912   6.498   3.850
 3052SOL    HW110055   5.864   6.583   3.869
 3052SOL    HW210056   5.948   6.460   3.934
 3053SOL     OW10057   0.583   5.332   6.415
 3053SOL    HW110058   0.569   5.247   6.365
 3053SOL    HW210059   0.680   5.343   6.434
 3054SOL     OW10060   6.076   6.551   3.307
 3054SOL    HW110061   6.093   6.582   3.401
 3054SOL    HW210062   6.054   6.629   3.249
 3055SOL     OW10063   4.926   6.529   0.544
 3055SOL    HW110064   4.950   6.501   0.637
 3055SOL    HW210065   5.009   6.527   0.487
 3056SOL     OW10066   4.218   2.245   0.718
 3056SOL    HW110067   4.265   2.330   0.693
 3056SOL    HW210068   4.236   2.224   0.814
 3057SOL     OW10069   6.840   3.399   3.706
 3057SOL    HW110070   6.860   3.476   3.766
 3057SOL    HW210071   6.788   3.431   3.627
 3058SOL     OW10072   6.420   4.222   5.757
 3058SOL    HW110073   6.417   4.122   5.757
 3058SOL    HW210074   6.429   4.256   5.851
 3059SOL     OW10075   1.220   2.508   3.366
 3059SOL    HW110076   1.204   2.412   3.389
 3059SOL    HW210077   1.314   2.519   3.335
 3060SOL     OW10078   5.618   3.919   3.423
 3060SOL    HW110079   5.654   3.828   3.404
 3060SOL    HW210080   5.582   3.960   3.339
 3061SOL     OW10081   5.922   6.189   2.586
 3061SOL    HW110082   5.834   6.145   2.605
 3061SOL    HW210083   5.982   6.125   2.540
 3062SOL     OW10084   3.776   5.062   0.969
 3062SOL    HW110085   3.803   5.058   0.873
 3062SOL    HW210086   3.701   4.997   0.986
 3063SOL     OW10087   6.643   5.117   0.302
 3063SOL    HW110088   6.665   5.173   0.222
 3063SOL    HW210089   6.564   5.059   0.282
 3064SOL     OW10090   4.625   1.813   5.936
 3064SOL    HW110091   4.702   1.844   5.993
 3064SOL    HW210092   4.619   1.870   5.854
 3065SOL     OW10093   5.300   0.846   6.711
 3065SOL    HW110094   5.356   0.806   6.638
 3065SOL    HW210095   5.329   0.808   6.799
 3066SOL     OW10096   5.421   0.172   6.101
 3066SOL    HW110097   5.388   0.079   6.089
 3066SOL    HW210098   5.493   0.173   6.170
 3067SOL     OW10099   1.847   1.921   4.537
 3067SOL    HW110100   1.925   1.948   4.592
 3067SOL    HW210101   1.823   1.995   4.474
 3068SOL     OW10102   5.652   0.158   0.539
 3068SOL    HW110103   5.679   0.072   0.497
 3068SOL    HW210104   5.714   0.231   0.509
 3069SOL     OW10105   5.432   6.298   3.569
 3069SOL    HW110106   5.470   6.257   3.651
 3069SOL    HW210107   5.376   6.230   3.521
 3070SOL     OW10108   3.233   0.984   1.406
 3070SOL    HW110109   3.154   1.031   1.366
 3070SOL    HW210110   3.285   0.939   1.334
 3071SOL     OW10111   5.514   4.683   5.021
 3071SOL    HW110112   5.579   4.621   5.063
 3071SOL    HW210113   5.444   4.630   4.972
 3072SOL     OW10114   1.469   6.674   5.447
 3072SOL    HW110115   1.461   6.770   5.473
 3072SOL    HW210116   1.403   6.653   5.375
 3073SOL     OW10117   6.695   5.766   2.742
 3073SOL    HW110118   6.753   5.767   2.824
 3073SOL    HW210119   6.603   5.736   2.767
 3074SOL     OW10120   3.105   2.912   1.769
 3074SOL    HW110121   3.034   2.939   1.833
 3074SOL    HW210122   3.161   2.992   1.745
 3075SOL     OW10123   3.871   4.991   0.723
 3075SOL    HW110124   3.863   4.891   0.728
 3075SOL    HW210125   3.886   5.018   0.628
 3076SOL     OW10126   2.262   1.706   4.004
 3076SOL    HW110127   2.244   1.702   3.906
 3076SOL    HW210128   2.181   1.742   4.051
 3077SOL     OW10129   0.130   3.833   2.103
 3077SOL    HW110130   0.163   3.743   2.132
 3077SOL    HW210131   0.031   3.837   2.113
 3078SOL     OW10132   6.942   4.704   0.913
 3078SOL    HW110133   7.015   4.768   0.938
 3078SOL    HW210134   6.890   4.742   0.836
 3079SOL     OW10135   0.890   3.843   3.869
 3079SOL    HW110136   0.865   3.796   3.784
 3079SOL    HW210137   0.833   3.924   3.880
 3080SOL     OW10138   3.804   4.728   1.753
 3080SOL    HW110139   3.867   4.652   1.744
 3080SOL    HW210140   3.715   4.694   1.784
 3081SOL     OW10141   1.982   2.724   6.183
 3081SOL    HW110142   1.924   2.804   6.166
 3081SOL    HW210143   2.001   2.678   6.096
 3082SOL     OW10144   5.454   4.348   4.744
 3082SOL    HW110145   5.492   4.258   4.763
 3082SOL    HW210146   5.462   4.367   4.646
 3083SOL     OW10147   3.865   5.941   1.183
 3083SOL    HW110148   3.782   5.935   1.237
 3083SOL    HW210149   3.868   5.866   1.117
 3084SOL     OW10150   6.969   5.465   4.209
 3084SOL    HW110151   6.907   5.414   4.269
 3084SOL    HW210152   0.038   5.477   4.256
 3085SOL     OW10153   6.498   5.568   6.652
 3085SOL    HW110154   6.461   5.609   6.568
 3085SOL    HW210155   6.447   5.484   6.673
 3086SOL     OW10156   6.003   6.204   6.395
 3086SOL    HW110157   5.978   6.112   6.365
 3086SOL    HW210158   6.080   6.199   6.459
 3087SOL     OW10159   2.809   0.168   1.973
 3087SOL    HW110160   2.764   0.235   1.914
 3087SOL    HW210161   2.875   0.214   2.032
 3088SOL     OW10162   2.496   3.358   5.435
 3088SOL    HW110163   2.474   3.452   5.462
 3088SOL    HW210164   2.413   3.310   5.409
 3089SOL     OW10165   3.577   6.769   0.050
 3089SOL    HW110166   3.604   6.844   0.110
 3089SOL    HW210167   3.538   6.695   0.105
 3090SOL     OW10168   1.514   2.421   2.510
 3090SOL    HW110169   1.515   2.322   2.524
 3090SOL    HW210170   1.481   2.441   2.419
 3091SOL     OW10171   1.138   2.660   6.877
 3091SOL    HW110172   1.132   2.563   6.852
 3091SOL    HW210173   1.146   2.715   6.794
 3092SOL     OW10174   5.091   1.192   3.250
 3092SOL    HW110175   5.170   1.199   3.310
 3092SOL    HW210176   5.031   1.270   3.264
 3093SOL     OW10177   6.305   4.943   6.683
 3093SOL    HW110178   6.398   4.977   6.693
 3093SOL    HW210179   6.240   5.018   6.699
 3094SOL     OW10180   2.421   1.385   5.844
 3094SOL    HW110181   2.413   1.348   5.751
 3094SOL    HW210182   2.517   1.401   5.865
 3095SOL     OW10183   1.864   3.623   5.572
 3095SOL    HW110184   1.918   3.579   5.499
 3095SOL    HW210185   1.800   3.556   5.609
 3096SOL     OW10186   1.612   2.667   3.600
 3096SOL    HW110187   1.533   2.605   3.600
 3096SOL    HW210188   1.613   2.720   3.684
 3097SOL     OW10189   5.363   2.758   5.855
 3097SOL    HW110190   5.320   2.848   5.850
 3097SOL    HW210191   5.310   2.699   5.916
 3098SOL     OW10192   1.426   3.160   2.278
 3098SOL    HW110193   1.403   3.231   2.346
 3098SOL    HW210194   1.483   3.090   2.320
 3099SOL     OW10195   0.671   6.869   5.944
 3099SOL    HW110196   0.658   6.859   5.845
 3099SOL    HW210197   0.768   6.871   5.965
 3100SOL     OW10198   6.031   4.330   2.400
 3100SOL    HW110199   6.082   4.408   2.435
 3100SOL    HW210200   5.938   4.358   2.377
 3101SOL     OW10201   5.349   1.113   4.449
 3101SOL    HW110202   5.277   1.176   4.418
 3101SOL    HW210203   5.399   1.154   4.525
 3102SOL     OW10204   5.927   4.306   2.702
 3102SOL    HW110205   6.012   4.266   2.669
 3102SOL    HW210206   5.924   4.403   2.678
 3103SOL     OW10207   1.423   1.217   2.183
 3103SOL    HW110208   1.349   1.154   2.205
 3103SOL    HW210209   1.442   1.275   2.262
 3104SOL     OW10210   6.011   2.211   6.059
 3104SOL    HW110211   6.110   2.219   6.067
 3104SOL    HW210212   5.979   2.264   5.981
 3105SOL     OW10213   5.627   4.240   0.455
 3105SOL    HW110214   5.681   4.255   0.538
 3105SOL    HW210215   5.688   4.242   0.375
 3106SOL     OW10216   5.452   1.658   5.938
 3106SOL    HW110217   5.382   1.605   5.986
 3106SOL    HW210218   5.409   1.729   5.883
 3107SOL     OW10219   4.273   2.098   4.776
 3107SOL    HW110220   4.238   2.004   4.785
 3107SOL    HW210221   4.353   2.098   4.717
 3108SOL     OW10222   1.806   4.651   3.760
 3108SOL    HW110223   1.852   4.650   3.671
 3108SOL    HW210224   1.776   4.558   3.783
 3109SOL     OW10225   6.965   5.392   3.281
 3109SOL    HW110226   0.007   5.345   3.345
 3109SOL    HW210227   7.018   5.427   3.204
 3110SOL     OW10228   1.278   6.031   4.510
 3110SOL    HW110229   1.200   5.999   4.457
 3110SOL    HW210230   1.330   5.952   4.544
 3111SOL     OW10231   6.552   3.950   3.965
 3111SOL    HW110232   6.542   4.026   3.901
 3111SOL    HW210233   6.584   3.869   3.915
 3112SOL     OW10234   4.374   0.766   1.002
 3112SOL    HW110235   4.420   0.678   1.016
 3112SOL    HW210236   4.368   0.785   0.904
 3113SOL     OW10237   1.232   6.933   4.096
 3113SOL    HW110238   1.274   6.981   4.173
 3113SOL    HW210239   1.227   6.994   4.017
 3114SOL     OW10240   4.608   6.213   5.183
 3114SOL    HW110241   4.605   6.210   5.283
 3114SOL    HW210242   4.515   6.208   5.147
 3115SOL     OW10243   4.679   6.051   4.304
 3115SOL    HW110244   4.616   6.090   4.371
 3115SOL    HW210245   4.752   6.003   4.351
 3116SOL     OW10246   0.705   2.113   6.812
 3116SOL    HW110247   0.645   2.049   6.860
 3116SOL    HW210248   0.685   2.110   6.714
 3117SOL     OW10249   4.380   6.845   1.128
 3117SOL    HW110250   4.413   6.859   1.035
 3117SOL    HW210251   4.436   6.775   1.173
 3118SOL     OW10252   1.040   2.008   2.797
 3118SOL    HW110253   1.022   2.057   2.712
 3118SOL    HW210254   0.993   2.055   2.872
 3119SOL     OW10255   4.510   6.969   3.861
 3119SOL    HW110256   4.603   6.936   3.846
 3119SOL    HW210257   4.508   0.006   3.943
 3120SOL     OW10258   3.351   6.154   6.722
 3120SOL    HW110259   3.262   6.122   6.756
 3120SOL    HW210260   3.358   6.253   6.736
 3121SOL     OW10261   3.655   2.118   3.245
 3121SOL    HW110262   3.747   2.123   3.282
 3121SOL    HW210263   3.591   2.091   3.317
 3122SOL     OW10264   5.666   3.813   6.144
 3122SOL    HW110265   5.668   3.717   6.114
 3122SOL    HW210266   5.636   3.871   6.068
 3123SOL     OW10267   2.039   2.762   2.762
 3123SOL    HW110268   2.046   2.711   2.848
 3123SOL    HW210269   2.118   2.823   2.754
 3124SOL     OW10270   4.783   6.546   5.826
 3124SOL    HW110271   4.866   6.598   5.805
 3124SOL    HW210272   4.702   6.599   5.800
 3125SOL     OW10273   1.524   1.961   4.986
 3125SOL    HW110274   1.555   1.868   4.966
 3125SOL    HW210275   1.598   2.025   4.969
 3126SOL     OW10276   4.891   4.579   5.649
 3126SOL    HW110277   4.832   4.545   5.576
 3126SOL    HW210278   4.836   4.633   5.713
 3127SOL     OW10279   6.392   2.395   5.847
 3127SOL    HW110280   6.372   2.297   5.854
 3127SOL    HW210281   6.369   2.427   5.755
 3128SOL     OW10282   3.884   0.948   0.731
 3128SOL    HW110283   3.862   1.035   0.774
 3128SOL    HW210284   3.983   0.936   0.728
 3129SOL     OW10285   4.364   4.757   0.150
 3129SOL    HW110286   4.306   4.701   0.209
 3129SOL    HW210287   4.448   4.779   0.198
 3130SOL     OW10288   6.348   6.079   2.267
 3130SOL    HW110289   6.418   6.149   2.251
 3130SOL    HW210290   6.346   6.056   2.364
 3131SOL     OW10291   6.536   2.760   3.256
 3131SOL    HW110292   6.585   2.810   3.185
 3131SOL    HW210293   6.582   2.772   3.344
 3132SOL     OW10294   4.521   4.042   6.550
 3132SOL    HW110295   4.429   4.021   6.516
 3132SOL    HW210296   4.560   4.115   6.494
 3133SOL     OW10297   5.482   6.525   3.443
 3133SOL    HW110298   5.486   6.529   3.343
 3133SOL    HW210299   5.467   6.431   3.472
 3134SOL     OW10300   5.158   4.735   2.822
 3134SOL    HW110301   5.078   4.787   2.792
 3134SOL    HW210302   5.137   4.687   2.908
 3135SOL     OW10303   3.505   0.777   6.292
 3135SOL    HW110304   3.525   0.800   6.388
 3135SOL    HW210305   3.500   0.861   6.238
 3136SOL     OW10306   6.553   6.547   2.211
 3136SOL    HW110307   6.608   6.614   2.161
 3136SOL    HW210308   6.457   6.575   2.210
 3137SOL     OW10309   4.601   4.975   6.890
 3137SOL    HW110310   4.596   4.881   6.855
 3137SOL    HW210311   4.616   5.037   6.814
 3138SOL     OW10312   6.666   6.865   4.660
 3138SOL    HW110313   6.716   6.831   4.739
 3138SOL    HW210314   6.718   6.845   4.576
 3139SOL     OW10315   1.466   4.847   1.575
 3139SOL    HW110316   1.509   4.802   1.653
 3139SOL    HW210317   1.495   4.802   1.490
 3140SOL     OW10318   5.142   6.140   0.143
 3140SOL    HW110319   5.056   6.100   0.108
 3140SOL    HW210320   5.178   6.082   0.216
 3141SOL     OW10321   5.584   1.660   0.023
 3141SOL    HW110322   5.640   1.583   7.010
 3141SOL    HW210323   5.578   1.657   0.123
 3142SOL     OW10324   4.474   1.242   4.020
 3142SOL    HW110325   4.460   1.340   4.005
 3142SOL    HW210326   4.545   1.229   4.089
 3143SOL     OW10327   6.806   1.355   0.713
 3143SOL    HW110328   6.879   1.354   0.644
 3143SOL    HW210329   6.728   1.303   0.679
 3144SOL     OW10330   3.964   5.113   6.948
 3144SOL    HW110331   3.883   5.073   6.991
 3144SOL    HW210332   4.042   5.052   6.959
 3145SOL     OW10333   1.477   5.478   5.471
 3145SOL    HW110334   1.506   5.412   5.539
 3145SOL    HW210335   1.382   5.461   5.445
 3146SOL     OW10336   6.141   1.983   4.514
 3146SOL    HW110337   6.102   1.892   4.501
 3146SOL    HW210338   6.095   2.048   4.454
 3147SOL     OW10339   4.901   6.466   1.028
 3147SOL    HW110340   4.836   6.478   1.103
 3147SOL    HW210341   4.891   6.374   0.990
 3148SOL     OW10342   6.239   4.876   0.319
 3148SOL    HW110343   6.266   4.792   0.272
 3148SOL    HW210344   6.205   4.854   0.411
 3149SOL     OW10345   4.252   3.300   6.864
 3149SOL    HW110346   4.204   3.213   6.864
 3149SOL    HW210347   4.195   3.370   6.822
 3150SOL     OW10348   0.091   0.166   5.108
 3150SOL    HW110349   0.059   0.247   5.059
 3150SOL    HW210350   0.134   0.193   5.194
 3151SOL     OW10351   6.783   1.341   5.972
 3151SOL    HW110352   6.811   1.289   5.891
 3151SOL    HW210353   6.703   1.397   5.949
 3152SOL     OW10354   2.644   2.036   5.664
 3152SOL    HW110355   2.605   1.989   5.744
 3152SOL    HW210356   2.586   2.019   5.584
 3153SOL     OW10357   5.542   5.878   1.787
 3153SOL    HW110358   5.468   5.900   1.724
 3153SOL    HW210359   5.574   5.961   1.833
 3154SOL     OW10360   3.344   1.825   1.133
 3154SOL    HW110361   3.430   1.850   1.177
 3154SOL    HW210362   3.337   1.725   1.128
 3155SOL     OW10363   0.424   5.505   6.944
 3155SOL    HW110364   0.386   5.584   6.992
 3155SOL    HW210365   0.494   5.535   6.879
 3156SOL     OW10366   3.190   4.074   1.273
 3156SOL    HW110367   3.164   4.127   1.353
 3156SOL    HW210368   3.290   4.075   1.263
 3157SOL     OW10369   1.684   1.053   3.846
 3157SOL    HW110370   1.630   1.097   3.774
 3157SOL    HW210371   1.729   1.124   3.901
 3158SOL     OW10372   2.666   0.799   6.446
 3158SOL    HW110373   2.692   0.806   6.350
 3158SOL    HW210374   2.662   0.703   6.473
 3159SOL     OW10375   5.023   6.813   1.233
 3159SOL    HW110376   4.978   6.901   1.243
 3159SOL    HW210377   5.025   6.766   1.321
 3160SOL     OW10378   2.487   1.115   4.625
 3160SOL    HW110379   2.482   1.017   4.605
 3160SOL    HW210380   2.583   1.142   4.633
 3161SOL     OW10381   2.071   2.781   1.927
 3161SOL    HW110382   2.166   2.812   1.923
 3161SOL    HW210383   2.016   2.847   1.978
 3162SOL     OW10384   0.948   6.007   2.050
 3162SOL    HW110385   1.034   6.047   2.084
 3162SOL    HW210386   0.967   5.919   2.008
 3163SOL     OW10387   4.831   4.469   1.316
 3163SOL    HW110388   4.766   4.478   1.391
 3163SOL    HW210389   4.797   4.402   1.249
 3164SOL     OW10390   2.717   6.964   4.037
 3164SOL    HW110391   2.756   7.016   3.961
 3164SOL    HW210392   2.744   6.868   4.029
 3165SOL     OW10393   0.938   5.623   6.786
 3165SOL    HW110394   0.865   5.688   6.808
 3165SOL    HW210395   1.024   5.658   6.821
 3166SOL     OW10396   3.912   1.799   4.853
 3166SOL    HW110397   3.875   1.892   4.859
 3166SOL    HW210398   3.847   1.735   4.895
 3167SOL     OW10399   6.242   3.017   1.851
 3167SOL    HW110400   6.221   3.074   1.771
 3167SOL    HW210401   6.243   2.921   1.824
 3168SOL     OW10402   5.518   1.392   1.417
 3168SOL    HW110403   5.455   1.379   1.341
 3168SOL    HW210404   5.534   1.490   1.431
 3169SOL     OW10405   0.864   3.486   1.543
 3169SOL    HW110406   0.866   3.502   1.641
 3169SOL    HW210407   0.890   3.570   1.494
 3170SOL     OW10408   2.153   4.228   3.770
 3170SOL    HW110409   2.229   4.246   3.832
 3170SOL    HW210410   2.087   4.303   3.775
 3171SOL     OW10411   5.250   1.278   5.112
 3171SOL    HW110412   5.315   1.346   5.080
 3171SOL    HW210413   5.271   1.190   5.069
 3172SOL     OW10414   6.085   3.855   1.390
 3172SOL    HW110415   6.020   3.927   1.367
 3172SOL    HW210416   6.090   3.789   1.315
 3173SOL     OW10417   5.590   3.301   6.957
 3173SOL    HW110418   5.679   3.294   7.003
 3173SOL    HW210419   5.519   3.320   0.006
 3174SOL     OW10420   3.283   2.789   6.549
 3174SOL    HW110421   3.303   2.885   6.533
 3174SOL    HW210422   3.316   2.734   6.473
 3175SOL     OW10423   5.899   6.258   5.253
 3175SOL    HW110424   5.828   6.286   5.317
 3175SOL    HW210425   5.986   6.249   5.302
 3176SOL     OW10426   0.778   5.234   4.014
 3176SOL    HW110427   0.868   5.237   4.058
 3176SOL    HW210428   0.707   5.251   4.082
 3177SOL     OW10429   4.911   2.890   2.794
 3177SOL    HW110430   4.974   2.917   2.867
 3177SOL    HW210431   4.902   2.965   2.728
 3178SOL     OW10432   0.938   0.626   2.795
 3178SOL    HW110433   0.920   0.585   2.885
 3178SOL    HW210434   0.935   0.725   2.803
 3179SOL     OW10435   0.784   3.143   2.095
 3179SOL    HW110436   0.774   3.234   2.133
 3179SOL    HW210437   0.835   3.148   2.009
 3180SOL     OW10438   6.567   6.770   0.078
 3180SOL    HW110439   6.573   6.862   0.116
 3180SOL    HW210440   6.632   6.761   0.003
 3181SOL     OW10441   0.555   6.013   4.846
 3181SOL    HW110442   0.655   6.013   4.851
 3181SOL    HW210443   0.521   6.105   4.865
 3182SOL     OW10444   1.057   6.794   1.370
 3182SOL    HW110445   1.072   6.727   1.443
 3182SOL    HW210446   1.110   6.876   1.390
 3183SOL     OW10447   4.137   4.084   0.582
 3183SOL    HW110448   4.065   4.021   0.554
 3183SOL    HW210449   4.097   4.175   0.598
 3184SOL     OW10450   6.324   1.186   4.049
 3184SOL    HW110451   6.404   1.183   4.109
 3184SOL    HW210452   6.339   1.253   3.976
 3185SOL     OW10453   1.117   6.707   5.689
 3185SOL    HW110454   1.135   6.609   5.695
 3185SOL    HW210455   1.163   6.754   5.764
 3186SOL     OW10456   0.570   2.374   5.637
 3186SOL    HW110457   0.648   2.350   5.580
 3186SOL    HW210458   0.558   2.305   5.708
 3187SOL     OW10459   5.576   0.090   3.332
 3187SOL    HW110460   5.600   0.119   3.239
 3187SOL    HW210461   5.543   7.014   3.329
 3188SOL     OW10462   1.492   5.978   1.334
 3188SOL    HW110463   1.474   6.074   1.310
 3188SOL    HW210464   1.529   5.930   1.255
 3189SOL     OW10465   2.517   1.362   6.284
 3189SOL    HW110466   2.420   1.358   6.309
 3189SOL    HW210467   2.540   1.456   6.257
 3190SOL     OW10468   5.901   6.413   4.558
 3190SOL    HW110469   5.870   6.333   4.506
 3190SOL    HW210470   5.847   6.492   4.531
 3191SOL     OW10471   3.706   4.737   1.462
 3191SOL    HW110472   3.734   4.736   1.558
 3191SOL    HW210473   3.609   4.759   1.455
 3192SOL     OW10474   5.235   0.639   2.983
 3192SOL    HW110475   5.226   0.548   3.026
 3192SOL    HW210476   5.168   0.701   3.023
 3193SOL     OW10477   3.283   5.526   4.874
 3193SOL    HW110478   3.202   5.552   4.926
 3193SOL    HW210479   3.336   5.608   4.853
 3194SOL     OW10480   1.949   6.787   4.999
 3194SOL    HW110481   1.996   6.841   4.929
 3194SOL    HW210482   1.916   6.848   5.071
 3195SOL     OW10483   0.513   6.524   0.182
 3195SOL    HW110484   0.594   6.476   0.150
 3195SOL    HW210485   0.516   6.534   0.281
 3196SOL     OW10486   6.379   6.878   2.259
 3196SOL    HW110487   6.453   6.895   2.324
 3196SOL    HW210488   6.326   6.962   2.245
 3197SOL     OW10489   2.487   0.795   0.047
 3197SOL    HW110490   2.448   0.867   0.103
 3197SOL    HW210491   2.440   0.709   0.064
 3198SOL     OW10492   5.310   3.477   4.087
 3198SOL    HW110493   5.248   3.529   4.146
 3198SOL    HW210494   5.392   3.531   4.069
 3199SOL     OW10495   4.987   3.888   3.490
 3199SOL    HW110496   4.988   3.803   3.542
 3199SOL    HW210497   4.932   3.956   3.539
 3200SOL     OW10498   5.943   3.810   4.885
 3200SOL    HW110499   6.040   3.783   4.883
 3200SOL    HW210500   5.925   3.872   4.809
 3201SOL     OW10501   6.325   3.892   2.118
 3201SOL    HW110502   6.300   3.948   2.196
 3201SOL    HW210503   6.409   3.841   2.138
 3202SOL     OW10504   2.898   2.771   6.028
 3202SOL    HW110505   2.893   2.682   5.984
 3202SOL    HW210506   2.981   2.777   6.082
 3203SOL     OW10507   3.253   6.571   1.867
 3203SOL    HW110508   3.340   6.613   1.840
 3203SOL    HW210509   3.231   6.495   1.806
 3204SOL     OW10510   4.537   0.562   3.927
 3204SOL    HW110511   4.466   0.631   3.911
 3204SOL    HW210512   4.529   0.528   4.020
 3205SOL     OW10513   4.281   2.289   6.562
 3205SOL    HW110514   4.197   2.310   6.612
 3205SOL    HW210515   4.341   2.234   6.620
 3206SOL     OW10516   3.141   4.650   0.977
 3206SOL    HW110517   3.112   4.716   0.908
 3206SOL    HW210518   3.203   4.583   0.936
 3207SOL     OW10519   2.436   6.023   3.418
 3207SOL    HW110520   2.458   6.078   3.498
 3207SOL    HW210521   2.361   6.065   3.367
 3208SOL     OW10522   6.641   3.665   5.894
 3208SOL    HW110523   6.702   3.740   5.869
 3208SOL    HW210524   6.679   3.578   5.864
 3209SOL     OW10525   5.079   6.855   5.938
 3209SOL    HW110526   5.157   6.904   5.899
 3209SOL    HW210527   5.009   6.921   5.967
 3210SOL     OW10528   5.409   5.183   1.914
 3210SOL    HW110529   5.328   5.176   1.972
 3210SOL    HW210530   5.470   5.254   1.950
 3211SOL     OW10531   1.938   6.538   6.395
 3211SOL    HW110532   1.844   6.568   6.411
 3211SOL    HW210533   1.961   6.466   6.461
 3212SOL     OW10534   3.462   6.681   4.461
 3212SOL    HW110535   3.474   6.652   4.366
 3212SOL    HW210536   3.374   6.728   4.470
 3213SOL     OW10537   1.400   0.525   5.431
 3213SOL    HW110538   1.419   0.430   5.454
 3213SOL    HW210539   1.306   0.547   5.459
 3214SOL     OW10540   3.669   0.933   2.844
 3214SOL    HW110541   3.581   0.970   2.874
 3214SOL    HW210542   3.660   0.835   2.827
 3215SOL     OW10543   2.067   3.154   2.276
 3215SOL    HW110544   2.147   3.184   2.224
 3215SOL    HW210545   1.985   3.166   2.221
 3216SOL     OW10546   6.031   5.280   0.722
 3216SOL    HW110547   5.961   5.208   0.720
 3216SOL    HW210548   6.039   5.316   0.815
 3217SOL     OW10549   6.545   5.900   4.103
 3217SOL    HW110550   6.515   5.978   4.049
 3217SOL    HW210551   6.645   5.898   4.107
 3218SOL     OW10552   5.873   1.260   3.325
 3218SOL    HW110553   5.963   1.217   3.314
 3218SOL    HW210554   5.825   1.260   3.238
 3219SOL     OW10555   5.857   1.905   4.285
 3219SOL    HW110556   5.857   1.990   4.231
 3219SOL    HW210557   5.793   1.914   4.361
 3220SOL     OW10558   0.102   3.790   5.758
 3220SOL    HW110559   0.173   3.726   5.785
 3220SOL    HW210560   0.056   3.756   5.675
 3221SOL     OW10561   4.193   1.657   1.863
 3221SOL    HW110562   4.192   1.661   1.963
 3221SOL    HW210563   4.152   1.572   1.832
 3222SOL     OW10564   2.931   0.971   3.738
 3222SOL    HW110565   2.886   0.882   3.745
 3222SOL    HW210566   2.869   1.042   3.772
 3223SOL     OW10567   1.724   5.941   0.797
 3223SOL    HW110568   1.646   5.883   0.821
 3223SOL    HW210569   1.729   5.951   0.698
 3224SOL     OW10570   4.717   2.794   4.511
 3224SOL    HW110571   4.639   2.753   4.558
 3224SOL    HW210572   4.734   2.885   4.548
 3225SOL     OW10573   4.618   1.186   4.492
 3225SOL    HW110574   4.548   1.126   4.531
 3225SOL    HW210575   4.620   1.175   4.393
 3226SOL     OW10576   6.304   0.901   0.536
 3226SOL    HW110577   6.392   0.896   0.582
 3226SOL    HW210578   6.297   0.827   0.469
 3227SOL     OW10579   5.902   4.307   5.637
 3227SOL    HW110580   5.833   4.349   5.695
 3227SOL    HW210581   5.966   4.254   5.694
 3228SOL     OW10582   2.378   4.216   0.429
 3228SOL    HW110583   2.332   4.136   0.468
 3228SOL    HW210584   2.432   4.261   0.500
 3229SOL     OW10585   1.400   1.393   1.265
 3229SOL    HW110586   1.328   1.462   1.272
 3229SOL    HW210587   1.446   1.383   1.353
 3230SOL     OW10588   2.901   6.227   5.025
 3230SOL    HW110589   2.897   6.148   5.086
 3230SOL    HW210590   2.828   6.219   4.956
 3231SOL     OW10591   2.517   2.559   2.597
 3231SOL    HW110592   2.543   2.588   2.689
 3231SOL    HW210593   2.432   2.605   2.570
 3232SOL     OW10594   2.576   4.601   3.395
 3232SOL    HW110595   2.557   4.505   3.419
 3232SOL    HW210596   2.547   4.618   3.301
 3233SOL     OW10597   2.702   0.383   6.800
 3233SOL    HW110598   2.778   0.351   6.858
 3233SOL    HW210599   2.615   0.354   6.841
 3234SOL     OW10600   3.320   3.326   1.047
 3234SOL    HW110601   3.224   3.298   1.039
 3234SOL    HW210602   3.375   3.274   0.981
 3235SOL     OW10603   6.867   1.462   2.921
 3235SOL    HW110604   6.819   1.461   2.834
 3235SOL    HW210605   6.801   1.458   2.996
 3236SOL     OW10606   5.562   0.140   0.274
 3236SOL    HW110607   5.606   0.119   0.361
 3236SOL    HW210608   5.602   0.223   0.236
 3237SOL     OW10609   6.214   1.009   5.527
 3237SOL    HW110610   6.238   0.937   5.463
 3237SOL    HW210611   6.148   1.071   5.484
 3238SOL     OW10612   6.562   4.966   1.488
 3238SOL    HW110613   6.462   4.964   1.492
 3238SOL    HW210614   6.597   5.028   1.558
 3239SOL     OW10615   5.985   0.144   5.184
 3239SOL    HW110616   6.050   0.212   5.152
 3239SOL    HW210617   6.029   0.054   5.185
 3240SOL     OW10618   1.218   1.754   0.969
 3240SOL    HW110619   1.214   1.840   0.918
 3240SOL    HW210620   1.293   1.758   1.035
 3241SOL     OW10621   0.343   3.037   5.508
 3241SOL    HW110622   0.258   2.988   5.489
 3241SOL    HW210623   0.394   2.989   5.579
 3242SOL     OW10624   6.846   3.991   4.770
 3242SOL    HW110625   6.763   4.031   4.731
 3242SOL    HW210626   6.905   4.065   4.802
 3243SOL     OW10627   5.652   5.683   4.124
 3243SOL    HW110628   5.572   5.710   4.072
 3243SOL    HW210629   5.718   5.758   4.125
 3244SOL     OW10630   4.713   0.227   6.886
 3244SOL    HW110631   4.756   0.159   6.827
 3244SOL    HW210632   4.739   0.319   6.855
 3245SOL     OW10633   3.360   6.317   4.283
 3245SOL    HW110634   3.406   6.402   4.258
 3245SOL    HW210635   3.354   6.310   4.383
 3246SOL     OW10636   6.620   5.838   3.328
 3246SOL    HW110637   6.579   5.799   3.246
 3246SOL    HW210638   6.555   5.899   3.373
 3247SOL     OW10639   1.860   4.056   3.841
 3247SOL    HW110640   1.801   4.024   3.915
 3247SOL    HW210641   1.944   4.095   3.880
 3248SOL     OW10642   6.197   2.676   3.763
 3248SOL    HW110643   6.134   2.753   3.773
 3248SOL    HW210644   6.247   2.661   3.848
 3249SOL     OW10645   3.538   4.144   4.036
 3249SOL    HW110646   3.572   4.174   3.947
 3249SOL    HW210647   3.607   4.165   4.106
 3250SOL     OW10648   4.577   6.346   3.672
 3250SOL    HW110649   4.671   6.345   3.707
 3250SOL    HW210650   4.554   6.439   3.643
 3251SOL     OW10651   2.391   2.195   2.499
 3251SOL    HW110652   2.458   2.132   2.461
 3251SOL    HW210653   2.326   2.145   2.557
 3252SOL     OW10654   1.774   1.552   2.979
 3252SOL    HW110655   1.831   1.476   3.009
 3252SOL    HW210656   1.793   1.571   2.882
 3253SOL     OW10657   6.722   4.070   0.221
 3253SOL    HW110658   6.760   4.103   0.134
 3253SOL    HW210659   6.779   3.995   0.256
 3254SOL     OW10660   6.165   6.709   0.512
 3254SOL    HW110661   6.239   6.767   0.477
 3254SOL    HW210662   6.177   6.616   0.476
 3255SOL     OW10663   3.591   5.481   2.085
 3255SOL    HW110664   3.651   5.492   2.164
 3255SOL    HW210665   3.629   5.412   2.023
 3256SOL     OW10666   5.609   2.575   1.395
 3256SOL    HW110667   5.655   2.660   1.368
 3256SOL    HW210668   5.511   2.586   1.384
 3257SOL     OW10669   2.902   1.006   3.254
 3257SOL    HW110670   2.872   0.933   3.315
 3257SOL    HW210671   2.862   1.093   3.284
 3258SOL     OW10672   1.602   5.572   4.189
 3258SOL    HW110673   1.607   5.488   4.135
 3258SOL    HW210674   1.520   5.624   4.163
 3259SOL     OW10675   5.596   4.722   4.134
 3259SOL    HW110676   5.589   4.818   4.104
 3259SOL    HW210677   5.693   4.698   4.142
 3260SOL     OW10678   1.531   4.701   2.975
 3260SOL    HW110679   1.482   4.616   2.997
 3260SOL    HW210680   1.500   4.774   3.037
 3261SOL     OW10681   6.079   0.221   3.961
 3261SOL    HW110682   6.050   0.157   4.033
 3261SOL    HW210683   6.007   0.228   3.892
 3262SOL     OW10684   3.020   1.895   3.197
 3262SOL    HW110685   2.937   1.887   3.253
 3262SOL    HW210686   3.004   1.961   3.124
 3263SOL     OW10687   6.086   0.539   1.306
 3263SOL    HW110688   6.028   0.471   1.353
 3263SOL    HW210689   6.160   0.567   1.367
 3264SOL     OW10690   1.484   4.545   0.017
 3264SOL    HW110691   1.510   4.630   6.990
 3264SOL    HW210692   1.419   4.565   0.091
 3265SOL     OW10693   0.271   5.800   6.546
 3265SOL    HW110694   0.348   5.738   6.534
 3265SOL    HW210695   0.186   5.753   6.522
 3266SOL     OW10696   3.549   5.094   6.383
 3266SOL    HW110697   3.593   5.009   6.414
 3266SOL    HW210698   3.576   5.112   6.289
 3267SOL     OW10699   3.521   0.075   1.451
 3267SOL    HW110700   3.560   0.161   1.419
 3267SOL    HW210701   3.439   0.054   1.397
 3268SOL     OW10702   5.484   3.861   1.927
 3268SOL    HW110703   5.510   3.851   1.831
 3268SOL    HW210704   5.471   3.771   1.968
 3269SOL     OW10705   2.110   4.699   1.698
 3269SOL    HW110706   2.085   4.603   1.684
 3269SOL    HW210707   2.090   4.751   1.615
 3270SOL     OW10708   1.300   2.947   6.095
 3270SOL    HW110709   1.361   3.014   6.052
 3270SOL    HW210710   1.266   2.883   6.026
 3271SOL     OW10711   1.073   3.174   1.050
 3271SOL    HW110712   1.107   3.193   0.958
 3271SOL    HW210713   1.146   3.189   1.117
 3272SOL     OW10714   4.134   6.770   1.126
 3272SOL    HW110715   4.229   6.798   1.112
 3272SOL    HW210716   4.110   6.700   1.058
 3273SOL     OW10717   3.734   3.715   6.847
 3273SOL    HW110718   3.744   3.813   6.832
 3273SOL    HW210719   3.766   3.665   6.766
 3274SOL     OW10720   4.800   6.978   1.748
 3274SOL    HW110721   4.860   0.007   1.684
 3274SOL    HW210722   4.801   0.005   1.836
 3275SOL     OW10723   4.962   0.566   2.141
 3275SOL    HW110724   4.929   0.473   2.130
 3275SOL    HW210725   4.939   0.619   2.059
 3276SOL     OW10726   6.101   5.331   0.308
 3276SOL    HW110727   6.154   5.368   0.385
 3276SOL    HW210728   6.111   5.390   0.229
 3277SOL     OW10729   3.786   1.591   2.547
 3277SOL    HW110730   3.813   1.536   2.626
 3277SOL    HW210731   3.712   1.653   2.573
 3278SOL     OW10732   5.025   1.271   6.482
 3278SOL    HW110733   5.006   1.176   6.505
 3278SOL    HW210734   5.123   1.282   6.464
 3279SOL     OW10735   3.838   0.391   2.373
 3279SOL    HW110736   3.879   0.455   2.308
 3279SOL    HW210737   3.872   0.298   2.355
 3280SOL     OW10738   0.388   2.825   4.282
 3280SOL    HW110739   0.408   2.840   4.185
 3280SOL    HW210740   0.426   2.900   4.336
 3281SOL     OW10741   5.817   2.252   2.328
 3281SOL    HW110742   5.910   2.261   2.364
 3281SOL    HW210743   5.757   2.317   2.375
 3282SOL     OW10744   6.224   4.495   5.336
 3282SOL    HW110745   6.263   4.432   5.404
 3282SOL    HW210746   6.292   4.565   5.313
 3283SOL     OW10747   3.006   1.521   0.481
 3283SOL    HW110748   3.057   1.500   0.398
 3283SOL    HW210749   2.937   1.591   0.461
 3284SOL     OW10750   2.239   0.321   5.204
 3284SOL    HW110751   2.212   0.353   5.113
 3284SOL    HW210752   2.252   0.400   5.264
 3285SOL     OW10753   3.868   2.132   4.027
 3285SOL    HW110754   3.892   2.042   4.064
 3285SOL    HW210755   3.814   2.182   4.095
 3286SOL     OW10756   1.391   3.454   2.937
 3286SOL    HW110757   1.461   3.415   2.876
 3286SOL    HW210758   1.435   3.496   3.016
 3287SOL     OW10759   2.222   1.138   0.656
 3287SOL    HW110760   2.310   1.148   0.704
 3287SOL    HW210761   2.225   1.057   0.599
 3288SOL     OW10762   3.044   5.666   1.922
 3288SOL    HW110763   3.074   5.610   1.999
 3288SOL    HW210764   3.096   5.642   1.840
 3289SOL     OW10765   4.954   0.807   0.013
 3289SOL    HW110766   4.967   0.712   0.043
 3289SOL    HW210767   4.923   0.808   6.937
 3290SOL     OW10768   1.046   5.482   0.096
 3290SOL    HW110769   1.082   5.399   0.053
 3290SOL    HW210770   0.967   5.514   0.044
 3291SOL     OW10771   4.816   6.387   5.244
 3291SOL    HW110772   4.881   6.384   5.168
 3291SOL    HW210773   4.740   6.324   5.226
 3292SOL     OW10774   0.141   3.055   0.050
 3292SOL    HW110775   0.125   2.957   0.036
 3292SOL    HW210776   0.075   3.090   0.116
 3293SOL     OW10777   6.344   4.464   2.620
 3293SOL    HW110778   6.425   4.429   2.573
 3293SOL    HW210779   6.280   4.500   2.553
 3294SOL     OW10780   3.498   2.935   5.528
 3294SOL    HW110781   3.481   2.856   5.469
 3294SOL    HW210782   3.486   2.908   5.623
 3295SOL     OW10783   1.531   2.790   3.361
 3295SOL    HW110784   1.532   2.766   3.458
 3295SOL    HW210785   1.490   2.715   3.309
 3296SOL     OW10786   2.491   0.662   6.810
 3296SOL    HW110787   2.406   0.648   6.860
 3296SOL    HW210788   2.552   0.723   6.862
 3297SOL     OW10789   3.516   0.611   5.660
 3297SOL    HW110790   3.532   0.569   5.571
 3297SOL    HW210791   3.513   0.540   5.730
 3298SOL     OW10792   3.423   4.566   5.831
 3298SOL    HW110793   3.452   4.554   5.926
 3298SOL    HW210794   3.343   4.625   5.827
 3299SOL     OW10795   3.155   6.787   4.188
 3299SOL    HW110796   3.182   6.750   4.099
 3299SOL    HW210797   3.110   6.875   4.175
 3300SOL     OW10798   2.106   0.445   3.311
 3300SOL    HW110799   2.108   0.450   3.211
 3300SOL    HW210800   2.113   0.537   3.349
 3301SOL     OW10801   1.197   1.522   2.706
 3301SOL    HW110802   1.162   1.502   2.615
 3301SOL    HW210803   1.123   1.515   2.773
 3302SOL     OW10804   1.324   4.907   5.087
 3302SOL    HW110805   1.237   4.872   5.052
 3302SOL    HW210806   1.313   5.003   5.114
 3303SOL     OW10807   3.595   3.737   0.509
 3303SOL    HW110808   3.651   3.698   0.436
 3303SOL    HW210809   3.641   3.725   0.597
 3304SOL     OW10810   2.295   3.953   0.500
 3304SOL    HW110811   2.214   3.916   0.454
 3304SOL    HW210812   2.294   3.927   0.596
 3305SOL     OW10813   2.993   2.865   0.290
 3305SOL    HW110814   3.067   2.932   0.297
 3305SOL    HW210815   2.909   2.903   0.328
 3306SOL     OW10816   2.852   0.209   1.309
 3306SOL    HW110817   2.813   0.120   1.335
 3306SOL    HW210818   2.947   0.197   1.282
 3307SOL     OW10819   2.052   5.750   4.879
 3307SOL    HW110820   2.110   5.814   4.930
 3307SOL    HW210821   2.048   5.778   4.784
 3308SOL     OW10822   4.661   5.007   1.580
 3308SOL    HW110823   4.721   4.931   1.554
 3308SOL    HW210824   4.703   5.057   1.655
 3309SOL     OW10825   5.913   3.915   3.707
 3309SOL    HW110826   5.861   3.977   3.765
 3309SOL    HW210827   6.011   3.928   3.725
 3310SOL     OW10828   6.183   4.347   6.336
 3310SOL    HW110829   6.244   4.342   6.415
 3310SOL    HW210830   6.230   4.313   6.255
 3311SOL     OW10831   2.330   3.030   0.118
 3311SOL    HW110832   2.233   3.048   0.132
 3311SOL    HW210833   2.363   3.083   0.040
 3312SOL     OW10834   4.861   3.316   0.386
 3312SOL    HW110835   4.785   3.274   0.337
 3312SOL    HW210836   4.853   3.415   0.383
 3313SOL     OW10837   0.161   0.106   4.366
 3313SOL    HW110838   0.252   0.148   4.370
 3313SOL    HW210839   0.122   0.102   4.458
 3314SOL     OW10840   3.414   6.220   2.877
 3314SOL    HW110841   3.498   6.166   2.875
 3314SOL    HW210842   3.435   6.316   2.859
 3315SOL     OW10843   1.176   6.498   3.963
 3315SOL    HW110844   1.216   6.585   3.993
 3315SOL    HW210845   1.114   6.513   3.886
 3316SOL     OW10846   3.389   1.793   0.097
 3316SOL    HW110847   3.454   1.800   0.021
 3316SOL    HW210848   3.384   1.698   0.128
 3317SOL     OW10849   5.889   1.663   1.517
 3317SOL    HW110850   5.919   1.603   1.443
 3317SOL    HW210851   5.905   1.758   1.492
 3318SOL     OW10852   3.770   3.116   0.474
 3318SOL    HW110853   3.814   3.205   0.464
 3318SOL    HW210854   3.817   3.048   0.417
 3319SOL     OW10855   6.543   6.521   4.279
 3319SOL    HW110856   6.585   6.610   4.297
 3319SOL    HW210857   6.496   6.488   4.361
 3320SOL     OW10858   6.321   0.613   2.186
 3320SOL    HW110859   6.272   0.676   2.246
 3320SOL    HW210860   6.419   0.623   2.201
 3321SOL     OW10861   4.710   1.908   0.269
 3321SOL    HW110862   4.809   1.896   0.283
 3321SOL    HW210863   4.661   1.848   0.333
 3322SOL     OW10864   5.802   2.771   1.379
 3322SOL    HW110865   5.757   2.856   1.353
 3322SOL    HW210866   5.901   2.783   1.371
 3323SOL     OW10867   1.697   1.336   1.736
 3323SOL    HW110868   1.643   1.299   1.811
 3323SOL    HW210869   1.767   1.398   1.772
 3324SOL     OW10870   5.696   4.924   5.921
 3324SOL    HW110871   5.783   4.970   5.939
 3324SOL    HW210872   5.637   4.984   5.867
 3325SOL     OW10873   2.863   5.230   5.727
 3325SOL    HW110874   2.895   5.186   5.811
 3325SOL    HW210875   2.854   5.160   5.655
 3326SOL     OW10876   3.672   1.940   1.972
 3326SOL    HW110877   3.642   1.910   2.063
 3326SOL    HW210878   3.664   2.040   1.966
 3327SOL     OW10879   1.583   5.799   5.952
 3327SOL    HW110880   1.657   5.796   6.019
 3327SOL    HW210881   1.577   5.890   5.912
 3328SOL     OW10882   4.882   3.047   5.044
 3328SOL    HW110883   4.870   3.145   5.058
 3328SOL    HW210884   4.936   3.009   5.120
 3329SOL     OW10885   0.246   6.262   5.928
 3329SOL    HW110886   0.228   6.177   5.978
 3329SOL    HW210887   0.316   6.246   5.859
 3330SOL     OW10888   6.664   3.358   3.087
 3330SOL    HW110889   6.680   3.266   3.122
 3330SOL    HW210890   6.575   3.362   3.042
 3331SOL     OW10891   2.176   2.938   0.542
 3331SOL    HW110892   2.263   2.889   0.542
 3331SOL    HW210893   2.188   3.028   0.501
 3332SOL     OW10894   0.023   4.133   1.091
 3332SOL    HW110895   6.989   4.196   1.035
 3332SOL    HW210896   0.026   4.166   1.185
 3333SOL     OW10897   3.153   5.614   5.782
 3333SOL    HW110898   3.161   5.515   5.781
 3333SOL    HW210899   3.244   5.655   5.790
 3334SOL     OW10900   1.484   3.210   0.858
 3334SOL    HW110901   1.460   3.192   0.763
 3334SOL    HW210902   1.549   3.286   0.862
 3335SOL     OW10903   5.306   4.548   4.851
 3335SOL    HW110904   5.349   4.462   4.824
 3335SOL    HW210905   5.310   4.613   4.775
 3336SOL     OW10906   3.399   6.450   5.396
 3336SOL    HW110907   3.421   6.377   5.461
 3336SOL    HW210908   3.328   6.419   5.334
 3337SOL     OW10909   3.505   1.348   0.925
 3337SOL    HW110910   3.513   1.348   0.826
 3337SOL    HW210911   3.436   1.414   0.954
 3338SOL     OW10912   6.707   4.775   0.001
 3338SOL    HW110913   6.746   4.703   0.058
 3338SOL    HW210914   6.772   4.851   7.014
 3339SOL     OW10915   0.887   4.771   5.705
 3339SOL    HW110916   0.866   4.792   5.800
 3339SOL    HW210917   0.985   4.778   5.689
 3340SOL     OW10918   4.276   0.299   1.905
 3340SOL    HW110919   4.349   0.238   1.936
 3340SOL    HW210920   4.199   0.295   1.969
 3341SOL     OW10921   0.600   0.095   0.933
 3341SOL    HW110922   0.687   0.139   0.912
 3341SOL    HW210923   0.616   0.001   0.963
 3342SOL     OW10924   2.455   6.951   5.525
 3342SOL    HW110925   2.472   6.901   5.440
 3342SOL    HW210926   2.397   0.011   5.507
 3343SOL     OW10927   0.321   2.648   1.609
 3343SOL    HW110928   0.366   2.671   1.695
 3343SOL    HW210929   0.390   2.634   1.538
 3344SOL     OW10930   0.945   2.509   6.494
 3344SOL    HW110931   0.888   2.589   6.473
 3344SOL    HW210932   1.038   2.539   6.511
 3345SOL     OW10933   2.151   3.458   5.238
 3345SOL    HW110934   2.155   3.385   5.170
 3345SOL    HW210935   2.166   3.420   5.329
 3346SOL     OW10936   2.025   5.875   2.438
 3346SOL    HW110937   1.995   5.780   2.435
 3346SOL    HW210938   2.056   5.903   2.347
 3347SOL     OW10939   5.802   3.720   3.527
 3347SOL    HW110940   5.784   3.780   3.605
 3347SOL    HW210941   5.770   3.628   3.548
 3348SOL     OW10942   3.804   3.644   3.320
 3348SOL    HW110943   3.894   3.687   3.315
 3348SOL    HW210944   3.761   3.666   3.407
 3349SOL     OW10945   5.206   3.254   6.499
 3349SOL    HW110946   5.199   3.208   6.588
 3349SOL    HW210947   5.287   3.222   6.451
 3350SOL     OW10948   1.639   2.944   1.240
 3350SOL    HW110949   1.654   2.874   1.310
 3350SOL    HW210950   1.727   2.971   1.201
 3351SOL     OW10951   5.701   2.483   0.468
 3351SOL    HW110952   5.661   2.539   0.540
 3351SOL    HW210953   5.674   2.387   0.480
 3352SOL     OW10954   6.981   3.159   0.279
 3352SOL    HW110955   6.967   3.257   0.264
 3352SOL    HW210956   6.898   3.119   0.317
 3353SOL     OW10957   1.658   6.568   5.915
 3353SOL    HW110958   1.590   6.619   5.861
 3353SOL    HW210959   1.612   6.493   5.963
 3354SOL     OW10960   0.864   0.670   1.744
 3354SOL    HW110961   0.890   0.763   1.720
 3354SOL    HW210962   0.766   0.658   1.728
 3355SOL     OW10963   6.223   0.916   2.680
 3355SOL    HW110964   6.188   0.989   2.621
 3355SOL    HW210965   6.247   0.954   2.770
 3356SOL     OW10966   1.475   3.755   6.192
 3356SOL    HW110967   1.507   3.664   6.167
 3356SOL    HW210968   1.473   3.814   6.111
 3357SOL     OW10969   2.788   5.174   2.067
 3357SOL    HW110970   2.747   5.221   1.989
 3357SOL    HW210971   2.760   5.078   2.067
 3358SOL     OW10972   6.866   4.726   3.580
 3358SOL    HW110973   6.905   4.671   3.653
 3358SOL    HW210974   6.899   4.693   3.492
 3359SOL     OW10975   2.166   1.430   1.974
 3359SOL    HW110976   2.204   1.377   1.898
 3359SOL    HW210977   2.171   1.375   2.058
 3360SOL     OW10978   2.583   1.080   6.548
 3360SOL    HW110979   2.594   1.022   6.468
 3360SOL    HW210980   2.609   1.174   6.526
 3361SOL     OW10981   3.338   1.076   3.285
 3361SOL    HW110982   3.241   1.095   3.304
 3361SOL    HW210983   3.395   1.131   3.346
 3362SOL     OW10984   3.054   1.900   4.162
 3362SOL    HW110985   3.148   1.924   4.136
 3362SOL    HW210986   3.024   1.821   4.109
 3363SOL     OW10987   6.987   0.756   6.363
 3363SOL    HW110988   6.946   0.815   6.294
 3363SOL    HW210989   6.923   0.684   6.388
 3364SOL     OW10990   2.387   4.955   5.815
 3364SOL    HW110991   2.403   4.856   5.808
 3364SOL    HW210992   2.396   4.996   5.725
 3365SOL     OW10993   6.402   2.741   5.134
 3365SOL    HW110994   6.462   2.666   5.163
 3365SOL    HW210995   6.307   2.719   5.159
 3366SOL     OW10996   5.361   1.362   6.776
 3366SOL    HW110997   5.319   1.452   6.777
 3366SOL    HW210998   5.426   1.356   6.701
 3367SOL     OW10999   1.758   6.980   2.841
 3367SOL    HW111000   1.771   0.040   2.782
 3367SOL    HW211001   1.678   6.994   2.899
 3368SOL     OW11002   6.479   1.509   4.565
 3368SOL    HW111003   6.433   1.528   4.651
 3368SOL    HW211004   6.426   1.442   4.513
 3369SOL     OW11005   3.728   5.828   6.352
 3369SOL    HW111006   3.665   5.880   6.295
 3369SOL    HW211007   3.716   5.855   6.448
 3370SOL     OW11008   5.886   6.912   5.432
 3370SOL    HW111009   5.983   6.935   5.435
 3370SOL    HW211010   5.871   6.832   5.374
 3371SOL     OW11011   6.852   4.816   1.228
 3371SOL    HW111012   6.867   4.906   1.270
 3371SOL    HW211013   6.858   4.825   1.129
 3372SOL     OW11014   0.314   2.197   2.349
 3372SOL    HW111015   0.284   2.106   2.378
 3372SOL    HW211016   0.329   2.254   2.429
 3373SOL     OW11017   0.553   2.537   6.648
 3373SOL    HW111018   0.551   2.634   6.626
 3373SOL    HW211019   0.509   2.521   6.736
 3374SOL     OW11020   3.472   5.866   5.236
 3374SOL    HW111021   3.562   5.889   5.273
 3374SOL    HW211022   3.460   5.910   5.147
 3375SOL     OW11023   3.735   3.714   4.472
 3375SOL    HW111024   3.769   3.683   4.383
 3375SOL    HW211025   3.758   3.811   4.485
 3376SOL     OW11026   2.908   3.071   1.866
 3376SOL    HW111027   2.920   3.150   1.806
 3376SOL    HW211028   2.824   3.022   1.840
 3377SOL     OW11029   2.658   5.412   5.741
 3377SOL    HW111030   2.740   5.358   5.757
 3377SOL    HW211031   2.613   5.381   5.657
 3378SOL     OW11032   0.683   1.146   0.789
 3378SOL    HW111033   0.628   1.139   0.706
 3378SOL    HW211034   0.654   1.226   0.842
 3379SOL     OW11035   6.112   4.827   5.439
 3379SOL    HW111036   6.156   4.738   5.433
 3379SOL    HW211037   6.175   4.898   5.406
 3380SOL     OW11038   0.626   3.761   4.986
 3380SOL    HW111039   0.628   3.662   4.970
 3380SOL    HW211040   0.664   3.781   5.076
 3381SOL     OW11041   3.427   2.399   1.734
 3381SOL    HW111042   3.420   2.499   1.734
 3381SOL    HW211043   3.518   2.372   1.765
 3382SOL     OW11044   0.175   6.736   0.254
 3382SOL    HW111045   0.197   6.661   0.192
 3382SOL    HW211046   0.207   6.822   0.215
 3383SOL     OW11047   0.794   4.487   1.892
 3383SOL    HW111048   0.710   4.452   1.852
 3383SOL    HW211049   0.808   4.446   1.983
 3384SOL     OW11050   3.407   2.987   4.268
 3384SOL    HW111051   3.413   3.086   4.251
 3384SOL    HW211052   3.316   2.965   4.304
 3385SOL     OW11053   6.956   4.549   3.750
 3385SOL    HW111054   6.887   4.483   3.721
 3385SOL    HW211055   6.921   4.603   3.826
 3386SOL     OW11056   6.122   4.133   4.523
 3386SOL    HW111057   6.200   4.193   4.540
 3386SOL    HW211058   6.039   4.175   4.560
 3387SOL     OW11059   3.262   1.722   2.755
 3387SOL    HW111060   3.284   1.658   2.828
 3387SOL    HW211061   3.291   1.814   2.781
 3388SOL     OW11062   5.540   2.231   1.651
 3388SOL    HW111063   5.530   2.133   1.636
 3388SOL    HW211064   5.631   2.260   1.622
 3389SOL     OW11065   4.286   5.424   2.745
 3389SOL    HW111066   4.262   5.355   2.678
 3389SOL    HW211067   4.368   5.474   2.715
 3390SOL     OW11068   4.613   2.217   5.630
 3390SOL    HW111069   4.655   2.278   5.698
 3390SOL    HW211070   4.514   2.228   5.633
 3391SOL     OW11071   3.493   2.122   3.872
 3391SOL    HW111072   3.427   2.072   3.815
 3391SOL    HW211073   3.582   2.122   3.826
 3392SOL     OW11074   4.819   5.782   3.189
 3392SOL    HW111075   4.751   5.827   3.131
 3392SOL    HW211076   4.772   5.734   3.263
 3393SOL     OW11077   0.284   0.406   0.402
 3393SOL    HW111078   0.289   0.490   0.456
 3393SOL    HW211079   0.248   0.427   0.311
 3394SOL     OW11080   5.786   0.990   2.568
 3394SOL    HW111081   5.733   0.919   2.521
 3394SOL    HW211082   5.730   1.030   2.641
 3395SOL     OW11083   1.288   3.707   5.479
 3395SOL    HW111084   1.286   3.759   5.393
 3395SOL    HW211085   1.195   3.702   5.516
 3396SOL     OW11086   6.418   3.537   4.412
 3396SOL    HW111087   6.424   3.594   4.493
 3396SOL    HW211088   6.510   3.513   4.381
 3397SOL     OW11089   3.255   5.864   6.130
 3397SOL    HW111090   3.294   5.853   6.221
 3397SOL    HW211091   3.290   5.947   6.088
 3398SOL     OW11092   0.740   0.961   2.852
 3398SOL    HW111093   0.829   0.923   2.873
 3398SOL    HW211094   0.708   1.015   2.930
 3399SOL     OW11095   4.240   5.503   5.134
 3399SOL    HW111096   4.150   5.546   5.131
 3399SOL    HW211097   4.251   5.454   5.220
 3400SOL     OW11098   5.112   2.422   0.324
 3400SOL    HW111099   5.185   2.468   0.374
 3400SOL    HW211100   5.024   2.445   0.366
 3401SOL     OW11101   6.826   4.440   6.351
 3401SOL    HW111102   6.822   4.518   6.414
 3401SOL    HW211103   6.763   4.369   6.382
 3402SOL     OW11104   5.508   5.381   2.098
 3402SOL    HW111105   5.522   5.371   2.196
 3402SOL    HW211106   5.464   5.469   2.079
 3403SOL     OW11107   3.266   1.773   5.195
 3403SOL    HW111108   3.255   1.763   5.096
 3403SOL    HW211109   3.343   1.834   5.213
 3404SOL     OW11110   4.745   0.093   1.454
 3404SOL    HW111111   4.664   0.060   1.501
 3404SOL    HW211112   4.798   0.152   1.515
 3405SOL     OW11113   6.076   3.967   0.136
 3405SOL    HW111114   6.026   3.945   0.220
 3405SOL    HW211115   6.014   3.963   0.058
 3406SOL     OW11116   0.986   4.047   1.391
 3406SOL    HW111117   0.987   4.047   1.491
 3406SOL    HW211118   0.968   4.140   1.358
 3407SOL     OW11119   1.660   4.985   2.851
 3407SOL    HW111120   1.594   4.923   2.893
 3407SOL    HW211121   1.725   5.016   2.920
 3408SOL     OW11122   5.292   3.899   3.001
 3408SOL    HW111123   5.192   3.901   3.007
 3408SOL    HW211124   5.331   3.904   3.093
 3409SOL     OW11125   2.693   1.107   5.655
 3409SOL    HW111126   2.656   1.058   5.577
 3409SOL    HW211127   2.646   1.195   5.665
 3410SOL     OW11128   0.063   1.134   0.266
 3410SOL    HW111129   0.080   1.199   0.193
 3410SOL    HW211130   0.149   1.111   0.311
 3411SOL     OW11131   4.388   2.363   2.357
 3411SOL    HW111132   4.417   2.458   2.348
 3411SOL    HW211133   4.329   2.338   2.280
 3412SOL     OW11134   3.975   5.534   6.876
 3412SOL    HW111135   3.994   5.463   6.944
 3412SOL    HW211136   3.895   5.587   6.903
 3413SOL     OW11137   4.830   1.376   2.470
 3413SOL    HW111138   4.809   1.458   2.416
 3413SOL    HW211139   4.921   1.386   2.512
 3414SOL     OW11140   3.713   0.905   5.019
 3414SOL    HW111141   3.808   0.906   4.989
 3414SOL    HW211142   3.710   0.896   5.119
 3415SOL     OW11143   1.229   5.175   4.376
 3415SOL    HW111144   1.258   5.080   4.382
 3415SOL    HW211145   1.196   5.206   4.465
 3416SOL     OW11146   2.348   4.426   5.992
 3416SOL    HW111147   2.270   4.400   5.935
 3416SOL    HW211148   2.360   4.358   6.065
 3417SOL     OW11149   5.834   1.131   1.045
 3417SOL    HW111150   5.909   1.081   1.003
 3417SOL    HW211151   5.797   1.077   1.121
 3418SOL     OW11152   3.102   2.971   6.102
 3418SOL    HW111153   3.004   2.949   6.095
 3418SOL    HW211154   3.126   3.035   6.029
 3419SOL     OW11155   4.791   3.900   6.894
 3419SOL    HW111156   4.777   3.906   6.993
 3419SOL    HW211157   4.751   3.814   6.860
 3420SOL     OW11158   4.191   1.610   3.862
 3420SOL    HW111159   4.217   1.607   3.766
 3420SOL    HW211160   4.162   1.519   3.891
 3421SOL     OW11161   0.410   6.564   2.458
 3421SOL    HW111162   0.409   6.607   2.548
 3421SOL    HW211163   0.357   6.480   2.460
 3422SOL     OW11164   2.902   2.231   2.720
 3422SOL    HW111165   2.977   2.165   2.719
 3422SOL    HW211166   2.882   2.259   2.626
 3423SOL     OW11167   2.791   0.597   1.921
 3423SOL    HW111168   2.886   0.584   1.950
 3423SOL    HW211169   2.780   0.562   1.827
 3424SOL     OW11170   4.649   1.081   1.638
 3424SOL    HW111171   4.564   1.131   1.656
 3424SOL    HW211172   4.632   0.983   1.644
 3425SOL     OW11173   4.739   4.209   1.661
 3425SOL    HW111174   4.660   4.266   1.637
 3425SOL    HW211175   4.709   4.114   1.669
 3426SOL     OW11176   4.432   3.787   0.831
 3426SOL    HW111177   4.408   3.781   0.928
 3426SOL    HW211178   4.386   3.867   0.790
 3427SOL     OW11179   1.275   1.736   0.562
 3427SOL    HW111180   1.346   1.724   0.632
 3427SOL    HW211181   1.230   1.824   0.576
 3428SOL     OW11182   4.097   4.779   3.288
 3428SOL    HW111183   4.163   4.798   3.215
 3428SOL    HW211184   4.082   4.680   3.294
 3429SOL     OW11185   6.900   2.899   0.615
 3429SOL    HW111186   6.960   2.923   0.539
 3429SOL    HW211187   6.928   2.811   0.654
 3430SOL     OW11188   1.368   5.119   6.487
 3430SOL    HW111189   1.414   5.205   6.466
 3430SOL    HW211190   1.269   5.133   6.483
 3431SOL     OW11191   1.814   6.656   6.674
 3431SOL    HW111192   1.729   6.608   6.697
 3431SOL    HW211193   1.820   6.668   6.575
 3432SOL     OW11194   2.790   1.795   0.069
 3432SOL    HW111195   2.758   1.700   0.068
 3432SOL    HW211196   2.717   1.856   0.039
 3433SOL     OW11197   5.201   1.347   4.683
 3433SOL    HW111198   5.145   1.301   4.753
 3433SOL    HW211199   5.292   1.306   4.682
 3434SOL     OW11200   4.301   1.879   3.425
 3434SOL    HW111201   4.350   1.963   3.402
 3434SOL    HW211202   4.252   1.845   3.345
 3435SOL     OW11203   0.550   0.986   0.187
 3435SOL    HW111204   0.611   1.042   0.243
 3435SOL    HW211205   0.556   1.014   0.091
 3436SOL     OW11206   4.716   6.840   2.952
 3436SOL    HW111207   4.810   6.817   2.978
 3436SOL    HW211208   4.664   6.865   3.034
 3437SOL     OW11209   4.844   0.859   6.777
 3437SOL    HW111210   4.799   0.812   6.702
 3437SOL    HW211211   4.775   0.902   6.836
 3438SOL     OW11212   1.263   4.757   6.765
 3438SOL    HW111213   1.307   4.781   6.679
 3438SOL    HW211214   1.178   4.809   6.774
 3439SOL     OW11215   2.740   0.163   3.525
 3439SOL    HW111216   2.716   0.157   3.428
 3439SOL    HW211217   2.684   0.233   3.570
 3440SOL     OW11218   3.020   2.250   0.512
 3440SOL    HW111219   2.969   2.239   0.597
 3440SOL    HW211220   2.961   2.292   0.443
 3441SOL     OW11221   4.619   0.462   4.179
 3441SOL    HW111222   4.618   0.463   4.279
 3441SOL    HW211223   4.688   0.526   4.146
 3442SOL     OW11224   0.975   4.804   2.995
 3442SOL    HW111225   0.966   4.902   2.977
 3442SOL    HW211226   1.068   4.774   2.974
 3443SOL     OW11227   5.755   6.577   4.377
 3443SOL    HW111228   5.772   6.672   4.352
 3443SOL    HW211229   5.745   6.521   4.295
 3444SOL     OW11230   4.597   4.837   0.284
 3444SOL    HW111231   4.619   4.831   0.381
 3444SOL    HW211232   4.677   4.867   0.233
 3445SOL     OW11233   5.517   5.098   4.498
 3445SOL    HW111234   5.492   5.002   4.501
 3445SOL    HW211235   5.599   5.114   4.552
 3446SOL     OW11236   2.960   6.589   2.625
 3446SOL    HW111237   3.019   6.590   2.544
 3446SOL    HW211238   2.892   6.662   2.619
 3447SOL     OW11239   6.167   4.534   5.688
 3447SOL    HW111240   6.255   4.581   5.692
 3447SOL    HW211241   6.101   4.591   5.640
 3448SOL     OW11242   3.418   3.022   1.112
 3448SOL    HW111243   3.498   3.032   1.053
 3448SOL    HW211244   3.447   3.000   1.205
 3449SOL     OW11245   6.916   6.081   2.831
 3449SOL    HW111246   6.935   6.113   2.923
 3449SOL    HW211247   6.821   6.048   2.826
 3450SOL     OW11248   0.908   1.975   1.344
 3450SOL    HW111249   0.834   1.911   1.322
 3450SOL    HW211250   0.993   1.943   1.302
 3451SOL     OW11251   1.370   4.610   4.206
 3451SOL    HW111252   1.371   4.615   4.106
 3451SOL    HW211253   1.280   4.638   4.240
 3452SOL     OW11254   6.768   1.855   0.856
 3452SOL    HW111255   6.800   1.935   0.806
 3452SOL    HW211256   6.757   1.778   0.793
 3453SOL     OW11257   6.229   6.382   5.608
 3453SOL    HW111258   6.180   6.413   5.690
 3453SOL    HW211259   6.305   6.323   5.636
 3454SOL     OW11260   1.532   1.332   0.534
 3454SOL    HW111261   1.434   1.351   0.538
 3454SOL    HW211262   1.582   1.418   0.543
 3455SOL     OW11263   2.346   2.799   4.024
 3455SOL    HW111264   2.327   2.814   3.927
 3455SOL    HW211265   2.306   2.873   4.078
 3456SOL     OW11266   6.974   0.046   0.733
 3456SOL    HW111267   6.969   0.085   0.641
 3456SOL    HW211268   6.953   6.967   0.730
 3457SOL     OW11269   2.129   6.489   3.731
 3457SOL    HW111270   2.066   6.487   3.809
 3457SOL    HW211271   2.091   6.546   3.659
 3458SOL     OW11272   5.326   4.725   0.357
 3458SOL    HW111273   5.227   4.717   0.350
 3458SOL    HW211274   5.351   4.820   0.376
 3459SOL     OW11275   6.690   6.368   3.140
 3459SOL    HW111276   6.707   6.283   3.190
 3459SOL    HW211277   6.640   6.432   3.198
 3460SOL     OW11278   3.649   2.824   5.843
 3460SOL    HW111279   3.702   2.909   5.844
 3460SOL    HW211280   3.684   2.762   5.913
 3461SOL     OW11281   2.572   5.190   3.162
 3461SOL    HW111282   2.555   5.235   3.074
 3461SOL    HW211283   2.491   5.200   3.221
 3462SOL     OW11284   5.305   2.829   2.358
 3462SOL    HW111285   5.263   2.780   2.435
 3462SOL    HW211286   5.298   2.774   2.275
 3463SOL     OW11287   1.689   2.761   1.442
 3463SOL    HW111288   1.738   2.686   1.488
 3463SOL    HW211289   1.606   2.783   1.494
 3464SOL     OW11290   5.176   2.076   6.049
 3464SOL    HW111291   5.117   1.996   6.063
 3464SOL    HW211292   5.272   2.047   6.047
 3465SOL     OW11293   1.677   4.440   1.408
 3465SOL    HW111294   1.652   4.398   1.320
 3465SOL    HW211295   1.712   4.370   1.470
 3466SOL     OW11296   6.212   4.437   4.024
 3466SOL    HW111297   6.224   4.435   4.124
 3466SOL    HW211298   6.286   4.490   3.983
 3467SOL     OW11299   3.231   2.864   1.459
 3467SOL    HW111300   3.163   2.894   1.392
 3467SOL    HW211301   3.266   2.943   1.508
 3468SOL     OW11302   3.785   1.536   0.896
 3468SOL    HW111303   3.850   1.468   0.930
 3468SOL    HW211304   3.692   1.497   0.899
 3469SOL     OW11305   3.734   5.889   5.361
 3469SOL    HW111306   3.694   5.896   5.452
 3469SOL    HW211307   3.824   5.931   5.361
 3470SOL     OW11308   0.661   2.449   2.207
 3470SOL    HW111309   0.658   2.356   2.243
 3470SOL    HW211310   0.573   2.494   2.224
 3471SOL     OW11311   4.772   2.956   4.785
 3471SOL    HW111312   4.783   2.963   4.884
 3471SOL    HW211313   4.835   3.020   4.740
 3472SOL     OW11314   4.302   1.893   3.124
 3472SOL    HW111315   4.240   1.874   3.048
 3472SOL    HW211316   4.396   1.899   3.089
 3473SOL     OW11317   6.139   4.533   1.886
 3473SOL    HW111318   6.208   4.510   1.817
 3473SOL    HW211319   6.149   4.629   1.913
 3474SOL     OW11320   4.751   4.737   3.984
 3474SOL    HW111321   4.733   4.826   4.025
 3474SOL    HW211322   4.847   4.731   3.957
 3475SOL     OW11323   0.023   4.210   3.997
 3475SOL    HW111324   0.037   4.238   3.902
 3475SOL    HW211325   6.946   4.187   4.010
 3476SOL     OW11326   1.509   1.260   3.324
 3476SOL    HW111327   1.556   1.348   3.327
 3476SOL    HW211328   1.446   1.252   3.401
 3477SOL     OW11329   0.492   4.600   2.101
 3477SOL    HW111330   0.519   4.517   2.148
 3477SOL    HW211331   0.542   4.678   2.138
 3478SOL     OW11332   2.172   0.452   1.363
 3478SOL    HW111333   2.230   0.515   1.311
 3478SOL    HW211334   2.082   0.447   1.319
 3479SOL     OW11335   1.369   4.494   5.014
 3479SOL    HW111336   1.442   4.539   5.066
 3479SOL    HW211337   1.299   4.461   5.076
 3480SOL     OW11338   1.409   4.591   6.415
 3480SOL    HW111339   1.369   4.606   6.325
 3480SOL    HW211340   1.367   4.654   6.481
 3481SOL     OW11341   6.181   0.431   4.587
 3481SOL    HW111342   6.179   0.394   4.679
 3481SOL    HW211343   6.089   0.460   4.561
 3482SOL     OW11344   5.657   3.401   6.471
 3482SOL    HW111345   5.708   3.475   6.516
 3482SOL    HW211346   5.678   3.314   6.517
 3483SOL     OW11347   5.459   2.747   5.440
 3483SOL    HW111348   5.484   2.731   5.535
 3483SOL    HW211349   5.525   2.703   5.380
 3484SOL     OW11350   1.064   3.710   5.050
 3484SOL    HW111351   0.978   3.698   5.099
 3484SOL    HW211352   1.129   3.638   5.077
 3485SOL     OW11353   6.891   2.781   6.859
 3485SOL    HW111354   6.810   2.744   6.905
 3485SOL    HW211355   6.863   2.830   6.777
 3486SOL     OW11356   1.818   6.482   5.701
 3486SOL    HW111357   1.765   6.518   5.778
 3486SOL    HW211358   1.887   6.419   5.734
 3487SOL     OW11359   4.549   1.217   0.306
 3487SOL    HW111360   4.636   1.195   0.263
 3487SOL    HW211361   4.474   1.180   0.252
 3488SOL     OW11362   5.997   0.194   4.445
 3488SOL    HW111363   5.963   0.287   4.431
 3488SOL    HW211364   6.085   0.183   4.397
 3489SOL     OW11365   3.254   6.061   0.986
 3489SOL    HW111366   3.262   5.982   0.924
 3489SOL    HW211367   3.344   6.089   1.017
 3490SOL     OW11368   3.212   6.688   0.794
 3490SOL    HW111369   3.221   6.708   0.892
 3490SOL    HW211370   3.295   6.642   0.762
 3491SOL     OW11371   3.840   4.589   6.067
 3491SOL    HW111372   3.918   4.560   6.123
 3491SOL    HW211373   3.874   4.624   5.979
 3492SOL     OW11374   6.120   4.508   3.138
 3492SOL    HW111375   6.052   4.446   3.099
 3492SOL    HW211376   6.177   4.459   3.203
 3493SOL     OW11377   6.843   2.833   5.405
 3493SOL    HW111378   6.827   2.752   5.463
 3493SOL    HW211379   6.761   2.891   5.406
 3494SOL     OW11380   4.077   1.457   2.306
 3494SOL    HW111381   4.091   1.506   2.220
 3494SOL    HW211382   3.979   1.449   2.324
 3495SOL     OW11383   1.414   3.272   3.165
 3495SOL    HW111384   1.334   3.255   3.108
 3495SOL    HW211385   1.412   3.211   3.245
 3496SOL     OW11386   6.283   4.962   1.555
 3496SOL    HW111387   6.269   5.010   1.469
 3496SOL    HW211388   6.239   4.872   1.551
 3497SOL     OW11389   3.284   6.912   2.337
 3497SOL    HW111390   3.353   6.854   2.294
 3497SOL    HW211391   3.194   6.894   2.297
 3498SOL     OW11392   1.910   2.799   1.715
 3498SOL    HW111393   1.908   2.730   1.643
 3498SOL    HW211394   1.951   2.760   1.798
 3499SOL     OW11395   6.145   6.507   4.597
 3499SOL    HW111396   6.172   6.492   4.502
 3499SOL    HW211397   6.054   6.468   4.612
 3500SOL     OW11398   2.247   2.332   4.119
 3500SOL    HW111399   2.238   2.261   4.050
 3500SOL    HW211400   2.268   2.419   4.075
 3501SOL     OW11401   1.130   0.061   5.908
 3501SOL    HW111402   1.174   0.118   5.840
 3501SOL    HW211403   1.140   0.103   5.999
 3502SOL     OW11404   4.236   2.273   2.701
 3502SOL    HW111405   4.166   2.293   2.632
 3502SOL    HW211406   4.321   2.320   2.677
 3503SOL     OW11407   0.020   5.751   6.436
 3503SOL    HW111408   6.947   5.790   6.444
 3503SOL    HW211409   0.029   5.704   6.348
 3504SOL     OW11410   1.765   0.592   0.382
 3504SOL    HW111411   1.686   0.649   0.363
 3504SOL    HW211412   1.840   0.617   0.322
 3505SOL     OW11413   4.788   3.818   5.954
 3505SOL    HW111414   4.736   3.804   6.038
 3505SOL    HW211415   4.823   3.912   5.952
 3506SOL     OW11416   4.205   5.030   4.952
 3506SOL    HW111417   4.123   4.976   4.972
 3506SOL    HW211418   4.182   5.128   4.956
 3507SOL     OW11419   3.217   1.195   0.803
 3507SOL    HW111420   3.282   1.253   0.850
 3507SOL    HW211421   3.204   1.229   0.709
 3508SOL     OW11422   3.499   1.120   5.255
 3508SOL    HW111423   3.510   1.122   5.155
 3508SOL    HW211424   3.576   1.168   5.298
 3509SOL     OW11425   3.916   5.668   6.264
 3509SOL    HW111426   3.874   5.578   6.251
 3509SOL    HW211427   3.844   5.736   6.280
 3510SOL     OW11428   2.631   1.470   1.465
 3510SOL    HW111429   2.532   1.476   1.454
 3510SOL    HW211430   2.672   1.558   1.440
 3511SOL     OW11431   2.796   4.573   1.529
 3511SOL    HW111432   2.892   4.547   1.523
 3511SOL    HW211433   2.783   4.634   1.607
 3512SOL     OW11434   0.053   5.136   5.690
 3512SOL    HW111435   7.002   5.195   5.650
 3512SOL    HW211436   0.044   5.137   5.790
 3513SOL     OW11437   6.186   1.873   0.910
 3513SOL    HW111438   6.140   1.960   0.922
 3513SOL    HW211439   6.127   1.810   0.860
 3514SOL     OW11440   3.469   1.551   1.866
 3514SOL    HW111441   3.401   1.523   1.933
 3514SOL    HW211442   3.454   1.647   1.841
 3515SOL     OW11443   0.219   4.997   4.313
 3515SOL    HW111444   0.246   4.916   4.364
 3515SOL    HW211445   0.191   5.069   4.377
 3516SOL     OW11446   4.938   0.635   1.495
 3516SOL    HW111447   4.846   0.670   1.477
 3516SOL    HW211448   4.942   0.603   1.590
 3517SOL     OW11449   5.819   0.722   1.236
 3517SOL    HW111450   5.782   0.641   1.190
 3517SOL    HW211451   5.757   0.799   1.223
 3518SOL     OW11452   5.491   0.859   5.154
 3518SOL    HW111453   5.405   0.822   5.121
 3518SOL    HW211454   5.476   0.907   5.241
 3519SOL     OW11455   3.393   0.565   1.188
 3519SOL    HW111456   3.361   0.547   1.281
 3519SOL    HW211457   3.484   0.525   1.176
 3520SOL     OW11458   3.171   5.886   4.183
 3520SOL    HW111459   3.075   5.873   4.209
 3520SOL    HW211460   3.210   5.798   4.157
 3521SOL     OW11461   2.664   2.955   6.134
 3521SOL    HW111462   2.735   2.975   6.066
 3521SOL    HW211463   2.680   3.009   6.216
 3522SOL     OW11464   0.923   6.114   6.309
 3522SOL    HW111465   0.844   6.066   6.345
 3522SOL    HW211466   0.935   6.200   6.359
 3523SOL     OW11467   2.920   6.315   0.006
 3523SOL    HW111468   2.873   6.253   0.070
 3523SOL    HW211469   2.958   6.393   0.057
 3524SOL     OW11470   4.826   1.245   3.882
 3524SOL    HW111471   4.738   1.263   3.837
 3524SOL    HW211472   4.897   1.301   3.840
 3525SOL     OW11473   0.192   3.343   3.169
 3525SOL    HW111474   0.257   3.335   3.244
 3525SOL    HW211475   0.194   3.436   3.133
 3526SOL     OW11476   0.075   6.669   2.018
 3526SOL    HW111477   7.002   6.687   1.984
 3526SOL    HW211478   0.072   6.649   2.115
 3527SOL     OW11479   0.541   2.820   6.429
 3527SOL    HW111480   0.452   2.852   6.397
 3527SOL    HW211481   0.538   2.803   6.527
 3528SOL     OW11482   2.324   5.687   4.330
 3528SOL    HW111483   2.350   5.596   4.364
 3528SOL    HW211484   2.308   5.683   4.232
 3529SOL     OW11485   4.357   4.493   1.064
 3529SOL    HW111486   4.391   4.399   1.057
 3529SOL    HW211487   4.433   4.555   1.080
 3530SOL     OW11488   6.633   6.832   0.848
 3530SOL    HW111489   6.548   6.869   0.811
 3530SOL    HW211490   6.633   6.843   0.947
 3531SOL     OW11491   4.878   2.418   0.512
 3531SOL    HW111492   4.803   2.449   0.453
 3531SOL    HW211493   4.906   2.493   0.572
 3532SOL     OW11494   1.793   0.795   1.635
 3532SOL    HW111495   1.787   0.880   1.687
 3532SOL    HW211496   1.738   0.802   1.552
 3533SOL     OW11497   1.072   1.703   3.109
 3533SOL    HW111498   1.126   1.663   3.036
 3533SOL    HW211499   1.132   1.724   3.187
 3534SOL     OW11500   0.068   1.274   1.186
 3534SOL    HW111501   7.015   1.299   1.120
 3534SOL    HW211502   0.133   1.212   1.142
 3535SOL     OW11503   3.289   5.653   4.159
 3535SOL    HW111504   3.327   5.580   4.103
 3535SOL    HW211505   3.364   5.705   4.200
 3536SOL     OW11506   3.713   1.534   3.067
 3536SOL    HW111507   3.690   1.617   3.118
 3536SOL    HW211508   3.812   1.518   3.072
 3537SOL     OW11509   1.833   0.058   3.802
 3537SOL    HW111510   1.861   7.007   3.736
 3537SOL    HW211511   1.733   0.062   3.805
 3538SOL     OW11512   2.911   5.871   2.484
 3538SOL    HW111513   2.893   5.790   2.429
 3538SOL    HW211514   3.001   5.907   2.463
 3539SOL     OW11515   3.545   3.785   3.798
 3539SOL    HW111516   3.456   3.749   3.825
 3539SOL    HW211517   3.532   3.863   3.737
 3540SOL     OW11518   1.610   1.974   3.634
 3540SOL    HW111519   1.648   2.065   3.616
 3540SOL    HW211520   1.685   1.908   3.638
 3541SOL     OW11521   3.783   4.034   4.150
 3541SOL    HW111522   3.781   4.016   4.248
 3541SOL    HW211523   3.873   4.009   4.113
 3542SOL     OW11524   6.602   5.298   1.062
 3542SOL    HW111525   6.675   5.360   1.091
 3542SOL    HW211526   6.556   5.336   0.982
 3543SOL     OW11527   5.564   2.831   5.034
 3543SOL    HW111528   5.649   2.814   4.985
 3543SOL    HW211529   5.538   2.927   5.024
 3544SOL     OW11530   2.193   6.515   6.951
 3544SOL    HW111531   2.231   6.422   6.954
 3544SOL    HW211532   2.230   6.563   6.872
 3545SOL     OW11533   3.163   4.962   0.578
 3545SOL    HW111534   3.081   4.936   0.527
 3545SOL    HW211535   3.227   5.009   0.517
 3546SOL     OW11536   0.125   4.872   2.383
 3546SOL    HW111537   0.117   4.882   2.284
 3546SOL    HW211538   0.090   4.783   2.410
 3547SOL     OW11539   4.958   4.759   4.648
 3547SOL    HW111540   4.996   4.703   4.574
 3547SOL    HW211541   4.913   4.699   4.715
 3548SOL     OW11542   4.774   3.458   6.170
 3548SOL    HW111543   4.871   3.484   6.176
 3548SOL    HW211544   4.750   3.405   6.252
 3549SOL     OW11545   5.567   3.600   2.586
 3549SOL    HW111546   5.591   3.616   2.490
 3549SOL    HW211547   5.472   3.629   2.601
 3550SOL     OW11548   5.522   1.527   3.253
 3550SOL    HW111549   5.591   1.591   3.220
 3550SOL    HW211550   5.456   1.508   3.180
 3551SOL     OW11551   2.025   6.385   3.119
 3551SOL    HW111552   2.088   6.342   3.183
 3551SOL    HW211553   2.000   6.319   3.047
 3552SOL     OW11554   6.962   4.420   3.303
 3552SOL    HW111555   6.870   4.396   3.271
 3552SOL    HW211556   7.017   4.337   3.312
 3553SOL     OW11557   5.681   2.262   3.230
 3553SOL    HW111558   5.583   2.239   3.226
 3553SOL    HW211559   5.705   2.317   3.151
 3554SOL     OW11560   3.896   5.849   0.039
 3554SOL    HW111561   3.846   5.934   0.055
 3554SOL    HW211562   3.832   5.777   0.013
 3555SOL     OW11563   0.134   2.209   3.236
 3555SOL    HW111564   0.089   2.292   3.270
 3555SOL    HW211565   0.069   2.132   3.240
 3556SOL     OW11566   4.359   0.863   6.674
 3556SOL    HW111567   4.278   0.893   6.724
 3556SOL    HW211568   4.388   0.935   6.611
 3557SOL     OW11569   0.881   0.157   4.377
 3557SOL    HW111570   0.900   0.063   4.405
 3557SOL    HW211571   0.798   0.189   4.422
 3558SOL     OW11572   6.718   6.372   1.920
 3558SOL    HW111573   6.622   6.385   1.945
 3558SOL    HW211574   6.739   6.426   1.838
 3559SOL     OW11575   1.167   0.507   5.227
 3559SOL    HW111576   1.180   0.457   5.313
 3559SOL    HW211577   1.093   0.465   5.175
 3560SOL     OW11578   6.357   6.619   1.729
 3560SOL    HW111579   6.455   6.625   1.707
 3560SOL    HW211580   6.344   6.556   1.805
 3561SOL     OW11581   5.227   4.351   3.880
 3561SOL    HW111582   5.216   4.424   3.948
 3561SOL    HW211583   5.292   4.284   3.914
 3562SOL     OW11584   3.933   2.178   3.394
 3562SOL    HW111585   4.010   2.203   3.335
 3562SOL    HW211586   3.961   2.185   3.490
 3563SOL     OW11587   4.990   0.080   1.245
 3563SOL    HW111588   5.069   0.141   1.247
 3563SOL    HW211589   4.922   0.112   1.311
 3564SOL     OW11590   6.948   4.344   2.894
 3564SOL    HW111591   6.911   4.415   2.953
 3564SOL    HW211592   6.958   4.379   2.801
 3565SOL     OW11593   1.475   0.869   5.302
 3565SOL    HW111594   1.409   0.899   5.371
 3565SOL    HW211595   1.520   0.785   5.335
 3566SOL     OW11596   0.843   4.730   6.232
 3566SOL    HW111597   0.790   4.793   6.288
 3566SOL    HW211598   0.804   4.638   6.241
 3567SOL     OW11599   0.284   3.024   1.301
 3567SOL    HW111600   0.285   3.123   1.294
 3567SOL    HW211601   0.367   2.987   1.259
 3568SOL     OW11602   4.930   4.180   3.507
 3568SOL    HW111603   4.968   4.187   3.599
 3568SOL    HW211604   4.977   4.244   3.446
 3569SOL     OW11605   4.089   3.471   3.333
 3569SOL    HW111606   4.066   3.402   3.264
 3569SOL    HW211607   4.063   3.436   3.424
 3570SOL     OW11608   0.439   1.836   5.388
 3570SOL    HW111609   0.515   1.901   5.398
 3570SOL    HW211610   0.473   1.743   5.398
 3571SOL     OW11611   2.456   6.839   4.610
 3571SOL    HW111612   2.430   6.879   4.523
 3571SOL    HW211613   2.533   6.890   4.650
 3572SOL     OW11614   5.258   3.946   1.768
 3572SOL    HW111615   5.309   3.918   1.850
 3572SOL    HW211616   5.321   3.987   1.702
 3573SOL     OW11617   0.202   4.624   3.686
 3573SOL    HW111618   0.102   4.633   3.692
 3573SOL    HW211619   0.233   4.665   3.601
 3574SOL     OW11620   1.839   1.989   5.799
 3574SOL    HW111621   1.786   2.030   5.873
 3574SOL    HW211622   1.888   1.909   5.833
 3575SOL     OW11623   5.265   0.385   6.768
 3575SOL    HW111624   5.181   0.332   6.775
 3575SOL    HW211625   5.300   0.380   6.674
 3576SOL     OW11626   1.107   2.915   0.369
 3576SOL    HW111627   1.203   2.921   0.343
 3576SOL    HW211628   1.078   3.001   0.410
 3577SOL     OW11629   1.479   2.655   4.919
 3577SOL    HW111630   1.444   2.702   4.838
 3577SOL    HW211631   1.474   2.556   4.906
 3578SOL     OW11632   3.688   2.747   6.638
 3578SOL    HW111633   3.743   2.830   6.637
 3578SOL    HW211634   3.702   2.696   6.553
 3579SOL     OW11635   0.845   3.998   1.003
 3579SOL    HW111636   0.784   4.042   1.068
 3579SOL    HW211637   0.934   3.982   1.046
 3580SOL     OW11638   6.932   4.213   1.950
 3580SOL    HW111639   0.003   4.169   1.949
 3580SOL    HW211640   6.881   4.181   2.030
 3581SOL     OW11641   1.355   0.740   2.747
 3581SOL    HW111642   1.297   0.701   2.818
 3581SOL    HW211643   1.419   0.805   2.788
 3582SOL     OW11644   4.537   5.965   6.777
 3582SOL    HW111645   4.627   5.966   6.820
 3582SOL    HW211646   4.479   5.897   6.823
 3583SOL     OW11647   1.583   5.420   1.403
 3583SOL    HW111648   1.599   5.440   1.499
 3583SOL    HW211649   1.484   5.412   1.386
 3584SOL     OW11650   5.783   5.072   4.618
 3584SOL    HW111651   5.805   4.976   4.638
 3584SOL    HW211652   5.818   5.130   4.692
 3585SOL     OW11653   3.605   2.078   3.562
 3585SOL    HW111654   3.635   2.126   3.644
 3585SOL    HW211655   3.639   1.984   3.564
 3586SOL     OW11656   6.802   1.825   5.488
 3586SOL    HW111657   6.853   1.740   5.506
 3586SOL    HW211658   6.705   1.805   5.481
 3587SOL     OW11659   2.942   0.857   5.857
 3587SOL    HW111660   2.899   0.787   5.799
 3587SOL    HW211661   2.995   0.812   5.929
 3588SOL     OW11662   5.668   4.664   4.479
 3588SOL    HW111663   5.726   4.721   4.421
 3588SOL    HW211664   5.577   4.705   4.487
 3589SOL     OW11665   0.834   6.962   6.427
 3589SOL    HW111666   0.771   6.992   6.499
 3589SOL    HW211667   0.784   6.951   6.341
 3590SOL     OW11668   6.370   5.668   5.375
 3590SOL    HW111669   6.291   5.722   5.404
 3590SOL    HW211670   6.452   5.725   5.377
 3591SOL     OW11671   4.693   2.066   0.700
 3591SOL    HW111672   4.656   2.118   0.622
 3591SOL    HW211673   4.710   1.972   0.671
 3592SOL     OW11674   1.199   6.052   1.387
 3592SOL    HW111675   1.182   6.095   1.476
 3592SOL    HW211676   1.297   6.058   1.366
 3593SOL     OW11677   3.771   3.366   5.647
 3593SOL    HW111678   3.862   3.376   5.606
 3593SOL    HW211679   3.730   3.280   5.616
 3594SOL     OW11680   4.655   5.078   5.104
 3594SOL    HW111681   4.588   5.072   5.178
 3594SOL    HW211682   4.660   5.172   5.072
 3595SOL     OW11683   4.984   6.232   4.421
 3595SOL    HW111684   4.908   6.231   4.356
 3595SOL    HW211685   4.966   6.168   4.496
 3596SOL     OW11686   4.126   1.848   2.919
 3596SOL    HW111687   4.168   1.929   2.880
 3596SOL    HW211688   4.045   1.874   2.971
 3597SOL     OW11689   3.317   4.244   5.497
 3597SOL    HW111690   3.330   4.210   5.404
 3597SOL    HW211691   3.310   4.167   5.560
 3598SOL     OW11692   6.922   5.785   5.166
 3598SOL    HW111693   6.981   5.704   5.158
 3598SOL    HW211694   6.968   5.864   5.127
 3599SOL     OW11695   2.522   1.665   4.943
 3599SOL    HW111696   2.579   1.722   4.884
 3599SOL    HW211697   2.581   1.617   5.008
 3600SOL     OW11698   2.659   3.687   6.940
 3600SOL    HW111699   2.568   3.669   6.902
 3600SOL    HW211700   2.696   3.602   6.979
 3601SOL     OW11701   4.800   0.772   4.997
 3601SOL    HW111702   4.764   0.853   5.044
 3601SOL    HW211703   4.750   0.759   4.911
 3602SOL     OW11704   1.368   2.387   1.595
 3602SOL    HW111705   1.321   2.299   1.599
 3602SOL    HW211706   1.371   2.427   1.686
 3603SOL     OW11707   2.271   0.784   5.491
 3603SOL    HW111708   2.304   0.705   5.440
 3603SOL    HW211709   2.302   0.868   5.446
 3604SOL     OW11710   6.999   1.030   3.540
 3604SOL    HW111711   0.036   0.959   3.582
 3604SOL    HW211712   7.016   1.032   3.441
 3605SOL     OW11713   1.286   0.382   4.935
 3605SOL    HW111714   1.310   0.348   5.026
 3605SOL    HW211715   1.359   0.360   4.871
 3606SOL     OW11716   2.123   6.828   2.287
 3606SOL    HW111717   2.218   6.797   2.284
 3606SOL    HW211718   2.069   6.761   2.338
 3607SOL     OW11719   6.268   1.485   3.207
 3607SOL    HW111720   6.356   1.498   3.254
 3607SOL    HW211721   6.271   1.530   3.118
 3608SOL     OW11722   3.487   1.872   5.324
 3608SOL    HW111723   3.516   1.931   5.248
 3608SOL    HW211724   3.566   1.819   5.356
 3609SOL     OW11725   3.698   0.180   5.785
 3609SOL    HW111726   3.743   0.137   5.707
 3609SOL    HW211727   3.767   0.206   5.853
 3610SOL     OW11728   2.274   1.223   5.656
 3610SOL    HW111729   2.220   1.211   5.739
 3610SOL    HW211730   2.223   1.279   5.590
 3611SOL     OW11731   5.409   4.147   2.953
 3611SOL    HW111732   5.349   4.067   2.950
 3611SOL    HW211733   5.417   4.185   2.861
 3612SOL     OW11734   4.403   2.078   0.316
 3612SOL    HW111735   4.442   2.154   0.368
 3612SOL    HW211736   4.459   1.996   0.330
 3613SOL     OW11737   3.713   0.041   2.913
 3613SOL    HW111738   3.680   6.965   2.918
 3613SOL    HW211739   3.768   0.052   2.831
 3614SOL     OW11740   3.432   5.981   6.953
 3614SOL    HW111741   3.435   6.042   6.874
 3614SOL    HW211742   3.365   6.015   0.000
 3615SOL     OW11743   4.936   3.164   5.648
 3615SOL    HW111744   5.011   3.219   5.611
 3615SOL    HW211745   4.906   3.204   5.735
 3616SOL     OW11746   1.426   2.430   0.529
 3616SOL    HW111747   1.371   2.388   0.457
 3616SOL    HW211748   1.423   2.373   0.611
 3617SOL     OW11749   4.191   5.432   5.398
 3617SOL    HW111750   4.132   5.373   5.452
 3617SOL    HW211751   4.273   5.454   5.451
 3618SOL     OW11752   1.434   5.533   4.445
 3618SOL    HW111753   1.533   5.549   4.439
 3618SOL    HW211754   1.407   5.467   4.374
 3619SOL     OW11755   6.503   2.017   2.289
 3619SOL    HW111756   6.590   1.992   2.247
 3619SOL    HW211757   6.484   2.113   2.271
 3620SOL     OW11758   5.422   6.040   5.165
 3620SOL    HW111759   5.338   6.072   5.122
 3620SOL    HW211760   5.404   5.955   5.214
 3621SOL     OW11761   3.819   3.091   3.869
 3621SOL    HW111762   3.878   3.057   3.942
 3621SOL    HW211763   3.734   3.039   3.867
 3622SOL     OW11764   1.876   5.378   6.289
 3622SOL    HW111765   1.963   5.398   6.244
 3622SOL    HW211766   1.873   5.424   6.377
 3623SOL     OW11767   1.415   5.938   6.424
 3623SOL    HW111768   1.503   5.974   6.394
 3623SOL    HW211769   1.419   5.838   6.426
 3624SOL     OW11770   2.284   1.916   2.678
 3624SOL    HW111771   2.242   1.841   2.728
 3624SOL    HW211772   2.281   1.897   2.580
 3625SOL     OW11773   6.242   2.609   1.523
 3625SOL    HW111774   6.205   2.597   1.431
 3625SOL    HW211775   6.199   2.544   1.585
 3626SOL     OW11776   1.800   2.622   5.937
 3626SOL    HW111777   1.734   2.666   5.999
 3626SOL    HW211778   1.791   2.661   5.846
 3627SOL     OW11779   3.380   1.367   2.722
 3627SOL    HW111780   3.432   1.414   2.793
 3627SOL    HW211781   3.286   1.354   2.752
 3628SOL     OW11782   6.910   1.511   1.509
 3628SOL    HW111783   6.904   1.605   1.474
 3628SOL    HW211784   6.942   1.513   1.603
 3629SOL     OW11785   1.408   0.806   4.185
 3629SOL    HW111786   1.403   0.713   4.149
 3629SOL    HW211787   1.504   0.832   4.198
 3630SOL     OW11788   6.355   2.401   3.059
 3630SOL    HW111789   6.442   2.433   3.098
 3630SOL    HW211790   6.350   2.301   3.067
 3631SOL     OW11791   2.182   5.968   2.652
 3631SOL    HW111792   2.129   5.929   2.576
 3631SOL    HW211793   2.268   6.005   2.617
 3632SOL     OW11794   4.896   3.409   2.508
 3632SOL    HW111795   4.896   3.310   2.498
 3632SOL    HW211796   4.929   3.451   2.423
 3633SOL     OW11797   3.795   4.457   6.960
 3633SOL    HW111798   3.844   4.531   6.914
 3633SOL    HW211799   3.730   4.495   0.007
 3634SOL     OW11800   2.912   5.495   6.605
 3634SOL    HW111801   2.940   5.591   6.611
 3634SOL    HW211802   2.880   5.475   6.512
 3635SOL     OW11803   1.331   6.794   2.742
 3635SOL    HW111804   1.294   6.868   2.798
 3635SOL    HW211805   1.350   6.715   2.800
 3636SOL     OW11806   0.240   5.762   4.968
 3636SOL    HW111807   0.317   5.741   5.028
 3636SOL    HW211808   0.273   5.810   4.887
 3637SOL     OW11809   5.885   2.446   6.656
 3637SOL    HW111810   5.861   2.460   6.752
 3637SOL    HW211811   5.806   2.410   6.606
 3638SOL     OW11812   0.195   3.066   3.390
 3638SOL    HW111813   0.265   3.138   3.388
 3638SOL    HW211814   0.168   3.049   3.485
 3639SOL     OW11815   4.038   3.816   4.317
 3639SOL    HW111816   4.033   3.867   4.402
 3639SOL    HW211817   4.080   3.727   4.333
 3640SOL     OW11818   4.538   1.768   1.935
 3640SOL    HW111819   4.632   1.732   1.934
 3640SOL    HW211820   4.478   1.705   1.886
 3641SOL     OW11821   6.250   3.522   1.969
 3641SOL    HW111822   6.191   3.589   1.926
 3641SOL    HW211823   6.321   3.493   1.905
 3642SOL     OW11824   5.092   4.298   6.280
 3642SOL    HW111825   5.009   4.260   6.322
 3642SOL    HW211826   5.165   4.230   6.283
 3643SOL     OW11827   4.379   5.918   4.877
 3643SOL    HW111828   4.373   5.825   4.913
 3643SOL    HW211829   4.359   5.984   4.950
 3644SOL     OW11830   2.630   0.816   1.973
 3644SOL    HW111831   2.609   0.855   1.883
 3644SOL    HW211832   2.693   0.740   1.962
 3645SOL     OW11833   2.102   4.198   3.339
 3645SOL    HW111834   2.030   4.168   3.276
 3645SOL    HW211835   2.118   4.127   3.407
 3646SOL     OW11836   2.074   5.167   5.604
 3646SOL    HW111837   2.071   5.067   5.600
 3646SOL    HW211838   1.990   5.204   5.564
 3647SOL     OW11839   3.685   6.979   0.468
 3647SOL    HW111840   3.776   7.015   0.449
 3647SOL    HW211841   3.624   0.035   0.492
 3648SOL     OW11842   5.253   4.602   3.394
 3648SOL    HW111843   5.322   4.593   3.465
 3648SOL    HW211844   5.177   4.540   3.413
 3649SOL     OW11845   5.274   2.516   0.754
 3649SOL    HW111846   5.291   2.489   0.659
 3649SOL    HW211847   5.290   2.615   0.764
 3650SOL     OW11848   5.509   6.092   6.061
 3650SOL    HW111849   5.471   6.136   6.143
 3650SOL    HW211850   5.592   6.042   6.085
 3651SOL     OW11851   1.257   2.094   6.188
 3651SOL    HW111852   1.187   2.130   6.250
 3651SOL    HW211853   1.335   2.157   6.186
 3652SOL     OW11854   5.028   2.616   2.849
 3652SOL    HW111855   5.003   2.537   2.795
 3652SOL    HW211856   4.952   2.682   2.851
 3653SOL     OW11857   2.017   1.328   0.821
 3653SOL    HW111858   2.097   1.307   0.876
 3653SOL    HW211859   1.952   1.252   0.825
 3654SOL     OW11860   4.159   6.481   1.308
 3654SOL    HW111861   4.228   6.411   1.323
 3654SOL    HW211862   4.204   6.569   1.289
 3655SOL     OW11863   1.039   0.755   4.019
 3655SOL    HW111864   1.068   0.771   3.924
 3655SOL    HW211865   1.114   0.776   4.081
 3656SOL     OW11866   0.203   0.146   0.820
 3656SOL    HW111867   0.235   0.143   0.725
 3656SOL    HW211868   0.107   0.119   0.823
 3657SOL     OW11869   5.916   5.096   6.280
 3657SOL    HW111870   5.893   5.084   6.184
 3657SOL    HW211871   6.014   5.111   6.290
 3658SOL     OW11872   1.444   3.992   5.426
 3658SOL    HW111873   1.443   4.076   5.372
 3658SOL    HW211874   1.490   3.920   5.375
 3659SOL     OW11875   0.990   2.193   6.776
 3659SOL    HW111876   0.930   2.271   6.757
 3659SOL    HW211877   0.942   2.108   6.750
 3660SOL     OW11878   4.022   5.178   5.291
 3660SOL    HW111879   3.991   5.111   5.223
 3660SOL    HW211880   4.008   5.270   5.255
 3661SOL     OW11881   0.867   1.463   4.863
 3661SOL    HW111882   0.779   1.499   4.832
 3661SOL    HW211883   0.927   1.449   4.784
 3662SOL     OW11884   3.836   1.472   5.346
 3662SOL    HW111885   3.905   1.439   5.282
 3662SOL    HW211886   3.874   1.545   5.403
 3663SOL     OW11887   1.804   2.323   6.288
 3663SOL    HW111888   1.760   2.410   6.309
 3663SOL    HW211889   1.811   2.311   6.189
 3664SOL     OW11890   2.948   1.985   1.296
 3664SOL    HW111891   3.035   2.026   1.324
 3664SOL    HW211892   2.965   1.917   1.224
 3665SOL     OW11893   0.006   6.019   5.109
 3665SOL    HW111894   6.948   6.074   5.141
 3665SOL    HW211895   0.022   6.037   5.012
 3666SOL     OW11896   2.076   3.684   4.392
 3666SOL    HW111897   1.976   3.676   4.384
 3666SOL    HW211898   2.115   3.594   4.410
 3667SOL     OW11899   1.958   6.655   1.076
 3667SOL    HW111900   1.922   6.748   1.088
 3667SOL    HW211901   2.036   6.642   1.137
 3668SOL     OW11902   5.582   1.429   0.936
 3668SOL    HW111903   5.648   1.427   1.011
 3668SOL    HW211904   5.623   1.388   0.855
 3669SOL     OW11905   6.235   1.004   1.541
 3669SOL    HW111906   6.230   1.029   1.638
 3669SOL    HW211907   6.149   1.027   1.497
 3670SOL     OW11908   1.994   6.752   2.043
 3670SOL    HW111909   2.052   6.806   2.104
 3670SOL    HW211910   2.038   6.747   1.953
 3671SOL     OW11911   0.041   0.653   5.206
 3671SOL    HW111912   0.131   0.639   5.165
 3671SOL    HW211913   7.005   0.712   5.146
 3672SOL     OW11914   4.311   0.334   3.530
 3672SOL    HW111915   4.360   0.418   3.506
 3672SOL    HW211916   4.374   0.270   3.574
 3673SOL     OW11917   3.571   1.242   1.948
 3673SOL    HW111918   3.656   1.232   2.000
 3673SOL    HW211919   3.592   1.278   1.857
 3674SOL     OW11920   0.414   4.539   5.871
 3674SOL    HW111921   0.359   4.507   5.949
 3674SOL    HW211922   0.419   4.467   5.802
 3675SOL     OW11923   6.701   0.862   4.653
 3675SOL    HW111924   6.671   0.870   4.748
 3675SOL    HW211925   6.795   0.895   4.645
 3676SOL     OW11926   2.709   0.976   5.886
 3676SOL    HW111927   2.805   0.952   5.900
 3676SOL    HW211928   2.698   1.019   5.796
 3677SOL     OW11929   1.600   1.046   4.471
 3677SOL    HW111930   1.520   0.994   4.500
 3677SOL    HW211931   1.600   1.136   4.516
 3678SOL     OW11932   2.721   0.873   2.998
 3678SOL    HW111933   2.786   0.948   2.988
 3678SOL    HW211934   2.770   0.786   2.988
 3679SOL     OW11935   3.063   1.089   2.278
 3679SOL    HW111936   3.069   0.990   2.292
 3679SOL    HW211937   2.968   1.119   2.290
 3680SOL     OW11938   3.858   2.190   4.437
 3680SOL    HW111939   3.763   2.182   4.468
 3680SOL    HW211940   3.863   2.253   4.360
 3681SOL     OW11941   0.982   6.231   3.476
 3681SOL    HW111942   1.063   6.281   3.506
 3681SOL    HW211943   0.902   6.266   3.524
 3682SOL     OW11944   5.554   1.745   1.748
 3682SOL    HW111945   5.498   1.779   1.824
 3682SOL    HW211946   5.534   1.798   1.666
 3683SOL     OW11947   6.487   1.531   0.960
 3683SOL    HW111948   6.489   1.594   1.038
 3683SOL    HW211949   6.534   1.573   0.883
 3684SOL     OW11950   2.567   6.286   5.715
 3684SOL    HW111951   2.493   6.292   5.648
 3684SOL    HW211952   2.610   6.196   5.710
 3685SOL     OW11953   2.328   6.958   3.702
 3685SOL    HW111954   2.262   6.944   3.628
 3685SOL    HW211955   2.413   6.910   3.679
 3686SOL     OW11956   0.034   4.374   0.181
 3686SOL    HW111957   0.091   4.296   0.206
 3686SOL    HW211958   6.957   4.355   0.205
 3687SOL     OW11959   6.570   4.508   4.313
 3687SOL    HW111960   6.499   4.576   4.292
 3687SOL    HW211961   6.593   4.514   4.410
 3688SOL     OW11962   6.972   3.023   1.475
 3688SOL    HW111963   6.983   3.122   1.485
 3688SOL    HW211964   6.918   3.004   1.392
 3689SOL     OW11965   1.635   1.481   5.555
 3689SOL    HW111966   1.605   1.394   5.596
 3689SOL    HW211967   1.618   1.478   5.456
 3690SOL     OW11968   6.336   4.529   1.416
 3690SOL    HW111969   6.310   4.600   1.351
 3690SOL    HW211970   6.263   4.460   1.420
 3691SOL     OW11971   1.956   2.368   1.058
 3691SOL    HW111972   2.050   2.396   1.042
 3691SOL    HW211973   1.945   2.340   1.153
 3692SOL     OW11974   1.003   2.832   5.261
 3692SOL    HW111975   0.935   2.847   5.332
 3692SOL    HW211976   0.985   2.893   5.184
 3693SOL     OW11977   0.001   1.728   2.718
 3693SOL    HW111978   0.035   1.808   2.668
 3693SOL    HW211979   6.922   1.739   2.735
 3694SOL     OW11980   7.000   6.895   1.732
 3694SOL    HW111981   0.078   6.871   1.733
 3694SOL    HW211982   6.950   6.836   1.796
 3695SOL     OW11983   6.312   3.884   3.572
 3695SOL    HW111984   6.341   3.958   3.511
 3695SOL    HW211985   6.257   3.921   3.646
 3696SOL     OW11986   4.524   7.017   4.152
 3696SOL    HW111987   4.573   0.075   4.111
 3696SOL    HW211988   4.472   0.030   4.231
 3697SOL     OW11989   6.038   5.588   3.120
 3697SOL    HW111990   6.075   5.529   3.048
 3697SOL    HW211991   6.108   5.652   3.151
 3698SOL     OW11992   1.089   6.784   4.263
 3698SOL    HW111993   1.126   6.738   4.344
 3698SOL    HW211994   1.164   6.815   4.205
 3699SOL     OW11995   3.071   2.015   2.782
 3699SOL    HW111996   3.023   1.927   2.786
 3699SOL    HW211997   3.146   2.015   2.848
 3700SOL     OW11998   1.339   5.369   4.248
 3700SOL    HW111999   1.300   5.292   4.297
 3700SOL    HW212000   1.271   5.442   4.241
 3701SOL     OW12001   6.677   0.465   1.984
 3701SOL    HW112002   6.625   0.548   1.964
 3701SOL    HW212003   6.678   0.406   1.903
 3702SOL     OW12004   6.591   4.578   3.503
 3702SOL    HW112005   6.526   4.654   3.505
 3702SOL    HW212006   6.684   4.615   3.493
 3703SOL     OW12007   0.879   2.382   2.839
 3703SOL    HW112008   0.935   2.383   2.922
 3703SOL    HW212009   0.845   2.474   2.820
 3704SOL     OW12010   6.173   0.044   0.710
 3704SOL    HW112011   6.101   6.995   0.696
 3704SOL    HW212012   6.136   0.123   0.759
 3705SOL     OW12013   6.501   4.105   3.500
 3705SOL    HW112014   6.573   4.165   3.464
 3705SOL    HW212015   6.493   4.117   3.599
 3706SOL     OW12016   0.835   5.418   6.488
 3706SOL    HW112017   0.823   5.517   6.500
 3706SOL    HW212018   0.882   5.380   6.567
 3707SOL     OW12019   0.673   4.950   3.333
 3707SOL    HW112020   0.725   4.947   3.418
 3707SOL    HW212021   0.736   4.957   3.256
 3708SOL     OW12022   1.805   5.988   0.554
 3708SOL    HW112023   1.880   6.026   0.608
 3708SOL    HW212024   1.813   6.020   0.459
 3709SOL     OW12025   0.751   1.627   2.338
 3709SOL    HW112026   0.763   1.671   2.427
 3709SOL    HW212027   0.791   1.535   2.341
 3710SOL     OW12028   2.081   4.074   5.604
 3710SOL    HW112029   2.102   4.062   5.506
 3710SOL    HW212030   2.053   3.987   5.643
 3711SOL     OW12031   2.259   5.235   5.402
 3711SOL    HW112032   2.208   5.225   5.487
 3711SOL    HW212033   2.208   5.194   5.327
 3712SOL     OW12034   3.272   4.978   4.315
 3712SOL    HW112035   3.274   5.060   4.259
 3712SOL    HW212036   3.323   4.905   4.269
 3713SOL     OW12037   6.273   0.405   5.431
 3713SOL    HW112038   6.319   0.323   5.466
 3713SOL    HW212039   6.176   0.387   5.420
 3714SOL     OW12040   0.287   5.158   0.144
 3714SOL    HW112041   0.211   5.097   0.169
 3714SOL    HW212042   0.283   5.178   0.047
 3715SOL     OW12043   6.641   4.481   3.221
 3715SOL    HW112044   6.690   4.512   3.139
 3715SOL    HW212045   6.660   4.543   3.297
 3716SOL     OW12046   5.593   5.774   5.646
 3716SOL    HW112047   5.582   5.866   5.611
 3716SOL    HW212048   5.553   5.768   5.738
 3717SOL     OW12049   4.710   0.331   1.146
 3717SOL    HW112050   4.761   0.378   1.218
 3717SOL    HW212051   4.634   0.280   1.187
 3718SOL     OW12052   5.621   6.939   6.365
 3718SOL    HW112053   5.649   6.926   6.460
 3718SOL    HW212054   5.552   6.871   6.341
 3719SOL     OW12055   2.550   4.344   0.225
 3719SOL    HW112056   2.557   4.313   0.130
 3719SOL    HW212057   2.498   4.277   0.278
 3720SOL     OW12058   0.577   2.199   0.917
 3720SOL    HW112059   0.562   2.161   1.008
 3720SOL    HW212060   0.529   2.287   0.909
 3721SOL     OW12061   6.191   6.909   6.147
 3721SOL    HW112062   6.281   6.866   6.155
 3721SOL    HW212063   6.198   6.990   6.089
 3722SOL     OW12064   5.849   6.795   1.011
 3722SOL    HW112065   5.896   6.881   0.993
 3722SOL    HW212066   5.822   6.753   0.924
 3723SOL     OW12067   4.596   4.467   6.123
 3723SOL    HW112068   4.686   4.479   6.081
 3723SOL    HW212069   4.599   4.497   6.218
 3724SOL     OW12070   6.802   4.791   4.928
 3724SOL    HW112071   6.809   4.882   4.889
 3724SOL    HW212072   6.715   4.782   4.976
 3725SOL     OW12073   0.256   6.145   0.541
 3725SOL    HW112074   0.290   6.051   0.536
 3725SOL    HW212075   0.166   6.146   0.585
 3726SOL     OW12076   5.990   3.741   5.217
 3726SOL    HW112077   5.969   3.650   5.253
 3726SOL    HW212078   5.960   3.746   5.122
 3727SOL     OW12079   6.630   1.556   4.136
 3727SOL    HW112080   6.661   1.611   4.213
 3727SOL    HW212081   6.559   1.606   4.086
 3728SOL     OW12082   1.898   4.625   0.513
 3728SOL    HW112083   1.875   4.573   0.595
 3728SOL    HW212084   1.997   4.640   0.510
 3729SOL     OW12085   0.370   0.020   6.372
 3729SOL    HW112086   0.394   6.996   6.285
 3729SOL    HW212087   0.351   0.117   6.358
 3730SOL     OW12088   4.964   5.046   4.577
 3730SOL    HW112089   4.968   5.072   4.480
 3730SOL    HW212090   4.993   4.951   4.588
 3731SOL     OW12091   0.338   1.794   1.445
 3731SOL    HW112092   0.426   1.841   1.456
 3731SOL    HW212093   0.314   1.790   1.348
 3732SOL     OW12094   3.921   3.132   0.192
 3732SOL    HW112095   3.856   3.195   0.233
 3732SOL    HW212096   3.901   3.039   0.222
 3733SOL     OW12097   1.605   0.718   3.449
 3733SOL    HW112098   1.597   0.817   3.440
 3733SOL    HW212099   1.538   0.673   3.390
 3734SOL     OW12100   3.745   0.529   1.919
 3734SOL    HW112101   3.685   0.462   1.964
 3734SOL    HW212102   3.692   0.581   1.853
 3735SOL     OW12103   4.592   1.073   2.671
 3735SOL    HW112104   4.566   1.030   2.584
 3735SOL    HW212105   4.691   1.075   2.679
 3736SOL     OW12106   1.107   1.956   0.171
 3736SOL    HW112107   1.105   1.857   0.153
 3736SOL    HW212108   1.041   1.978   0.243
 3737SOL     OW12109   5.588   2.237   4.070
 3737SOL    HW112110   5.513   2.173   4.056
 3737SOL    HW212111   5.581   2.312   4.005
 3738SOL     OW12112   0.407   0.997   1.339
 3738SOL    HW112113   0.446   1.088   1.333
 3738SOL    HW212114   0.466   0.932   1.292
 3739SOL     OW12115   3.036   4.547   0.062
 3739SOL    HW112116   3.001   4.467   0.014
 3739SOL    HW212117   3.084   4.518   0.145
 3740SOL     OW12118   5.399   6.164   6.796
 3740SOL    HW112119   5.356   6.075   6.782
 3740SOL    HW212120   5.353   6.213   6.870
 3741SOL     OW12121   5.684   3.999   0.118
 3741SOL    HW112122   5.684   4.001   0.018
 3741SOL    HW212123   5.715   3.909   0.150
 3742SOL     OW12124   5.105   5.397   1.269
 3742SOL    HW112125   5.192   5.381   1.223
 3742SOL    HW212126   5.121   5.404   1.368
 3743SOL     OW12127   2.259   3.964   0.824
 3743SOL    HW112128   2.290   4.052   0.788
 3743SOL    HW212129   2.177   3.978   0.879
 3744SOL     OW12130   6.373   6.050   2.540
 3744SOL    HW112131   6.367   6.047   2.639
 3744SOL    HW212132   6.461   6.013   2.510
 3745SOL     OW12133   5.555   2.012   2.857
 3745SOL    HW112134   5.535   1.996   2.954
 3745SOL    HW212135   5.481   1.975   2.801
 3746SOL     OW12136   5.156   0.077   5.201
 3746SOL    HW112137   5.063   0.085   5.236
 3746SOL    HW212138   5.156   0.092   5.102
 3747SOL     OW12139   2.287   6.005   5.441
 3747SOL    HW112140   2.299   5.972   5.535
 3747SOL    HW212141   2.351   5.956   5.381
 3748SOL     OW12142   4.779   2.450   3.309
 3748SOL    HW112143   4.731   2.538   3.311
 3748SOL    HW212144   4.713   2.376   3.322
 3749SOL     OW12145   6.325   6.909   1.794
 3749SOL    HW112146   6.303   7.005   1.773
 3749SOL    HW212147   6.273   6.849   1.734
 3750SOL     OW12148   5.665   4.203   1.321
 3750SOL    HW112149   5.713   4.257   1.251
 3750SOL    HW212150   5.566   4.208   1.305
 3751SOL     OW12151   1.449   4.718   0.283
 3751SOL    HW112152   1.526   4.739   0.222
 3751SOL    HW212153   1.457   4.773   0.366
 3752SOL     OW12154   1.028   6.651   6.055
 3752SOL    HW112155   1.122   6.620   6.054
 3752SOL    HW212156   0.975   6.602   5.986
 3753SOL     OW12157   0.652   0.535   5.583
 3753SOL    HW112158   0.617   0.575   5.668
 3753SOL    HW212159   0.719   0.465   5.604
 3754SOL     OW12160   6.604   5.860   1.755
 3754SOL    HW112161   6.660   5.810   1.820
 3754SOL    HW212162   6.587   5.953   1.790
 3755SOL     OW12163   4.405   2.393   2.968
 3755SOL    HW112164   4.477   2.326   2.953
 3755SOL    HW212165   4.324   2.367   2.914
 3756SOL     OW12166   3.450   6.872   0.359
 3756SOL    HW112167   3.539   6.917   0.362
 3756SOL    HW212168   3.404   6.883   0.447
 3757SOL     OW12169   3.351   4.299   6.364
 3757SOL    HW112170   3.300   4.360   6.303
 3757SOL    HW212171   3.361   4.342   6.453
 3758SOL     OW12172   6.846   0.918   2.520
 3758SOL    HW112173   6.859   1.013   2.549
 3758SOL    HW212174   6.789   0.870   2.586
 3759SOL     OW12175   4.922   4.156   0.959
 3759SOL    HW112176   4.857   4.085   0.935
 3759SOL    HW212177   5.008   4.141   0.909
 3760SOL     OW12178   1.749   1.714   6.078
 3760SOL    HW112179   1.768   1.743   6.172
 3760SOL    HW212180   1.771   1.617   6.067
 3761SOL     OW12181   6.530   6.134   3.968
 3761SOL    HW112182   6.569   6.113   3.879
 3761SOL    HW212183   6.459   6.204   3.958
 3762SOL     OW12184   0.203   2.565   0.377
 3762SOL    HW112185   0.216   2.484   0.320
 3762SOL    HW212186   0.288   2.617   0.380
 3763SOL     OW12187   0.073   3.343   4.402
 3763SOL    HW112188   0.100   3.278   4.331
 3763SOL    HW212189   0.154   3.393   4.433
 3764SOL     OW12190   2.263   0.369   4.172
 3764SOL    HW112191   2.202   0.442   4.140
 3764SOL    HW212192   2.216   0.281   4.165
 3765SOL     OW12193   6.257   1.288   3.596
 3765SOL    HW112194   6.313   1.232   3.535
 3765SOL    HW212195   6.210   1.359   3.544
 3766SOL     OW12196   1.954   1.219   4.966
 3766SOL    HW112197   1.863   1.208   4.927
 3766SOL    HW212198   1.947   1.268   5.053
 3767SOL     OW12199   0.382   4.440   0.144
 3767SOL    HW112200   0.305   4.503   0.155
 3767SOL    HW212201   0.445   4.476   0.075
 3768SOL     OW12202   4.455   6.215   1.325
 3768SOL    HW112203   4.518   6.137   1.318
 3768SOL    HW212204   4.392   6.213   1.248
 3769SOL     OW12205   4.172   6.868   4.759
 3769SOL    HW112206   4.254   6.899   4.712
 3769SOL    HW212207   4.196   6.810   4.836
 3770SOL     OW12208   1.967   2.915   0.355
 3770SOL    HW112209   2.024   2.883   0.431
 3770SOL    HW212210   1.979   2.855   0.276
 3771SOL     OW12211   4.199   1.370   5.513
 3771SOL    HW112212   4.149   1.448   5.475
 3771SOL    HW212213   4.265   1.403   5.581
 3772SOL     OW12214   4.835   0.676   2.746
 3772SOL    HW112215   4.814   0.578   2.735
 3772SOL    HW212216   4.786   0.728   2.676
 3773SOL     OW12217   6.333   2.712   0.999
 3773SOL    HW112218   6.391   2.653   0.943
 3773SOL    HW212219   6.239   2.709   0.964
 3774SOL     OW12220   1.063   1.608   1.985
 3774SOL    HW112221   1.063   1.636   1.889
 3774SOL    HW212222   1.087   1.687   2.042
 3775SOL     OW12223   5.166   2.973   3.479
 3775SOL    HW112224   5.250   2.968   3.426
 3775SOL    HW212225   5.160   3.061   3.526
 3776SOL     OW12226   2.518   2.078   6.819
 3776SOL    HW112227   2.529   2.177   6.821
 3776SOL    HW212228   2.495   2.045   6.910
 3777SOL     OW12229   1.135   4.309   2.868
 3777SOL    HW112230   1.083   4.375   2.814
 3777SOL    HW212231   1.078   4.229   2.885
 3778SOL     OW12232   1.938   0.392   1.966
 3778SOL    HW112233   1.883   0.333   2.025
 3778SOL    HW212234   1.883   0.469   1.934
 3779SOL     OW12235   1.917   4.876   6.741
 3779SOL    HW112236   1.969   4.934   6.680
 3779SOL    HW212237   1.895   4.926   6.825
 3780SOL     OW12238   2.266   0.417   4.452
 3780SOL    HW112239   2.174   0.379   4.457
 3780SOL    HW212240   2.309   0.390   4.366
 3781SOL     OW12241   2.925   5.478   4.820
 3781SOL    HW112242   2.983   5.398   4.803
 3781SOL    HW212243   2.855   5.484   4.750
 3782SOL     OW12244   2.532   1.003   2.380
 3782SOL    HW112245   2.591   0.927   2.408
 3782SOL    HW212246   2.537   1.015   2.281
 3783SOL     OW12247   4.888   5.371   4.450
 3783SOL    HW112248   4.860   5.276   4.464
 3783SOL    HW212249   4.844   5.407   4.368
 3784SOL     OW12250   4.975   2.142   4.258
 3784SOL    HW112251   5.051   2.095   4.304
 3784SOL    HW212252   4.962   2.232   4.300
 3785SOL     OW12253   1.042   0.640   2.006
 3785SOL    HW112254   1.065   0.543   2.005
 3785SOL    HW212255   1.052   0.678   1.914
 3786SOL     OW12256   2.959   6.466   2.225
 3786SOL    HW112257   2.893   6.430   2.159
 3786SOL    HW212258   3.017   6.534   2.181
 3787SOL     OW12259   4.931   1.116   4.208
 3787SOL    HW112260   4.975   1.040   4.256
 3787SOL    HW212261   5.000   1.179   4.174
 3788SOL     OW12262   6.606   3.780   2.672
 3788SOL    HW112263   6.635   3.871   2.702
 3788SOL    HW212264   6.686   3.728   2.642
 3789SOL     OW12265   1.295   5.268   1.965
 3789SOL    HW112266   1.369   5.331   1.941
 3789SOL    HW212267   1.326   5.174   1.954
 3790SOL     OW12268   2.100   3.262   3.256
 3790SOL    HW112269   2.025   3.201   3.283
 3790SOL    HW212270   2.073   3.315   3.176
 3791SOL     OW12271   6.350   0.638   2.712
 3791SOL    HW112272   6.416   0.632   2.638
 3791SOL    HW212273   6.310   0.730   2.713
 3792SOL     OW12274   0.667   5.976   6.383
 3792SOL    HW112275   0.651   5.877   6.386
 3792SOL    HW212276   0.609   6.016   6.313
 3793SOL     OW12277   0.608   5.627   2.284
 3793SOL    HW112278   0.683   5.686   2.315
 3793SOL    HW212279   0.608   5.623   2.185
 3794SOL     OW12280   4.650   0.225   4.026
 3794SOL    HW112281   4.656   0.309   4.080
 3794SOL    HW212282   4.580   0.235   3.956
 3795SOL     OW12283   5.390   0.584   0.225
 3795SOL    HW112284   5.363   0.518   0.295
 3795SOL    HW212285   5.385   0.676   0.263
 3796SOL     OW12286   0.036   2.713   0.962
 3796SOL    HW112287   0.014   2.805   0.928
 3796SOL    HW212288   0.101   2.720   1.037
 3797SOL     OW12289   0.120   5.327   2.647
 3797SOL    HW112290   0.220   5.331   2.644
 3797SOL    HW212291   0.090   5.305   2.739
 3798SOL     OW12292   0.989   4.365   0.922
 3798SOL    HW112293   0.901   4.376   0.967
 3798SOL    HW212294   0.992   4.278   0.874
 3799SOL     OW12295   1.616   0.671   5.421
 3799SOL    HW112296   1.534   0.614   5.421
 3799SOL    HW212297   1.696   0.614   5.441
 3800SOL     OW12298   5.392   2.517   5.124
 3800SOL    HW112299   5.343   2.601   5.144
 3800SOL    HW212300   5.327   2.440   5.125
 3801SOL     OW12301   6.751   0.064   6.319
 3801SOL    HW112302   6.657   0.030   6.321
 3801SOL    HW212303   6.781   0.077   6.224
 3802SOL     OW12304   1.623   2.619   5.332
 3802SOL    HW112305   1.598   2.697   5.275
 3802SOL    HW212306   1.681   2.557   5.280
 3803SOL     OW12307   4.038   1.236   1.288
 3803SOL    HW112308   4.066   1.145   1.318
 3803SOL    HW212309   3.951   1.259   1.331
 3804SOL     OW12310   4.961   3.581   5.280
 3804SOL    HW112311   5.046   3.633   5.279
 3804SOL    HW212312   4.907   3.603   5.199
 3805SOL     OW12313   1.918   3.480   1.627
 3805SOL    HW112314   1.941   3.383   1.618
 3805SOL    HW212315   1.851   3.505   1.557
 3806SOL     OW12316   3.598   0.916   6.941
 3806SOL    HW112317   3.578   0.827   6.983
 3806SOL    HW212318   3.654   0.902   6.859
 3807SOL     OW12319   1.102   0.144   2.828
 3807SOL    HW112320   1.004   0.128   2.818
 3807SOL    HW212321   1.129   0.128   2.922
 3808SOL     OW12322   3.526   0.789   0.598
 3808SOL    HW112323   3.530   0.833   0.688
 3808SOL    HW212324   3.591   0.833   0.536
 3809SOL     OW12325   4.183   0.536   0.474
 3809SOL    HW112326   4.148   0.526   0.567
 3809SOL    HW212327   4.218   0.448   0.442
 3810SOL     OW12328   1.766   3.507   6.521
 3810SOL    HW112329   1.784   3.547   6.611
 3810SOL    HW212330   1.730   3.414   6.533
 3811SOL     OW12331   0.442   0.578   6.753
 3811SOL    HW112332   0.361   0.619   6.794
 3811SOL    HW212333   0.517   0.580   6.819
 3812SOL     OW12334   4.928   1.068   5.365
 3812SOL    HW112335   4.888   1.152   5.402
 3812SOL    HW212336   4.943   1.002   5.439
 3813SOL     OW12337   3.829   4.862   2.157
 3813SOL    HW112338   3.760   4.829   2.092
 3813SOL    HW212339   3.789   4.864   2.249
 3814SOL     OW12340   2.324   0.852   1.502
 3814SOL    HW112341   2.401   0.819   1.558
 3814SOL    HW212342   2.245   0.794   1.518
 3815SOL     OW12343   5.581   2.142   2.224
 3815SOL    HW112344   5.657   2.173   2.282
 3815SOL    HW212345   5.583   2.042   2.218
 3816SOL     OW12346   7.006   6.443   0.468
 3816SOL    HW112347   6.937   6.384   0.511
 3816SOL    HW212348   0.076   6.425   0.509
 3817SOL     OW12349   5.359   1.885   5.112
 3817SOL    HW112350   5.296   1.885   5.190
 3817SOL    HW212351   5.321   1.828   5.039
 3818SOL     OW12352   3.798   5.611   2.743
 3818SOL    HW112353   3.854   5.535   2.776
 3818SOL    HW212354   3.705   5.580   2.726
 3819SOL     OW12355   6.141   4.172   6.115
 3819SOL    HW112356   6.152   4.125   6.027
 3819SOL    HW212357   6.046   4.165   6.145
 3820SOL     OW12358   4.912   6.488   3.455
 3820SOL    HW112359   4.892   6.511   3.360
 3820SOL    HW212360   4.999   6.529   3.482
 3821SOL     OW12361   0.236   4.775   1.303
 3821SOL    HW112362   0.191   4.710   1.364
 3821SOL    HW212363   0.334   4.777   1.322
 3822SOL     OW12364   0.727   4.619   1.361
 3822SOL    HW112365   0.632   4.641   1.339
 3822SOL    HW212366   0.766   4.690   1.419
 3823SOL     OW12367   2.767   3.753   5.526
 3823SOL    HW112368   2.823   3.785   5.603
 3823SOL    HW212369   2.824   3.699   5.464
 3824SOL     OW12370   0.376   2.047   5.847
 3824SOL    HW112371   0.338   1.982   5.780
 3824SOL    HW212372   0.330   2.135   5.838
 3825SOL     OW12373   0.158   6.557   6.263
 3825SOL    HW112374   0.247   6.531   6.300
 3825SOL    HW212375   0.155   6.656   6.249
 3826SOL     OW12376   6.664   1.764   1.361
 3826SOL    HW112377   6.599   1.798   1.429
 3826SOL    HW212378   6.648   1.812   1.275
 3827SOL     OW12379   5.402   1.564   2.481
 3827SOL    HW112380   5.487   1.607   2.451
 3827SOL    HW212381   5.340   1.553   2.404
 3828SOL     OW12382   4.381   1.190   1.648
 3828SOL    HW112383   4.363   1.163   1.743
 3828SOL    HW212384   4.392   1.289   1.643
 3829SOL     OW12385   0.909   5.143   3.310
 3829SOL    HW112386   0.822   5.162   3.265
 3829SOL    HW212387   0.892   5.115   3.404
 3830SOL     OW12388   3.222   0.574   5.341
 3830SOL    HW112389   3.189   0.659   5.301
 3830SOL    HW212390   3.205   0.575   5.440
 3831SOL     OW12391   4.761   1.754   2.305
 3831SOL    HW112392   4.697   1.677   2.304
 3831SOL    HW212393   4.816   1.752   2.222
 3832SOL     OW12394   5.754   6.638   2.176
 3832SOL    HW112395   5.833   6.694   2.152
 3832SOL    HW212396   5.757   6.617   2.274
 3833SOL     OW12397   1.410   6.125   2.345
 3833SOL    HW112398   1.386   6.221   2.358
 3833SOL    HW212399   1.432   6.084   2.434
 3834SOL     OW12400   2.648   2.663   0.610
 3834SOL    HW112401   2.612   2.576   0.644
 3834SOL    HW212402   2.700   2.647   0.526
 3835SOL     OW12403   3.519   5.408   2.861
 3835SOL    HW112404   3.494   5.328   2.808
 3835SOL    HW212405   3.574   5.381   2.940
 3836SOL     OW12406   1.384   2.972   5.518
 3836SOL    HW112407   1.335   2.897   5.474
 3836SOL    HW212408   1.410   3.040   5.449
 3837SOL     OW12409   2.974   4.158   0.315
 3837SOL    HW112410   3.031   4.103   0.253
 3837SOL    HW212411   2.999   4.138   0.410
 3838SOL     OW12412   5.676   3.695   4.913
 3838SOL    HW112413   5.765   3.741   4.907
 3838SOL    HW212414   5.645   3.696   5.007
 3839SOL     OW12415   0.557   6.088   6.160
 3839SOL    HW112416   0.642   6.132   6.133
 3839SOL    HW212417   0.525   6.029   6.086
 3840SOL     OW12418   2.656   1.510   3.234
 3840SOL    HW112419   2.674   1.477   3.327
 3840SOL    HW212420   2.684   1.606   3.228
 3841SOL     OW12421   0.571   3.372   4.130
 3841SOL    HW112422   0.569   3.381   4.229
 3841SOL    HW212423   0.666   3.360   4.099
 3842SOL     OW12424   1.863   5.454   0.200
 3842SOL    HW112425   1.819   5.374   0.160
 3842SOL    HW212426   1.794   5.526   0.215
 3843SOL     OW12427   5.932   3.965   6.945
 3843SOL    HW112428   5.843   3.944   6.905
 3843SOL    HW212429   5.945   4.064   6.947
 3844SOL     OW12430   2.293   4.626   5.566
 3844SOL    HW112431   2.297   4.601   5.469
 3844SOL    HW212432   2.199   4.614   5.600
 3845SOL     OW12433   3.263   3.835   4.645
 3845SOL    HW112434   3.322   3.909   4.680
 3845SOL    HW212435   3.304   3.747   4.667
 3846SOL     OW12436   0.141   4.797   4.603
 3846SOL    HW112437   0.149   4.715   4.661
 3846SOL    HW212438   0.221   4.804   4.544
 3847SOL     OW12439   1.081   0.140   0.982
 3847SOL    HW112440   1.137   0.220   0.963
 3847SOL    HW212441   1.058   0.138   1.079
 3848SOL     OW12442   3.137   6.347   1.656
 3848SOL    HW112443   3.040   6.344   1.631
 3848SOL    HW212444   3.185   6.407   1.592
 3849SOL     OW12445   2.859   1.424   5.486
 3849SOL    HW112446   2.804   1.484   5.545
 3849SOL    HW212447   2.956   1.441   5.502
 3850SOL     OW12448   1.685   3.915   1.464
 3850SOL    HW112449   1.614   3.984   1.477
 3850SOL    HW212450   1.765   3.939   1.520
 3851SOL     OW12451   2.428   2.775   1.370
 3851SOL    HW112452   2.496   2.844   1.347
 3851SOL    HW212453   2.364   2.765   1.293
 3852SOL     OW12454   4.749   1.463   5.256
 3852SOL    HW112455   4.819   1.400   5.223
 3852SOL    HW212456   4.703   1.424   5.336
 3853SOL     OW12457   0.574   4.192   1.793
 3853SOL    HW112458   0.516   4.139   1.732
 3853SOL    HW212459   0.644   4.133   1.834
 3854SOL     OW12460   1.901   3.300   4.377
 3854SOL    HW112461   1.837   3.310   4.453
 3854SOL    HW212462   1.873   3.360   4.302
 3855SOL     OW12463   7.018   1.187   5.341
 3855SOL    HW112464   6.927   1.146   5.339
 3855SOL    HW212465   0.007   1.255   5.268
 3856SOL     OW12466   1.320   6.105   6.006
 3856SOL    HW112467   1.274   6.076   6.091
 3856SOL    HW212468   1.252   6.146   5.945
 3857SOL     OW12469   0.944   0.036   6.763
 3857SOL    HW112470   0.962   0.042   6.665
 3857SOL    HW212471   0.975   6.966   6.797
 3858SOL     OW12472   3.376   4.408   6.988
 3858SOL    HW112473   3.331   4.377   0.054
 3858SOL    HW212474   3.348   4.502   6.968
 3859SOL     OW12475   6.070   2.712   2.490
 3859SOL    HW112476   6.011   2.782   2.451
 3859SOL    HW212477   6.027   2.673   2.571
 3860SOL     OW12478   2.596   5.855   4.402
 3860SOL    HW112479   2.665   5.813   4.462
 3860SOL    HW212480   2.517   5.795   4.395
 3861SOL     OW12481   3.482   4.247   6.785
 3861SOL    HW112482   3.413   4.199   6.730
 3861SOL    HW212483   3.440   4.280   6.870
 3862SOL     OW12484   0.879   5.606   6.171
 3862SOL    HW112485   0.971   5.611   6.134
 3862SOL    HW212486   0.829   5.689   6.149
 3863SOL     OW12487   2.634   3.422   0.258
 3863SOL    HW112488   2.694   3.459   0.188
 3863SOL    HW212489   2.685   3.359   0.317
 3864SOL     OW12490   3.327   2.099   1.087
 3864SOL    HW112491   3.403   2.149   1.129
 3864SOL    HW212492   3.340   2.001   1.103
 3865SOL     OW12493   4.293   0.713   2.577
 3865SOL    HW112494   4.277   0.674   2.486
 3865SOL    HW212495   4.209   0.706   2.631
 3866SOL     OW12496   3.597   6.472   6.623
 3866SOL    HW112497   3.635   6.565   6.621
 3866SOL    HW212498   3.656   6.411   6.570
 3867SOL     OW12499   2.130   5.001   3.334
 3867SOL    HW112500   2.074   5.004   3.251
 3867SOL    HW212501   2.158   4.906   3.352
 3868SOL     OW12502   1.871   5.462   2.903
 3868SOL    HW112503   1.916   5.482   2.816
 3868SOL    HW212504   1.877   5.543   2.962
 3869SOL     OW12505   0.391   1.681   3.920
 3869SOL    HW112506   0.364   1.766   3.965
 3869SOL    HW212507   0.419   1.614   3.988
 3870SOL     OW12508   3.387   3.590   0.504
 3870SOL    HW112509   3.401   3.507   0.450
 3870SOL    HW212510   3.467   3.649   0.494
 3871SOL     OW12511   3.131   1.043   4.612
 3871SOL    HW112512   3.198   1.089   4.670
 3871SOL    HW212513   3.079   1.111   4.560
 3872SOL     OW12514   4.484   4.226   1.049
 3872SOL    HW112515   4.402   4.198   1.100
 3872SOL    HW212516   4.553   4.154   1.057
 3873SOL     OW12517   5.938   4.379   1.973
 3873SOL    HW112518   5.849   4.418   1.946
 3873SOL    HW212519   6.011   4.441   1.944
 3874SOL     OW12520   5.129   6.189   5.986
 3874SOL    HW112521   5.204   6.131   5.955
 3874SOL    HW212522   5.042   6.141   5.971
 3875SOL     OW12523   2.423   3.541   0.727
 3875SOL    HW112524   2.455   3.622   0.776
 3875SOL    HW212525   2.334   3.559   0.687
 3876SOL     OW12526   6.170   4.120   2.542
 3876SOL    HW112527   6.120   4.033   2.552
 3876SOL    HW212528   6.115   4.183   2.487
 3877SOL     OW12529   4.266   1.810   2.419
 3877SOL    HW112530   4.247   1.714   2.439
 3877SOL    HW212531   4.336   1.816   2.347
 3878SOL     OW12532   4.883   5.975   4.504
 3878SOL    HW112533   4.893   5.876   4.498
 3878SOL    HW212534   4.911   6.007   4.594
 3879SOL     OW12535   2.884   6.181   0.242
 3879SOL    HW112536   2.909   6.088   0.214
 3879SOL    HW212537   2.949   6.213   0.312
 3880SOL     OW12538   6.293   1.627   4.255
 3880SOL    HW112539   6.336   1.587   4.174
 3880SOL    HW212540   6.355   1.696   4.294
 3881SOL     OW12541   0.197   5.611   6.234
 3881SOL    HW112542   0.248   5.696   6.246
 3881SOL    HW212543   0.125   5.625   6.167
 3882SOL     OW12544   6.975   6.409   6.649
 3882SOL    HW112545   6.954   6.433   6.554
 3882SOL    HW212546   0.055   6.401   6.661
 3883SOL     OW12547   3.702   1.834   6.933
 3883SOL    HW112548   3.776   1.883   6.887
 3883SOL    HW212549   3.622   1.832   6.873
 3884SOL     OW12550   2.398   5.303   5.776
 3884SOL    HW112551   2.350   5.277   5.692
 3884SOL    HW212552   2.492   5.331   5.753
 3885SOL     OW12553   6.809   0.663   4.236
 3885SOL    HW112554   6.723   0.663   4.287
 3885SOL    HW212555   6.843   0.757   4.228
 3886SOL     OW12556   0.049   6.084   4.867
 3886SOL    HW112557   6.980   6.125   4.893
 3886SOL    HW212558   0.116   6.157   4.851
 3887SOL     OW12559   5.943   3.010   5.062
 3887SOL    HW112560   5.960   2.931   5.003
 3887SOL    HW212561   5.919   2.979   5.154
 3888SOL     OW12562   5.709   0.903   3.030
 3888SOL    HW112563   5.736   0.852   3.112
 3888SOL    HW212564   5.611   0.890   3.014
 3889SOL     OW12565   6.697   5.483   6.446
 3889SOL    HW112566   6.680   5.421   6.522
 3889SOL    HW212567   6.615   5.491   6.390
 3890SOL     OW12568   6.021   3.315   3.441
 3890SOL    HW112569   5.996   3.230   3.395
 3890SOL    HW212570   6.067   3.376   3.376
 3891SOL     OW12571   4.224   4.382   5.727
 3891SOL    HW112572   4.224   4.461   5.787
 3891SOL    HW212573   4.141   4.328   5.741
 3892SOL     OW12574   5.338   5.926   3.743
 3892SOL    HW112575   5.241   5.905   3.743
 3892SOL    HW212576   5.380   5.890   3.659
 3893SOL     OW12577   2.735   6.158   4.759
 3893SOL    HW112578   2.801   6.086   4.738
 3893SOL    HW212579   2.723   6.217   4.679
 3894SOL     OW12580   5.752   5.271   6.653
 3894SOL    HW112581   5.749   5.367   6.626
 3894SOL    HW212582   5.823   5.224   6.601
 3895SOL     OW12583   1.634   2.069   6.275
 3895SOL    HW112584   1.581   2.153   6.266
 3895SOL    HW212585   1.579   1.991   6.246
 3896SOL     OW12586   6.504   2.618   0.813
 3896SOL    HW112587   6.593   2.575   0.829
 3896SOL    HW212588   6.505   2.664   0.724
 3897SOL     OW12589   2.636   0.066   3.265
 3897SOL    HW112590   2.598   0.142   3.211
 3897SOL    HW212591   2.720   0.034   3.223
 3898SOL     OW12592   3.136   4.059   4.036
 3898SOL    HW112593   3.144   4.101   3.945
 3898SOL    HW212594   3.226   4.033   4.069
 3899SOL     OW12595   4.949   2.135   6.939
 3899SOL    HW112596   5.004   2.076   6.998
 3899SOL    HW212597   4.928   2.220   6.987
 3900SOL     OW12598   0.818   2.627   3.368
 3900SOL    HW112599   0.795   2.672   3.454
 3900SOL    HW212600   0.744   2.640   3.302
 3901SOL     OW12601   3.771   6.292   5.208
 3901SOL    HW112602   3.676   6.314   5.190
 3901SOL    HW212603   3.777   6.235   5.291
 3902SOL     OW12604   3.482   5.734   3.057
 3902SOL    HW112605   3.518   5.702   3.144
 3902SOL    HW212606   3.439   5.824   3.069
 3903SOL     OW12607   3.593   3.719   6.582
 3903SOL    HW112608   3.594   3.671   6.495
 3903SOL    HW212609   3.544   3.664   6.650
 3904SOL     OW12610   2.298   6.267   6.927
 3904SOL    HW112611   2.243   6.189   6.955
 3904SOL    HW212612   2.394   6.247   6.944
 3905SOL     OW12613   4.495   0.754   5.392
 3905SOL    HW112614   4.432   0.688   5.353
 3905SOL    HW212615   4.464   0.778   5.485
 3906SOL     OW12616   6.292   5.836   4.130
 3906SOL    HW112617   6.389   5.857   4.145
 3906SOL    HW212618   6.258   5.893   4.056
 3907SOL     OW12619   0.546   1.719   4.480
 3907SOL    HW112620   0.523   1.817   4.476
 3907SOL    HW212621   0.560   1.693   4.575
 3908SOL     OW12622   2.092   1.514   4.623
 3908SOL    HW112623   2.057   1.421   4.629
 3908SOL    HW212624   2.102   1.553   4.715
 3909SOL     OW12625   5.922   3.390   2.261
 3909SOL    HW112626   5.874   3.448   2.327
 3909SOL    HW212627   6.001   3.348   2.305
 3910SOL     OW12628   2.220   2.556   1.308
 3910SOL    HW112629   2.198   2.634   1.249
 3910SOL    HW212630   2.142   2.537   1.368
 3911SOL     OW12631   6.240   1.272   1.118
 3911SOL    HW112632   6.316   1.231   1.167
 3911SOL    HW212633   6.155   1.256   1.169
 3912SOL     OW12634   5.001   4.204   0.453
 3912SOL    HW112635   5.006   4.264   0.533
 3912SOL    HW212636   4.909   4.206   0.415
 3913SOL     OW12637   3.820   4.478   1.389
 3913SOL    HW112638   3.800   4.576   1.397
 3913SOL    HW212639   3.861   4.446   1.474
 3914SOL     OW12640   0.377   1.016   0.767
 3914SOL    HW112641   0.368   1.106   0.810
 3914SOL    HW212642   0.437   0.958   0.822
 3915SOL     OW12643   5.488   0.441   4.988
 3915SOL    HW112644   5.436   0.479   5.065
 3915SOL    HW212645   5.507   0.514   4.922
 3916SOL     OW12646   1.862   2.143   2.173
 3916SOL    HW112647   1.789   2.108   2.232
 3916SOL    HW212648   1.950   2.112   2.207
 3917SOL     OW12649   4.454   5.721   2.399
 3917SOL    HW112650   4.354   5.714   2.395
 3917SOL    HW212651   4.494   5.631   2.386
 3918SOL     OW12652   3.904   6.932   1.057
 3918SOL    HW112653   3.974   6.878   1.104
 3918SOL    HW212654   3.887   7.016   1.107
 3919SOL     OW12655   5.094   5.334   3.163
 3919SOL    HW112656   5.194   5.331   3.154
 3919SOL    HW212657   5.059   5.419   3.123
 3920SOL     OW12658   4.428   1.151   5.988
 3920SOL    HW112659   4.450   1.130   6.083
 3920SOL    HW212660   4.410   1.249   5.979
 3921SOL     OW12661   1.108   2.978   6.257
 3921SOL    HW112662   1.200   2.976   6.217
 3921SOL    HW212663   1.051   2.909   6.212
 3922SOL     OW12664   5.569   2.447   3.911
 3922SOL    HW112665   5.522   2.534   3.926
 3922SOL    HW212666   5.621   2.452   3.826
 3923SOL     OW12667   5.529   1.104   0.827
 3923SOL    HW112668   5.567   1.015   0.852
 3923SOL    HW212669   5.603   1.171   0.818
 3924SOL     OW12670   5.324   5.118   3.596
 3924SOL    HW112671   5.278   5.051   3.653
 3924SOL    HW212672   5.336   5.203   3.648
 3925SOL     OW12673   3.553   4.426   1.720
 3925SOL    HW112674   3.569   4.519   1.755
 3925SOL    HW212675   3.554   4.428   1.620
 3926SOL     OW12676   1.386   5.976   5.214
 3926SOL    HW112677   1.344   5.926   5.289
 3926SOL    HW212678   1.481   5.948   5.205
 3927SOL     OW12679   6.156   6.954   5.474
 3927SOL    HW112680   6.176   7.014   5.551
 3927SOL    HW212681   6.223   6.968   5.402
 3928SOL     OW12682   4.317   5.703   2.689
 3928SOL    HW112683   4.219   5.687   2.672
 3928SOL    HW212684   4.360   5.737   2.606
 3929SOL     OW12685   1.439   1.368   5.356
 3929SOL    HW112686   1.507   1.297   5.338
 3929SOL    HW212687   1.348   1.332   5.339
 3930SOL     OW12688   2.382   5.288   3.921
 3930SOL    HW112689   2.455   5.311   3.857
 3930SOL    HW212690   2.304   5.252   3.870
 3931SOL     OW12691   0.436   2.443   0.478
 3931SOL    HW112692   0.365   2.414   0.543
 3931SOL    HW212693   0.430   2.388   0.395
 3932SOL     OW12694   1.892   4.097   2.800
 3932SOL    HW112695   1.808   4.103   2.745
 3932SOL    HW212696   1.966   4.063   2.743
 3933SOL     OW12697   1.404   6.521   1.599
 3933SOL    HW112698   1.333   6.532   1.530
 3933SOL    HW212699   1.388   6.586   1.674
 3934SOL     OW12700   2.044   6.366   2.201
 3934SOL    HW112701   2.010   6.451   2.162
 3934SOL    HW212702   2.144   6.365   2.198
 3935SOL     OW12703   0.291   0.870   5.474
 3935SOL    HW112704   0.253   0.908   5.390
 3935SOL    HW212705   0.295   0.771   5.468
 3936SOL     OW12706   6.550   4.438   3.735
 3936SOL    HW112707   6.485   4.491   3.790
 3936SOL    HW212708   6.570   4.487   3.650
 3937SOL     OW12709   1.388   6.346   7.008
 3937SOL    HW112710   1.300   6.342   6.960
 3937SOL    HW212711   1.462   6.357   6.941
 3938SOL     OW12712   0.407   3.979   6.548
 3938SOL    HW112713   0.347   3.933   6.483
 3938SOL    HW212714   0.458   3.911   6.601
 3939SOL     OW12715   2.572   6.471   4.102
 3939SOL    HW112716   2.626   6.514   4.175
 3939SOL    HW212717   2.533   6.542   4.043
 3940SOL     OW12718   2.567   6.212   6.755
 3940SOL    HW112719   2.528   6.293   6.712
 3940SOL    HW212720   2.505   6.134   6.742
 3941SOL     OW12721   5.838   5.360   2.199
 3941SOL    HW112722   5.922   5.328   2.243
 3941SOL    HW212723   5.767   5.374   2.269
 3942SOL     OW12724   0.050   5.972   0.027
 3942SOL    HW112725   0.089   5.880   0.041
 3942SOL    HW212726   7.004   5.969   6.970
 3943SOL     OW12727   0.970   4.715   0.371
 3943SOL    HW112728   1.005   4.635   0.321
 3943SOL    HW212729   0.870   4.716   0.365
 3944SOL     OW12730   4.655   3.024   0.434
 3944SOL    HW112731   4.615   3.100   0.485
 3944SOL    HW212732   4.748   3.006   0.468
 3945SOL     OW12733   0.151   1.043   3.018
 3945SOL    HW112734   0.250   1.039   3.002
 3945SOL    HW212735   0.104   0.987   2.950
 3946SOL     OW12736   6.037   1.533   1.320
 3946SOL    HW112737   6.018   1.551   1.223
 3946SOL    HW212738   6.081   1.443   1.328
 3947SOL     OW12739   5.624   0.062   1.825
 3947SOL    HW112740   5.661   6.995   1.790
 3947SOL    HW212741   5.574   0.109   1.752
 3948SOL     OW12742   1.861   1.578   4.316
 3948SOL    HW112743   1.927   1.636   4.364
 3948SOL    HW212744   1.776   1.573   4.370
 3949SOL     OW12745   6.281   0.203   2.474
 3949SOL    HW112746   6.330   0.284   2.443
 3949SOL    HW212747   6.321   0.171   2.560
 3950SOL     OW12748   2.373   4.686   1.793
 3950SOL    HW112749   2.276   4.690   1.770
 3950SOL    HW212750   2.407   4.778   1.812
 3951SOL     OW12751   6.926   2.361   3.887
 3951SOL    HW112752   6.844   2.417   3.902
 3951SOL    HW212753   6.902   2.279   3.835
 3952SOL     OW12754   5.889   4.916   6.748
 3952SOL    HW112755   5.791   4.934   6.753
 3952SOL    HW212756   5.907   4.821   6.774
 3953SOL     OW12757   4.023   3.428   5.503
 3953SOL    HW112758   4.087   3.431   5.426
 3953SOL    HW212759   3.991   3.520   5.523
 3954SOL     OW12760   0.918   4.218   5.447
 3954SOL    HW112761   0.992   4.231   5.513
 3954SOL    HW212762   0.918   4.123   5.416
 3955SOL     OW12763   5.856   3.541   0.106
 3955SOL    HW112764   5.860   3.442   0.116
 3955SOL    HW212765   5.789   3.566   0.036
 3956SOL     OW12766   6.962   2.718   5.181
 3956SOL    HW112767   0.031   2.671   5.173
 3956SOL    HW212768   6.950   2.750   5.275
 3957SOL     OW12769   1.781   2.928   1.974
 3957SOL    HW112770   1.803   2.905   1.879
 3957SOL    HW212771   1.693   2.973   1.978
 3958SOL     OW12772   5.859   5.253   1.220
 3958SOL    HW112773   5.864   5.161   1.257
 3958SOL    HW212774   5.916   5.314   1.275
 3959SOL     OW12775   3.019   5.197   1.390
 3959SOL    HW112776   3.014   5.098   1.384
 3959SOL    HW212777   2.929   5.236   1.370
 3960SOL     OW12778   6.072   2.755   0.939
 3960SOL    HW112779   6.077   2.760   0.840
 3960SOL    HW212780   6.000   2.817   0.972
 3961SOL     OW12781   6.834   1.110   1.127
 3961SOL    HW112782   6.753   1.164   1.104
 3961SOL    HW212783   6.912   1.142   1.073
 3962SOL     OW12784   0.047   6.818   6.847
 3962SOL    HW112785   0.041   6.720   6.834
 3962SOL    HW212786   7.009   6.865   6.779
 3963SOL     OW12787   5.290   3.836   4.581
 3963SOL    HW112788   5.223   3.860   4.652
 3963SOL    HW212789   5.382   3.856   4.614
 3964SOL     OW12790   5.684   4.274   6.839
 3964SOL    HW112791   5.597   4.235   6.870
 3964SOL    HW212792   5.730   4.209   6.779
 3965SOL     OW12793   2.292   4.373   1.068
 3965SOL    HW112794   2.290   4.457   1.121
 3965SOL    HW212795   2.360   4.380   0.995
 3966SOL     OW12796   0.248   3.078   5.015
 3966SOL    HW112797   0.285   3.152   5.071
 3966SOL    HW212798   0.247   2.993   5.068
 3967SOL     OW12799   2.244   0.186   0.309
 3967SOL    HW112800   2.189   0.120   0.361
 3967SOL    HW212801   2.341   0.166   0.322
 3968SOL     OW12802   4.186   2.941   0.873
 3968SOL    HW112803   4.226   2.900   0.791
 3968SOL    HW212804   4.178   2.872   0.945
 3969SOL     OW12805   5.880   6.237   0.752
 3969SOL    HW112806   5.947   6.241   0.826
 3969SOL    HW212807   5.790   6.266   0.786
 3970SOL     OW12808   5.818   4.522   4.049
 3970SOL    HW112809   5.900   4.529   3.992
 3970SOL    HW212810   5.736   4.530   3.991
 3971SOL     OW12811   0.446   5.868   4.183
 3971SOL    HW112812   0.359   5.895   4.141
 3971SOL    HW212813   0.497   5.810   4.119
 3972SOL     OW12814   0.960   0.462   6.554
 3972SOL    HW112815   0.870   0.506   6.549
 3972SOL    HW212816   1.017   0.510   6.621
 3973SOL     OW12817   4.206   3.288   1.879
 3973SOL    HW112818   4.198   3.247   1.788
 3973SOL    HW212819   4.303   3.297   1.903
 3974SOL     OW12820   5.224   1.108   6.755
 3974SOL    HW112821   5.274   1.183   6.710
 3974SOL    HW212822   5.274   1.023   6.740
 3975SOL     OW12823   0.013   6.302   4.581
 3975SOL    HW112824   7.009   6.230   4.516
 3975SOL    HW212825   0.047   6.382   4.532
 3976SOL     OW12826   1.246   2.788   5.359
 3976SOL    HW112827   1.308   2.785   5.281
 3976SOL    HW212828   1.152   2.799   5.327
 3977SOL     OW12829   2.680   4.809   5.796
 3977SOL    HW112830   2.660   4.725   5.847
 3977SOL    HW212831   2.684   4.886   5.860
 3978SOL     OW12832   4.750   2.679   5.984
 3978SOL    HW112833   4.839   2.683   6.028
 3978SOL    HW212834   4.686   2.629   6.042
 3979SOL     OW12835   1.301   5.341   2.902
 3979SOL    HW112836   1.285   5.418   2.965
 3979SOL    HW212837   1.229   5.339   2.833
 3980SOL     OW12838   4.843   4.163   4.510
 3980SOL    HW112839   4.838   4.075   4.462
 3980SOL    HW212840   4.939   4.193   4.514
 3981SOL     OW12841   0.238   1.014   6.492
 3981SOL    HW112842   0.237   1.102   6.539
 3981SOL    HW212843   0.293   1.021   6.409
 3982SOL     OW12844   1.866   2.913   4.516
 3982SOL    HW112845   1.794   2.860   4.561
 3982SOL    HW212846   1.826   2.973   4.447
 3983SOL     OW12847   3.196   0.346   4.193
 3983SOL    HW112848   3.219   0.316   4.100
 3983SOL    HW212849   3.227   0.277   4.259
 3984SOL     OW12850   1.403   5.854   2.275
 3984SOL    HW112851   1.404   5.949   2.307
 3984SOL    HW212852   1.353   5.797   2.341
 3985SOL     OW12853   1.553   3.064   1.892
 3985SOL    HW112854   1.585   3.098   1.803
 3985SOL    HW212855   1.512   3.138   1.944
 3986SOL     OW12856   0.120   1.961   3.002
 3986SOL    HW112857   0.124   1.986   2.905
 3986SOL    HW212858   0.206   1.988   3.047
 3987SOL     OW12859   0.439   4.113   5.377
 3987SOL    HW112860   0.425   4.032   5.433
 3987SOL    HW212861   0.461   4.191   5.435
 3988SOL     OW12862   5.138   6.962   1.842
 3988SOL    HW112863   5.222   6.982   1.892
 3988SOL    HW212864   5.138   6.867   1.812
 3989SOL     OW12865   4.468   0.588   5.765
 3989SOL    HW112866   4.413   0.660   5.723
 3989SOL    HW212867   4.557   0.583   5.720
 3990SOL     OW12868   5.832   0.568   4.185
 3990SOL    HW112869   5.788   0.480   4.168
 3990SOL    HW212870   5.911   0.579   4.124
 3991SOL     OW12871   6.439   2.080   3.597
 3991SOL    HW112872   6.414   2.141   3.522
 3991SOL    HW212873   6.447   2.133   3.681
 3992SOL     OW12874   6.028   3.634   5.841
 3992SOL    HW112875   5.972   3.690   5.903
 3992SOL    HW212876   6.077   3.695   5.778
 3993SOL     OW12877   1.676   0.618   4.221
 3993SOL    HW112878   1.771   0.640   4.244
 3993SOL    HW212879   1.656   0.649   4.128
 3994SOL     OW12880   2.806   2.238   3.696
 3994SOL    HW112881   2.824   2.146   3.662
 3994SOL    HW212882   2.802   2.302   3.620
 3995SOL     OW12883   1.343   3.603   1.906
 3995SOL    HW112884   1.350   3.516   1.954
 3995SOL    HW212885   1.434   3.644   1.897
 3996SOL     OW12886   0.227   6.405   5.066
 3996SOL    HW112887   0.201   6.421   4.971
 3996SOL    HW212888   0.250   6.492   5.109
 3997SOL     OW12889   5.822   3.978   4.624
 3997SOL    HW112890   5.865   3.916   4.557
 3997SOL    HW212891   5.884   4.053   4.644
 3998SOL     OW12892   4.503   2.084   3.634
 3998SOL    HW112893   4.524   2.180   3.613
 3998SOL    HW212894   4.517   2.068   3.732
 3999SOL     OW12895   4.871   2.771   1.100
 3999SOL    HW112896   4.832   2.702   1.160
 3999SOL    HW212897   4.970   2.774   1.111
 4000SOL     OW12898   2.055   4.701   3.018
 4000SOL    HW112899   2.076   4.604   3.005
 4000SOL    HW212900   1.964   4.720   2.981
 4001SOL     OW12901   0.564   6.069   4.528
 4001SOL    HW112902   0.615   6.007   4.589
 4001SOL    HW212903   0.499   6.016   4.474
 4002SOL     OW12904   4.003   4.002   4.557
 4002SOL    HW112905   4.021   3.907   4.584
 4002SOL    HW212906   4.086   4.056   4.567
 4003SOL     OW12907   2.738   0.737   4.824
 4003SOL    HW112908   2.672   0.781   4.763
 4003SOL    HW212909   2.719   0.639   4.828
 4004SOL     OW12910   1.890   3.561   5.119
 4004SOL    HW112911   1.886   3.462   5.132
 4004SOL    HW212912   1.846   3.606   5.197
 4005SOL     OW12913   5.627   2.912   0.878
 4005SOL    HW112914   5.717   2.902   0.920
 4005SOL    HW212915   5.558   2.924   0.950
 4006SOL     OW12916   6.788   6.128   1.992
 4006SOL    HW112917   6.746   6.218   1.984
 4006SOL    HW212918   6.725   6.066   2.040
 4007SOL     OW12919   0.328   1.084   1.588
 4007SOL    HW112920   0.276   1.066   1.672
 4007SOL    HW212921   0.272   1.060   1.509
 4008SOL     OW12922   4.173   0.965   1.613
 4008SOL    HW112923   4.251   0.930   1.664
 4008SOL    HW212924   4.197   1.054   1.573
 4009SOL     OW12925   3.343   2.370   1.428
 4009SOL    HW112926   3.379   2.337   1.515
 4009SOL    HW212927   3.301   2.460   1.441
 4010SOL     OW12928   1.606   4.291   0.880
 4010SOL    HW112929   1.615   4.243   0.967
 4010SOL    HW212930   1.509   4.305   0.860
 4011SOL     OW12931   5.961   6.768   6.136
 4011SOL    HW112932   6.048   6.813   6.117
 4011SOL    HW212933   5.894   6.835   6.166
 4012SOL     OW12934   5.537   5.390   1.619
 4012SOL    HW112935   5.479   5.324   1.572
 4012SOL    HW212936   5.584   5.345   1.695
 4013SOL     OW12937   0.159   1.727   0.437
 4013SOL    HW112938   0.179   1.629   0.441
 4013SOL    HW212939   0.168   1.767   0.528
 4014SOL     OW12940   3.158   5.950   2.425
 4014SOL    HW112941   3.134   5.970   2.330
 4014SOL    HW212942   3.207   6.028   2.464
 4015SOL     OW12943   3.896   6.519   5.131
 4015SOL    HW112944   3.832   6.590   5.103
 4015SOL    HW212945   3.846   6.434   5.148
 4016SOL     OW12946   4.601   5.527   4.453
 4016SOL    HW112947   4.639   5.606   4.500
 4016SOL    HW212948   4.650   5.444   4.483
 4017SOL     OW12949   1.783   5.838   6.143
 4017SOL    HW112950   1.846   5.895   6.091
 4017SOL    HW212951   1.806   5.842   6.240
 4018SOL     OW12952   4.942   5.072   1.059
 4018SOL    HW112953   4.900   5.153   1.020
 4018SOL    HW212954   4.917   5.065   1.156
 4019SOL     OW12955   0.283   2.318   2.868
 4019SOL    HW112956   0.361   2.269   2.907
 4019SOL    HW212957   0.239   2.374   2.938
 4020SOL     OW12958   6.706   5.685   4.523
 4020SOL    HW112959   6.745   5.760   4.470
 4020SOL    HW212960   6.702   5.712   4.620
 4021SOL     OW12961   4.348   5.359   5.934
 4021SOL    HW112962   4.383   5.427   5.869
 4021SOL    HW212963   4.402   5.275   5.926
 4022SOL     OW12964   3.379   6.777   1.486
 4022SOL    HW112965   3.295   6.732   1.454
 4022SOL    HW212966   3.438   6.796   1.408
 4023SOL     OW12967   0.754   1.729   4.037
 4023SOL    HW112968   0.801   1.748   3.951
 4023SOL    HW212969   0.677   1.791   4.048
 4024SOL     OW12970   0.386   6.292   6.250
 4024SOL    HW112971   0.404   6.283   6.348
 4024SOL    HW212972   0.421   6.213   6.202
 4025SOL     OW12973   0.138   4.557   4.354
 4025SOL    HW112974   0.143   4.654   4.333
 4025SOL    HW212975   0.159   4.504   4.272
 4026SOL     OW12976   0.596   6.554   4.039
 4026SOL    HW112977   0.681   6.587   4.078
 4026SOL    HW212978   0.529   6.628   4.037
 4027SOL     OW12979   2.838   5.391   5.214
 4027SOL    HW112980   2.804   5.485   5.209
 4027SOL    HW212981   2.890   5.379   5.299
 4028SOL     OW12982   4.965   1.773   4.359
 4028SOL    HW112983   5.028   1.840   4.399
 4028SOL    HW212984   4.872   1.809   4.363
 4029SOL     OW12985   1.392   6.824   0.747
 4029SOL    HW112986   1.458   6.796   0.816
 4029SOL    HW212987   1.308   6.854   0.791
 4030SOL     OW12988   0.686   1.281   1.715
 4030SOL    HW112989   0.772   1.232   1.726
 4030SOL    HW212990   0.653   1.269   1.621
 4031SOL     OW12991   5.307   5.768   0.564
 4031SOL    HW112992   5.339   5.842   0.504
 4031SOL    HW212993   5.379   5.700   0.576
 4032SOL     OW12994   4.997   2.050   2.355
 4032SOL    HW112995   5.072   2.071   2.294
 4032SOL    HW212996   4.998   1.952   2.378
 4033SOL     OW12997   1.627   3.036   2.933
 4033SOL    HW112998   1.691   3.113   2.929
 4033SOL    HW212999   1.635   2.989   3.021
 4034SOL     OW13000   1.886   2.414   4.454
 4034SOL    HW113001   1.982   2.427   4.429
 4034SOL    HW213002   1.856   2.324   4.422
 4035SOL     OW13003   3.952   2.376   1.649
 4035SOL    HW113004   3.927   2.289   1.608
 4035SOL    HW213005   3.870   2.430   1.668
 4036SOL     OW13006   3.752   6.173   3.699
 4036SOL    HW113007   3.653   6.179   3.705
 4036SOL    HW213008   3.779   6.076   3.696
 4037SOL     OW13009   2.055   1.871   6.475
 4037SOL    HW113010   2.149   1.841   6.490
 4037SOL    HW213011   2.052   1.969   6.460
 4038SOL     OW13012   3.430   4.515   6.089
 4038SOL    HW113013   3.400   4.421   6.073
 4038SOL    HW213014   3.508   4.515   6.151
 4039SOL     OW13015   6.124   4.371   1.426
 4039SOL    HW113016   6.179   4.289   1.439
 4039SOL    HW213017   6.085   4.399   1.514
 4040SOL     OW13018   2.957   0.355   5.092
 4040SOL    HW113019   3.038   0.300   5.071
 4040SOL    HW213020   2.973   0.450   5.065
 4041SOL     OW13021   1.370   6.316   1.812
 4041SOL    HW113022   1.308   6.388   1.782
 4041SOL    HW213023   1.383   6.321   1.911
 4042SOL     OW13024   0.436   1.633   3.370
 4042SOL    HW113025   0.500   1.568   3.330
 4042SOL    HW213026   0.361   1.650   3.306
 4043SOL     OW13027   4.289   1.757   5.941
 4043SOL    HW113028   4.317   1.662   5.944
 4043SOL    HW213029   4.340   1.809   6.009
 4044SOL     OW13030   4.419   4.654   3.439
 4044SOL    HW113031   4.471   4.613   3.514
 4044SOL    HW213032   4.327   4.678   3.471
 4045SOL     OW13033   4.491   1.616   4.914
 4045SOL    HW113034   4.496   1.563   4.998
 4045SOL    HW213035   4.469   1.711   4.936
 4046SOL     OW13036   4.792   1.787   4.069
 4046SOL    HW113037   4.701   1.776   4.029
 4046SOL    HW213038   4.838   1.698   4.072
 4047SOL     OW13039   2.809   2.292   6.495
 4047SOL    HW113040   2.754   2.371   6.468
 4047SOL    HW213041   2.888   2.283   6.433
 4048SOL     OW13042   5.006   1.927   3.767
 4048SOL    HW113043   4.971   1.904   3.676
 4048SOL    HW213044   4.930   1.936   3.831
 4049SOL     OW13045   4.302   3.910   1.341
 4049SOL    HW113046   4.240   3.839   1.376
 4049SOL    HW213047   4.372   3.930   1.409
 4050SOL     OW13048   6.681   4.920   2.550
 4050SOL    HW113049   6.751   4.860   2.586
 4050SOL    HW213050   6.709   5.015   2.560
 4051SOL     OW13051   5.574   1.444   4.430
 4051SOL    HW113052   5.664   1.417   4.465
 4051SOL    HW213053   5.575   1.440   4.330
 4052SOL     OW13054   4.842   2.007   4.510
 4052SOL    HW113055   4.925   2.038   4.555
 4052SOL    HW213056   4.788   2.085   4.481
 4053SOL     OW13057   1.037   5.191   4.118
 4053SOL    HW113058   1.092   5.162   4.039
 4053SOL    HW213059   1.098   5.221   4.191
 4054SOL     OW13060   4.615   3.631   1.116
 4054SOL    HW113061   4.606   3.627   1.016
 4054SOL    HW213062   4.664   3.550   1.149
 4055SOL     OW13063   6.940   4.462   6.937
 4055SOL    HW113064   6.898   4.497   0.002
 4055SOL    HW213065   6.912   4.519   6.859
 4056SOL     OW13066   5.162   3.440   0.202
 4056SOL    HW113067   5.136   3.346   0.225
 4056SOL    HW213068   5.145   3.499   0.281
 4057SOL     OW13069   6.911   4.095   6.244
 4057SOL    HW113070   6.892   4.137   6.333
 4057SOL    HW213071   6.878   4.155   6.171
 4058SOL     OW13072   3.627   0.595   4.305
 4058SOL    HW113073   3.568   0.518   4.328
 4058SOL    HW213074   3.620   0.665   4.376
 4059SOL     OW13075   0.858   1.192   3.784
 4059SOL    HW113076   0.851   1.216   3.687
 4059SOL    HW213077   0.946   1.147   3.801
 4060SOL     OW13078   0.219   6.366   4.784
 4060SOL    HW113079   0.136   6.354   4.729
 4060SOL    HW213080   0.288   6.414   4.731
 4061SOL     OW13081   0.868   4.818   1.890
 4061SOL    HW113082   0.908   4.758   1.821
 4061SOL    HW213083   0.786   4.775   1.928
 4062SOL     OW13084   2.181   4.128   0.148
 4062SOL    HW113085   2.084   4.109   0.162
 4062SOL    HW213086   2.193   4.180   0.064
 4063SOL     OW13087   3.862   0.771   0.965
 4063SOL    HW113088   3.940   0.780   1.026
 4063SOL    HW213089   3.862   0.845   0.898
 4064SOL     OW13090   2.726   0.725   5.508
 4064SOL    HW113091   2.822   0.749   5.496
 4064SOL    HW213092   2.702   0.735   5.605
 4065SOL     OW13093   2.637   1.397   1.754
 4065SOL    HW113094   2.542   1.420   1.772
 4065SOL    HW213095   2.658   1.415   1.658
 4066SOL     OW13096   0.270   4.288   4.513
 4066SOL    HW113097   0.209   4.209   4.512
 4066SOL    HW213098   0.277   4.325   4.420
 4067SOL     OW13099   6.691   4.700   0.591
 4067SOL    HW113100   6.733   4.722   0.503
 4067SOL    HW213101   6.593   4.682   0.578
 4068SOL     OW13102   2.261   2.637   5.501
 4068SOL    HW113103   2.230   2.551   5.541
 4068SOL    HW213104   2.357   2.628   5.473
 4069SOL     OW13105   4.822   6.742   5.507
 4069SOL    HW113106   4.891   6.723   5.577
 4069SOL    HW213107   4.854   6.705   5.419
 4070SOL     OW13108   1.543   2.831   3.827
 4070SOL    HW113109   1.448   2.825   3.794
 4070SOL    HW213110   1.560   2.756   3.891
 4071SOL     OW13111   2.133   0.376   4.955
 4071SOL    HW113112   2.058   0.339   4.902
 4071SOL    HW213113   2.167   0.460   4.911
 4072SOL     OW13114   3.269   6.780   2.585
 4072SOL    HW113115   3.237   6.702   2.531
 4072SOL    HW213116   3.296   6.854   2.523
 4073SOL     OW13117   3.979   5.351   0.067
 4073SOL    HW113118   3.883   5.342   0.094
 4073SOL    HW213119   4.009   5.268   0.021
 4074SOL     OW13120   1.228   5.706   2.393
 4074SOL    HW113121   1.184   5.795   2.399
 4074SOL    HW213122   1.196   5.658   2.311
 4075SOL     OW13123   6.174   1.316   0.050
 4075SOL    HW113124   6.085   1.288   0.086
 4075SOL    HW213125   6.216   1.382   0.113
 4076SOL     OW13126   1.991   5.737   3.979
 4076SOL    HW113127   2.012   5.643   4.007
 4076SOL    HW213128   2.025   5.801   4.048
 4077SOL     OW13129   3.030   1.666   1.736
 4077SOL    HW113130   3.061   1.582   1.692
 4077SOL    HW213131   2.974   1.719   1.673
 4078SOL     OW13132   4.084   4.744   2.386
 4078SOL    HW113133   4.103   4.724   2.482
 4078SOL    HW213134   3.985   4.749   2.372
 4079SOL     OW13135   0.556   1.937   4.092
 4079SOL    HW113136   0.457   1.924   4.098
 4079SOL    HW213137   0.577   2.035   4.092
 4080SOL     OW13138   6.562   1.793   4.844
 4080SOL    HW113139   6.514   1.706   4.861
 4080SOL    HW213140   6.509   1.868   4.884
 4081SOL     OW13141   0.791   3.956   3.116
 4081SOL    HW113142   0.772   4.028   3.182
 4081SOL    HW213143   0.755   3.869   3.151
 4082SOL     OW13144   0.388   3.081   0.056
 4082SOL    HW113145   0.454   3.013   0.025
 4082SOL    HW213146   0.296   3.052   0.031
 4083SOL     OW13147   6.700   2.993   4.901
 4083SOL    HW113148   6.772   2.925   4.915
 4083SOL    HW213149   6.708   3.031   4.809
 4084SOL     OW13150   5.940   1.115   4.724
 4084SOL    HW113151   5.950   1.069   4.813
 4084SOL    HW213152   6.004   1.192   4.719
 4085SOL     OW13153   2.730   5.271   6.966
 4085SOL    HW113154   2.735   5.301   6.871
 4085SOL    HW213155   2.674   5.336   7.019
 4086SOL     OW13156   1.396   3.896   1.251
 4086SOL    HW113157   1.460   3.884   1.176
 4086SOL    HW213158   1.431   3.965   1.315
 4087SOL     OW13159   2.406   1.310   2.850
 4087SOL    HW113160   2.382   1.381   2.784
 4087SOL    HW213161   2.341   1.235   2.844
 4088SOL     OW13162   6.845   1.577   6.960
 4088SOL    HW113163   6.761   1.612   7.001
 4088SOL    HW213164   6.917   1.572   0.011
 4089SOL     OW13165   0.687   0.780   5.481
 4089SOL    HW113166   0.671   0.690   5.520
 4089SOL    HW213167   0.612   0.803   5.418
 4090SOL     OW13168   3.006   5.005   6.380
 4090SOL    HW113169   2.935   5.074   6.393
 4090SOL    HW213170   3.078   5.017   6.449
 4091SOL     OW13171   4.698   6.953   1.231
 4091SOL    HW113172   4.712   6.977   1.327
 4091SOL    HW213173   4.721   0.012   1.173
 4092SOL     OW13174   6.852   1.501   3.918
 4092SOL    HW113175   6.896   1.542   3.998
 4092SOL    HW213176   6.754   1.521   3.920
 4093SOL     OW13177   5.482   0.146   3.999
 4093SOL    HW113178   5.400   0.203   4.010
 4093SOL    HW213179   5.518   0.158   3.906
 4094SOL     OW13180   3.124   4.024   6.010
 4094SOL    HW113181   3.101   3.944   5.955
 4094SOL    HW213182   3.216   4.056   5.986
 4095SOL     OW13183   1.665   3.497   6.103
 4095SOL    HW113184   1.744   3.510   6.164
 4095SOL    HW213185   1.682   3.419   6.043
 4096SOL     OW13186   4.465   4.725   1.696
 4096SOL    HW113187   4.555   4.684   1.683
 4096SOL    HW213188   4.412   4.670   1.761
 4097SOL     OW13189   3.617   3.715   3.516
 4097SOL    HW113190   3.588   3.651   3.587
 4097SOL    HW213191   3.552   3.791   3.511
 4098SOL     OW13192   0.733   3.429   2.164
 4098SOL    HW113193   0.765   3.506   2.108
 4098SOL    HW213194   0.730   3.457   2.260
 4099SOL     OW13195   2.681   5.973   2.216
 4099SOL    HW113196   2.732   5.977   2.302
 4099SOL    HW213197   2.584   5.963   2.235
 4100SOL     OW13198   3.783   0.106   3.400
 4100SOL    HW113199   3.729   0.184   3.433
 4100SOL    HW213200   3.792   0.111   3.301
 4101SOL     OW13201   4.486   2.186   7.005
 4101SOL    HW113202   4.533   2.268   6.970
 4101SOL    HW213203   4.552   2.112   7.016
 4102SOL     OW13204   4.520   1.829   0.468
 4102SOL    HW113205   4.522   1.729   0.459
 4102SOL    HW213206   4.431   1.857   0.502
 4103SOL     OW13207   0.532   0.111   2.024
 4103SOL    HW113208   0.504   0.207   2.023
 4103SOL    HW213209   0.460   0.055   2.064
 4104SOL     OW13210   2.224   4.653   2.487
 4104SOL    HW113211   2.247   4.633   2.582
 4104SOL    HW213212   2.248   4.575   2.429
 4105SOL     OW13213   6.118   5.073   6.867
 4105SOL    HW113214   6.027   5.043   6.837
 4105SOL    HW213215   6.159   5.002   6.923
 4106SOL     OW13216   6.866   3.526   4.895
 4106SOL    HW113217   6.879   3.582   4.813
 4106SOL    HW213218   6.784   3.558   4.943
 4107SOL     OW13219   0.125   0.596   0.806
 4107SOL    HW113220   0.042   0.624   0.855
 4107SOL    HW213221   0.106   0.516   0.750
 4108SOL     OW13222   6.139   2.649   5.193
 4108SOL    HW113223   6.147   2.730   5.251
 4108SOL    HW213224   6.046   2.613   5.199
 4109SOL     OW13225   2.888   6.176   4.084
 4109SOL    HW113226   2.977   6.169   4.130
 4109SOL    HW213227   2.815   6.172   4.152
 4110SOL     OW13228   4.708   3.191   5.418
 4110SOL    HW113229   4.757   3.243   5.349
 4110SOL    HW213230   4.754   3.202   5.506
 4111SOL     OW13231   3.682   3.344   6.896
 4111SOL    HW113232   3.643   3.368   6.807
 4111SOL    HW213233   3.627   3.272   6.938
 4112SOL     OW13234   4.160   0.398   5.358
 4112SOL    HW113235   4.155   0.487   5.404
 4112SOL    HW213236   4.107   0.331   5.409
 4113SOL     OW13237   3.575   5.104   5.269
 4113SOL    HW113238   3.498   5.073   5.213
 4113SOL    HW213239   3.585   5.203   5.260
 4114SOL     OW13240   3.688   1.940   2.818
 4114SOL    HW113241   3.721   1.876   2.749
 4114SOL    HW213242   3.620   1.895   2.877
 4115SOL     OW13243   5.335   4.272   2.368
 4115SOL    HW113244   5.298   4.291   2.277
 4115SOL    HW213245   5.308   4.344   2.431
 4116SOL     OW13246   3.192   0.829   2.678
 4116SOL    HW113247   3.196   0.912   2.623
 4116SOL    HW213248   3.190   0.749   2.618
 4117SOL     OW13249   0.753   5.844   1.251
 4117SOL    HW113250   0.664   5.835   1.296
 4117SOL    HW213251   0.770   5.764   1.194
 4118SOL     OW13252   2.472   6.934   0.237
 4118SOL    HW113253   2.511   0.004   0.260
 4118SOL    HW213254   2.546   6.867   0.226
 4119SOL     OW13255   4.819   1.227   3.469
 4119SOL    HW113256   4.740   1.289   3.472
 4119SOL    HW213257   4.833   1.196   3.375
 4120SOL     OW13258   5.050   0.995   2.571
 4120SOL    HW113259   5.049   0.953   2.661
 4120SOL    HW213260   5.090   0.932   2.505
 4121SOL     OW13261   6.529   2.173   4.497
 4121SOL    HW113262   6.488   2.253   4.455
 4121SOL    HW213263   6.573   2.117   4.427
 4122SOL     OW13264   2.081   5.586   0.041
 4122SOL    HW113265   1.989   5.548   0.053
 4122SOL    HW213266   2.133   5.575   0.126
 4123SOL     OW13267   4.362   3.631   5.862
 4123SOL    HW113268   4.438   3.601   5.920
 4123SOL    HW213269   4.334   3.724   5.888
 4124SOL     OW13270   4.075   6.258   3.737
 4124SOL    HW113271   4.111   6.351   3.742
 4124SOL    HW213272   4.001   6.247   3.804
 4125SOL     OW13273   4.942   1.201   1.197
 4125SOL    HW113274   4.946   1.117   1.143
 4125SOL    HW213275   4.879   1.189   1.274
 4126SOL     OW13276   1.938   4.313   4.441
 4126SOL    HW113277   1.966   4.315   4.537
 4126SOL    HW213278   1.839   4.329   4.435
 4127SOL     OW13279   6.090   4.591   4.431
 4127SOL    HW113280   6.125   4.681   4.457
 4127SOL    HW213281   6.090   4.531   4.511
 4128SOL     OW13282   0.906   1.915   2.053
 4128SOL    HW113283   0.922   1.994   1.994
 4128SOL    HW213284   0.808   1.901   2.065
 4129SOL     OW13285   6.641   2.787   6.091
 4129SOL    HW113286   6.739   2.795   6.072
 4129SOL    HW213287   6.602   2.879   6.103
 4130SOL     OW13288   6.720   2.813   0.993
 4130SOL    HW113289   6.794   2.879   0.994
 4130SOL    HW213290   6.673   2.816   0.905
 4131SOL     OW13291   6.959   3.905   3.024
 4131SOL    HW113292   6.892   3.979   3.031
 4131SOL    HW213293   6.933   3.831   3.086
 4132SOL     OW13294   4.918   2.211   4.856
 4132SOL    HW113295   4.881   2.304   4.861
 4132SOL    HW213296   4.901   2.164   4.942
 4133SOL     OW13297   2.521   2.519   1.206
 4133SOL    HW113298   2.435   2.552   1.245
 4133SOL    HW213299   2.506   2.430   1.163
 4134SOL     OW13300   2.044   1.358   0.384
 4134SOL    HW113301   2.039   1.272   0.434
 4134SOL    HW213302   1.995   1.349   0.297
 4135SOL     OW13303   1.954   0.474   1.115
 4135SOL    HW113304   1.933   0.518   1.202
 4135SOL    HW213305   1.936   0.376   1.122
 4136SOL     OW13306   0.683   1.711   3.553
 4136SOL    HW113307   0.648   1.635   3.498
 4136SOL    HW213308   0.606   1.769   3.581
 4137SOL     OW13309   3.822   3.032   5.823
 4137SOL    HW113310   3.913   2.990   5.816
 4137SOL    HW213311   3.820   3.093   5.902
 4138SOL     OW13312   4.199   5.748   2.043
 4138SOL    HW113313   4.146   5.677   2.089
 4138SOL    HW213314   4.141   5.827   2.025
 4139SOL     OW13315   2.785   1.164   0.771
 4139SOL    HW113316   2.871   1.195   0.811
 4139SOL    HW213317   2.717   1.237   0.777
 4140SOL     OW13318   4.522   1.998   5.365
 4140SOL    HW113319   4.533   2.083   5.314
 4140SOL    HW213320   4.611   1.963   5.393
 4141SOL     OW13321   5.313   5.497   0.287
 4141SOL    HW113322   5.368   5.424   0.247
 4141SOL    HW213323   5.372   5.563   0.332
 4142SOL     OW13324   6.194   3.312   1.292
 4142SOL    HW113325   6.283   3.327   1.333
 4142SOL    HW213326   6.123   3.323   1.361
 4143SOL     OW13327   0.697   2.799   2.370
 4143SOL    HW113328   0.705   2.703   2.342
 4143SOL    HW213329   0.650   2.850   2.298
 4144SOL     OW13330   4.350   0.807   2.084
 4144SOL    HW113331   4.299   0.863   2.150
 4144SOL    HW213332   4.434   0.853   2.058
 4145SOL     OW13333   2.877   6.822   2.964
 4145SOL    HW113334   2.868   6.835   2.865
 4145SOL    HW213335   2.841   6.732   2.989
 4146SOL     OW13336   4.994   5.033   0.338
 4146SOL    HW113337   4.917   5.055   0.279
 4146SOL    HW213338   4.974   5.062   0.432
 4147SOL     OW13339   2.639   2.063   5.998
 4147SOL    HW113340   2.603   2.141   6.049
 4147SOL    HW213341   2.563   2.006   5.965
 4148SOL     OW13342   6.935   0.002   2.496
 4148SOL    HW113343   0.010   6.987   2.488
 4148SOL    HW213344   6.876   6.948   2.530
 4149SOL     OW13345   4.760   4.188   2.271
 4149SOL    HW113346   4.843   4.233   2.237
 4149SOL    HW213347   4.684   4.252   2.266
 4150SOL     OW13348   4.668   0.340   5.295
 4150SOL    HW113349   4.610   0.340   5.377
 4150SOL    HW213350   4.644   0.418   5.238
 4151SOL     OW13351   0.357   5.616   0.526
 4151SOL    HW113352   0.315   5.546   0.468
 4151SOL    HW213353   0.328   5.603   0.621
 4152SOL     OW13354   3.286   3.800   1.516
 4152SOL    HW113355   3.197   3.844   1.522
 4152SOL    HW213356   3.343   3.849   1.449
 4153SOL     OW13357   6.027   5.933   6.087
 4153SOL    HW113358   5.963   5.961   6.016
 4153SOL    HW213359   6.117   5.917   6.047
 4154SOL     OW13360   4.527   2.622   5.360
 4154SOL    HW113361   4.452   2.688   5.360
 4154SOL    HW213362   4.607   2.661   5.405
 4155SOL     OW13363   1.727   2.923   0.518
 4155SOL    HW113364   1.766   2.903   0.428
 4155SOL    HW213365   1.748   3.017   0.543
 4156SOL     OW13366   5.734   0.422   5.161
 4156SOL    HW113367   5.656   0.391   5.106
 4156SOL    HW213368   5.765   0.347   5.219
 4157SOL     OW13369   3.163   0.841   3.478
 4157SOL    HW113370   3.204   0.933   3.481
 4157SOL    HW213371   3.203   0.789   3.403
 4158SOL     OW13372   0.750   0.275   3.672
 4158SOL    HW113373   0.674   0.338   3.685
 4158SOL    HW213374   0.815   0.285   3.747
 4159SOL     OW13375   0.365   3.970   5.575
 4159SOL    HW113376   0.434   3.943   5.642
 4159SOL    HW213377   0.295   4.026   5.620
 4160SOL     OW13378   0.480   0.478   1.292
 4160SOL    HW113379   0.489   0.379   1.290
 4160SOL    HW213380   0.514   0.513   1.380
 4161SOL     OW13381   6.396   1.770   1.051
 4161SOL    HW113382   6.325   1.802   0.989
 4161SOL    HW213383   6.360   1.762   1.144
 4162SOL     OW13384   0.665   6.776   5.412
 4162SOL    HW113385   0.761   6.757   5.431
 4162SOL    HW213386   0.653   6.791   5.314
 4163SOL     OW13387   6.328   1.362   5.449
 4163SOL    HW113388   6.365   1.397   5.363
 4163SOL    HW213389   6.261   1.427   5.485
 4164SOL     OW13390   2.877   6.772   5.915
 4164SOL    HW113391   2.910   6.858   5.954
 4164SOL    HW213392   2.826   6.721   5.985
 4165SOL     OW13393   2.719   6.055   2.504
 4165SOL    HW113394   2.653   6.039   2.577
 4165SOL    HW213395   2.783   5.978   2.499
 4166SOL     OW13396   6.283   1.789   1.755
 4166SOL    HW113397   6.219   1.845   1.702
 4166SOL    HW213398   6.328   1.846   1.824
 4167SOL     OW13399   1.932   2.819   0.979
 4167SOL    HW113400   1.961   2.840   0.885
 4167SOL    HW213401   1.900   2.902   1.023
 4168SOL     OW13402   1.800   5.255   1.472
 4168SOL    HW113403   1.727   5.235   1.407
 4168SOL    HW213404   1.825   5.171   1.521
 4169SOL     OW13405   6.327   3.383   6.193
 4169SOL    HW113406   6.363   3.290   6.192
 4169SOL    HW213407   6.402   3.448   6.177
 4170SOL     OW13408   3.727   1.355   4.893
 4170SOL    HW113409   3.777   1.356   4.806
 4170SOL    HW213410   3.669   1.435   4.900
 4171SOL     OW13411   6.240   3.484   1.083
 4171SOL    HW113412   6.332   3.521   1.074
 4171SOL    HW213413   6.241   3.406   1.145
 4172SOL     OW13414   2.764   0.710   0.746
 4172SOL    HW113415   2.773   0.762   0.831
 4172SOL    HW213416   2.838   0.736   0.683
 4173SOL     OW13417   4.922   3.582   5.618
 4173SOL    HW113418   4.834   3.629   5.608
 4173SOL    HW213419   4.959   3.601   5.709
 4174SOL     OW13420   5.544   0.540   3.947
 4174SOL    HW113421   5.569   0.625   3.900
 4174SOL    HW213422   5.466   0.556   4.006
 4175SOL     OW13423   2.602   1.275   2.652
 4175SOL    HW113424   2.548   1.237   2.577
 4175SOL    HW213425   2.546   1.278   2.735
 4176SOL     OW13426   5.802   4.536   2.973
 4176SOL    HW113427   5.848   4.465   3.026
 4176SOL    HW213428   5.767   4.606   3.035
 4177SOL     OW13429   6.500   5.555   3.208
 4177SOL    HW113430   6.557   5.556   3.290
 4177SOL    HW213431   6.422   5.493   3.222
 4178SOL     OW13432   4.366   2.468   5.548
 4178SOL    HW113433   4.371   2.548   5.609
 4178SOL    HW213434   4.439   2.474   5.480
 4179SOL     OW13435   6.808   2.088   0.181
 4179SOL    HW113436   6.720   2.133   0.195
 4179SOL    HW213437   6.874   2.121   0.250
 4180SOL     OW13438   4.784   3.271   1.585
 4180SOL    HW113439   4.765   3.295   1.490
 4180SOL    HW213440   4.770   3.173   1.599
 4181SOL     OW13441   6.752   0.464   0.644
 4181SOL    HW113442   6.767   0.562   0.639
 4181SOL    HW213443   6.802   0.418   0.570
 4182SOL     OW13444   5.624   0.782   3.871
 4182SOL    HW113445   5.695   0.828   3.925
 4182SOL    HW213446   5.562   0.851   3.832
 4183SOL     OW13447   1.521   0.941   1.880
 4183SOL    HW113448   1.621   0.938   1.881
 4183SOL    HW213449   1.490   0.998   1.804
 4184SOL     OW13450   4.363   4.924   6.692
 4184SOL    HW113451   4.415   4.871   6.625
 4184SOL    HW213452   4.332   4.864   6.765
 4185SOL     OW13453   7.010   0.208   3.866
 4185SOL    HW113454   0.061   0.160   3.812
 4185SOL    HW213455   0.021   0.215   3.961
 4186SOL     OW13456   3.754   4.248   1.757
 4186SOL    HW113457   3.672   4.305   1.764
 4186SOL    HW213458   3.746   4.170   1.819
 4187SOL     OW13459   3.842   5.142   6.718
 4187SOL    HW113460   3.897   5.132   6.802
 4187SOL    HW213461   3.761   5.197   6.738
 4188SOL     OW13462   4.844   6.336   3.694
 4188SOL    HW113463   4.929   6.284   3.702
 4188SOL    HW213464   4.851   6.401   3.618
 4189SOL     OW13465   1.561   3.652   3.326
 4189SOL    HW113466   1.612   3.611   3.250
 4189SOL    HW213467   1.478   3.598   3.344
 4190SOL     OW13468   2.461   0.051   1.401
 4190SOL    HW113469   2.474   0.144   1.369
 4190SOL    HW213470   2.486   0.045   1.498
 4191SOL     OW13471   0.635   1.973   2.757
 4191SOL    HW113472   0.706   1.927   2.811
 4191SOL    HW213473   0.670   1.994   2.666
 4192SOL     OW13474   6.087   0.461   3.449
 4192SOL    HW113475   5.998   0.426   3.478
 4192SOL    HW213476   6.160   0.410   3.495
 4193SOL     OW13477   1.803   6.432   3.744
 4193SOL    HW113478   1.705   6.454   3.742
 4193SOL    HW213479   1.824   6.366   3.672
 4194SOL     OW13480   5.976   0.233   3.082
 4194SOL    HW113481   6.046   0.284   3.131
 4194SOL    HW213482   5.950   0.282   2.999
 4195SOL     OW13483   5.217   0.947   3.513
 4195SOL    HW113484   5.228   1.022   3.447
 4195SOL    HW213485   5.198   0.985   3.603
 4196SOL     OW13486   4.734   2.872   3.489
 4196SOL    HW113487   4.816   2.832   3.448
 4196SOL    HW213488   4.736   2.971   3.478
 4197SOL     OW13489   5.080   4.136   4.668
 4197SOL    HW113490   4.984   4.152   4.690
 4197SOL    HW213491   5.116   4.213   4.615
 4198SOL     OW13492   6.721   3.875   6.267
 4198SOL    HW113493   6.793   3.942   6.248
 4198SOL    HW213494   6.686   3.839   6.181
 4199SOL     OW13495   3.242   3.947   6.460
 4199SOL    HW113496   3.332   3.910   6.433
 4199SOL    HW213497   3.201   3.995   6.382
 4200SOL     OW13498   2.914   0.673   7.008
 4200SOL    HW113499   2.855   0.594   6.993
 4200SOL    HW213500   2.860   0.757   7.004
 4201SOL     OW13501   6.009   0.064   4.691
 4201SOL    HW113502   5.985   0.106   4.604
 4201SOL    HW213503   5.988   6.985   4.687
 4202SOL     OW13504   5.326   3.952   5.604
 4202SOL    HW113505   5.389   3.894   5.656
 4202SOL    HW213506   5.250   3.980   5.662
 4203SOL     OW13507   4.090   5.792   4.406
 4203SOL    HW113508   4.118   5.756   4.317
 4203SOL    HW213509   4.171   5.806   4.463
 4204SOL     OW13510   1.464   3.805   0.231
 4204SOL    HW113511   1.453   3.868   0.308
 4204SOL    HW213512   1.399   3.827   0.159
 4205SOL     OW13513   2.672   5.853   3.040
 4205SOL    HW113514   2.681   5.817   2.948
 4205SOL    HW213515   2.669   5.953   3.037
 4206SOL     OW13516   5.108   6.530   4.108
 4206SOL    HW113517   5.083   6.616   4.152
 4206SOL    HW213518   5.126   6.546   4.011
 4207SOL     OW13519   0.982   6.641   0.187
 4207SOL    HW113520   1.026   6.604   0.270
 4207SOL    HW213521   0.988   6.741   0.189
 4208SOL     OW13522   0.538   2.941   1.216
 4208SOL    HW113523   0.636   2.945   1.236
 4208SOL    HW213524   0.515   2.850   1.182
 4209SOL     OW13525   3.180   0.163   5.322
 4209SOL    HW113526   3.178   0.246   5.267
 4209SOL    HW213527   3.108   0.101   5.291
 4210SOL     OW13528   3.867   2.894   0.348
 4210SOL    HW113529   3.957   2.865   0.381
 4210SOL    HW213530   3.849   2.852   0.259
 4211SOL     OW13531   5.138   3.898   4.365
 4211SOL    HW113532   5.186   3.973   4.320
 4211SOL    HW213533   5.177   3.883   4.456
 4212SOL     OW13534   6.265   0.087   2.211
 4212SOL    HW113535   6.263   0.107   2.309
 4212SOL    HW213536   6.266   0.172   2.159
 4213SOL     OW13537   0.292   0.061   1.252
 4213SOL    HW113538   0.243   0.148   1.255
 4213SOL    HW213539   0.389   0.079   1.238
 4214SOL     OW13540   2.894   5.425   4.415
 4214SOL    HW113541   2.817   5.427   4.352
 4214SOL    HW213542   2.908   5.333   4.449
 4215SOL     OW13543   1.544   6.105   6.805
 4215SOL    HW113544   1.457   6.115   6.755
 4215SOL    HW213545   1.582   6.195   6.825
 4216SOL     OW13546   2.819   3.117   5.256
 4216SOL    HW113547   2.727   3.079   5.251
 4216SOL    HW213548   2.881   3.047   5.293
 4217SOL     OW13549   6.616   0.978   4.407
 4217SOL    HW113550   6.529   1.022   4.431
 4217SOL    HW213551   6.623   0.890   4.455
 4218SOL     OW13552   3.095   5.514   2.157
 4218SOL    HW113553   3.073   5.442   2.223
 4218SOL    HW213554   3.165   5.575   2.195
 4219SOL     OW13555   5.986   0.317   2.822
 4219SOL    HW113556   5.928   0.387   2.780
 4219SOL    HW213557   6.063   0.297   2.762
 4220SOL     OW13558   0.411   4.424   3.116
 4220SOL    HW113559   0.508   4.401   3.112
 4220SOL    HW213560   0.367   4.397   3.031
 4221SOL     OW13561   5.355   6.374   5.744
 4221SOL    HW113562   5.297   6.293   5.755
 4221SOL    HW213563   5.444   6.357   5.788
 4222SOL     OW13564   2.786   3.009   0.358
 4222SOL    HW113565   2.822   3.077   0.294
 4222SOL    HW213566   2.686   3.014   0.359
 4223SOL     OW13567   3.390   4.047   2.806
 4223SOL    HW113568   3.312   4.039   2.868
 4223SOL    HW213569   3.463   4.097   2.851
 4224SOL     OW13570   3.529   1.791   5.707
 4224SOL    HW113571   3.483   1.707   5.676
 4224SOL    HW213572   3.483   1.827   5.788
 4225SOL     OW13573   4.965   0.089   4.462
 4225SOL    HW113574   5.015   0.152   4.403
 4225SOL    HW213575   5.029   0.036   4.517
 4226SOL     OW13576   1.937   1.526   2.203
 4226SOL    HW113577   1.890   1.583   2.137
 4226SOL    HW213578   1.920   1.430   2.184
 4227SOL     OW13579   5.385   3.833   6.484
 4227SOL    HW113580   5.303   3.782   6.510
 4227SOL    HW213581   5.391   3.838   6.384
 4228SOL     OW13582   4.557   4.856   2.915
 4228SOL    HW113583   4.630   4.812   2.863
 4228SOL    HW213584   4.497   4.786   2.956
 4229SOL     OW13585   4.229   5.062   5.447
 4229SOL    HW113586   4.205   4.966   5.462
 4229SOL    HW213587   4.170   5.100   5.376
 4230SOL     OW13588   2.600   1.642   6.230
 4230SOL    HW113589   2.679   1.661   6.171
 4230SOL    HW213590   2.631   1.627   6.324
 4231SOL     OW13591   3.658   6.380   6.119
 4231SOL    HW113592   3.735   6.325   6.153
 4231SOL    HW213593   3.581   6.370   6.182
 4232SOL     OW13594   1.775   4.027   1.241
 4232SOL    HW113595   1.739   3.973   1.318
 4232SOL    HW213596   1.867   4.059   1.264
 4233SOL     OW13597   5.600   5.246   1.105
 4233SOL    HW113598   5.694   5.245   1.138
 4233SOL    HW213599   5.597   5.220   1.009
 4234SOL     OW13600   3.580   3.456   5.457
 4234SOL    HW113601   3.625   3.418   5.538
 4234SOL    HW213602   3.561   3.553   5.472
 4235SOL     OW13603   0.382   4.045   4.742
 4235SOL    HW113604   0.356   3.971   4.803
 4235SOL    HW213605   0.302   4.080   4.694
 4236SOL     OW13606   0.880   3.489   4.918
 4236SOL    HW113607   0.910   3.584   4.905
 4236SOL    HW213608   0.904   3.459   5.010
 4237SOL     OW13609   6.359   4.026   5.342
 4237SOL    HW113610   6.336   3.940   5.298
 4237SOL    HW213611   6.311   4.101   5.297
 4238SOL     OW13612   4.893   5.070   4.852
 4238SOL    HW113613   4.897   5.080   4.752
 4238SOL    HW213614   4.984   5.050   4.887
 4239SOL     OW13615   5.073   5.956   5.337
 4239SOL    HW113616   5.142   6.028   5.350
 4239SOL    HW213617   5.098   5.900   5.259
 4240SOL     OW13618   2.811   4.749   6.592
 4240SOL    HW113619   2.875   4.749   6.514
 4240SOL    HW213620   2.846   4.690   6.664
 4241SOL     OW13621   3.208   2.114   1.405
 4241SOL    HW113622   3.268   2.185   1.367
 4241SOL    HW213623   3.120   2.155   1.429
 4242SOL     OW13624   2.202   0.323   2.397
 4242SOL    HW113625   2.198   0.278   2.308
 4242SOL    HW213626   2.112   0.316   2.441
 4243SOL     OW13627   1.389   2.983   2.806
 4243SOL    HW113628   1.340   2.919   2.865
 4243SOL    HW213629   1.478   3.003   2.846
 4244SOL     OW13630   3.170   0.566   1.034
 4244SOL    HW113631   3.187   0.582   0.937
 4244SOL    HW213632   3.254   0.580   1.086
 4245SOL     OW13633   6.970   1.588   1.168
 4245SOL    HW113634   6.932   1.496   1.155
 4245SOL    HW213635   6.999   1.624   1.080
 4246SOL     OW13636   4.744   2.769   4.043
 4246SOL    HW113637   4.737   2.843   4.110
 4246SOL    HW213638   4.735   2.806   3.951
 4247SOL     OW13639   2.598   5.743   0.077
 4247SOL    HW113640   2.633   5.729   7.003
 4247SOL    HW213641   2.506   5.781   0.072
 4248SOL     OW13642   2.314   0.122   3.104
 4248SOL    HW113643   2.349   0.080   3.020
 4248SOL    HW213644   2.225   0.082   3.126
 4249SOL     OW13645   5.851   1.122   5.723
 4249SOL    HW113646   5.804   1.036   5.705
 4249SOL    HW213647   5.929   1.105   5.784
 4250SOL     OW13648   0.493   5.323   4.611
 4250SOL    HW113649   0.499   5.384   4.690
 4250SOL    HW213650   0.540   5.364   4.533
 4251SOL     OW13651   4.839   2.352   5.505
 4251SOL    HW113652   4.838   2.441   5.460
 4251SOL    HW213653   4.751   2.306   5.490
 4252SOL     OW13654   0.651   0.082   6.570
 4252SOL    HW113655   0.581   0.015   6.590
 4252SOL    HW213656   0.704   0.101   6.653
 4253SOL     OW13657   3.979   0.220   2.975
 4253SOL    HW113658   4.044   0.171   3.034
 4253SOL    HW213659   3.886   0.204   3.007
 4254SOL     OW13660   0.987   2.081   5.411
 4254SOL    HW113661   1.015   2.035   5.327
 4254SOL    HW213662   1.011   2.024   5.490
 4255SOL     OW13663   1.129   3.143   3.774
 4255SOL    HW113664   1.208   3.186   3.731
 4255SOL    HW213665   1.135   3.153   3.873
 4256SOL     OW13666   6.016   6.018   0.634
 4256SOL    HW113667   6.102   6.038   0.680
 4256SOL    HW213668   5.956   6.098   0.637
 4257SOL     OW13669   0.034   0.882   2.824
 4257SOL    HW113670   0.055   0.862   2.729
 4257SOL    HW213671   0.057   0.803   2.881
 4258SOL     OW13672   2.923   5.839   0.856
 4258SOL    HW113673   2.962   5.905   0.792
 4258SOL    HW213674   2.824   5.832   0.839
 4259SOL     OW13675   0.761   6.465   0.009
 4259SOL    HW113676   0.747   6.497   6.935
 4259SOL    HW213677   0.809   6.536   0.062
 4260SOL     OW13678   6.952   6.965   5.317
 4260SOL    HW113679   7.017   6.971   5.392
 4260SOL    HW213680   6.957   0.029   5.261
 4261SOL     OW13681   2.626   6.476   3.458
 4261SOL    HW113682   2.550   6.436   3.407
 4261SOL    HW213683   2.631   6.574   3.438
 4262SOL     OW13684   1.388   4.168   5.200
 4262SOL    HW113685   1.322   4.212   5.140
 4262SOL    HW213686   1.476   4.215   5.193
 4263SOL     OW13687   3.209   1.095   2.527
 4263SOL    HW113688   3.172   1.100   2.434
 4263SOL    HW213689   3.293   1.149   2.532
 4264SOL     OW13690   4.776   2.178   6.740
 4264SOL    HW113691   4.759   2.096   6.686
 4264SOL    HW213692   4.835   2.155   6.818
 4265SOL     OW13693   3.366   6.422   6.754
 4265SOL    HW113694   3.323   6.507   6.786
 4265SOL    HW213695   3.449   6.443   6.704
 4266SOL     OW13696   1.229   4.579   1.557
 4266SOL    HW113697   1.322   4.611   1.543
 4266SOL    HW213698   1.229   4.479   1.562
 4267SOL     OW13699   1.405   3.381   4.349
 4267SOL    HW113700   1.429   3.327   4.430
 4267SOL    HW213701   1.469   3.457   4.339
 4268SOL     OW13702   1.284   4.275   6.074
 4268SOL    HW113703   1.336   4.252   5.992
 4268SOL    HW213704   1.314   4.217   6.150
 4269SOL     OW13705   2.712   1.583   4.002
 4269SOL    HW113706   2.699   1.563   4.099
 4269SOL    HW213707   2.639   1.643   3.970
 4270SOL     OW13708   4.246   4.107   1.161
 4270SOL    HW113709   4.208   4.047   1.090
 4270SOL    HW213710   4.273   4.053   1.240
 4271SOL     OW13711   6.301   0.720   0.263
 4271SOL    HW113712   6.375   0.670   0.307
 4271SOL    HW213713   6.282   0.681   0.173
 4272SOL     OW13714   6.549   1.764   5.435
 4272SOL    HW113715   6.514   1.680   5.477
 4272SOL    HW213716   6.549   1.753   5.335
 4273SOL     OW13717   3.602   5.458   3.531
 4273SOL    HW113718   3.646   5.502   3.610
 4273SOL    HW213719   3.639   5.366   3.520
 4274SOL     OW13720   6.886   0.698   0.929
 4274SOL    HW113721   6.792   0.682   0.901
 4274SOL    HW213722   6.889   0.725   1.025
 4275SOL     OW13723   6.699   2.005   3.958
 4275SOL    HW113724   6.710   2.019   4.056
 4275SOL    HW213725   6.783   1.964   3.921
 4276SOL     OW13726   1.444   6.974   2.916
 4276SOL    HW113727   1.392   0.010   2.981
 4276SOL    HW213728   1.514   6.922   2.965
 4277SOL     OW13729   6.188   5.796   2.701
 4277SOL    HW113730   6.099   5.772   2.662
 4277SOL    HW213731   6.260   5.750   2.649
 4278SOL     OW13732   0.306   6.955   1.001
 4278SOL    HW113733   0.288   6.972   1.098
 4278SOL    HW213734   0.282   0.017   0.948
 4279SOL     OW13735   0.761   3.453   3.168
 4279SOL    HW113736   0.801   3.389   3.102
 4279SOL    HW213737   0.701   3.404   3.230
 4280SOL     OW13738   3.089   6.608   6.528
 4280SOL    HW113739   3.007   6.582   6.579
 4280SOL    HW213740   3.145   6.526   6.510
 4281SOL     OW13741   6.933   6.474   2.508
 4281SOL    HW113742   6.908   6.419   2.429
 4281SOL    HW213743   6.976   6.416   2.578
 4282SOL     OW13744   5.186   4.756   1.715
 4282SOL    HW113745   5.218   4.848   1.735
 4282SOL    HW213746   5.134   4.756   1.630
 4283SOL     OW13747   5.964   1.049   4.978
 4283SOL    HW113748   6.035   1.088   5.035
 4283SOL    HW213749   5.912   0.982   5.031
 4284SOL     OW13750   4.780   6.091   6.872
 4284SOL    HW113751   4.780   6.058   6.967
 4284SOL    HW213752   4.872   6.121   6.848
 4285SOL     OW13753   3.024   1.734   6.256
 4285SOL    HW113754   2.989   1.802   6.321
 4285SOL    HW213755   3.028   1.645   6.301
 4286SOL     OW13756   5.012   6.159   6.696
 4286SOL    HW113757   4.935   6.185   6.637
 4286SOL    HW213758   5.039   6.239   6.751
 4287SOL     OW13759   3.849   0.865   1.337
 4287SOL    HW113760   3.786   0.882   1.412
 4287SOL    HW213761   3.917   0.939   1.333
 4288SOL     OW13762   0.124   6.394   2.021
 4288SOL    HW113763   0.108   6.492   2.008
 4288SOL    HW213764   0.215   6.370   1.988
 4289SOL     OW13765   0.241   4.327   5.591
 4289SOL    HW113766   0.191   4.244   5.565
 4289SOL    HW213767   0.304   4.306   5.666
 4290SOL     OW13768   7.019   1.383   3.270
 4290SOL    HW113769   6.996   1.478   3.248
 4290SOL    HW213770   7.015   1.369   3.369
 4291SOL     OW13771   4.131   4.847   6.592
 4291SOL    HW113772   4.158   4.787   6.517
 4291SOL    HW213773   4.204   4.913   6.610
 4292SOL     OW13774   6.910   0.281   0.873
 4292SOL    HW113775   6.933   0.219   0.798
 4292SOL    HW213776   6.867   0.364   0.836
 4293SOL     OW13777   3.737   3.227   6.331
 4293SOL    HW113778   3.667   3.171   6.375
 4293SOL    HW213779   3.827   3.188   6.349
 4294SOL     OW13780   3.018   1.984   0.238
 4294SOL    HW113781   2.929   2.024   0.259
 4294SOL    HW213782   3.090   2.035   0.285
 4295SOL     OW13783   4.221   6.640   2.579
 4295SOL    HW113784   4.300   6.581   2.594
 4295SOL    HW213785   4.228   6.721   2.637
 4296SOL     OW13786   2.186   5.384   2.413
 4296SOL    HW113787   2.108   5.406   2.471
 4296SOL    HW213788   2.242   5.313   2.458
 4297SOL     OW13789   5.035   4.895   6.962
 4297SOL    HW113790   5.076   4.888   6.871
 4297SOL    HW213791   5.040   4.806   7.008
 4298SOL     OW13792   1.892   0.063   0.741
 4298SOL    HW113793   1.850   6.996   0.770
 4298SOL    HW213794   1.823   0.122   0.700
 4299SOL     OW13795   0.239   3.141   5.837
 4299SOL    HW113796   0.262   3.154   5.741
 4299SOL    HW213797   0.309   3.184   5.894
 4300SOL     OW13798   3.556   0.657   1.777
 4300SOL    HW113799   3.538   0.743   1.824
 4300SOL    HW213800   3.527   0.664   1.682
 4301SOL     OW13801   2.023   6.367   4.765
 4301SOL    HW113802   2.037   6.281   4.814
 4301SOL    HW213803   1.944   6.358   4.704
 4302SOL     OW13804   4.008   4.884   0.182
 4302SOL    HW113805   4.027   4.787   0.191
 4302SOL    HW213806   4.085   4.929   0.136
 4303SOL     OW13807   4.084   5.421   3.219
 4303SOL    HW113808   4.009   5.449   3.159
 4303SOL    HW213809   4.053   5.348   3.280
 4304SOL     OW13810   3.032   4.310   1.717
 4304SOL    HW113811   2.987   4.378   1.775
 4304SOL    HW213812   3.105   4.354   1.665
 4305SOL     OW13813   0.761   6.286   6.017
 4305SOL    HW113814   0.737   6.355   5.948
 4305SOL    HW213815   0.837   6.319   6.073
 4306SOL     OW13816   5.690   3.689   5.436
 4306SOL    HW113817   5.779   3.649   5.459
 4306SOL    HW213818   5.619   3.642   5.488
 4307SOL     OW13819   6.914   1.576   5.521
 4307SOL    HW113820   6.838   1.522   5.486
 4307SOL    HW213821   6.988   1.578   5.453
 4308SOL     OW13822   4.304   5.934   5.852
 4308SOL    HW113823   4.225   5.938   5.791
 4308SOL    HW213824   4.292   5.859   5.917
 4309SOL     OW13825   3.051   1.849   1.041
 4309SOL    HW113826   3.135   1.893   1.071
 4309SOL    HW213827   3.058   1.826   0.944
 4310SOL     OW13828   6.922   1.895   3.874
 4310SOL    HW113829   6.890   1.881   3.780
 4310SOL    HW213830   7.011   1.942   3.872
 4311SOL     OW13831   0.407   6.436   1.294
 4311SOL    HW113832   0.319   6.388   1.300
 4311SOL    HW213833   0.461   6.398   1.219
 4312SOL     OW13834   6.997   3.768   2.551
 4312SOL    HW113835   6.955   3.853   2.519
 4312SOL    HW213836   6.927   3.706   2.584
 4313SOL     OW13837   0.563   3.352   0.732
 4313SOL    HW113838   0.521   3.440   0.708
 4313SOL    HW213839   0.597   3.356   0.826
 4314SOL     OW13840   1.952   1.703   5.839
 4314SOL    HW113841   2.011   1.707   5.919
 4314SOL    HW213842   1.887   1.628   5.849
 4315SOL     OW13843   2.684   2.364   5.333
 4315SOL    HW113844   2.688   2.278   5.282
 4315SOL    HW213845   2.678   2.343   5.431
 4316SOL     OW13846   4.699   4.582   1.553
 4316SOL    HW113847   4.686   4.571   1.652
 4316SOL    HW213848   4.624   4.536   1.505
 4317SOL     OW13849   5.290   0.574   4.678
 4317SOL    HW113850   5.351   0.645   4.644
 4317SOL    HW213851   5.203   0.614   4.706
 4318SOL     OW13852   1.527   5.928   3.957
 4318SOL    HW113853   1.570   5.886   4.036
 4318SOL    HW213854   1.571   5.895   3.873
 4319SOL     OW13855   1.811   4.525   1.839
 4319SOL    HW113856   1.724   4.542   1.792
 4319SOL    HW213857   1.878   4.491   1.772
 4320SOL     OW13858   3.787   0.911   1.814
 4320SOL    HW113859   3.690   0.909   1.836
 4320SOL    HW213860   3.808   0.994   1.763
 4321SOL     OW13861   6.518   5.798   3.081
 4321SOL    HW113862   6.444   5.831   3.023
 4321SOL    HW213863   6.501   5.702   3.105
 4322SOL     OW13864   2.771   2.074   4.554
 4322SOL    HW113865   2.734   1.986   4.525
 4322SOL    HW213866   2.776   2.135   4.475
 4323SOL     OW13867   5.461   4.063   1.557
 4323SOL    HW113868   5.396   4.139   1.550
 4323SOL    HW213869   5.495   4.039   1.465
 4324SOL     OW13870   6.614   3.954   5.401
 4324SOL    HW113871   6.628   3.870   5.452
 4324SOL    HW213872   6.522   3.956   5.363
 4325SOL     OW13873   1.542   0.497   1.234
 4325SOL    HW113874   1.596   0.561   1.289
 4325SOL    HW213875   1.470   0.546   1.186
 4326SOL     OW13876   4.801   2.686   3.089
 4326SOL    HW113877   4.885   2.633   3.105
 4326SOL    HW213878   4.825   2.782   3.076
 4327SOL     OW13879   3.232   6.588   3.995
 4327SOL    HW113880   3.299   6.604   3.923
 4327SOL    HW213881   3.194   6.496   3.985
 4328SOL     OW13882   6.585   6.956   2.409
 4328SOL    HW113883   6.611   0.031   2.387
 4328SOL    HW213884   6.660   6.894   2.386
 4329SOL     OW13885   5.841   4.202   0.272
 4329SOL    HW113886   5.798   4.141   0.205
 4329SOL    HW213887   5.919   4.247   0.230
 4330SOL     OW13888   2.651   5.617   5.215
 4330SOL    HW113889   2.630   5.614   5.117
 4330SOL    HW213890   2.605   5.541   5.261
 4331SOL     OW13891   5.919   1.798   2.789
 4331SOL    HW113892   5.887   1.891   2.807
 4331SOL    HW213893   5.882   1.736   2.859
 4332SOL     OW13894   6.985   5.604   1.432
 4332SOL    HW113895   6.976   5.659   1.515
 4332SOL    HW213896   6.951   5.657   1.354
 4333SOL     OW13897   3.327   2.750   6.078
 4333SOL    HW113898   3.236   2.743   6.118
 4333SOL    HW213899   3.352   2.846   6.070
 4334SOL     OW13900   0.565   2.240   3.493
 4334SOL    HW113901   0.617   2.306   3.439
 4334SOL    HW213902   0.473   2.275   3.508
 4335SOL     OW13903   2.081   3.915   1.760
 4335SOL    HW113904   2.064   3.825   1.801
 4335SOL    HW213905   2.161   3.956   1.804
 4336SOL     OW13906   2.415   5.068   5.582
 4336SOL    HW113907   2.511   5.068   5.556
 4336SOL    HW213908   2.360   5.101   5.505
 4337SOL     OW13909   0.098   4.441   4.117
 4337SOL    HW113910   0.012   4.492   4.111
 4337SOL    HW213911   0.085   4.349   4.078
 4338SOL     OW13912   3.244   3.065   5.283
 4338SOL    HW113913   3.164   3.083   5.340
 4338SOL    HW213914   3.325   3.104   5.328
 4339SOL     OW13915   4.414   4.076   5.518
 4339SOL    HW113916   4.428   4.106   5.613
 4339SOL    HW213917   4.364   4.147   5.468
 4340SOL     OW13918   0.012   3.980   0.280
 4340SOL    HW113919   6.952   3.926   0.251
 4340SOL    HW213920   7.014   4.019   0.371
 4341SOL     OW13921   6.124   5.744   0.862
 4341SOL    HW113922   6.100   5.841   0.871
 4341SOL    HW213923   6.100   5.712   0.770
 4342SOL     OW13924   5.362   3.744   2.406
 4342SOL    HW113925   5.289   3.811   2.420
 4342SOL    HW213926   5.323   3.652   2.405
 4343SOL     OW13927   4.583   0.764   6.426
 4343SOL    HW113928   4.524   0.691   6.460
 4343SOL    HW213929   4.603   0.749   6.330
 4344SOL     OW13930   1.234   4.178   1.973
 4344SOL    HW113931   1.314   4.197   2.030
 4344SOL    HW213932   1.159   4.145   2.030
 4345SOL     OW13933   3.899   3.080   2.800
 4345SOL    HW113934   3.870   3.172   2.774
 4345SOL    HW213935   3.822   3.017   2.791
 4346SOL     OW13936   1.103   3.756   2.280
 4346SOL    HW113937   1.006   3.781   2.274
 4346SOL    HW213938   1.156   3.835   2.310
 4347SOL     OW13939   6.065   5.661   0.605
 4347SOL    HW113940   6.099   5.645   0.512
 4347SOL    HW213941   5.990   5.598   0.624
 4348SOL     OW13942   6.375   3.788   5.946
 4348SOL    HW113943   6.450   3.724   5.929
 4348SOL    HW213944   6.357   3.793   6.045
 4349SOL     OW13945   1.172   3.936   4.166
 4349SOL    HW113946   1.092   3.879   4.187
 4349SOL    HW213947   1.165   4.023   4.215
 4350SOL     OW13948   5.085   0.334   3.838
 4350SOL    HW113949   5.078   0.426   3.876
 4350SOL    HW213950   5.089   0.339   3.738
 4351SOL     OW13951   0.402   5.704   0.892
 4351SOL    HW113952   0.427   5.608   0.875
 4351SOL    HW213953   0.473   5.764   0.857
 4352SOL     OW13954   3.390   4.199   1.658
 4352SOL    HW113955   3.369   4.148   1.741
 4352SOL    HW213956   3.460   4.267   1.677
 4353SOL     OW13957   2.341   3.909   0.091
 4353SOL    HW113958   2.274   3.978   0.120
 4353SOL    HW213959   2.385   3.939   0.007
 4354SOL     OW13960   5.207   5.223   2.108
 4354SOL    HW113961   5.247   5.305   2.147
 4354SOL    HW213962   5.115   5.210   2.145
 4355SOL     OW13963   1.736   4.976   3.441
 4355SOL    HW113964   1.775   4.884   3.434
 4355SOL    HW213965   1.803   5.044   3.412
 4356SOL     OW13966   5.924   2.060   5.720
 4356SOL    HW113967   5.961   2.014   5.640
 4356SOL    HW213968   5.961   2.152   5.726
 4357SOL     OW13969   5.105   5.730   2.811
 4357SOL    HW113970   5.142   5.648   2.855
 4357SOL    HW213971   5.130   5.811   2.864
 4358SOL     OW13972   2.768   0.419   1.172
 4358SOL    HW113973   2.671   0.426   1.193
 4358SOL    HW213974   2.809   0.348   1.229
 4359SOL     OW13975   2.528   2.273   1.076
 4359SOL    HW113976   2.529   2.275   0.976
 4359SOL    HW213977   2.613   2.233   1.110
 4360SOL     OW13978   3.033   5.948   3.741
 4360SOL    HW113979   3.053   5.977   3.647
 4360SOL    HW213980   2.952   5.995   3.775
 4361SOL     OW13981   1.604   1.420   6.896
 4361SOL    HW113982   1.618   1.516   6.870
 4361SOL    HW213983   1.533   1.380   6.838
 4362SOL     OW13984   0.240   5.812   2.606
 4362SOL    HW113985   0.171   5.746   2.579
 4362SOL    HW213986   0.211   5.859   2.689
 4363SOL     OW13987   3.865   0.617   2.194
 4363SOL    HW113988   3.772   0.598   2.162
 4363SOL    HW213989   3.903   0.692   2.141
 4364SOL     OW13990   3.140   3.981   3.202
 4364SOL    HW113991   3.213   4.008   3.138
 4364SOL    HW213992   3.157   4.022   3.291
 4365SOL     OW13993   2.580   1.358   0.795
 4365SOL    HW113994   2.594   1.425   0.868
 4365SOL    HW213995   2.552   1.406   0.711
 4366SOL     OW13996   5.206   5.865   4.851
 4366SOL    HW113997   5.270   5.817   4.791
 4366SOL    HW213998   5.114   5.860   4.813
 4367SOL     OW13999   2.305   6.726   1.966
 4367SOL    HW114000   2.334   6.640   1.925
 4367SOL    HW214001   2.323   6.723   2.064
 4368SOL     OW14002   4.713   4.331   4.344
 4368SOL    HW114003   4.739   4.279   4.426
 4368SOL    HW214004   4.717   4.429   4.363
 4369SOL     OW14005   5.995   4.385   3.636
 4369SOL    HW114006   6.061   4.331   3.586
 4369SOL    HW214007   5.903   4.347   3.623
 4370SOL     OW14008   4.775   4.695   0.771
 4370SOL    HW114009   4.874   4.685   0.772
 4370SOL    HW214010   4.733   4.614   0.812
 4371SOL     OW14011   3.652   1.294   3.209
 4371SOL    HW114012   3.665   1.380   3.159
 4371SOL    HW214013   3.693   1.301   3.299
 4372SOL     OW14014   1.904   4.515   4.900
 4372SOL    HW114015   1.948   4.593   4.944
 4372SOL    HW214016   1.844   4.548   4.827
 4373SOL     OW14017   4.462   0.364   0.554
 4373SOL    HW114018   4.460   0.464   0.561
 4373SOL    HW214019   4.409   0.336   0.473
 4374SOL     OW14020   2.430   6.099   0.620
 4374SOL    HW114021   2.342   6.147   0.624
 4374SOL    HW214022   2.474   6.102   0.709
 4375SOL     OW14023   4.635   1.347   5.856
 4375SOL    HW114024   4.619   1.427   5.798
 4375SOL    HW214025   4.614   1.264   5.805
 4376SOL     OW14026   3.019   5.286   0.012
 4376SOL    HW114027   2.926   5.258   7.008
 4376SOL    HW214028   3.065   5.212   0.061
 4377SOL     OW14029   5.347   5.834   6.267
 4377SOL    HW114030   5.301   5.915   6.302
 4377SOL    HW214031   5.345   5.762   6.336
 4378SOL     OW14032   3.264   5.042   1.606
 4378SOL    HW114033   3.253   5.138   1.581
 4378SOL    HW214034   3.355   5.028   1.645
 4379SOL     OW14035   6.587   6.308   0.602
 4379SOL    HW114036   6.505   6.305   0.659
 4379SOL    HW214037   6.588   6.228   0.542
 4380SOL     OW14038   1.996   5.470   4.811
 4380SOL    HW114039   2.001   5.563   4.845
 4380SOL    HW214040   2.019   5.469   4.713
 4381SOL     OW14041   3.580   5.916   4.698
 4381SOL    HW114042   3.523   5.979   4.646
 4381SOL    HW214043   3.676   5.932   4.675
 4382SOL     OW14044   5.297   4.445   2.587
 4382SOL    HW114045   5.353   4.480   2.662
 4382SOL    HW214046   5.219   4.505   2.572
 4383SOL     OW14047   1.295   0.588   0.690
 4383SOL    HW114048   1.275   0.664   0.629
 4383SOL    HW214049   1.252   0.504   0.655
 4384SOL     OW14050   4.082   0.310   2.087
 4384SOL    HW114051   4.008   0.306   2.020
 4384SOL    HW214052   4.057   0.258   2.168
 4385SOL     OW14053   6.481   2.759   3.890
 4385SOL    HW114054   6.536   2.715   3.819
 4385SOL    HW214055   6.426   2.691   3.936
 4386SOL     OW14056   1.644   4.967   6.704
 4386SOL    HW114057   1.626   4.915   6.621
 4386SOL    HW214058   1.737   4.949   6.735
 4387SOL     OW14059   6.147   1.985   1.287
 4387SOL    HW114060   6.213   2.046   1.242
 4387SOL    HW214061   6.187   1.894   1.297
 4388SOL     OW14062   4.068   1.038   5.965
 4388SOL    HW114063   3.973   1.023   5.990
 4388SOL    HW214064   4.096   1.130   5.993
 4389SOL     OW14065   6.915   2.610   3.118
 4389SOL    HW114066   6.980   2.604   3.042
 4389SOL    HW214067   6.833   2.659   3.089
 4390SOL     OW14068   3.965   3.393   0.924
 4390SOL    HW114069   3.913   3.347   0.996
 4390SOL    HW214070   3.984   3.329   0.849
 4391SOL     OW14071   0.993   5.956   0.395
 4391SOL    HW114072   1.052   5.878   0.375
 4391SOL    HW214073   1.009   5.987   0.488
 4392SOL     OW14074   5.424   5.156   5.056
 4392SOL    HW114075   5.407   5.254   5.058
 4392SOL    HW214076   5.517   5.137   5.085
 4393SOL     OW14077   5.373   6.731   2.781
 4393SOL    HW114078   5.461   6.694   2.754
 4393SOL    HW214079   5.380   6.770   2.873
 4394SOL     OW14080   4.707   0.100   2.003
 4394SOL    HW114081   4.640   0.090   1.928
 4394SOL    HW214082   4.661   0.085   2.090
 4395SOL     OW14083   4.344   2.228   1.015
 4395SOL    HW114084   4.362   2.305   1.077
 4395SOL    HW214085   4.430   2.181   0.995
 4396SOL     OW14086   1.171   1.405   3.107
 4396SOL    HW114087   1.171   1.442   3.200
 4396SOL    HW214088   1.218   1.317   3.107
 4397SOL     OW14089   4.533   0.614   6.816
 4397SOL    HW114090   4.447   0.650   6.852
 4397SOL    HW214091   4.539   0.633   6.718
 4398SOL     OW14092   0.211   5.268   4.486
 4398SOL    HW114093   0.183   5.332   4.414
 4398SOL    HW214094   0.302   5.292   4.519
 4399SOL     OW14095   2.898   0.515   2.311
 4399SOL    HW114096   2.893   0.611   2.283
 4399SOL    HW214097   2.925   0.459   2.234
 4400SOL     OW14098   3.511   5.125   2.834
 4400SOL    HW114099   3.592   5.082   2.874
 4400SOL    HW214100   3.449   5.055   2.801
 4401SOL     OW14101   5.506   6.319   4.561
 4401SOL    HW114102   5.449   6.338   4.641
 4401SOL    HW214103   5.582   6.259   4.587
 4402SOL     OW14104   6.332   6.150   1.412
 4402SOL    HW114105   6.398   6.078   1.390
 4402SOL    HW214106   6.298   6.137   1.505
 4403SOL     OW14107   6.682   1.371   2.741
 4403SOL    HW114108   6.684   1.271   2.752
 4403SOL    HW214109   6.587   1.401   2.728
 4404SOL     OW14110   2.064   4.077   2.596
 4404SOL    HW114111   2.060   4.148   2.526
 4404SOL    HW214112   2.024   3.992   2.561
 4405SOL     OW14113   2.749   3.695   6.089
 4405SOL    HW114114   2.720   3.753   6.014
 4405SOL    HW214115   2.845   3.670   6.077
 4406SOL     OW14116   6.192   2.869   2.161
 4406SOL    HW114117   6.286   2.894   2.139
 4406SOL    HW214118   6.139   2.859   2.077
 4407SOL     OW14119   1.139   0.921   0.080
 4407SOL    HW114120   1.140   0.986   0.004
 4407SOL    HW214121   1.153   0.828   0.045
 4408SOL     OW14122   3.840   6.458   1.235
 4408SOL    HW114123   3.858   6.486   1.329
 4408SOL    HW214124   3.865   6.362   1.223
 4409SOL     OW14125   3.409   2.149   2.644
 4409SOL    HW114126   3.468   2.129   2.565
 4409SOL    HW214127   3.315   2.164   2.613
 4410SOL     OW14128   1.939   5.823   1.656
 4410SOL    HW114129   1.996   5.759   1.604
 4410SOL    HW214130   1.863   5.854   1.598
 4411SOL     OW14131   4.125   3.283   2.263
 4411SOL    HW114132   4.058   3.339   2.311
 4411SOL    HW214133   4.141   3.320   2.172
 4412SOL     OW14134   4.074   1.307   6.066
 4412SOL    HW114135   4.076   1.406   6.056
 4412SOL    HW214136   4.138   1.279   6.138
 4413SOL     OW14137   4.195   5.493   3.966
 4413SOL    HW114138   4.261   5.420   3.981
 4413SOL    HW214139   4.243   5.579   3.948
 4414SOL     OW14140   3.417   4.935   2.041
 4414SOL    HW114141   3.453   5.028   2.035
 4414SOL    HW214142   3.488   4.870   2.013
 4415SOL     OW14143   4.708   1.683   1.609
 4415SOL    HW114144   4.646   1.761   1.616
 4415SOL    HW214145   4.681   1.624   1.532
 4416SOL     OW14146   2.624   1.999   4.236
 4416SOL    HW114147   2.580   2.076   4.282
 4416SOL    HW214148   2.690   2.034   4.169
 4417SOL     OW14149   6.194   6.711   1.103
 4417SOL    HW114150   6.272   6.772   1.098
 4417SOL    HW214151   6.109   6.764   1.100
 4418SOL     OW14152   5.035   0.715   3.198
 4418SOL    HW114153   4.955   0.661   3.171
 4418SOL    HW214154   5.015   0.760   3.286
 4419SOL     OW14155   6.036   5.615   6.197
 4419SOL    HW114156   5.989   5.540   6.151
 4419SOL    HW214157   6.019   5.701   6.148
 4420SOL     OW14158   5.075   1.049   0.890
 4420SOL    HW114159   5.145   1.112   0.925
 4420SOL    HW214160   5.067   1.060   0.791
 4421SOL     OW14161   0.308   1.374   3.206
 4421SOL    HW114162   0.330   1.298   3.267
 4421SOL    HW214163   0.209   1.382   3.196
 4422SOL     OW14164   1.791   3.999   5.913
 4422SOL    HW114165   1.821   4.094   5.897
 4422SOL    HW214166   1.757   3.960   5.828
 4423SOL     OW14167   6.887   1.862   5.866
 4423SOL    HW114168   6.811   1.925   5.846
 4423SOL    HW214169   6.955   1.909   5.922
 4424SOL     OW14170   1.798   5.440   3.645
 4424SOL    HW114171   1.893   5.442   3.676
 4424SOL    HW214172   1.737   5.425   3.723
 4425SOL     OW14173   4.791   3.691   1.674
 4425SOL    HW114174   4.873   3.744   1.651
 4425SOL    HW214175   4.818   3.611   1.728
 4426SOL     OW14176   0.467   0.155   6.888
 4426SOL    HW114177   0.562   0.184   6.874
 4426SOL    HW214178   0.458   0.059   6.863
 4427SOL     OW14179   1.060   5.802   3.765
 4427SOL    HW114180   1.158   5.799   3.745
 4427SOL    HW214181   1.018   5.713   3.746
 4428SOL     OW14182   1.086   6.393   2.973
 4428SOL    HW114183   1.081   6.342   3.059
 4428SOL    HW214184   1.172   6.374   2.927
 4429SOL     OW14185   2.846   0.630   2.985
 4429SOL    HW114186   2.937   0.644   2.945
 4429SOL    HW214187   2.826   0.532   2.988
 4430SOL     OW14188   2.037   0.752   1.911
 4430SOL    HW114189   1.977   0.742   1.990
 4430SOL    HW214190   2.038   0.667   1.859
 4431SOL     OW14191   2.193   2.395   3.448
 4431SOL    HW114192   2.291   2.408   3.462
 4431SOL    HW214193   2.176   2.300   3.418
 4432SOL     OW14194   2.991   3.243   4.268
 4432SOL    HW114195   3.029   3.163   4.221
 4432SOL    HW214196   3.056   3.319   4.262
 4433SOL     OW14197   6.595   0.571   2.534
 4433SOL    HW114198   6.656   0.525   2.599
 4433SOL    HW214199   6.594   0.669   2.554
 4434SOL     OW14200   5.747   2.092   5.264
 4434SOL    HW114201   5.833   2.121   5.308
 4434SOL    HW214202   5.705   2.171   5.218
 4435SOL     OW14203   3.650   3.231   2.015
 4435SOL    HW114204   3.663   3.195   2.108
 4435SOL    HW214205   3.592   3.311   2.017
 4436SOL     OW14206   5.690   0.355   0.155
 4436SOL    HW114207   5.719   0.426   0.219
 4436SOL    HW214208   5.643   0.397   0.078
 4437SOL     OW14209   3.335   0.065   6.065
 4437SOL    HW114210   3.278   0.032   5.990
 4437SOL    HW214211   3.393   0.140   6.033
 4438SOL     OW14212   4.089   2.710   6.975
 4438SOL    HW114213   4.187   2.689   6.973
 4438SOL    HW214214   4.068   2.780   6.907
 4439SOL     OW14215   1.456   4.479   2.640
 4439SOL    HW114216   1.512   4.560   2.655
 4439SOL    HW214217   1.492   4.402   2.693
 4440SOL     OW14218   6.575   1.209   0.584
 4440SOL    HW114219   6.513   1.213   0.663
 4440SOL    HW214220   6.522   1.212   0.500
 4441SOL     OW14221   6.698   0.210   3.530
 4441SOL    HW114222   6.695   0.177   3.624
 4441SOL    HW214223   6.794   0.221   3.502
 4442SOL     OW14224   1.697   5.794   2.254
 4442SOL    HW114225   1.601   5.818   2.242
 4442SOL    HW214226   1.705   5.729   2.330
 4443SOL     OW14227   2.438   1.148   0.903
 4443SOL    HW114228   2.516   1.207   0.879
 4443SOL    HW214229   2.471   1.069   0.954
 4444SOL     OW14230   5.022   1.494   3.349
 4444SOL    HW114231   4.998   1.589   3.332
 4444SOL    HW214232   4.942   1.436   3.335
 4445SOL     OW14233   0.895   0.924   6.091
 4445SOL    HW114234   0.962   0.932   6.018
 4445SOL    HW214235   0.910   0.996   6.159
 4446SOL     OW14236   5.961   4.930   3.796
 4446SOL    HW114237   5.911   4.954   3.879
 4446SOL    HW214238   6.029   4.860   3.818
 4447SOL     OW14239   4.827   3.833   5.226
 4447SOL    HW114240   4.832   3.794   5.134
 4447SOL    HW214241   4.799   3.762   5.291
 4448SOL     OW14242   2.566   3.439   6.760
 4448SOL    HW114243   2.550   3.446   6.662
 4448SOL    HW214244   2.561   3.531   6.801
 4449SOL     OW14245   0.355   1.030   5.712
 4449SOL    HW114246   0.392   1.123   5.709
 4449SOL    HW214247   0.322   1.005   5.622
 4450SOL     OW14248   3.703   3.621   2.945
 4450SOL    HW114249   3.746   3.556   3.007
 4450SOL    HW214250   3.669   3.699   2.997
 4451SOL     OW14251   0.370   4.470   1.049
 4451SOL    HW114252   0.405   4.563   1.047
 4451SOL    HW214253   0.406   4.419   0.971
 4452SOL     OW14254   6.883   2.940   6.264
 4452SOL    HW114255   6.783   2.943   6.273
 4452SOL    HW214256   6.906   2.907   6.172
 4453SOL     OW14257   5.368   0.909   0.576
 4453SOL    HW114258   5.379   1.008   0.575
 4453SOL    HW214259   5.341   0.878   0.667
 4454SOL     OW14260   5.430   2.808   1.639
 4454SOL    HW114261   5.516   2.757   1.639
 4454SOL    HW214262   5.437   2.884   1.574
 4455SOL     OW14263   4.144   2.142   2.923
 4455SOL    HW114264   4.048   2.164   2.938
 4455SOL    HW214265   4.178   2.193   2.843
 4456SOL     OW14266   0.304   5.768   2.261
 4456SOL    HW114267   0.240   5.835   2.297
 4456SOL    HW214268   0.363   5.811   2.193
 4457SOL     OW14269   4.256   2.356   6.992
 4457SOL    HW114270   4.189   2.349   6.918
 4457SOL    HW214271   4.338   2.305   6.967
 4458SOL     OW14272   4.227   1.666   1.139
 4458SOL    HW114273   4.222   1.762   1.168
 4458SOL    HW214274   4.279   1.614   1.206
 4459SOL     OW14275   5.983   6.103   5.549
 4459SOL    HW114276   6.020   6.111   5.642
 4459SOL    HW214277   6.058   6.105   5.483
 4460SOL     OW14278   1.407   1.502   0.182
 4460SOL    HW114279   1.380   1.408   0.163
 4460SOL    HW214280   1.330   1.552   0.222
 4461SOL     OW14281   1.880   6.607   3.040
 4461SOL    HW114282   1.956   6.546   3.063
 4461SOL    HW214283   1.910   6.674   2.973
 4462SOL     OW14284   6.961   4.040   0.526
 4462SOL    HW114285   6.967   3.961   0.587
 4462SOL    HW214286   6.893   4.104   0.561
 4463SOL     OW14287   0.931   4.468   6.543
 4463SOL    HW114288   0.969   4.505   6.628
 4463SOL    HW214289   1.005   4.439   6.483
 4464SOL     OW14290   6.446   2.677   6.813
 4464SOL    HW114291   6.502   2.742   6.866
 4464SOL    HW214292   6.414   2.604   6.874
 4465SOL     OW14293   6.331   5.126   0.923
 4465SOL    HW114294   6.247   5.079   0.951
 4465SOL    HW214295   6.410   5.083   0.966
 4466SOL     OW14296   0.100   2.857   3.239
 4466SOL    HW114297   0.042   2.883   3.161
 4466SOL    HW214298   0.139   2.938   3.281
 4467SOL     OW14299   1.260   0.548   3.894
 4467SOL    HW114300   1.297   0.528   3.985
 4467SOL    HW214301   1.314   0.499   3.825
 4468SOL     OW14302   1.625   2.164   0.534
 4468SOL    HW114303   1.624   2.231   0.460
 4468SOL    HW214304   1.661   2.077   0.500
 4469SOL     OW14305   4.798   6.905   0.862
 4469SOL    HW114306   4.864   6.904   0.786
 4469SOL    HW214307   4.806   6.992   0.911
 4470SOL     OW14308   4.961   4.559   1.822
 4470SOL    HW114309   4.871   4.587   1.791
 4470SOL    HW214310   5.008   4.509   1.749
 4471SOL     OW14311   6.023   2.754   1.696
 4471SOL    HW114312   6.004   2.706   1.781
 4471SOL    HW214313   6.096   2.708   1.646
 4472SOL     OW14314   2.376   5.079   1.417
 4472SOL    HW114315   2.423   4.991   1.425
 4472SOL    HW214316   2.418   5.144   1.480
 4473SOL     OW14317   6.687   0.651   0.015
 4473SOL    HW114318   6.770   0.704   0.030
 4473SOL    HW214319   6.671   0.641   6.936
 4474SOL     OW14320   6.252   0.926   4.351
 4474SOL    HW114321   6.156   0.955   4.359
 4474SOL    HW214322   6.309   0.983   4.411
 4475SOL     OW14323   1.433   3.011   0.551
 4475SOL    HW114324   1.356   3.024   0.613
 4475SOL    HW214325   1.507   2.963   0.599
 4476SOL     OW14326   4.315   6.599   3.025
 4476SOL    HW114327   4.343   6.584   3.119
 4476SOL    HW214328   4.256   6.523   2.995
 4477SOL     OW14329   1.722   2.661   0.939
 4477SOL    HW114330   1.801   2.719   0.961
 4477SOL    HW214331   1.750   2.589   0.876
 4478SOL     OW14332   1.471   5.074   1.064
 4478SOL    HW114333   1.391   5.039   1.015
 4478SOL    HW214334   1.450   5.081   1.161
 4479SOL     OW14335   1.444   0.299   6.138
 4479SOL    HW114336   1.398   0.245   6.068
 4479SOL    HW214337   1.386   0.304   6.220
 4480SOL     OW14338   0.033   4.152   3.227
 4480SOL    HW114339   0.094   4.073   3.217
 4480SOL    HW214340   6.967   4.135   3.177
 4481SOL     OW14341   0.507   0.776   4.125
 4481SOL    HW114342   0.599   0.802   4.096
 4481SOL    HW214343   0.454   0.857   4.147
 4482SOL     OW14344   1.274   3.948   2.669
 4482SOL    HW114345   1.335   4.009   2.718
 4482SOL    HW214346   1.276   3.857   2.712
 4483SOL     OW14347   5.563   3.390   0.522
 4483SOL    HW114348   5.566   3.472   0.464
 4483SOL    HW214349   5.632   3.325   0.490
 4484SOL     OW14350   3.568   3.375   6.663
 4484SOL    HW114351   3.487   3.433   6.649
 4484SOL    HW214352   3.540   3.279   6.671
 4485SOL     OW14353   4.815   0.033   6.330
 4485SOL    HW114354   4.829   6.976   6.267
 4485SOL    HW214355   4.721   0.029   6.366
 4486SOL     OW14356   6.349   3.599   3.746
 4486SOL    HW114357   6.286   3.676   3.760
 4486SOL    HW214358   6.337   3.563   3.654
 4487SOL     OW14359   2.891   3.073   5.597
 4487SOL    HW114360   2.807   3.070   5.543
 4487SOL    HW214361   2.920   3.168   5.607
 4488SOL     OW14362   6.803   2.085   6.277
 4488SOL    HW114363   6.764   1.996   6.302
 4488SOL    HW214364   6.734   2.139   6.228
 4489SOL     OW14365   1.251   1.012   2.352
 4489SOL    HW114366   1.252   0.969   2.442
 4489SOL    HW214367   1.232   0.943   2.282
 4490SOL     OW14368   6.734   2.117   4.238
 4490SOL    HW114369   6.827   2.120   4.199
 4490SOL    HW214370   6.723   2.033   4.289
 4491SOL     OW14371   2.066   4.329   2.485
 4491SOL    HW114372   2.004   4.383   2.542
 4491SOL    HW214373   2.084   4.379   2.400
 4492SOL     OW14374   4.882   4.130   6.410
 4492SOL    HW114375   4.790   4.166   6.399
 4492SOL    HW214376   4.883   4.033   6.386
 4493SOL     OW14377   6.191   4.206   3.542
 4493SOL    HW114378   6.152   4.145   3.473
 4493SOL    HW214379   6.262   4.263   3.500
 4494SOL     OW14380   5.824   1.938   2.357
 4494SOL    HW114381   5.908   1.896   2.392
 4494SOL    HW214382   5.832   2.038   2.362
 4495SOL     OW14383   5.051   5.986   1.642
 4495SOL    HW114384   5.148   6.003   1.626
 4495SOL    HW214385   5.008   6.070   1.676
 4496SOL     OW14386   6.187   3.420   5.928
 4496SOL    HW114387   6.146   3.505   5.896
 4496SOL    HW214388   6.268   3.441   5.983
 4497SOL     OW14389   6.595   5.709   0.892
 4497SOL    HW114390   6.610   5.807   0.879
 4497SOL    HW214391   6.513   5.681   0.842
 4498SOL     OW14392   0.738   4.494   6.315
 4498SOL    HW114393   0.671   4.420   6.322
 4498SOL    HW214394   0.799   4.491   6.394
 4499SOL     OW14395   5.201   3.379   6.914
 4499SOL    HW114396   5.153   3.394   7.001
 4499SOL    HW214397   5.196   3.462   6.859
 4500SOL     OW14398   3.828   3.776   2.628
 4500SOL    HW114399   3.800   3.738   2.540
 4500SOL    HW214400   3.870   3.704   2.684
 4501SOL     OW14401   1.372   4.727   4.850
 4501SOL    HW114402   1.377   4.794   4.925
 4501SOL    HW214403   1.345   4.638   4.886
 4502SOL     OW14404   5.495   2.583   0.160
 4502SOL    HW114405   5.563   2.644   0.201
 4502SOL    HW214406   5.453   2.527   0.231
 4503SOL     OW14407   1.236   3.401   2.710
 4503SOL    HW114408   1.307   3.401   2.639
 4503SOL    HW214409   1.271   3.446   2.792
 4504SOL     OW14410   4.424   2.491   4.472
 4504SOL    HW114411   4.387   2.465   4.383
 4504SOL    HW214412   4.360   2.466   4.544
 4505SOL     OW14413   1.907   5.202   0.806
 4505SOL    HW114414   1.922   5.279   0.868
 4505SOL    HW214415   1.864   5.127   0.857
 4506SOL     OW14416   3.795   0.405   5.989
 4506SOL    HW114417   3.888   0.431   5.964
 4506SOL    HW214418   3.731   0.475   5.955
 4507SOL     OW14419   6.308   3.487   2.390
 4507SOL    HW114420   6.313   3.434   2.306
 4507SOL    HW214421   6.214   3.519   2.404
 4508SOL     OW14422   1.885   3.991   0.337
 4508SOL    HW114423   1.833   4.055   0.392
 4508SOL    HW214424   1.822   3.928   0.290
 4509SOL     OW14425   0.606   2.290   2.897
 4509SOL    HW114426   0.705   2.289   2.914
 4509SOL    HW214427   0.577   2.200   2.864
 4510SOL     OW14428   2.940   6.378   6.024
 4510SOL    HW114429   2.860   6.327   5.992
 4510SOL    HW214430   2.995   6.319   6.083
 4511SOL     OW14431   7.016   1.926   6.948
 4511SOL    HW114432   6.963   1.975   6.879
 4511SOL    HW214433   6.954   1.896   0.002
 4512SOL     OW14434   2.433   3.995   6.867
 4512SOL    HW114435   2.422   4.094   6.876
 4512SOL    HW214436   2.517   3.975   6.817
 4513SOL     OW14437   6.061   1.392   2.644
 4513SOL    HW114438   6.024   1.484   2.630
 4513SOL    HW214439   6.055   1.368   2.740
 4514SOL     OW14440   2.831   0.427   5.830
 4514SOL    HW114441   2.809   0.331   5.820
 4514SOL    HW214442   2.759   0.483   5.789
 4515SOL     OW14443   6.885   4.981   0.073
 4515SOL    HW114444   6.833   5.066   0.085
 4515SOL    HW214445   6.978   4.994   0.107
 4516SOL     OW14446   0.562   0.112   3.548
 4516SOL    HW114447   0.627   0.169   3.598
 4516SOL    HW214448   0.504   0.171   3.490
 4517SOL     OW14449   2.693   0.805   0.228
 4517SOL    HW114450   2.780   0.850   0.244
 4517SOL    HW214451   2.644   0.851   0.154
 4518SOL     OW14452   1.545   6.697   3.899
 4518SOL    HW114453   1.609   6.732   3.966
 4518SOL    HW214454   1.452   6.701   3.936
 4519SOL     OW14455   6.399   2.178   5.193
 4519SOL    HW114456   6.303   2.199   5.213
 4519SOL    HW214457   6.408   2.150   5.098
 4520SOL     OW14458   6.813   3.539   2.939
 4520SOL    HW114459   6.898   3.507   2.981
 4520SOL    HW214460   6.736   3.485   2.974
 4521SOL     OW14461   5.297   1.307   6.416
 4521SOL    HW114462   5.380   1.297   6.471
 4521SOL    HW214463   5.321   1.337   6.324
 4522SOL     OW14464   5.810   6.644   3.160
 4522SOL    HW114465   5.792   6.706   3.083
 4522SOL    HW214466   5.760   6.559   3.146
 4523SOL     OW14467   4.804   2.679   5.461
 4523SOL    HW114468   4.786   2.695   5.558
 4523SOL    HW214469   4.818   2.767   5.414
 4524SOL     OW14470   6.189   0.302   5.088
 4524SOL    HW114471   6.273   0.345   5.122
 4524SOL    HW214472   6.168   0.338   4.998
 4525SOL     OW14473   6.550   1.079   4.160
 4525SOL    HW114474   6.614   1.156   4.158
 4525SOL    HW214475   6.577   1.016   4.233
 4526SOL     OW14476   3.189   1.452   1.631
 4526SOL    HW114477   3.228   1.402   1.708
 4526SOL    HW214478   3.261   1.474   1.565
 4527SOL     OW14479   4.277   6.514   4.213
 4527SOL    HW114480   4.267   6.597   4.157
 4527SOL    HW214481   4.319   6.442   4.159
 4528SOL     OW14482   4.792   0.279   6.298
 4528SOL    HW114483   4.694   0.291   6.317
 4528SOL    HW214484   4.821   0.188   6.326
 4529SOL     OW14485   3.417   6.913   4.032
 4529SOL    HW114486   3.398   6.904   3.934
 4529SOL    HW214487   3.513   6.893   4.049
 4530SOL     OW14488   0.100   2.443   4.313
 4530SOL    HW114489   0.113   2.486   4.224
 4530SOL    HW214490   0.100   2.514   4.384
 4531SOL     OW14491   0.784   3.734   4.103
 4531SOL    HW114492   0.828   3.773   4.022
 4531SOL    HW214493   0.690   3.767   4.109
 4532SOL     OW14494   0.542   2.064   0.548
 4532SOL    HW114495   0.454   2.107   0.567
 4532SOL    HW214496   0.614   2.115   0.597
 4533SOL     OW14497   3.393   6.161   2.373
 4533SOL    HW114498   3.345   6.228   2.317
 4533SOL    HW214499   3.424   6.085   2.316
 4534SOL     OW14500   6.989   4.439   5.914
 4534SOL    HW114501   6.986   4.431   5.815
 4534SOL    HW214502   0.021   4.361   5.952
 4535SOL     OW14503   4.946   2.443   3.116
 4535SOL    HW114504   4.938   2.394   3.029
 4535SOL    HW214505   4.869   2.419   3.175
 4536SOL     OW14506   6.975   0.479   3.762
 4536SOL    HW114507   6.893   0.534   3.777
 4536SOL    HW214508   6.973   0.398   3.820
 4537SOL     OW14509   4.526   3.573   6.349
 4537SOL    HW114510   4.573   3.487   6.370
 4537SOL    HW214511   4.440   3.553   6.303
 4538SOL     OW14512   3.687   2.347   1.560
 4538SOL    HW114513   3.659   2.257   1.526
 4538SOL    HW214514   3.689   2.346   1.660
 4539SOL     OW14515   2.348   2.415   1.901
 4539SOL    HW114516   2.383   2.509   1.894
 4539SOL    HW214517   2.335   2.392   1.997
 4540SOL     OW14518   3.787   2.905   5.180
 4540SOL    HW114519   3.694   2.875   5.158
 4540SOL    HW214520   3.831   2.837   5.238
 4541SOL     OW14521   5.945   1.026   1.723
 4541SOL    HW114522   5.934   1.042   1.625
 4541SOL    HW214523   6.034   1.060   1.753
 4542SOL     OW14524   5.200   6.635   3.127
 4542SOL    HW114525   5.163   6.641   3.034
 4542SOL    HW214526   5.216   6.728   3.162
 4543SOL     OW14527   5.968   2.915   2.329
 4543SOL    HW114528   5.919   3.002   2.330
 4543SOL    HW214529   6.033   2.914   2.253
 4544SOL     OW14530   5.296   5.272   6.240
 4544SOL    HW114531   5.340   5.276   6.151
 4544SOL    HW214532   5.365   5.273   6.312
 4545SOL     OW14533   3.821   4.184   6.184
 4545SOL    HW114534   3.753   4.241   6.229
 4545SOL    HW214535   3.775   4.123   6.119
 4546SOL     OW14536   0.458   6.131   6.959
 4546SOL    HW114537   0.416   6.221   6.963
 4546SOL    HW214538   0.397   6.068   6.910
 4547SOL     OW14539   4.631   1.512   2.258
 4547SOL    HW114540   4.601   1.455   2.334
 4547SOL    HW214541   4.592   1.476   2.173
 4548SOL     OW14542   0.865   3.487   4.200
 4548SOL    HW114543   0.827   3.565   4.151
 4548SOL    HW214544   0.962   3.504   4.220
 4549SOL     OW14545   5.510   1.636   2.811
 4549SOL    HW114546   5.454   1.711   2.846
 4549SOL    HW214547   5.547   1.661   2.722
 4550SOL     OW14548   2.385   5.571   4.704
 4550SOL    HW114549   2.322   5.578   4.626
 4550SOL    HW214550   2.333   5.562   4.789
 4551SOL     OW14551   6.779   3.495   0.811
 4551SOL    HW114552   6.841   3.439   0.757
 4551SOL    HW214553   6.733   3.562   0.752
 4552SOL     OW14554   6.755   3.038   4.336
 4552SOL    HW114555   6.709   2.950   4.350
 4552SOL    HW214556   6.788   3.044   4.243
 4553SOL     OW14557   5.223   4.952   6.315
 4553SOL    HW114558   5.187   4.912   6.231
 4553SOL    HW214559   5.305   4.903   6.343
 4554SOL     OW14560   6.514   6.946   3.777
 4554SOL    HW114561   6.575   0.005   3.793
 4554SOL    HW214562   6.459   6.930   3.859
 4555SOL     OW14563   3.924   3.232   6.918
 4555SOL    HW114564   3.837   3.267   6.884
 4555SOL    HW214565   3.908   3.173   6.996
 4556SOL     OW14566   4.759   0.113   5.158
 4556SOL    HW114567   4.790   0.168   5.081
 4556SOL    HW214568   4.716   0.172   5.226
 4557SOL     OW14569   5.458   1.263   4.626
 4557SOL    HW114570   5.484   1.340   4.568
 4557SOL    HW214571   5.514   1.263   4.709
 4558SOL     OW14572   6.603   3.045   6.161
 4558SOL    HW114573   6.661   3.124   6.141
 4558SOL    HW214574   6.517   3.076   6.202
 4559SOL     OW14575   1.000   6.395   1.768
 4559SOL    HW114576   1.010   6.454   1.848
 4559SOL    HW214577   0.939   6.319   1.790
 4560SOL     OW14578   5.659   2.691   2.608
 4560SOL    HW114579   5.751   2.730   2.611
 4560SOL    HW214580   5.655   2.611   2.668
 4561SOL     OW14581   3.663   6.753   6.533
 4561SOL    HW114582   3.612   6.776   6.616
 4561SOL    HW214583   3.606   6.772   6.453
 4562SOL     OW14584   2.507   4.278   5.751
 4562SOL    HW114585   2.469   4.337   5.822
 4562SOL    HW214586   2.537   4.333   5.674
 4563SOL     OW14587   6.041   2.073   6.408
 4563SOL    HW114588   6.080   2.165   6.417
 4563SOL    HW214589   5.941   2.079   6.415
 4564SOL     OW14590   0.944   4.815   0.063
 4564SOL    HW114591   0.861   4.777   0.102
 4564SOL    HW214592   1.024   4.769   0.103
 4565SOL     OW14593   2.533   1.266   3.837
 4565SOL    HW114594   2.449   1.233   3.796
 4565SOL    HW214595   2.523   1.268   3.937
 4566SOL     OW14596   1.556   0.962   0.970
 4566SOL    HW114597   1.533   0.939   1.065
 4566SOL    HW214598   1.636   0.910   0.941
 4567SOL     OW14599   5.689   1.721   0.748
 4567SOL    HW114600   5.761   1.772   0.794
 4567SOL    HW214601   5.601   1.743   0.788
 4568SOL     OW14602   4.319   4.719   3.968
 4568SOL    HW114603   4.276   4.632   3.946
 4568SOL    HW214604   4.418   4.710   3.962
 4569SOL     OW14605   0.880   1.896   3.016
 4569SOL    HW114606   0.878   1.865   2.921
 4569SOL    HW214607   0.910   1.822   3.075
 4570SOL     OW14608   5.641   5.750   4.534
 4570SOL    HW114609   5.725   5.755   4.588
 4570SOL    HW214610   5.625   5.839   4.490
 4571SOL     OW14611   3.926   3.036   4.094
 4571SOL    HW114612   3.832   3.006   4.110
 4571SOL    HW214613   3.957   3.090   4.172
 4572SOL     OW14614   2.077   5.689   1.478
 4572SOL    HW114615   2.167   5.705   1.436
 4572SOL    HW214616   2.043   5.599   1.450
 4573SOL     OW14617   5.342   0.567   1.062
 4573SOL    HW114618   5.302   0.475   1.066
 4573SOL    HW214619   5.269   0.635   1.063
 4574SOL     OW14620   6.971   4.616   1.361
 4574SOL    HW114621   6.985   4.565   1.276
 4574SOL    HW214622   6.908   4.692   1.344
 4575SOL     OW14623   6.218   6.210   2.026
 4575SOL    HW114624   6.247   6.212   2.122
 4575SOL    HW214625   6.120   6.228   2.021
 4576SOL     OW14626   3.108   6.363   3.968
 4576SOL    HW114627   3.120   6.302   4.047
 4576SOL    HW214628   3.019   6.407   3.974
 4577SOL     OW14629   1.747   2.994   3.942
 4577SOL    HW114630   1.713   2.911   3.898
 4577SOL    HW214631   1.792   3.052   3.874
 4578SOL     OW14632   6.821   5.904   4.048
 4578SOL    HW114633   6.848   5.985   3.995
 4578SOL    HW214634   6.891   5.834   4.039
 4579SOL     OW14635   5.207   2.274   3.830
 4579SOL    HW114636   5.197   2.223   3.745
 4579SOL    HW214637   5.257   2.358   3.814
 4580SOL     OW14638   0.529   5.317   0.091
 4580SOL    HW114639   0.459   5.247   0.104
 4580SOL    HW214640   0.492   5.391   0.034
 4581SOL     OW14641   3.182   6.229   4.915
 4581SOL    HW114642   3.215   6.144   4.875
 4581SOL    HW214643   3.085   6.219   4.937
 4582SOL     OW14644   4.906   6.846   3.178
 4582SOL    HW114645   4.894   6.907   3.256
 4582SOL    HW214646   5.004   6.836   3.158
 4583SOL     OW14647   3.753   0.530   5.294
 4583SOL    HW114648   3.837   0.574   5.324
 4583SOL    HW214649   3.676   0.564   5.347
 4584SOL     OW14650   0.486   4.766   6.006
 4584SOL    HW114651   0.478   4.684   5.949
 4584SOL    HW214652   0.510   4.844   5.948
 4585SOL     OW14653   3.288   6.308   2.166
 4585SOL    HW114654   3.200   6.319   2.121
 4585SOL    HW214655   3.359   6.352   2.111
 4586SOL     OW14656   2.975   6.088   1.479
 4586SOL    HW114657   2.949   6.000   1.440
 4586SOL    HW214658   3.034   6.137   1.414
 4587SOL     OW14659   3.352   5.102   0.833
 4587SOL    HW114660   3.387   5.036   0.767
 4587SOL    HW214661   3.266   5.140   0.800
 4588SOL     OW14662   3.246   4.105   4.884
 4588SOL    HW114663   3.317   4.176   4.883
 4588SOL    HW214664   3.181   4.126   4.957
 4589SOL     OW14665   1.487   1.856   3.233
 4589SOL    HW114666   1.455   1.911   3.155
 4589SOL    HW214667   1.571   1.809   3.209
 4590SOL     OW14668   4.038   6.415   3.354
 4590SOL    HW114669   3.970   6.356   3.399
 4590SOL    HW214670   4.129   6.390   3.386
 4591SOL     OW14671   5.844   6.174   4.995
 4591SOL    HW114672   5.746   6.178   4.977
 4591SOL    HW214673   5.861   6.186   5.093
 4592SOL     OW14674   3.600   1.377   5.613
 4592SOL    HW114675   3.534   1.382   5.688
 4592SOL    HW214676   3.567   1.433   5.536
 4593SOL     OW14677   5.191   6.703   1.795
 4593SOL    HW114678   5.214   6.610   1.763
 4593SOL    HW214679   5.168   6.700   1.892
 4594SOL     OW14680   3.898   1.764   2.371
 4594SOL    HW114681   3.998   1.763   2.365
 4594SOL    HW214682   3.869   1.711   2.451
 4595SOL     OW14683   4.487   3.180   5.814
 4595SOL    HW114684   4.548   3.258   5.799
 4595SOL    HW214685   4.393   3.213   5.821
 4596SOL     OW14686   4.941   0.095   2.572
 4596SOL    HW114687   5.034   0.068   2.598
 4596SOL    HW214688   4.903   0.154   2.644
 4597SOL     OW14689   6.372   3.939   5.595
 4597SOL    HW114690   6.451   3.974   5.644
 4597SOL    HW214691   6.356   3.994   5.513
 4598SOL     OW14692   2.779   4.115   0.026
 4598SOL    HW114693   2.804   4.062   0.107
 4598SOL    HW214694   2.782   4.056   6.964
 4599SOL     OW14695   3.141   5.472   0.200
 4599SOL    HW114696   3.223   5.429   0.237
 4599SOL    HW214697   3.090   5.405   0.146
 4600SOL     OW14698   3.018   3.931   1.115
 4600SOL    HW114699   3.058   3.853   1.067
 4600SOL    HW214700   3.087   3.971   1.176
 4601SOL     OW14701   1.791   5.113   4.169
 4601SOL    HW114702   1.730   5.048   4.124
 4601SOL    HW214703   1.872   5.129   4.112
 4602SOL     OW14704   1.672   0.083   1.375
 4602SOL    HW114705   1.642   0.001   1.424
 4602SOL    HW214706   1.602   0.154   1.384
 4603SOL     OW14707   2.868   1.253   1.966
 4603SOL    HW114708   2.830   1.323   1.905
 4603SOL    HW214709   2.934   1.294   2.028
 4604SOL     OW14710   1.247   0.471   2.776
 4604SOL    HW114711   1.150   0.496   2.784
 4604SOL    HW214712   1.272   0.410   2.851
 4605SOL     OW14713   5.359   5.927   5.549
 4605SOL    HW114714   5.291   5.864   5.585
 4605SOL    HW214715   5.394   5.892   5.462
 4606SOL     OW14716   6.434   6.402   4.488
 4606SOL    HW114717   6.439   6.302   4.490
 4606SOL    HW214718   6.449   6.438   4.580
 4607SOL     OW14719   2.517   2.983   0.919
 4607SOL    HW114720   2.578   2.918   0.873
 4607SOL    HW214721   2.564   3.071   0.929
 4608SOL     OW14722   1.111   3.378   5.511
 4608SOL    HW114723   1.070   3.402   5.423
 4608SOL    HW214724   1.091   3.282   5.531
 4609SOL     OW14725   3.154   0.288   1.141
 4609SOL    HW114726   3.122   0.243   1.058
 4609SOL    HW214727   3.159   0.386   1.127
 4610SOL     OW14728   6.756   3.278   6.445
 4610SOL    HW114729   6.749   3.283   6.346
 4610SOL    HW214730   6.841   3.233   6.470
 4611SOL     OW14731   1.661   4.352   0.018
 4611SOL    HW114732   1.638   4.285   0.088
 4611SOL    HW214733   1.585   4.417   0.008
 4612SOL     OW14734   2.201   0.445   6.190
 4612SOL    HW114735   2.200   0.537   6.228
 4612SOL    HW214736   2.213   0.379   6.264
 4613SOL     OW14737   3.330   4.665   1.663
 4613SOL    HW114738   3.397   4.656   1.737
 4613SOL    HW214739   3.371   4.716   1.587
 4614SOL     OW14740   2.257   4.858   6.728
 4614SOL    HW114741   2.195   4.937   6.722
 4614SOL    HW214742   2.293   4.852   6.821
 4615SOL     OW14743   6.375   3.120   6.308
 4615SOL    HW114744   6.319   3.039   6.290
 4615SOL    HW214745   6.327   3.179   6.373
 4616SOL     OW14746   5.664   0.744   6.774
 4616SOL    HW114747   5.764   0.757   6.777
 4616SOL    HW214748   5.641   0.680   6.701
 4617SOL     OW14749   6.669   3.584   1.821
 4617SOL    HW114750   6.624   3.500   1.792
 4617SOL    HW214751   6.630   3.661   1.771
 4618SOL     OW14752   0.463   2.853   6.717
 4618SOL    HW114753   0.418   2.941   6.735
 4618SOL    HW214754   0.561   2.862   6.734
 4619SOL     OW14755   4.187   0.219   3.782
 4619SOL    HW114756   4.092   0.240   3.759
 4619SOL    HW214757   4.234   0.183   3.702
 4620SOL     OW14758   2.564   6.073   0.237
 4620SOL    HW114759   2.657   6.043   0.258
 4620SOL    HW214760   2.564   6.131   0.156
 4621SOL     OW14761   0.048   0.563   6.153
 4621SOL    HW114762   0.009   0.585   6.242
 4621SOL    HW214763   0.148   0.563   6.160
 4622SOL     OW14764   1.773   4.118   0.617
 4622SOL    HW114765   1.766   4.216   0.601
 4622SOL    HW214766   1.798   4.101   0.712
 4623SOL     OW14767   5.680   4.214   2.638
 4623SOL    HW114768   5.769   4.239   2.677
 4623SOL    HW214769   5.685   4.218   2.539
 4624SOL     OW14770   4.879   0.018   5.969
 4624SOL    HW114771   4.920   0.105   5.997
 4624SOL    HW214772   4.799   0.036   5.912
 4625SOL     OW14773   1.427   4.070   6.219
 4625SOL    HW114774   1.506   4.125   6.248
 4625SOL    HW214775   1.447   4.028   6.131
 4626SOL     OW14776   5.414   4.856   1.913
 4626SOL    HW114777   5.386   4.919   1.841
 4626SOL    HW214778   5.426   4.765   1.874
 4627SOL     OW14779   1.448   6.959   5.550
 4627SOL    HW114780   1.527   6.961   5.611
 4627SOL    HW214781   1.431   0.031   5.512
 4628SOL     OW14782   6.327   2.764   1.763
 4628SOL    HW114783   6.422   2.791   1.746
 4628SOL    HW214784   6.296   2.703   1.690
 4629SOL     OW14785   4.320   5.190   4.256
 4629SOL    HW114786   4.366   5.279   4.249
 4629SOL    HW214787   4.373   5.121   4.206
 4630SOL     OW14788   2.095   6.161   2.449
 4630SOL    HW114789   2.050   6.082   2.407
 4630SOL    HW214790   2.091   6.153   2.549
 4631SOL     OW14791   1.741   0.219   3.268
 4631SOL    HW114792   1.746   0.137   3.326
 4631SOL    HW214793   1.827   0.229   3.218
 4632SOL     OW14794   5.595   6.012   3.834
 4632SOL    HW114795   5.514   5.966   3.797
 4632SOL    HW214796   5.580   6.110   3.837
 4633SOL     OW14797   5.212   2.448   5.547
 4633SOL    HW114798   5.157   2.412   5.622
 4633SOL    HW214799   5.198   2.546   5.538
 4634SOL     OW14800   2.816   4.369   0.247
 4634SOL    HW114801   2.722   4.337   0.243
 4634SOL    HW214802   2.877   4.291   0.262
 4635SOL     OW14803   5.083   3.267   1.450
 4635SOL    HW114804   5.025   3.341   1.482
 4635SOL    HW214805   5.081   3.192   1.517
 4636SOL     OW14806   0.602   5.967   1.661
 4636SOL    HW114807   0.584   6.058   1.624
 4636SOL    HW214808   0.685   5.970   1.716
 4637SOL     OW14809   1.404   0.892   4.584
 4637SOL    HW114810   1.330   0.951   4.616
 4637SOL    HW214811   1.378   0.796   4.593
 4638SOL     OW14812   4.263   4.797   5.481
 4638SOL    HW114813   4.360   4.796   5.456
 4638SOL    HW214814   4.207   4.789   5.398
 4639SOL     OW14815   6.736   1.858   5.165
 4639SOL    HW114816   6.795   1.869   5.085
 4639SOL    HW214817   6.791   1.867   5.248
 4640SOL     OW14818   6.030   5.171   2.927
 4640SOL    HW114819   5.977   5.148   2.846
 4640SOL    HW214820   6.083   5.091   2.957
 4641SOL     OW14821   2.779   3.359   5.356
 4641SOL    HW114822   2.679   3.368   5.361
 4641SOL    HW214823   2.803   3.268   5.324
 4642SOL     OW14824   5.940   6.057   3.916
 4642SOL    HW114825   5.897   6.010   3.993
 4642SOL    HW214826   5.892   6.034   3.832
 4643SOL     OW14827   4.236   3.288   1.151
 4643SOL    HW114828   4.256   3.198   1.114
 4643SOL    HW214829   4.148   3.286   1.198
 4644SOL     OW14830   3.719   4.297   5.510
 4644SOL    HW114831   3.693   4.301   5.413
 4644SOL    HW214832   3.645   4.332   5.566
 4645SOL     OW14833   1.780   6.048   4.880
 4645SOL    HW114834   1.685   6.071   4.858
 4645SOL    HW214835   1.830   6.029   4.796
 4646SOL     OW14836   3.493   0.253   1.209
 4646SOL    HW114837   3.478   0.156   1.229
 4646SOL    HW214838   3.418   0.288   1.153
 4647SOL     OW14839   6.612   0.723   5.336
 4647SOL    HW114840   6.562   0.773   5.407
 4647SOL    HW214841   6.695   0.685   5.376
 4648SOL     OW14842   2.079   5.809   3.591
 4648SOL    HW114843   2.145   5.774   3.524
 4648SOL    HW214844   2.114   5.793   3.684
 4649SOL     OW14845   5.880   6.561   5.743
 4649SOL    HW114846   5.929   6.648   5.736
 4649SOL    HW214847   5.788   6.571   5.707
 4650SOL     OW14848   6.819   4.296   1.059
 4650SOL    HW114849   6.820   4.251   1.149
 4650SOL    HW214850   6.729   4.335   1.043
 4651SOL     OW14851   5.930   2.132   1.755
 4651SOL    HW114852   5.838   2.124   1.794
 4651SOL    HW214853   5.988   2.186   1.815
 4652SOL     OW14854   0.299   6.713   5.854
 4652SOL    HW114855   0.380   6.658   5.834
 4652SOL    HW214856   0.222   6.652   5.875
 4653SOL     OW14857   0.394   4.788   6.863
 4653SOL    HW114858   0.485   4.827   6.882
 4653SOL    HW214859   0.405   4.704   6.810
 4654SOL     OW14860   1.349   1.953   6.520
 4654SOL    HW114861   1.268   1.976   6.466
 4654SOL    HW214862   1.363   1.854   6.518
 4655SOL     OW14863   0.036   5.223   3.500
 4655SOL    HW114864   0.003   5.191   3.589
 4655SOL    HW214865   0.075   5.146   3.449
 4656SOL     OW14866   2.382   6.384   3.301
 4656SOL    HW114867   2.348   6.471   3.263
 4656SOL    HW214868   2.315   6.312   3.284
 4657SOL     OW14869   6.031   0.866   6.097
 4657SOL    HW114870   6.009   0.960   6.069
 4657SOL    HW214871   6.025   0.806   6.018
 4658SOL     OW14872   4.728   0.856   3.993
 4658SOL    HW114873   4.710   0.767   3.952
 4658SOL    HW214874   4.677   0.865   4.078
 4659SOL     OW14875   1.627   2.421   4.254
 4659SOL    HW114876   1.651   2.356   4.327
 4659SOL    HW214877   1.697   2.492   4.247
 4660SOL     OW14878   6.445   1.444   5.181
 4660SOL    HW114879   6.382   1.412   5.110
 4660SOL    HW214880   6.464   1.541   5.169
 4661SOL     OW14881   3.696   2.898   3.080
 4661SOL    HW114882   3.787   2.938   3.066
 4661SOL    HW214883   3.677   2.893   3.178
 4662SOL     OW14884   5.776   6.996   3.833
 4662SOL    HW114885   5.838   6.962   3.762
 4662SOL    HW214886   5.783   0.077   3.838
 4663SOL     OW14887   0.585   2.949   2.161
 4663SOL    HW114888   0.651   3.007   2.112
 4663SOL    HW214889   0.509   2.929   2.100
 4664SOL     OW14890   3.191   4.108   0.511
 4664SOL    HW114891   3.132   4.033   0.480
 4664SOL    HW214892   3.286   4.083   0.498
 4665SOL     OW14893   5.679   0.687   6.086
 4665SOL    HW114894   5.687   0.588   6.096
 4665SOL    HW214895   5.770   0.728   6.089
 4666SOL     OW14896   1.725   1.821   0.663
 4666SOL    HW114897   1.790   1.812   0.738
 4666SOL    HW214898   1.759   1.889   0.598
 4667SOL     OW14899   0.820   5.539   4.107
 4667SOL    HW114900   0.761   5.586   4.172
 4667SOL    HW214901   0.799   5.441   4.108
 4668SOL     OW14902   5.343   0.361   5.570
 4668SOL    HW114903   5.369   0.452   5.539
 4668SOL    HW214904   5.245   0.347   5.553
 4669SOL     OW14905   2.113   1.634   2.374
 4669SOL    HW114906   2.108   1.547   2.325
 4669SOL    HW214907   2.028   1.650   2.424
 4670SOL     OW14908   2.476   1.255   4.124
 4670SOL    HW114909   2.539   1.314   4.175
 4670SOL    HW214910   2.385   1.297   4.122
 4671SOL     OW14911   6.163   2.131   2.286
 4671SOL    HW114912   6.202   2.127   2.378
 4671SOL    HW214913   6.168   2.225   2.251
 4672SOL     OW14914   2.686   2.854   5.361
 4672SOL    HW114915   2.634   2.897   5.288
 4672SOL    HW214916   2.782   2.882   5.356
 4673SOL     OW14917   4.721   0.582   2.320
 4673SOL    HW114918   4.661   0.554   2.245
 4673SOL    HW214919   4.817   0.574   2.291
 4674SOL     OW14920   4.669   6.629   5.083
 4674SOL    HW114921   4.727   6.709   5.094
 4674SOL    HW214922   4.667   6.577   5.168
 4675SOL     OW14923   1.214   4.694   0.031
 4675SOL    HW114924   1.239   4.680   6.955
 4675SOL    HW214925   1.252   4.781   0.063
 4676SOL     OW14926   0.949   4.442   4.071
 4676SOL    HW114927   0.996   4.527   4.045
 4676SOL    HW214928   0.852   4.462   4.089
 4677SOL     OW14929   1.475   3.250   0.409
 4677SOL    HW114930   1.454   3.164   0.455
 4677SOL    HW214931   1.476   3.236   0.310
 4678SOL     OW14932   0.929   3.737   1.394
 4678SOL    HW114933   0.943   3.831   1.425
 4678SOL    HW214934   0.866   3.737   1.316
 4679SOL     OW14935   4.384   0.077   2.087
 4679SOL    HW114936   4.423   0.096   2.177
 4679SOL    HW214937   4.300   0.024   2.097
 4680SOL     OW14938   1.849   0.630   6.697
 4680SOL    HW114939   1.912   0.708   6.699
 4680SOL    HW214940   1.868   0.575   6.615
 4681SOL     OW14941   5.039   5.705   2.514
 4681SOL    HW114942   4.984   5.731   2.594
 4681SOL    HW214943   4.993   5.736   2.431
 4682SOL     OW14944   3.398   3.764   6.119
 4682SOL    HW114945   3.478   3.707   6.098
 4682SOL    HW214946   3.401   3.791   6.215
 4683SOL     OW14947   6.521   4.815   3.790
 4683SOL    HW114948   6.528   4.913   3.808
 4683SOL    HW214949   6.605   4.784   3.746
 4684SOL     OW14950   5.438   7.007   5.783
 4684SOL    HW114951   5.459   6.946   5.859
 4684SOL    HW214952   5.515   7.011   5.720
 4685SOL     OW14953   2.968   3.248   4.543
 4685SOL    HW114954   2.921   3.331   4.574
 4685SOL    HW214955   2.966   3.244   4.444
 4686SOL     OW14956   1.607   0.101   0.036
 4686SOL    HW114957   1.637   0.007   0.055
 4686SOL    HW214958   1.574   0.107   6.961
 4687SOL     OW14959   1.670   0.611   2.581
 4687SOL    HW114960   1.581   0.635   2.542
 4687SOL    HW214961   1.661   0.525   2.632
 4688SOL     OW14962   4.974   2.712   5.105
 4688SOL    HW114963   5.045   2.688   5.039
 4688SOL    HW214964   5.001   2.796   5.153
 4689SOL     OW14965   6.963   1.365   0.976
 4689SOL    HW114966   0.031   1.368   0.927
 4689SOL    HW214967   6.887   1.366   0.910
 4690SOL     OW14968   2.988   2.790   1.036
 4690SOL    HW114969   3.055   2.766   0.965
 4690SOL    HW214970   2.940   2.707   1.065
 4691SOL     OW14971   6.347   3.458   1.722
 4691SOL    HW114972   6.307   3.408   1.645
 4691SOL    HW214973   6.374   3.550   1.691
 4692SOL     OW14974   4.989   2.964   2.421
 4692SOL    HW114975   4.920   2.957   2.348
 4692SOL    HW214976   5.059   2.894   2.407
 4693SOL     OW14977   0.711   0.053   2.626
 4693SOL    HW114978   0.649   0.072   2.550
 4693SOL    HW214979   0.779   7.005   2.597
 4694SOL     OW14980   2.035   0.033   6.030
 4694SOL    HW114981   2.000   0.126   6.038
 4694SOL    HW214982   1.959   6.987   6.032
 4695SOL     OW14983   2.091   4.468   2.246
 4695SOL    HW114984   2.009   4.470   2.190
 4695SOL    HW214985   2.118   4.562   2.269
 4696SOL     OW14986   1.578   6.513   6.294
 4696SOL    HW114987   1.514   6.437   6.303
 4696SOL    HW214988   1.661   6.482   6.249
 4697SOL     OW14989   4.525   5.258   1.539
 4697SOL    HW114990   4.560   5.167   1.563
 4697SOL    HW214991   4.459   5.249   1.464
 4698SOL     OW14992   5.655   0.918   4.810
 4698SOL    HW114993   5.743   0.882   4.777
 4698SOL    HW214994   5.648   1.015   4.787
 4699SOL     OW14995   0.810   0.718   2.471
 4699SOL    HW114996   0.828   0.734   2.374
 4699SOL    HW214997   0.867   0.778   2.526
 4700SOL     OW14998   6.189   1.661   2.990
 4700SOL    HW114999   6.182   1.738   3.054
 4700SOL    HW215000   6.221   1.694   2.901
 4701SOL     OW15001   2.975   2.450   1.678
 4701SOL    HW115002   2.941   2.429   1.770
 4701SOL    HW215003   2.966   2.548   1.661
 4702SOL     OW15004   5.942   5.099   0.401
 4702SOL    HW115005   6.007   5.159   0.355
 4702SOL    HW215006   5.869   5.154   0.442
 4703SOL     OW15007   0.603   5.331   4.202
 4703SOL    HW115008   0.643   5.355   4.290
 4703SOL    HW215009   0.519   5.384   4.189
 4704SOL     OW15010   1.791   4.697   4.373
 4704SOL    HW115011   1.780   4.630   4.298
 4704SOL    HW215012   1.887   4.703   4.398
 4705SOL     OW15013   3.373   2.108   1.953
 4705SOL    HW115014   3.457   2.158   1.973
 4705SOL    HW215015   3.352   2.116   1.855
 4706SOL     OW15016   2.208   1.235   1.017
 4706SOL    HW115017   2.293   1.222   0.966
 4706SOL    HW215018   2.178   1.148   1.055
 4707SOL     OW15019   1.287   5.629   2.113
 4707SOL    HW115020   1.363   5.677   2.158
 4707SOL    HW215021   1.268   5.672   2.024
 4708SOL     OW15022   1.982   3.192   6.016
 4708SOL    HW115023   2.056   3.219   5.955
 4708SOL    HW215024   2.013   3.198   6.111
 4709SOL     OW15025   5.543   4.205   5.466
 4709SOL    HW115026   5.497   4.130   5.420
 4709SOL    HW215027   5.502   4.219   5.556
 4710SOL     OW15028   6.482   5.632   5.139
 4710SOL    HW115029   6.494   5.543   5.094
 4710SOL    HW215030   6.416   5.623   5.214
 4711SOL     OW15031   5.198   4.022   2.446
 4711SOL    HW115032   5.128   3.973   2.394
 4711SOL    HW215033   5.248   4.084   2.385
 4712SOL     OW15034   3.670   4.103   5.910
 4712SOL    HW115035   3.722   4.186   5.892
 4712SOL    HW215036   3.699   4.031   5.846
 4713SOL     OW15037   5.746   4.322   0.826
 4713SOL    HW115038   5.749   4.222   0.821
 4713SOL    HW215039   5.798   4.361   0.750
 4714SOL     OW15040   4.091   2.276   6.786
 4714SOL    HW115041   4.134   2.197   6.742
 4714SOL    HW215042   3.997   2.253   6.810
 4715SOL     OW15043   6.488   1.750   2.221
 4715SOL    HW115044   6.421   1.686   2.257
 4715SOL    HW215045   6.475   1.840   2.263
 4716SOL     OW15046   3.029   4.433   5.596
 4716SOL    HW115047   3.054   4.430   5.499
 4716SOL    HW215048   2.959   4.502   5.611
 4717SOL     OW15049   2.081   4.901   5.638
 4717SOL    HW115050   2.140   4.871   5.713
 4717SOL    HW215051   1.985   4.886   5.663
 4718SOL     OW15052   4.774   4.021   2.046
 4718SOL    HW115053   4.773   4.064   2.136
 4718SOL    HW215054   4.693   4.048   1.994
 4719SOL     OW15055   6.009   4.520   3.873
 4719SOL    HW115056   6.010   4.472   3.785
 4719SOL    HW215057   6.080   4.483   3.932
 4720SOL     OW15058   1.939   2.277   6.506
 4720SOL    HW115059   1.890   2.316   6.584
 4720SOL    HW215060   1.901   2.313   6.421
 4721SOL     OW15061   0.721   2.658   2.881
 4721SOL    HW115062   0.628   2.631   2.907
 4721SOL    HW215063   0.719   2.699   2.790
 4722SOL     OW15064   1.096   5.140   6.491
 4722SOL    HW115065   1.048   5.078   6.553
 4722SOL    HW215066   1.041   5.223   6.478
 4723SOL     OW15067   2.856   4.964   6.760
 4723SOL    HW115068   2.783   4.983   6.825
 4723SOL    HW215069   2.837   4.879   6.712
 4724SOL     OW15070   0.491   6.809   4.013
 4724SOL    HW115071   0.577   6.861   4.013
 4724SOL    HW215072   0.429   6.847   4.082
 4725SOL     OW15073   6.292   4.720   1.210
 4725SOL    HW115074   6.365   4.708   1.143
 4725SOL    HW215075   6.297   4.813   1.248
 4726SOL     OW15076   1.930   3.026   5.551
 4726SOL    HW115077   1.915   2.977   5.637
 4726SOL    HW215078   1.947   3.122   5.570
 4727SOL     OW15079   6.495   4.693   1.014
 4727SOL    HW115080   6.536   4.629   0.949
 4727SOL    HW215081   6.522   4.786   0.990
 4728SOL     OW15082   5.349   1.218   3.382
 4728SOL    HW115083   5.447   1.235   3.372
 4728SOL    HW215084   5.305   1.298   3.422
 4729SOL     OW15085   6.020   1.252   2.255
 4729SOL    HW115086   6.081   1.185   2.211
 4729SOL    HW215087   5.935   1.206   2.282
 4730SOL     OW15088   3.633   0.591   3.302
 4730SOL    HW115089   3.658   0.587   3.398
 4730SOL    HW215090   3.574   0.670   3.286
 4731SOL     OW15091   3.287   6.960   1.685
 4731SOL    HW115092   3.329   6.909   1.610
 4731SOL    HW215093   3.208   7.011   1.650
 4732SOL     OW15094   0.135   5.312   4.730
 4732SOL    HW115095   0.198   5.389   4.738
 4732SOL    HW215096   0.147   5.268   4.641
 4733SOL     OW15097   1.378   4.155   2.264
 4733SOL    HW115098   1.340   4.247   2.275
 4733SOL    HW215099   1.478   4.159   2.271
 4734SOL     OW15100   4.754   3.928   6.628
 4734SOL    HW115101   4.669   3.977   6.609
 4734SOL    HW215102   4.770   3.925   6.727
 4735SOL     OW15103   0.083   0.819   4.826
 4735SOL    HW115104   0.007   0.881   4.847
 4735SOL    HW215105   0.067   0.731   4.872
 4736SOL     OW15106   6.455   0.853   3.572
 4736SOL    HW115107   6.396   0.775   3.595
 4736SOL    HW215108   6.471   0.907   3.655
 4737SOL     OW15109   2.102   5.322   0.262
 4737SOL    HW115110   2.016   5.373   0.255
 4737SOL    HW215111   2.082   5.228   0.288
 4738SOL     OW15112   0.671   5.629   4.400
 4738SOL    HW115113   0.713   5.711   4.437
 4738SOL    HW215114   0.714   5.548   4.440
 4739SOL     OW15115   5.734   3.762   3.145
 4739SOL    HW115116   5.643   3.727   3.167
 4739SOL    HW215117   5.731   3.861   3.136
 4740SOL     OW15118   1.753   6.842   0.767
 4740SOL    HW115119   1.700   6.791   0.834
 4740SOL    HW215120   1.692   6.879   0.696
 4741SOL     OW15121   5.842   4.638   0.892
 4741SOL    HW115122   5.779   4.714   0.906
 4741SOL    HW215123   5.791   4.559   0.859
 4742SOL     OW15124   2.248   5.495   2.158
 4742SOL    HW115125   2.250   5.479   2.256
 4742SOL    HW215126   2.156   5.477   2.123
 4743SOL     OW15127   2.465   3.771   0.842
 4743SOL    HW115128   2.405   3.851   0.852
 4743SOL    HW215129   2.558   3.801   0.824
 4744SOL     OW15130   2.766   2.138   5.147
 4744SOL    HW115131   2.856   2.160   5.108
 4744SOL    HW215132   2.701   2.122   5.073
 4745SOL     OW15133   4.302   5.468   4.659
 4745SOL    HW115134   4.368   5.434   4.592
 4745SOL    HW215135   4.224   5.509   4.612
 4746SOL     OW15136   5.542   1.315   1.713
 4746SOL    HW115137   5.610   1.375   1.753
 4746SOL    HW215138   5.549   1.319   1.613
 4747SOL     OW15139   0.853   3.040   2.491
 4747SOL    HW115140   0.945   3.036   2.532
 4747SOL    HW215141   0.838   2.958   2.435
 4748SOL     OW15142   2.421   0.009   0.711
 4748SOL    HW115143   2.331   6.985   0.705
 4748SOL    HW215144   2.413   0.107   0.691
 4749SOL     OW15145   3.545   0.576   0.411
 4749SOL    HW115146   3.520   0.643   0.481
 4749SOL    HW215147   3.634   0.537   0.432
 4750SOL     OW15148   0.704   1.644   4.704
 4750SOL    HW115149   0.652   1.700   4.769
 4750SOL    HW215150   0.761   1.704   4.647
 4751SOL     OW15151   1.118   3.600   6.556
 4751SOL    HW115152   1.141   3.649   6.472
 4751SOL    HW215153   1.083   3.509   6.533
 4752SOL     OW15154   2.666   5.948   1.360
 4752SOL    HW115155   2.626   5.885   1.427
 4752SOL    HW215156   2.758   5.917   1.337
 4753SOL     OW15157   0.633   0.252   6.351
 4753SOL    HW115158   0.628   0.199   6.266
 4753SOL    HW215159   0.641   0.190   6.429
 4754SOL     OW15160   1.182   0.762   6.060
 4754SOL    HW115161   1.162   0.741   6.156
 4754SOL    HW215162   1.259   0.706   6.029
 4755SOL     OW15163   2.565   6.977   2.623
 4755SOL    HW115164   2.636   6.955   2.556
 4755SOL    HW215165   2.485   7.014   2.576
 4756SOL     OW15166   5.618   1.690   1.389
 4756SOL    HW115167   5.637   1.677   1.292
 4756SOL    HW215168   5.704   1.689   1.440
 4757SOL     OW15169   2.628   1.981   0.951
 4757SOL    HW115170   2.598   1.908   0.890
 4757SOL    HW215171   2.611   1.954   1.046
 4758SOL     OW15172   5.870   3.365   5.957
 4758SOL    HW115173   5.851   3.362   6.055
 4758SOL    HW215174   5.964   3.395   5.942
 4759SOL     OW15175   6.174   4.034   6.418
 4759SOL    HW115176   6.159   4.114   6.361
 4759SOL    HW215177   6.090   3.980   6.423
 4760SOL     OW15178   1.972   2.872   0.038
 4760SOL    HW115179   2.054   2.816   0.025
 4760SOL    HW215180   1.999   2.968   0.050
 4761SOL     OW15181   2.016   6.053   6.351
 4761SOL    HW115182   1.984   5.963   6.382
 4761SOL    HW215183   2.100   6.042   6.297
 4762SOL     OW15184   3.603   0.021   2.305
 4762SOL    HW115185   3.680   0.011   2.242
 4762SOL    HW215186   3.544   6.960   2.299
 4763SOL     OW15187   5.701   5.944   5.201
 4763SOL    HW115188   5.726   5.976   5.293
 4763SOL    HW215189   5.607   5.971   5.181
 4764SOL     OW15190   3.972   3.617   4.049
 4764SOL    HW115191   3.925   3.623   4.138
 4764SOL    HW215192   3.905   3.626   3.976
 4765SOL     OW15193   5.962   5.103   6.554
 4765SOL    HW115194   5.932   5.017   6.595
 4765SOL    HW215195   6.019   5.084   6.474
 4766SOL     OW15196   3.233   0.740   3.236
 4766SOL    HW115197   3.224   0.795   3.154
 4766SOL    HW215198   3.203   0.646   3.217
 4767SOL     OW15199   4.374   0.283   0.072
 4767SOL    HW115200   4.456   0.262   0.124
 4767SOL    HW215201   4.385   0.254   6.996
 4768SOL     OW15202   1.633   0.797   5.087
 4768SOL    HW115203   1.585   0.814   5.173
 4768SOL    HW215204   1.732   0.795   5.103
 4769SOL     OW15205   5.039   1.112   1.919
 4769SOL    HW115206   5.139   1.116   1.918
 4769SOL    HW215207   5.005   1.100   1.826
 4770SOL     OW15208   1.910   0.680   4.319
 4770SOL    HW115209   2.002   0.689   4.280
 4770SOL    HW215210   1.904   0.734   4.403
 4771SOL     OW15211   4.195   3.831   5.661
 4771SOL    HW115212   4.199   3.881   5.575
 4771SOL    HW215213   4.273   3.768   5.667
 4772SOL     OW15214   2.964   2.443   6.926
 4772SOL    HW115215   2.864   2.437   6.931
 4772SOL    HW215216   2.999   2.361   6.881
 4773SOL     OW15217   0.402   4.838   4.711
 4773SOL    HW115218   0.460   4.918   4.720
 4773SOL    HW215219   0.307   4.863   4.730
 4774SOL     OW15220   1.076   4.166   6.849
 4774SOL    HW115221   0.981   4.158   6.879
 4774SOL    HW215222   1.089   4.254   6.803
 4775SOL     OW15223   1.949   2.039   2.471
 4775SOL    HW115224   2.001   2.057   2.388
 4775SOL    HW215225   1.991   2.087   2.548
 4776SOL     OW15226   4.350   4.988   2.271
 4776SOL    HW115227   4.385   4.958   2.360
 4776SOL    HW215228   4.253   5.012   2.279
 4777SOL     OW15229   2.428   3.933   1.642
 4777SOL    HW115230   2.398   3.975   1.727
 4777SOL    HW215231   2.411   3.995   1.565
 4778SOL     OW15232   4.916   3.335   2.875
 4778SOL    HW115233   4.904   3.424   2.831
 4778SOL    HW215234   4.863   3.266   2.825
 4779SOL     OW15235   4.825   1.503   2.846
 4779SOL    HW115236   4.816   1.578   2.911
 4779SOL    HW215237   4.766   1.521   2.766
 4780SOL     OW15238   1.966   1.239   5.259
 4780SOL    HW115239   1.958   1.321   5.317
 4780SOL    HW215240   2.045   1.185   5.289
 4781SOL     OW15241   1.956   5.462   2.534
 4781SOL    HW115242   1.970   5.553   2.574
 4781SOL    HW215243   1.906   5.404   2.598
 4782SOL     OW15244   6.057   5.822   0.071
 4782SOL    HW115245   5.976   5.763   0.079
 4782SOL    HW215246   6.028   5.918   0.071
 4783SOL     OW15247   6.291   4.240   2.753
 4783SOL    HW115248   6.327   4.327   2.717
 4783SOL    HW215249   6.241   4.193   2.680
 4784SOL     OW15250   4.956   4.909   5.508
 4784SOL    HW115251   4.998   4.823   5.539
 4784SOL    HW215252   5.019   4.957   5.448
 4785SOL     OW15253   5.746   6.957   0.433
 4785SOL    HW115254   5.809   6.904   0.489
 4785SOL    HW215255   5.774   6.952   0.337
 4786SOL     OW15256   1.289   3.412   2.078
 4786SOL    HW115257   1.369   3.354   2.083
 4786SOL    HW215258   1.211   3.366   2.120
 4787SOL     OW15259   4.398   2.357   3.517
 4787SOL    HW115260   4.408   2.402   3.429
 4787SOL    HW215261   4.486   2.357   3.565
 4788SOL     OW15262   2.265   6.895   5.130
 4788SOL    HW115263   2.239   6.807   5.092
 4788SOL    HW215264   2.189   6.933   5.183
 4789SOL     OW15265   5.529   6.233   0.235
 4789SOL    HW115266   5.507   6.296   0.159
 4789SOL    HW215267   5.515   6.280   0.322
 4790SOL     OW15268   5.048   0.202   6.738
 4790SOL    HW115269   5.032   0.125   6.677
 4790SOL    HW215270   5.047   0.171   6.833
 4791SOL     OW15271   4.668   1.871   3.566
 4791SOL    HW115272   4.607   1.950   3.578
 4791SOL    HW215273   4.644   1.822   3.482
 4792SOL     OW15274   2.892   2.553   1.083
 4792SOL    HW115275   2.962   2.484   1.100
 4792SOL    HW215276   2.847   2.577   1.169
 4793SOL     OW15277   0.659   6.994   0.107
 4793SOL    HW115278   0.614   6.996   0.018
 4793SOL    HW215279   0.598   6.951   0.175
 4794SOL     OW15280   5.306   1.134   1.925
 4794SOL    HW115281   5.362   1.205   1.883
 4794SOL    HW215282   5.364   1.058   1.954
 4795SOL     OW15283   6.187   2.984   4.107
 4795SOL    HW115284   6.276   2.977   4.152
 4795SOL    HW215285   6.151   3.076   4.120
 4796SOL     OW15286   5.737   3.224   0.389
 4796SOL    HW115287   5.705   3.130   0.400
 4796SOL    HW215288   5.832   3.231   0.419
 4797SOL     OW15289   1.137   5.283   4.607
 4797SOL    HW115290   1.046   5.243   4.605
 4797SOL    HW215291   1.181   5.262   4.695
 4798SOL     OW15292   6.758   5.145   5.883
 4798SOL    HW115293   6.715   5.144   5.973
 4798SOL    HW215294   6.847   5.099   5.887
 4799SOL     OW15295   4.835   1.521   4.080
 4799SOL    HW115296   4.765   1.515   4.151
 4799SOL    HW215297   4.846   1.431   4.037
 4800SOL     OW15298   1.883   2.999   4.183
 4800SOL    HW115299   1.828   3.022   4.103
 4800SOL    HW215300   1.842   3.039   4.265
 4801SOL     OW15301   0.018   2.265   0.736
 4801SOL    HW115302   0.064   2.221   0.813
 4801SOL    HW215303   0.067   2.348   0.710
 4802SOL     OW15304   1.966   0.021   1.893
 4802SOL    HW115305   2.047   6.987   1.870
 4802SOL    HW215306   1.972   0.050   1.989
 4803SOL     OW15307   1.434   0.342   0.891
 4803SOL    HW115308   1.459   0.431   0.853
 4803SOL    HW215309   1.358   0.353   0.955
 4804SOL     OW15310   4.354   5.997   0.066
 4804SOL    HW115311   4.419   6.066   0.097
 4804SOL    HW215312   4.385   5.958   6.998
 4805SOL     OW15313   0.190   0.441   1.452
 4805SOL    HW115314   0.147   0.403   1.370
 4805SOL    HW215315   0.287   0.459   1.433
 4806SOL     OW15316   0.175   2.306   3.837
 4806SOL    HW115317   0.169   2.359   3.752
 4806SOL    HW215318   0.096   2.327   3.894
 4807SOL     OW15319   0.802   6.885   2.409
 4807SOL    HW115320   0.770   6.895   2.315
 4807SOL    HW215321   0.783   6.792   2.442
 4808SOL     OW15322   5.764   2.764   0.386
 4808SOL    HW115323   5.702   2.828   0.431
 4808SOL    HW215324   5.733   2.670   0.400
 4809SOL     OW15325   4.676   6.962   0.475
 4809SOL    HW115326   4.646   0.005   0.548
 4809SOL    HW215327   4.776   6.954   0.478
 4810SOL     OW15328   2.009   6.393   1.087
 4810SOL    HW115329   1.969   6.476   1.049
 4810SOL    HW215330   1.961   6.370   1.172
 4811SOL     OW15331   5.269   3.941   3.763
 4811SOL    HW115332   5.196   4.007   3.746
 4811SOL    HW215333   5.237   3.869   3.824
 4812SOL     OW15334   6.077   5.132   3.666
 4812SOL    HW115335   6.156   5.117   3.725
 4812SOL    HW215336   6.006   5.064   3.687
 4813SOL     OW15337   5.537   3.172   3.117
 4813SOL    HW115338   5.573   3.265   3.119
 4813SOL    HW215339   5.606   3.108   3.152
 4814SOL     OW15340   6.436   2.924   0.885
 4814SOL    HW115341   6.398   2.848   0.937
 4814SOL    HW215342   6.477   2.889   0.801
 4815SOL     OW15343   4.692   0.854   3.181
 4815SOL    HW115344   4.696   0.917   3.104
 4815SOL    HW215345   4.615   0.879   3.240
 4816SOL     OW15346   5.100   5.219   3.406
 4816SOL    HW115347   5.077   5.268   3.322
 4816SOL    HW215348   5.118   5.123   3.385
 4817SOL     OW15349   6.154   1.380   6.774
 4817SOL    HW115350   6.082   1.448   6.764
 4817SOL    HW215351   6.186   1.377   6.868
 4818SOL     OW15352   0.325   5.750   3.398
 4818SOL    HW115353   0.374   5.729   3.483
 4818SOL    HW215354   0.231   5.779   3.420
 4819SOL     OW15355   2.115   3.207   1.049
 4819SOL    HW115356   2.088   3.229   0.955
 4819SOL    HW215357   2.190   3.141   1.047
 4820SOL     OW15358   6.860   3.132   2.372
 4820SOL    HW115359   6.816   3.087   2.294
 4820SOL    HW215360   6.916   3.065   2.421
 4821SOL     OW15361   0.477   5.613   3.610
 4821SOL    HW115362   0.434   5.528   3.579
 4821SOL    HW215363   0.575   5.609   3.591
 4822SOL     OW15364   2.456   4.820   4.282
 4822SOL    HW115365   2.413   4.902   4.321
 4822SOL    HW215366   2.410   4.738   4.318
 4823SOL     OW15367   1.721   2.584   0.328
 4823SOL    HW115368   1.784   2.576   0.250
 4823SOL    HW215369   1.638   2.632   0.299
 4824SOL     OW15370   6.218   1.710   0.145
 4824SOL    HW115371   6.155   1.683   0.072
 4824SOL    HW215372   6.167   1.744   0.223
 4825SOL     OW15373   1.017   6.570   3.748
 4825SOL    HW115374   0.983   6.624   3.671
 4825SOL    HW215375   0.948   6.503   3.775
 4826SOL     OW15376   4.269   6.016   0.893
 4826SOL    HW115377   4.179   6.013   0.851
 4826SOL    HW215378   4.326   5.942   0.857
 4827SOL     OW15379   5.953   1.233   0.633
 4827SOL    HW115380   6.050   1.211   0.638
 4827SOL    HW215381   5.914   1.196   0.549
 4828SOL     OW15382   5.159   0.999   6.242
 4828SOL    HW115383   5.241   0.964   6.287
 4828SOL    HW215384   5.078   0.963   6.287
 4829SOL     OW15385   4.298   6.231   5.511
 4829SOL    HW115386   4.390   6.232   5.549
 4829SOL    HW215387   4.273   6.137   5.487
 4830SOL     OW15388   1.641   6.443   3.973
 4830SOL    HW115389   1.592   6.514   3.923
 4830SOL    HW215390   1.726   6.421   3.925
 4831SOL     OW15391   3.755   4.355   5.839
 4831SOL    HW115392   3.768   4.425   5.909
 4831SOL    HW215393   3.660   4.355   5.808
 4832SOL     OW15394   4.176   3.630   5.040
 4832SOL    HW115395   4.192   3.540   5.000
 4832SOL    HW215396   4.115   3.621   5.119
 4833SOL     OW15397   5.882   2.562   5.206
 4833SOL    HW115398   5.868   2.508   5.123
 4833SOL    HW215399   5.796   2.605   5.233
 4834SOL     OW15400   0.533   5.768   1.431
 4834SOL    HW115401   0.487   5.840   1.379
 4834SOL    HW215402   0.574   5.807   1.513
 4835SOL     OW15403   0.013   3.262   5.737
 4835SOL    HW115404   6.954   3.199   5.739
 4835SOL    HW215405   0.092   3.218   5.782
 4836SOL     OW15406   4.672   1.531   5.621
 4836SOL    HW115407   4.764   1.568   5.610
 4836SOL    HW215408   4.604   1.599   5.594
 4837SOL     OW15409   1.477   3.239   4.587
 4837SOL    HW115410   1.567   3.282   4.573
 4837SOL    HW215411   1.425   3.293   4.653
 4838SOL     OW15412   1.824   3.975   6.252
 4838SOL    HW115413   1.878   3.949   6.172
 4838SOL    HW215414   1.779   3.894   6.290
 4839SOL     OW15415   2.790   1.418   2.341
 4839SOL    HW115416   2.777   1.449   2.436
 4839SOL    HW215417   2.763   1.323   2.333
 4840SOL     OW15418   4.898   3.095   4.484
 4840SOL    HW115419   4.873   3.159   4.557
 4840SOL    HW215420   4.934   3.147   4.406
 4841SOL     OW15421   3.015   5.702   3.300
 4841SOL    HW115422   3.024   5.769   3.373
 4841SOL    HW215423   3.037   5.745   3.212
 4842SOL     OW15424   4.125   5.716   3.749
 4842SOL    HW115425   4.094   5.780   3.679
 4842SOL    HW215426   4.216   5.683   3.725
 4843SOL     OW15427   5.752   1.248   0.816
 4843SOL    HW115428   5.769   1.184   0.891
 4843SOL    HW215429   5.834   1.254   0.759
 4844SOL     OW15430   1.249   5.298   6.747
 4844SOL    HW115431   1.269   5.393   6.769
 4844SOL    HW215432   1.335   5.248   6.735
 4845SOL     OW15433   4.789   4.076   4.942
 4845SOL    HW115434   4.768   4.004   4.877
 4845SOL    HW215435   4.711   4.090   5.003
 4846SOL     OW15436   6.399   4.147   4.954
 4846SOL    HW115437   6.448   4.167   5.039
 4846SOL    HW215438   6.342   4.066   4.967
 4847SOL     OW15439   3.188   7.011   0.283
 4847SOL    HW115440   3.140   6.989   0.369
 4847SOL    HW215441   3.282   6.978   0.288
 4848SOL     OW15442   4.558   1.789   3.921
 4848SOL    HW115443   4.523   1.882   3.913
 4848SOL    HW215444   4.579   1.753   3.830
 4849SOL     OW15445   1.297   5.976   2.043
 4849SOL    HW115446   1.340   6.066   2.048
 4849SOL    HW215447   1.318   5.924   2.125
 4850SOL     OW15448   3.480   6.463   2.010
 4850SOL    HW115449   3.490   6.440   1.913
 4850SOL    HW215450   3.508   6.558   2.025
 4851SOL     OW15451   4.323   4.711   6.890
 4851SOL    HW115452   4.373   4.691   6.974
 4851SOL    HW215453   4.362   4.658   6.815
 4852SOL     OW15454   4.671   4.750   5.861
 4852SOL    HW115455   4.707   4.841   5.839
 4852SOL    HW215456   4.578   4.741   5.823
 4853SOL     OW15457   3.921   0.417   2.626
 4853SOL    HW115458   3.979   0.498   2.636
 4853SOL    HW215459   3.881   0.416   2.534
 4854SOL     OW15460   4.012   6.551   2.441
 4854SOL    HW115461   4.090   6.585   2.493
 4854SOL    HW215462   4.041   6.475   2.384
 4855SOL     OW15463   4.091   4.657   5.672
 4855SOL    HW115464   4.036   4.599   5.612
 4855SOL    HW215465   4.153   4.713   5.618
 4856SOL     OW15466   0.616   2.406   2.515
 4856SOL    HW115467   0.703   2.399   2.564
 4856SOL    HW215468   0.603   2.324   2.459
 4857SOL     OW15469   1.827   2.141   6.064
 4857SOL    HW115470   1.743   2.115   6.111
 4857SOL    HW215471   1.898   2.073   6.083
 4858SOL     OW15472   1.499   5.424   4.741
 4858SOL    HW115473   1.552   5.458   4.663
 4858SOL    HW215474   1.472   5.329   4.724
 4859SOL     OW15475   6.641   5.016   3.594
 4859SOL    HW115476   6.720   4.957   3.613
 4859SOL    HW215477   6.581   4.971   3.527
 4860SOL     OW15478   4.339   5.313   1.327
 4860SOL    HW115479   4.308   5.250   1.255
 4860SOL    HW215480   4.276   5.390   1.333
 4861SOL     OW15481   6.176   5.210   4.940
 4861SOL    HW115482   6.131   5.173   5.021
 4861SOL    HW215483   6.204   5.304   4.956
 4862SOL     OW15484   2.134   5.550   4.570
 4862SOL    HW115485   2.056   5.611   4.554
 4862SOL    HW215486   2.138   5.481   4.498
 4863SOL     OW15487   5.510   1.248   2.408
 4863SOL    HW115488   5.460   1.329   2.376
 4863SOL    HW215489   5.510   1.246   2.508
 4864SOL     OW15490   1.998   3.076   1.698
 4864SOL    HW115491   2.088   3.092   1.739
 4864SOL    HW215492   1.968   2.983   1.720
 4865SOL     OW15493   3.914   6.818   4.953
 4865SOL    HW115494   3.902   6.909   4.916
 4865SOL    HW215495   4.012   6.800   4.965
 4866SOL     OW15496   6.951   5.344   1.375
 4866SOL    HW115497   6.954   5.438   1.409
 4866SOL    HW215498   6.998   5.284   1.440
 4867SOL     OW15499   5.544   5.011   5.536
 4867SOL    HW115500   5.606   5.055   5.470
 4867SOL    HW215501   5.474   4.960   5.487
 4868SOL     OW15502   1.773   6.199   1.935
 4868SOL    HW115503   1.759   6.119   1.993
 4868SOL    HW215504   1.728   6.279   1.977
 4869SOL     OW15505   6.908   1.384   1.986
 4869SOL    HW115506   6.860   1.470   2.004
 4869SOL    HW215507   6.914   1.331   2.071
 4870SOL     OW15508   6.193   0.688   0.841
 4870SOL    HW115509   6.224   0.761   0.901
 4870SOL    HW215510   6.257   0.677   0.765
 4871SOL     OW15511   1.742   3.023   4.911
 4871SOL    HW115512   1.802   3.080   4.854
 4871SOL    HW215513   1.648   3.030   4.878
 4872SOL     OW15514   1.502   1.754   2.679
 4872SOL    HW115515   1.476   1.736   2.774
 4872SOL    HW215516   1.587   1.807   2.677
 4873SOL     OW15517   1.150   6.969   5.218
 4873SOL    HW115518   1.244   7.000   5.201
 4873SOL    HW215519   1.147   6.920   5.305
 4874SOL     OW15520   6.276   2.615   4.022
 4874SOL    HW115521   6.213   2.687   4.050
 4874SOL    HW215522   6.227   2.528   4.015
 4875SOL     OW15523   0.251   2.853   6.494
 4875SOL    HW115524   0.298   2.810   6.572
 4875SOL    HW215525   0.153   2.855   6.512
 4876SOL     OW15526   6.627   1.114   6.681
 4876SOL    HW115527   6.559   1.041   6.680
 4876SOL    HW215528   6.674   1.115   6.770
 4877SOL     OW15529   4.563   2.066   1.400
 4877SOL    HW115530   4.563   2.017   1.487
 4877SOL    HW215531   4.516   2.153   1.411
 4878SOL     OW15532   1.208   3.147   1.891
 4878SOL    HW115533   1.238   3.053   1.905
 4878SOL    HW215534   1.256   3.207   1.955
 4879SOL     OW15535   3.888   6.118   4.003
 4879SOL    HW115536   3.789   6.103   4.000
 4879SOL    HW215537   3.935   6.034   3.977
 4880SOL     OW15538   6.422   1.648   5.728
 4880SOL    HW115539   6.330   1.632   5.692
 4880SOL    HW215540   6.415   1.695   5.816
 4881SOL     OW15541   2.774   6.026   6.017
 4881SOL    HW115542   2.756   6.124   6.008
 4881SOL    HW215543   2.779   5.985   5.926
 4882SOL     OW15544   5.367   5.544   6.836
 4882SOL    HW115545   5.385   5.511   6.744
 4882SOL    HW215546   5.420   5.490   6.902
 4883SOL     OW15547   6.142   5.512   0.069
 4883SOL    HW115548   6.052   5.555   0.075
 4883SOL    HW215549   6.196   5.557   7.016
 4884SOL     OW15550   3.849   6.537   2.102
 4884SOL    HW115551   3.809   6.568   2.189
 4884SOL    HW215552   3.935   6.490   2.120
 4885SOL     OW15553   1.729   0.604   2.168
 4885SOL    HW115554   1.680   0.609   2.255
 4885SOL    HW215555   1.786   0.685   2.157
 4886SOL     OW15556   6.288   0.630   5.552
 4886SOL    HW115557   6.291   0.696   5.477
 4886SOL    HW215558   6.279   0.537   5.515
 4887SOL     OW15559   0.592   1.605   5.312
 4887SOL    HW115560   0.636   1.679   5.262
 4887SOL    HW215561   0.642   1.587   5.396
 4888SOL     OW15562   4.083   5.832   1.680
 4888SOL    HW115563   4.161   5.775   1.706
 4888SOL    HW215564   4.036   5.791   1.602
 4889SOL     OW15565   1.788   3.102   6.804
 4889SOL    HW115566   1.819   3.196   6.790
 4889SOL    HW215567   1.758   3.091   6.899
 4890SOL     OW15568   0.383   0.333   4.646
 4890SOL    HW115569   0.364   0.430   4.661
 4890SOL    HW215570   0.329   0.278   4.710
 4891SOL     OW15571   1.232   4.715   0.631
 4891SOL    HW115572   1.175   4.687   0.554
 4891SOL    HW215573   1.220   4.813   0.648
 4892SOL     OW15574   1.950   5.651   2.284
 4892SOL    HW115575   1.970   5.574   2.223
 4892SOL    HW215576   1.887   5.714   2.238
 4893SOL     OW15577   0.323   3.808   6.074
 4893SOL    HW115578   0.417   3.784   6.101
 4893SOL    HW215579   0.259   3.743   6.115
 4894SOL     OW15580   0.635   6.573   3.336
 4894SOL    HW115581   0.674   6.660   3.307
 4894SOL    HW215582   0.672   6.499   3.280
 4895SOL     OW15583   6.292   3.624   6.750
 4895SOL    HW115584   6.248   3.694   6.805
 4895SOL    HW215585   6.362   3.578   6.804
 4896SOL     OW15586   4.298   0.047   4.311
 4896SOL    HW115587   4.244   6.996   4.266
 4896SOL    HW215588   4.237   0.118   4.348
 4897SOL     OW15589   2.568   5.830   6.337
 4897SOL    HW115590   2.559   5.734   6.311
 4897SOL    HW215591   2.537   5.888   6.262
 4898SOL     OW15592   5.456   2.527   4.750
 4898SOL    HW115593   5.364   2.563   4.732
 4898SOL    HW215594   5.487   2.561   4.839
 4899SOL     OW15595   5.918   4.354   4.269
 4899SOL    HW115596   5.880   4.380   4.180
 4899SOL    HW215597   6.017   4.342   4.260
 4900SOL     OW15598   0.904   6.846   5.065
 4900SOL    HW115599   0.894   6.863   4.967
 4900SOL    HW215600   0.997   6.870   5.094
 4901SOL     OW15601   6.333   6.364   3.100
 4901SOL    HW115602   6.285   6.407   3.024
 4901SOL    HW215603   6.323   6.265   3.095
 4902SOL     OW15604   3.538   4.906   0.994
 4902SOL    HW115605   3.508   4.961   0.916
 4902SOL    HW215606   3.600   4.835   0.963
 4903SOL     OW15607   6.044   5.241   5.812
 4903SOL    HW115608   6.044   5.336   5.782
 4903SOL    HW215609   6.131   5.198   5.786
 4904SOL     OW15610   2.865   0.754   3.458
 4904SOL    HW115611   2.794   0.780   3.523
 4904SOL    HW215612   2.954   0.785   3.491
 4905SOL     OW15613   6.442   3.413   2.980
 4905SOL    HW115614   6.411   3.345   2.913
 4905SOL    HW215615   6.435   3.504   2.939
 4906SOL     OW15616   4.894   0.435   1.314
 4906SOL    HW115617   4.890   0.530   1.345
 4906SOL    HW215618   4.888   0.374   1.393
 4907SOL     OW15619   2.270   2.025   1.543
 4907SOL    HW115620   2.212   1.950   1.575
 4907SOL    HW215621   2.312   2.071   1.621
 4908SOL     OW15622   4.811   5.506   6.537
 4908SOL    HW115623   4.813   5.504   6.437
 4908SOL    HW215624   4.725   5.547   6.568
 4909SOL     OW15625   6.391   6.689   5.569
 4909SOL    HW115626   6.443   6.734   5.497
 4909SOL    HW215627   6.379   6.752   5.646
 4910SOL     OW15628   4.824   6.280   5.734
 4910SOL    HW115629   4.829   6.377   5.759
 4910SOL    HW215630   4.878   6.265   5.651
 4911SOL     OW15631   0.244   3.626   6.674
 4911SOL    HW115632   0.340   3.646   6.653
 4911SOL    HW215633   0.230   3.635   6.773
 4912SOL     OW15634   2.222   2.739   1.565
 4912SOL    HW115635   2.302   2.743   1.506
 4912SOL    HW215636   2.213   2.646   1.602
 4913SOL     OW15637   2.587   3.145   1.731
 4913SOL    HW115638   2.496   3.147   1.689
 4913SOL    HW215639   2.601   3.228   1.784
 4914SOL     OW15640   1.391   6.547   2.880
 4914SOL    HW115641   1.490   6.556   2.891
 4914SOL    HW215642   1.372   6.462   2.830
 4915SOL     OW15643   3.452   6.633   3.807
 4915SOL    HW115644   3.483   6.538   3.799
 4915SOL    HW215645   3.532   6.693   3.813
 4916SOL     OW15646   1.075   1.725   1.751
 4916SOL    HW115647   1.106   1.818   1.771
 4916SOL    HW215648   1.028   1.725   1.663
 4917SOL     OW15649   1.521   3.833   6.811
 4917SOL    HW115650   1.557   3.892   6.883
 4917SOL    HW215651   1.432   3.868   6.781
 4918SOL     OW15652   2.451   6.985   4.120
 4918SOL    HW115653   2.547   6.964   4.101
 4918SOL    HW215654   2.430   0.059   4.089
 4919SOL     OW15655   2.370   3.147   1.552
 4919SOL    HW115656   2.405   3.215   1.487
 4919SOL    HW215657   2.304   3.088   1.506
 4920SOL     OW15658   3.640   1.179   0.464
 4920SOL    HW115659   3.591   1.160   0.379
 4920SOL    HW215660   3.736   1.151   0.455
 4921SOL     OW15661   6.479   5.301   2.177
 4921SOL    HW115662   6.558   5.307   2.117
 4921SOL    HW215663   6.441   5.209   2.173
 4922SOL     OW15664   0.976   2.686   5.930
 4922SOL    HW115665   0.942   2.741   6.006
 4922SOL    HW215666   1.029   2.609   5.965
 4923SOL     OW15667   2.646   2.062   6.553
 4923SOL    HW115668   2.630   2.055   6.651
 4923SOL    HW215669   2.713   2.133   6.534
 4924SOL     OW15670   0.525   3.083   4.146
 4924SOL    HW115671   0.624   3.076   4.158
 4924SOL    HW215672   0.504   3.169   4.100
 4925SOL     OW15673   4.476   5.179   5.313
 4925SOL    HW115674   4.473   5.234   5.230
 4925SOL    HW215675   4.384   5.145   5.334
 4926SOL     OW15676   4.174   3.502   0.545
 4926SOL    HW115677   4.131   3.412   0.544
 4926SOL    HW215678   4.264   3.497   0.502
 4927SOL     OW15679   3.502   4.101   2.107
 4927SOL    HW115680   3.601   4.098   2.119
 4927SOL    HW215681   3.458   4.062   2.188
 4928SOL     OW15682   0.401   1.106   6.906
 4928SOL    HW115683   0.315   1.061   6.880
 4928SOL    HW215684   0.477   1.043   6.891
 4929SOL     OW15685   0.721   4.589   4.259
 4929SOL    HW115686   0.654   4.662   4.273
 4929SOL    HW215687   0.674   4.501   4.254
 4930SOL     OW15688   0.243   3.139   0.442
 4930SOL    HW115689   0.286   3.203   0.378
 4930SOL    HW215690   0.290   3.050   0.437
 4931SOL     OW15691   5.586   6.814   1.094
 4931SOL    HW115692   5.536   6.899   1.074
 4931SOL    HW215693   5.679   6.820   1.058
 4932SOL     OW15694   3.449   1.238   1.433
 4932SOL    HW115695   3.418   1.143   1.440
 4932SOL    HW215696   3.478   1.255   1.339
 4933SOL     OW15697   2.951   0.119   4.804
 4933SOL    HW115698   2.866   0.081   4.842
 4933SOL    HW215699   3.027   0.057   4.825
 4934SOL     OW15700   1.875   5.709   5.283
 4934SOL    HW115701   1.931   5.633   5.313
 4934SOL    HW215702   1.921   5.795   5.304
 4935SOL     OW15703   2.225   2.433   1.004
 4935SOL    HW115704   2.238   2.490   0.922
 4935SOL    HW215705   2.275   2.474   1.081
 4936SOL     OW15706   6.504   4.065   1.346
 4936SOL    HW115707   6.530   3.999   1.276
 4936SOL    HW215708   6.563   4.053   1.426
 4937SOL     OW15709   0.855   3.288   4.727
 4937SOL    HW115710   0.877   3.366   4.786
 4937SOL    HW215711   0.794   3.225   4.776
 4938SOL     OW15712   3.427   4.178   1.388
 4938SOL    HW115713   3.452   4.274   1.380
 4938SOL    HW215714   3.415   4.154   1.484
 4939SOL     OW15715   1.426   1.135   1.373
 4939SOL    HW115716   1.452   1.215   1.319
 4939SOL    HW215717   1.335   1.104   1.344
 4940SOL     OW15718   1.244   1.925   5.593
 4940SOL    HW115719   1.245   2.003   5.655
 4940SOL    HW215720   1.314   1.937   5.523
 4941SOL     OW15721   4.019   2.206   5.806
 4941SOL    HW115722   3.954   2.238   5.737
 4941SOL    HW215723   4.039   2.109   5.791
 4942SOL     OW15724   6.899   1.152   2.656
 4942SOL    HW115725   6.961   1.196   2.721
 4942SOL    HW215726   6.855   1.222   2.599
 4943SOL     OW15727   4.650   2.256   6.494
 4943SOL    HW115728   4.610   2.346   6.477
 4943SOL    HW215729   4.704   2.259   6.578
 4944SOL     OW15730   1.176   4.903   0.367
 4944SOL    HW115731   1.086   4.861   0.370
 4944SOL    HW215732   1.199   4.941   0.456
 4945SOL     OW15733   2.328   0.217   5.485
 4945SOL    HW115734   2.278   0.225   5.399
 4945SOL    HW215735   2.357   0.307   5.516
 4946SOL     OW15736   2.690   5.945   0.586
 4946SOL    HW115737   2.772   5.990   0.622
 4946SOL    HW215738   2.619   6.013   0.571
 4947SOL     OW15739   0.794   0.310   1.349
 4947SOL    HW115740   0.812   0.408   1.364
 4947SOL    HW215741   0.698   0.291   1.372
 4948SOL     OW15742   1.091   2.631   1.954
 4948SOL    HW115743   1.148   2.679   2.021
 4948SOL    HW215744   1.000   2.615   1.993
 4949SOL     OW15745   6.374   4.709   5.758
 4949SOL    HW115746   6.445   4.735   5.692
 4949SOL    HW215747   6.404   4.627   5.808
 4950SOL     OW15748   4.230   4.316   5.456
 4950SOL    HW115749   4.185   4.396   5.417
 4950SOL    HW215750   4.252   4.333   5.552
 4951SOL     OW15751   4.550   5.291   3.104
 4951SOL    HW115752   4.635   5.312   3.152
 4951SOL    HW215753   4.482   5.363   3.123
 4952SOL     OW15754   0.913   0.922   6.729
 4952SOL    HW115755   0.865   0.852   6.676
 4952SOL    HW215756   0.943   0.995   6.668
 4953SOL     OW15757   1.583   1.936   5.962
 4953SOL    HW115758   1.492   1.939   6.004
 4953SOL    HW215759   1.640   1.871   6.012
 4954SOL     OW15760   3.388   3.528   5.146
 4954SOL    HW115761   3.424   3.446   5.191
 4954SOL    HW215762   3.311   3.503   5.087
 4955SOL     OW15763   4.264   5.921   0.299
 4955SOL    HW115764   4.286   5.825   0.318
 4955SOL    HW215765   4.277   5.940   0.202
 4956SOL     OW15766   2.515   0.366   4.940
 4956SOL    HW115767   2.471   0.288   4.984
 4956SOL    HW215768   2.471   0.383   4.851
 4957SOL     OW15769   5.821   5.361   0.257
 4957SOL    HW115770   5.907   5.311   0.260
 4957SOL    HW215771   5.825   5.430   0.185
 4958SOL     OW15772   3.501   5.738   6.824
 4958SOL    HW115773   3.427   5.687   6.782
 4958SOL    HW215774   3.464   5.812   6.880
 4959SOL     OW15775   6.868   2.257   3.003
 4959SOL    HW115776   6.950   2.303   3.039
 4959SOL    HW215777   6.859   2.277   2.906
 4960SOL     OW15778   5.010   4.720   3.884
 4960SOL    HW115779   5.040   4.815   3.895
 4960SOL    HW215780   5.076   4.660   3.929
 4961SOL     OW15781   3.699   2.891   2.181
 4961SOL    HW115782   3.742   2.982   2.176
 4961SOL    HW215783   3.763   2.825   2.219
 4962SOL     OW15784   1.714   2.821   6.982
 4962SOL    HW115785   1.803   2.862   7.004
 4962SOL    HW215786   1.661   2.810   0.046
 4963SOL     OW15787   0.545   4.078   6.876
 4963SOL    HW115788   0.463   4.105   6.927
 4963SOL    HW215789   0.534   3.984   6.844
 4964SOL     OW15790   1.787   4.494   4.097
 4964SOL    HW115791   1.766   4.416   4.156
 4964SOL    HW215792   1.749   4.478   4.006
 4965SOL     OW15793   2.105   0.030   3.250
 4965SOL    HW115794   2.066   0.079   3.328
 4965SOL    HW215795   2.053   0.052   3.167
 4966SOL     OW15796   4.515   6.951   5.138
 4966SOL    HW115797   4.525   6.875   5.202
 4966SOL    HW215798   4.595   7.011   5.145
 4967SOL     OW15799   4.689   4.301   3.858
 4967SOL    HW115800   4.771   4.355   3.836
 4967SOL    HW215801   4.716   4.206   3.873
 4968SOL     OW15802   6.537   3.254   4.243
 4968SOL    HW115803   6.516   3.340   4.195
 4968SOL    HW215804   6.628   3.222   4.216
 4969SOL     OW15805   0.350   5.911   4.454
 4969SOL    HW115806   0.260   5.868   4.446
 4969SOL    HW215807   0.396   5.910   4.366
 4970SOL     OW15808   2.359   1.439   1.682
 4970SOL    HW115809   2.293   1.377   1.724
 4970SOL    HW215810   2.338   1.450   1.585
 4971SOL     OW15811   0.217   5.942   1.478
 4971SOL    HW115812   0.215   5.979   1.571
 4971SOL    HW215813   0.202   5.844   1.481
 4972SOL     OW15814   0.262   4.181   6.916
 4972SOL    HW115815   0.264   4.176   7.016
 4972SOL    HW215816   0.234   4.272   6.887
 4973SOL     OW15817   5.452   2.134   6.595
 4973SOL    HW115818   5.356   2.145   6.571
 4973SOL    HW215819   5.490   2.056   6.545
 4974SOL     OW15820   3.652   7.016   6.166
 4974SOL    HW115821   3.623   7.000   6.072
 4974SOL    HW215822   3.611   0.082   6.200
 4975SOL     OW15823   5.814   3.985   1.408
 4975SOL    HW115824   5.742   4.036   1.361
 4975SOL    HW215825   5.818   4.015   1.504
 4976SOL     OW15826   0.617   0.105   3.957
 4976SOL    HW115827   0.675   0.032   3.994
 4976SOL    HW215828   0.641   0.192   4.000
 4977SOL     OW15829   1.383   3.858   5.698
 4977SOL    HW115830   1.347   3.817   5.615
 4977SOL    HW215831   1.473   3.899   5.679
 4978SOL     OW15832   6.311   5.210   4.593
 4978SOL    HW115833   6.378   5.196   4.520
 4978SOL    HW215834   6.336   5.153   4.672
 4979SOL     OW15835   3.005   6.930   6.500
 4979SOL    HW115836   3.104   6.918   6.503
 4979SOL    HW215837   2.973   6.916   6.406
 4980SOL     OW15838   5.814   3.076   3.694
 4980SOL    HW115839   5.736   3.027   3.732
 4980SOL    HW215840   5.795   3.175   3.694
 4981SOL     OW15841   3.511   6.174   3.533
 4981SOL    HW115842   3.435   6.225   3.492
 4981SOL    HW215843   3.542   6.103   3.470
 4982SOL     OW15844   4.180   1.857   5.013
 4982SOL    HW115845   4.135   1.768   5.021
 4982SOL    HW215846   4.113   1.927   4.988
 4983SOL     OW15847   6.017   3.356   3.072
 4983SOL    HW115848   6.063   3.409   3.001
 4983SOL    HW215849   5.918   3.366   3.062
 4984SOL     OW15850   4.847   3.809   4.842
 4984SOL    HW115851   4.842   3.760   4.755
 4984SOL    HW215852   4.824   3.746   4.917
 4985SOL     OW15853   5.393   0.323   2.106
 4985SOL    HW115854   5.390   0.423   2.109
 4985SOL    HW215855   5.388   0.286   2.199
 4986SOL     OW15856   1.707   5.378   1.119
 4986SOL    HW115857   1.625   5.385   1.062
 4986SOL    HW215858   1.680   5.355   1.212
 4987SOL     OW15859   2.088   3.152   2.798
 4987SOL    HW115860   2.084   3.091   2.719
 4987SOL    HW215861   2.119   3.243   2.769
 4988SOL     OW15862   6.008   5.400   4.091
 4988SOL    HW115863   6.084   5.336   4.101
 4988SOL    HW215864   6.042   5.489   4.064
 4989SOL     OW15865   0.049   6.688   3.240
 4989SOL    HW115866   6.990   6.750   3.246
 4989SOL    HW215867   0.117   6.724   3.176
 4990SOL     OW15868   5.021   1.906   6.447
 4990SOL    HW115869   5.011   1.936   6.542
 4990SOL    HW215870   5.053   1.983   6.391
 4991SOL     OW15871   2.037   5.657   5.774
 4991SOL    HW115872   2.005   5.736   5.721
 4991SOL    HW215873   1.959   5.599   5.797
 4992SOL     OW15874   1.729   3.350   4.615
 4992SOL    HW115875   1.785   3.284   4.664
 4992SOL    HW215876   1.746   3.442   4.650
 4993SOL     OW15877   2.206   5.790   3.820
 4993SOL    HW115878   2.240   5.874   3.864
 4993SOL    HW215879   2.134   5.750   3.876
 4994SOL     OW15880   3.110   5.359   5.643
 4994SOL    HW115881   3.173   5.284   5.624
 4994SOL    HW215882   3.053   5.336   5.722
 4995SOL     OW15883   0.574   0.968   6.083
 4995SOL    HW115884   0.634   0.926   6.015
 4995SOL    HW215885   0.491   0.913   6.093
 4996SOL     OW15886   0.199   0.612   4.307
 4996SOL    HW115887   0.200   0.681   4.234
 4996SOL    HW215888   0.287   0.564   4.307
 4997SOL     OW15889   4.357   1.571   0.638
 4997SOL    HW115890   4.393   1.491   0.685
 4997SOL    HW215891   4.396   1.575   0.545
 4998SOL     OW15892   0.617   3.928   3.591
 4998SOL    HW115893   0.712   3.921   3.560
 4998SOL    HW215894   0.602   4.018   3.632
 4999SOL     OW15895   0.447   3.140   3.752
 4999SOL    HW115896   0.536   3.096   3.743
 4999SOL    HW215897   0.458   3.239   3.746
 5000SOL     OW15898   2.927   6.441   3.205
 5000SOL    HW115899   2.890   6.383   3.278
 5000SOL    HW215900   3.010   6.486   3.236
 5001SOL     OW15901   0.352   5.554   3.211
 5001SOL    HW115902   0.337   5.637   3.265
 5001SOL    HW215903   0.303   5.562   3.124
 5002SOL     OW15904   1.184   4.939   3.353
 5002SOL    HW115905   1.273   4.912   3.316
 5002SOL    HW215906   1.161   5.031   3.321
 5003SOL     OW15907   3.499   0.896   1.910
 5003SOL    HW115908   3.526   0.885   2.006
 5003SOL    HW215909   3.509   0.991   1.883
 5004SOL     OW15910   4.452   6.108   0.390
 5004SOL    HW115911   4.442   6.202   0.357
 5004SOL    HW215912   4.368   6.058   0.373
 5005SOL     OW15913   3.632   2.926   0.859
 5005SOL    HW115914   3.706   2.887   0.914
 5005SOL    HW215915   3.641   2.895   0.764
 5006SOL     OW15916   5.386   0.463   2.496
 5006SOL    HW115917   5.331   0.474   2.579
 5006SOL    HW215918   5.332   0.491   2.417
 5007SOL     OW15919   6.213   5.308   2.501
 5007SOL    HW115920   6.307   5.312   2.534
 5007SOL    HW215921   6.154   5.360   2.564
 5008SOL     OW15922   5.053   6.935   3.460
 5008SOL    HW115923   4.993   6.991   3.516
 5008SOL    HW215924   5.139   6.983   3.444
 5009SOL     OW15925   0.426   1.596   6.938
 5009SOL    HW115926   0.479   1.640   7.010
 5009SOL    HW215927   0.402   1.503   6.965
 5010SOL     OW15928   4.953   3.780   1.036
 5010SOL    HW115929   4.868   3.747   0.996
 5010SOL    HW215930   5.022   3.708   1.033
 5011SOL     OW15931   1.665   2.532   6.374
 5011SOL    HW115932   1.673   2.606   6.441
 5011SOL    HW215933   1.570   2.524   6.345
 5012SOL     OW15934   6.437   1.860   5.983
 5012SOL    HW115935   6.397   1.912   6.058
 5012SOL    HW215936   6.528   1.828   6.009
 5013SOL     OW15937   5.344   6.944   5.368
 5013SOL    HW115938   5.292   7.009   5.313
 5013SOL    HW215939   5.410   6.896   5.310
 5014SOL     OW15940   6.144   3.567   0.839
 5014SOL    HW115941   6.160   3.547   0.935
 5014SOL    HW215942   6.170   3.487   0.784
 5015SOL     OW15943   5.809   5.485   4.525
 5015SOL    HW115944   5.870   5.423   4.476
 5015SOL    HW215945   5.733   5.512   4.465
 5016SOL     OW15946   1.562   2.523   6.681
 5016SOL    HW115947   1.505   2.457   6.729
 5016SOL    HW215948   1.544   2.517   6.583
 5017SOL     OW15949   0.903   2.278   1.989
 5017SOL    HW115950   0.970   2.288   1.915
 5017SOL    HW215951   0.942   2.311   2.075
 5018SOL     OW15952   1.188   0.698   6.959
 5018SOL    HW115953   1.274   0.663   6.998
 5018SOL    HW215954   1.163   0.644   6.879
 5019SOL     OW15955   1.396   4.150   4.087
 5019SOL    HW115956   1.328   4.147   4.160
 5019SOL    HW215957   1.444   4.062   4.082
 5020SOL     OW15958   1.686   6.858   4.109
 5020SOL    HW115959   1.784   6.862   4.128
 5020SOL    HW215960   1.636   6.902   4.183
 5021SOL     OW15961   2.163   0.279   1.588
 5021SOL    HW115962   2.124   0.333   1.662
 5021SOL    HW215963   2.195   0.340   1.515
 5022SOL     OW15964   6.888   2.643   0.744
 5022SOL    HW115965   6.849   2.551   0.742
 5022SOL    HW215966   6.945   2.653   0.826
 5023SOL     OW15967   7.017   3.387   2.975
 5023SOL    HW115968   6.993   3.312   2.913
 5023SOL    HW215969   0.055   3.353   3.049
 5024SOL     OW15970   4.915   4.301   6.992
 5024SOL    HW115971   4.974   4.247   6.932
 5024SOL    HW215972   4.822   4.301   6.957
 5025SOL     OW15973   5.046   2.174   4.603
 5025SOL    HW115974   5.029   2.183   4.702
 5025SOL    HW215975   4.997   2.246   4.554
 5026SOL     OW15976   5.221   6.118   5.003
 5026SOL    HW115977   5.142   6.148   5.056
 5026SOL    HW215978   5.199   6.120   4.905
 5027SOL     OW15979   5.288   6.667   0.784
 5027SOL    HW115980   5.208   6.638   0.838
 5027SOL    HW215981   5.275   6.640   0.689
 5028SOL     OW15982   6.315   1.859   2.529
 5028SOL    HW115983   6.247   1.816   2.470
 5028SOL    HW215984   6.383   1.905   2.472
 5029SOL     OW15985   5.085   2.370   2.276
 5029SOL    HW115986   5.027   2.407   2.203
 5029SOL    HW215987   5.029   2.352   2.357
 5030SOL     OW15988   0.100   3.488   0.722
 5030SOL    HW115989   0.164   3.535   0.662
 5030SOL    HW215990   0.103   3.531   0.813
 5031SOL     OW15991   6.256   0.107   5.975
 5031SOL    HW115992   6.242   0.088   5.878
 5031SOL    HW215993   6.271   0.205   5.988
 5032SOL     OW15994   2.636   4.080   6.087
 5032SOL    HW115995   2.697   4.091   6.166
 5032SOL    HW215996   2.561   4.147   6.093
 5033SOL     OW15997   2.271   6.658   5.862
 5033SOL    HW115998   2.358   6.636   5.904
 5033SOL    HW215999   2.286   6.695   5.770
 5034SOL     OW16000   4.257   6.052   4.327
 5034SOL    HW116001   4.175   6.009   4.364
 5034SOL    HW216002   4.232   6.120   4.258
 5035SOL     OW16003   1.847   3.902   3.461
 5035SOL    HW116004   1.839   3.823   3.401
 5035SOL    HW216005   1.902   3.877   3.541
 5036SOL     OW16006   1.183   3.110   4.801
 5036SOL    HW116007   1.084   3.100   4.793
 5036SOL    HW216008   1.224   3.021   4.823
 5037SOL     OW16009   5.124   4.455   1.006
 5037SOL    HW116010   5.108   4.401   1.088
 5037SOL    HW216011   5.040   4.500   0.978
 5038SOL     OW16012   3.015   3.788   4.041
 5038SOL    HW116013   2.955   3.774   3.962
 5038SOL    HW216014   3.058   3.878   4.035
 5039SOL     OW16015   0.530   3.700   0.034
 5039SOL    HW116016   0.496   3.670   0.123
 5039SOL    HW216017   0.571   3.791   0.044
 5040SOL     OW16018   0.687   1.271   5.469
 5040SOL    HW116019   0.749   1.194   5.456
 5040SOL    HW216020   0.738   1.357   5.457
 5041SOL     OW16021   0.006   2.005   1.495
 5041SOL    HW116022   0.020   1.913   1.458
 5041SOL    HW216023   6.938   2.041   1.461
 5042SOL     OW16024   0.826   1.946   5.782
 5042SOL    HW116025   0.831   1.870   5.847
 5042SOL    HW216026   0.917   1.964   5.745
 5043SOL     OW16027   3.128   6.659   2.147
 5043SOL    HW116028   3.200   6.633   2.083
 5043SOL    HW216029   3.094   6.751   2.123
 5044SOL     OW16030   0.014   5.486   0.149
 5044SOL    HW116031   0.021   5.388   0.132
 5044SOL    HW216032   0.001   5.501   0.247
 5045SOL     OW16033   6.021   2.488   0.980
 5045SOL    HW116034   6.044   2.581   0.953
 5045SOL    HW216035   5.927   2.485   1.013
 5046SOL     OW16036   3.958   3.064   2.218
 5046SOL    HW116037   3.963   3.050   2.119
 5046SOL    HW216038   4.027   3.131   2.245
 5047SOL     OW16039   1.873   4.070   3.257
 5047SOL    HW116040   1.876   4.004   3.332
 5047SOL    HW216041   1.813   4.035   3.185
 5048SOL     OW16042   2.704   0.699   5.780
 5048SOL    HW116043   2.627   0.638   5.796
 5048SOL    HW216044   2.694   0.780   5.837
 5049SOL     OW16045   4.211   1.828   6.564
 5049SOL    HW116046   4.202   1.835   6.464
 5049SOL    HW216047   4.159   1.902   6.607
 5050SOL     OW16048   1.656   0.553   0.955
 5050SOL    HW116049   1.615   0.497   1.027
 5050SOL    HW216050   1.733   0.604   0.993
 5051SOL     OW16051   4.323   4.742   0.894
 5051SOL    HW116052   4.413   4.785   0.887
 5051SOL    HW216053   4.327   4.669   0.963
 5052SOL     OW16054   2.142   2.848   4.670
 5052SOL    HW116055   2.140   2.919   4.600
 5052SOL    HW216056   2.049   2.834   4.705
 5053SOL     OW16057   6.516   0.808   0.674
 5053SOL    HW116058   6.590   0.796   0.608
 5053SOL    HW216059   6.554   0.814   0.766
 5054SOL     OW16060   4.003   5.164   3.396
 5054SOL    HW116061   3.933   5.209   3.451
 5054SOL    HW216062   3.961   5.091   3.342
 5055SOL     OW16063   0.367   3.558   5.299
 5055SOL    HW116064   0.316   3.623   5.354
 5055SOL    HW216065   0.310   3.478   5.279
 5056SOL     OW16066   6.507   4.178   3.793
 5056SOL    HW116067   6.531   4.272   3.769
 5056SOL    HW216068   6.416   4.176   3.835
 5057SOL     OW16069   6.599   5.965   2.091
 5057SOL    HW116070   6.651   5.884   2.063
 5057SOL    HW216071   6.540   5.942   2.169
 5058SOL     OW16072   2.451   5.541   6.194
 5058SOL    HW116073   2.409   5.453   6.168
 5058SOL    HW216074   2.404   5.615   6.147
 5059SOL     OW16075   6.967   0.520   2.498
 5059SOL    HW116076   6.959   0.532   2.399
 5059SOL    HW216077   0.022   0.455   2.517
 5060SOL     OW16078   6.974   2.256   6.402
 5060SOL    HW116079   6.913   2.204   6.343
 5060SOL    HW216080   0.030   2.197   6.434
 5061SOL     OW16081   5.470   3.545   0.731
 5061SOL    HW116082   5.513   3.477   0.671
 5061SOL    HW216083   5.474   3.635   0.688
 5062SOL     OW16084   6.592   0.013   0.217
 5062SOL    HW116085   6.593   0.032   0.315
 5062SOL    HW216086   6.648   0.081   0.170
 5063SOL     OW16087   1.284   6.289   2.803
 5063SOL    HW116088   1.344   6.216   2.837
 5063SOL    HW216089   1.210   6.249   2.749
 5064SOL     OW16090   5.096   3.870   6.958
 5064SOL    HW116091   5.093   3.802   0.012
 5064SOL    HW216092   5.007   3.877   6.914
 5065SOL     OW16093   3.033   6.803   6.253
 5065SOL    HW116094   2.987   6.733   6.308
 5065SOL    HW216095   2.965   6.853   6.200
 5066SOL     OW16096   4.586   4.906   0.934
 5066SOL    HW116097   4.686   4.911   0.939
 5066SOL    HW216098   4.552   4.979   0.874
 5067SOL     OW16099   4.941   1.193   6.818
 5067SOL    HW116100   5.031   1.165   6.785
 5067SOL    HW216101   4.871   1.136   6.776
 5068SOL     OW16102   3.730   4.724   0.941
 5068SOL    HW116103   3.804   4.712   0.875
 5068SOL    HW216104   3.683   4.637   0.955
 5069SOL     OW16105   0.005   5.341   2.926
 5069SOL    HW116106   6.937   5.384   2.899
 5069SOL    HW216107   7.007   5.247   2.953
 5070SOL     OW16108   4.910   3.077   3.814
 5070SOL    HW116109   4.966   3.018   3.871
 5070SOL    HW216110   4.823   3.032   3.794
 5071SOL     OW16111   4.473   0.932   0.511
 5071SOL    HW116112   4.522   0.845   0.515
 5071SOL    HW216113   4.382   0.918   0.471
 5072SOL     OW16114   0.669   4.147   1.171
 5072SOL    HW116115   0.704   4.157   1.265
 5072SOL    HW216116   0.572   4.125   1.174
 5073SOL     OW16117   3.744   2.148   3.771
 5073SOL    HW116118   3.781   2.141   3.864
 5073SOL    HW216119   3.813   2.186   3.710
 5074SOL     OW16120   4.345   4.769   5.125
 5074SOL    HW116121   4.364   4.817   5.039
 5074SOL    HW216122   4.339   4.671   5.107
 5075SOL     OW16123   6.815   6.648   4.008
 5075SOL    HW116124   6.803   6.745   3.989
 5075SOL    HW216125   6.763   6.594   3.943
 5076SOL     OW16126   4.525   0.341   0.830
 5076SOL    HW116127   4.443   0.287   0.851
 5076SOL    HW216128   4.541   0.340   0.731
 5077SOL     OW16129   6.797   2.837   2.194
 5077SOL    HW116130   6.811   2.851   2.096
 5077SOL    HW216131   6.819   2.742   2.217
 5078SOL     OW16132   0.172   0.925   4.376
 5078SOL    HW116133   0.124   1.007   4.344
 5078SOL    HW216134   0.197   0.868   4.297
 5079SOL     OW16135   4.471   4.983   4.869
 5079SOL    HW116136   4.396   5.028   4.917
 5079SOL    HW216137   4.443   4.891   4.841
 5080SOL     OW16138   5.969   0.673   5.930
 5080SOL    HW116139   5.981   0.703   5.835
 5080SOL    HW216140   5.980   0.573   5.934
 5081SOL     OW16141   3.032   3.140   2.993
 5081SOL    HW116142   2.943   3.186   3.000
 5081SOL    HW216143   3.068   3.152   2.901
 5082SOL     OW16144   0.732   0.817   5.913
 5082SOL    HW116145   0.785   0.805   5.829
 5082SOL    HW216146   0.792   0.843   5.988
 5083SOL     OW16147   1.013   4.363   2.345
 5083SOL    HW116148   0.954   4.440   2.370
 5083SOL    HW216149   1.091   4.396   2.291
 5084SOL     OW16150   0.870   5.816   2.257
 5084SOL    HW116151   0.900   5.833   2.351
 5084SOL    HW216152   0.822   5.897   2.222
 5085SOL     OW16153   6.616   3.107   6.607
 5085SOL    HW116154   6.660   3.172   6.545
 5085SOL    HW216155   6.550   3.051   6.556
 5086SOL     OW16156   6.225   5.452   4.702
 5086SOL    HW116157   6.307   5.509   4.712
 5086SOL    HW216158   6.249   5.368   4.653
 5087SOL     OW16159   5.906   5.392   5.113
 5087SOL    HW116160   5.962   5.403   5.031
 5087SOL    HW216161   5.932   5.460   5.181
 5088SOL     OW16162   6.174   0.843   6.947
 5088SOL    HW116163   6.254   0.792   6.979
 5088SOL    HW216164   6.196   0.940   6.942
 5089SOL     OW16165   5.489   2.575   4.252
 5089SOL    HW116166   5.450   2.626   4.176
 5089SOL    HW216167   5.446   2.485   4.259
 5090SOL     OW16168   1.485   5.455   0.344
 5090SOL    HW116169   1.553   5.382   0.344
 5090SOL    HW216170   1.419   5.439   0.417
 5091SOL     OW16171   0.749   6.137   3.295
 5091SOL    HW116172   0.812   6.083   3.239
 5091SOL    HW216173   0.793   6.158   3.383
 5092SOL     OW16174   3.495   2.947   1.348
 5092SOL    HW116175   3.478   2.850   1.335
 5092SOL    HW216176   3.483   2.971   1.444
 5093SOL     OW16177   1.157   1.863   1.302
 5093SOL    HW116178   1.187   1.906   1.387
 5093SOL    HW216179   1.230   1.871   1.234
 5094SOL     OW16180   0.279   0.182   6.687
 5094SOL    HW116181   0.328   0.162   6.772
 5094SOL    HW216182   0.192   0.228   6.709
 5095SOL     OW16183   3.021   6.941   5.294
 5095SOL    HW116184   3.057   6.932   5.387
 5095SOL    HW216185   2.922   6.955   5.299
 5096SOL     OW16186   3.732   6.107   3.188
 5096SOL    HW116187   3.659   6.053   3.229
 5096SOL    HW216188   3.804   6.046   3.154
 5097SOL     OW16189   1.053   1.726   6.612
 5097SOL    HW116190   1.000   1.699   6.692
 5097SOL    HW216191   1.005   1.798   6.562
 5098SOL     OW16192   6.942   2.437   3.322
 5098SOL    HW116193   6.951   2.494   3.240
 5098SOL    HW216194   6.857   2.384   3.316
 5099SOL     OW16195   0.708   1.294   4.214
 5099SOL    HW116196   0.623   1.285   4.265
 5099SOL    HW216197   0.771   1.353   4.265
 5100SOL     OW16198   4.402   5.090   5.817
 5100SOL    HW116199   4.450   5.031   5.753
 5100SOL    HW216200   4.380   5.038   5.900
 5101SOL     OW16201   5.360   5.863   0.806
 5101SOL    HW116202   5.328   5.856   0.711
 5101SOL    HW216203   5.421   5.942   0.815
 5102SOL     OW16204   3.586   5.281   4.096
 5102SOL    HW116205   3.645   5.248   4.169
 5102SOL    HW216206   3.643   5.318   4.022
 5103SOL     OW16207   1.135   1.587   3.819
 5103SOL    HW116208   1.067   1.607   3.749
 5103SOL    HW216209   1.089   1.555   3.902
 5104SOL     OW16210   0.535   0.875   0.915
 5104SOL    HW116211   0.590   0.808   0.866
 5104SOL    HW216212   0.529   0.850   1.011
 5105SOL     OW16213   1.469   2.802   6.335
 5105SOL    HW116214   1.373   2.825   6.348
 5105SOL    HW216215   1.525   2.854   6.399
 5106SOL     OW16216   2.376   6.695   2.222
 5106SOL    HW116217   2.337   6.640   2.297
 5106SOL    HW216218   2.474   6.675   2.214
 5107SOL     OW16219   2.128   6.979   6.679
 5107SOL    HW116220   2.072   6.937   6.607
 5107SOL    HW216221   2.096   6.947   6.768
 5108SOL     OW16222   3.288   4.147   4.600
 5108SOL    HW116223   3.232   4.178   4.677
 5108SOL    HW216224   3.231   4.139   4.518
 5109SOL     OW16225   6.798   2.348   2.756
 5109SOL    HW116226   6.853   2.329   2.674
 5109SOL    HW216227   6.709   2.303   2.747
 5110SOL     OW16228   2.200   6.156   5.216
 5110SOL    HW116229   2.205   6.112   5.305
 5110SOL    HW216230   2.265   6.231   5.212
 5111SOL     OW16231   1.827   0.436   6.899
 5111SOL    HW116232   1.846   0.513   6.839
 5111SOL    HW216233   1.867   0.353   6.860
 5112SOL     OW16234   0.085   6.714   2.775
 5112SOL    HW116235   7.009   6.739   2.794
 5112SOL    HW216236   0.131   6.790   2.729
 5113SOL     OW16237   0.571   0.454   6.127
 5113SOL    HW116238   0.665   0.478   6.103
 5113SOL    HW216239   0.572   0.386   6.200
 5114SOL     OW16240   4.150   5.918   6.575
 5114SOL    HW116241   4.244   5.954   6.571
 5114SOL    HW216242   4.130   5.868   6.491
 5115SOL     OW16243   2.449   3.878   5.356
 5115SOL    HW116244   2.545   3.855   5.336
 5115SOL    HW216245   2.420   3.953   5.298
 5116SOL     OW16246   6.735   3.781   1.237
 5116SOL    HW116247   6.829   3.810   1.251
 5116SOL    HW216248   6.687   3.849   1.181
 5117SOL     OW16249   2.410   4.865   2.468
 5117SOL    HW116250   2.390   4.881   2.565
 5117SOL    HW216251   2.343   4.800   2.431
 5118SOL     OW16252   4.275   0.014   1.359
 5118SOL    HW116253   4.269   0.067   1.443
 5118SOL    HW216254   4.239   6.941   1.375
 5119SOL     OW16255   6.088   0.713   2.271
 5119SOL    HW116256   6.073   0.680   2.178
 5119SOL    HW216257   6.072   0.638   2.335
 5120SOL     OW16258   3.223   1.483   2.028
 5120SOL    HW116259   3.247   1.569   2.074
 5120SOL    HW216260   3.159   1.432   2.084
 5121SOL     OW16261   0.327   3.801   4.259
 5121SOL    HW116262   0.414   3.810   4.306
 5121SOL    HW216263   0.259   3.763   4.321
 5122SOL     OW16264   2.010   5.573   3.250
 5122SOL    HW116265   2.028   5.476   3.235
 5122SOL    HW216266   1.937   5.584   3.317
 5123SOL     OW16267   6.112   3.038   2.554
 5123SOL    HW116268   6.190   2.988   2.516
 5123SOL    HW216269   6.063   3.084   2.480
 5124SOL     OW16270   3.147   6.424   0.644
 5124SOL    HW116271   3.114   6.374   0.724
 5124SOL    HW216272   3.216   6.490   0.672
 5125SOL     OW16273   0.612   2.184   5.838
 5125SOL    HW116274   0.674   2.150   5.768
 5125SOL    HW216275   0.530   2.127   5.841
 5126SOL     OW16276   3.983   1.849   0.386
 5126SOL    HW116277   4.012   1.922   0.325
 5126SOL    HW216278   3.931   1.888   0.462
 5127SOL     OW16279   4.963   3.033   6.776
 5127SOL    HW116280   4.943   2.977   6.856
 5127SOL    HW216281   4.918   2.994   6.696
 5128SOL     OW16282   0.254   0.452   6.284
 5128SOL    HW116283   0.250   0.377   6.219
 5128SOL    HW216284   0.304   0.423   6.366
 5129SOL     OW16285   4.846   3.117   3.541
 5129SOL    HW116286   4.906   3.192   3.514
 5129SOL    HW216287   4.864   3.093   3.637
 5130SOL     OW16288   2.382   6.332   5.128
 5130SOL    HW116289   2.439   6.382   5.193
 5130SOL    HW216290   2.438   6.300   5.052
 5131SOL     OW16291   3.710   4.960   2.878
 5131SOL    HW116292   3.803   4.981   2.848
 5131SOL    HW216293   3.696   4.861   2.878
 5132SOL     OW16294   3.536   2.079   6.356
 5132SOL    HW116295   3.481   2.049   6.434
 5132SOL    HW216296   3.554   2.177   6.364
 5133SOL     OW16297   4.272   4.743   6.379
 5133SOL    HW116298   4.213   4.728   6.300
 5133SOL    HW216299   4.345   4.806   6.354
 5134SOL     OW16300   5.853   5.621   0.146
 5134SOL    HW116301   5.776   5.641   0.085
 5134SOL    HW216302   5.830   5.648   0.239
 5135SOL     OW16303   0.099   3.134   2.121
 5135SOL    HW116304   0.025   3.172   2.066
 5135SOL    HW216305   0.093   3.035   2.122
 5136SOL     OW16306   0.478   0.571   4.312
 5136SOL    HW116307   0.505   0.627   4.233
 5136SOL    HW216308   0.549   0.578   4.383
 5137SOL     OW16309   5.996   0.593   2.947
 5137SOL    HW116310   5.976   0.592   3.045
 5137SOL    HW216311   6.082   0.545   2.930
 5138SOL     OW16312   3.029   3.897   2.370
 5138SOL    HW116313   2.995   3.952   2.446
 5138SOL    HW216314   2.989   3.805   2.375
 5139SOL     OW16315   5.117   0.110   4.922
 5139SOL    HW116316   5.215   0.089   4.921
 5139SOL    HW216317   5.067   0.035   4.880
 5140SOL     OW16318   3.225   3.645   6.484
 5140SOL    HW116319   3.159   3.582   6.443
 5140SOL    HW216320   3.185   3.737   6.486
 5141SOL     OW16321   0.979   3.219   1.560
 5141SOL    HW116322   0.959   3.158   1.483
 5141SOL    HW216323   0.938   3.309   1.542
 5142SOL     OW16324   0.529   6.586   2.902
 5142SOL    HW116325   0.480   6.626   2.979
 5142SOL    HW216326   0.544   6.488   2.918
 5143SOL     OW16327   6.657   6.315   2.500
 5143SOL    HW116328   6.674   6.318   2.598
 5143SOL    HW216329   6.737   6.279   2.453
 5144SOL     OW16330   2.020   3.069   5.295
 5144SOL    HW116331   1.973   3.039   5.378
 5144SOL    HW216332   1.988   3.014   5.218
 5145SOL     OW16333   1.786   5.540   5.612
 5145SOL    HW116334   1.776   5.600   5.533
 5145SOL    HW216335   1.823   5.452   5.583
 5146SOL     OW16336   6.034   5.696   6.470
 5146SOL    HW116337   6.014   5.628   6.399
 5146SOL    HW216338   6.052   5.650   6.557
 5147SOL     OW16339   5.409   1.890   3.800
 5147SOL    HW116340   5.498   1.846   3.816
 5147SOL    HW216341   5.359   1.896   3.886
 5148SOL     OW16342   6.021   1.719   0.770
 5148SOL    HW116343   5.963   1.775   0.711
 5148SOL    HW216344   6.035   1.630   0.727
 5149SOL     OW16345   3.575   5.785   4.049
 5149SOL    HW116346   3.543   5.815   4.139
 5149SOL    HW216347   3.513   5.714   4.014
 5150SOL     OW16348   0.017   0.637   3.251
 5150SOL    HW116349   0.114   0.614   3.260
 5150SOL    HW216350   6.995   0.648   3.341
 5151SOL     OW16351   5.313   5.016   1.724
 5151SOL    HW116352   5.376   5.087   1.755
 5151SOL    HW216353   5.256   5.053   1.650
 5152SOL     OW16354   2.262   2.031   0.600
 5152SOL    HW116355   2.169   2.060   0.622
 5152SOL    HW216356   2.311   2.106   0.555
 5153SOL     OW16357   2.377   2.763   0.619
 5153SOL    HW116358   2.468   2.733   0.649
 5153SOL    HW216359   2.310   2.742   0.690
 5154SOL     OW16360   0.629   2.481   0.671
 5154SOL    HW116361   0.584   2.500   0.759
 5154SOL    HW216362   0.560   2.483   0.598
 5155SOL     OW16363   1.533   0.794   0.292
 5155SOL    HW116364   1.525   0.886   0.256
 5155SOL    HW216365   1.443   0.750   0.291
 5156SOL     OW16366   4.809   5.302   6.048
 5156SOL    HW116367   4.897   5.260   6.070
 5156SOL    HW216368   4.796   5.383   6.106
 5157SOL     OW16369   3.654   0.884   2.190
 5157SOL    HW116370   3.643   0.971   2.237
 5157SOL    HW216371   3.743   0.881   2.145
 5158SOL     OW16372   1.434   2.469   2.260
 5158SOL    HW116373   1.426   2.560   2.220
 5158SOL    HW216374   1.348   2.420   2.249
 5159SOL     OW16375   6.451   3.004   5.223
 5159SOL    HW116376   6.364   3.048   5.203
 5159SOL    HW216377   6.447   2.908   5.194
 5160SOL     OW16378   6.851   6.844   2.911
 5160SOL    HW116379   6.816   6.757   2.876
 5160SOL    HW216380   6.812   6.861   3.002
 5161SOL     OW16381   1.135   1.924   5.976
 5161SOL    HW116382   1.179   1.947   6.063
 5161SOL    HW216383   1.095   1.833   5.983
 5162SOL     OW16384   0.186   6.824   5.608
 5162SOL    HW116385   0.179   6.741   5.552
 5162SOL    HW216386   0.242   6.805   5.689
 5163SOL     OW16387   3.091   0.570   1.937
 5163SOL    HW116388   3.084   0.524   1.848
 5163SOL    HW216389   3.137   0.509   2.002
 5164SOL     OW16390   2.620   3.434   0.562
 5164SOL    HW116391   2.548   3.442   0.630
 5164SOL    HW216392   2.604   3.499   0.488
 5165SOL     OW16393   1.370   5.034   5.567
 5165SOL    HW116394   1.431   4.955   5.566
 5165SOL    HW216395   1.285   5.010   5.613
 5166SOL     OW16396   6.995   6.050   5.726
 5166SOL    HW116397   6.943   6.125   5.768
 5166SOL    HW216398   6.931   5.979   5.694
 5167SOL     OW16399   6.201   3.914   5.789
 5167SOL    HW116400   6.252   3.851   5.848
 5167SOL    HW216401   6.252   3.928   5.704
 5168SOL     OW16402   4.583   1.894   3.042
 5168SOL    HW116403   4.668   1.859   3.081
 5168SOL    HW216404   4.599   1.924   2.948
 5169SOL     OW16405   5.108   5.979   4.318
 5169SOL    HW116406   5.170   5.910   4.357
 5169SOL    HW216407   5.017   5.969   4.358
 5170SOL     OW16408   1.978   3.850   6.050
 5170SOL    HW116409   1.920   3.881   5.975
 5170SOL    HW216410   2.073   3.872   6.031
 5171SOL     OW16411   2.754   6.605   6.086
 5171SOL    HW116412   2.745   6.650   6.174
 5171SOL    HW216413   2.815   6.527   6.095
 5172SOL     OW16414   5.798   5.681   6.008
 5172SOL    HW116415   5.734   5.706   6.081
 5172SOL    HW216416   5.829   5.763   5.961
 5173SOL     OW16417   3.985   6.029   4.485
 5173SOL    HW116418   3.927   6.081   4.422
 5173SOL    HW216419   3.993   5.935   4.454
 5174SOL     OW16420   0.620   6.274   2.932
 5174SOL    HW116421   0.573   6.187   2.951
 5174SOL    HW216422   0.587   6.311   2.845
 5175SOL     OW16423   2.298   1.785   6.474
 5175SOL    HW116424   2.368   1.845   6.514
 5175SOL    HW216425   2.307   1.693   6.512
 5176SOL     OW16426   6.059   6.493   6.129
 5176SOL    HW116427   6.005   6.577   6.127
 5176SOL    HW216428   6.113   6.490   6.213
 5177SOL     OW16429   5.524   5.441   0.631
 5177SOL    HW116430   5.453   5.414   0.695
 5177SOL    HW216431   5.562   5.529   0.658
 5178SOL     OW16432   0.400   3.753   1.148
 5178SOL    HW116433   0.389   3.694   1.228
 5178SOL    HW216434   0.374   3.846   1.172
 5179SOL     OW16435   4.694   5.124   2.959
 5179SOL    HW116436   4.631   5.192   2.995
 5179SOL    HW216437   4.661   5.032   2.982
 5180SOL     OW16438   1.844   4.460   2.100
 5180SOL    HW116439   1.837   4.552   2.137
 5180SOL    HW216440   1.834   4.464   2.000
 5181SOL     OW16441   6.736   1.385   5.400
 5181SOL    HW116442   6.659   1.377   5.464
 5181SOL    HW216443   6.751   1.296   5.355
 5182SOL     OW16444   2.312   6.227   2.029
 5182SOL    HW116445   2.221   6.233   1.989
 5182SOL    HW216446   2.306   6.236   2.128
 5183SOL     OW16447   4.754   2.076   3.403
 5183SOL    HW116448   4.676   2.140   3.406
 5183SOL    HW216449   4.733   1.995   3.457
 5184SOL     OW16450   2.529   1.883   2.796
 5184SOL    HW116451   2.595   1.909   2.725
 5184SOL    HW216452   2.437   1.906   2.765
 5185SOL     OW16453   6.278   0.212   1.831
 5185SOL    HW116454   6.298   0.242   1.738
 5185SOL    HW216455   6.356   0.231   1.890
 5186SOL     OW16456   6.271   2.313   6.644
 5186SOL    HW116457   6.263   2.361   6.731
 5186SOL    HW216458   6.183   2.314   6.597
 5187SOL     OW16459   1.626   4.309   5.201
 5187SOL    HW116460   1.606   4.406   5.194
 5187SOL    HW216461   1.717   4.291   5.164
 5188SOL     OW16462   6.762   0.352   1.406
 5188SOL    HW116463   6.810   0.265   1.422
 5188SOL    HW216464   6.828   0.420   1.374
 5189SOL     OW16465   5.211   5.982   6.715
 5189SOL    HW116466   5.231   5.974   6.618
 5189SOL    HW216467   5.132   6.042   6.728
 5190SOL     OW16468   1.698   4.833   0.491
 5190SOL    HW116469   1.699   4.905   0.560
 5190SOL    HW216470   1.781   4.778   0.498
 5191SOL     OW16471   2.749   4.170   1.384
 5191SOL    HW116472   2.762   4.071   1.391
 5191SOL    HW216473   2.763   4.212   1.474
 5192SOL     OW16474   0.652   4.730   3.031
 5192SOL    HW116475   0.563   4.706   2.994
 5192SOL    HW216476   0.663   4.689   3.122
 5193SOL     OW16477   4.219   0.780   4.861
 5193SOL    HW116478   4.236   0.758   4.765
 5193SOL    HW216479   4.288   0.845   4.893
 5194SOL     OW16480   4.446   1.881   5.016
 5194SOL    HW116481   4.467   1.906   5.110
 5194SOL    HW216482   4.347   1.873   5.004
 5195SOL     OW16483   1.545   0.970   5.929
 5195SOL    HW116484   1.469   1.020   5.971
 5195SOL    HW216485   1.558   0.883   5.976
 5196SOL     OW16486   5.731   6.385   3.080
 5196SOL    HW116487   5.781   6.321   3.139
 5196SOL    HW216488   5.636   6.392   3.113
 5197SOL     OW16489   1.590   3.679   4.877
 5197SOL    HW116490   1.512   3.702   4.817
 5197SOL    HW216491   1.668   3.653   4.821
 5198SOL     OW16492   6.181   5.740   3.793
 5198SOL    HW116493   6.211   5.834   3.807
 5198SOL    HW216494   6.105   5.739   3.728
 5199SOL     OW16495   0.499   4.806   1.299
 5199SOL    HW116496   0.534   4.815   1.206
 5199SOL    HW216497   0.508   4.893   1.348
 5200SOL     OW16498   6.281   3.802   5.184
 5200SOL    HW116499   6.195   3.754   5.200
 5200SOL    HW216500   6.358   3.739   5.200
 5201SOL     OW16501   1.267   6.190   4.706
 5201SOL    HW116502   1.275   6.134   4.624
 5201SOL    HW216503   1.170   6.200   4.730
 5202SOL     OW16504   6.974   4.510   1.109
 5202SOL    HW116505   6.969   4.592   1.051
 5202SOL    HW216506   6.897   4.450   1.088
 5203SOL     OW16507   6.332   3.001   0.037
 5203SOL    HW116508   6.289   2.954   6.978
 5203SOL    HW216509   6.427   2.972   0.045
 5204SOL     OW16510   5.191   5.531   6.213
 5204SOL    HW116511   5.219   5.573   6.299
 5204SOL    HW216512   5.217   5.435   6.212
 5205SOL     OW16513   2.592   6.508   0.103
 5205SOL    HW116514   2.670   6.504   0.166
 5205SOL    HW216515   2.510   6.475   0.149
 5206SOL     OW16516   0.197   4.374   4.760
 5206SOL    HW116517   0.167   4.469   4.764
 5206SOL    HW216518   0.231   4.353   4.668
 5207SOL     OW16519   1.391   4.909   2.691
 5207SOL    HW116520   1.434   4.996   2.715
 5207SOL    HW216521   1.295   4.925   2.669
 5208SOL     OW16522   5.030   1.452   0.450
 5208SOL    HW116523   5.052   1.544   0.418
 5208SOL    HW216524   5.024   1.453   0.550
 5209SOL     OW16525   5.763   4.823   2.744
 5209SOL    HW116526   5.796   4.728   2.745
 5209SOL    HW216527   5.698   4.837   2.819
 5210SOL     OW16528   4.968   3.921   3.024
 5210SOL    HW116529   4.912   3.968   2.956
 5210SOL    HW216530   4.914   3.903   3.106
 5211SOL     OW16531   3.091   3.920   2.085
 5211SOL    HW116532   3.070   3.822   2.087
 5211SOL    HW216533   3.076   3.959   2.175
 5212SOL     OW16534   0.848   6.609   6.803
 5212SOL    HW116535   0.947   6.613   6.819
 5212SOL    HW216536   0.827   6.646   6.713
 5213SOL     OW16537   4.371   2.211   6.104
 5213SOL    HW116538   4.356   2.120   6.064
 5213SOL    HW216539   4.434   2.202   6.182
 5214SOL     OW16540   4.143   2.347   0.215
 5214SOL    HW116541   4.191   2.378   0.133
 5214SOL    HW216542   4.143   2.420   0.284
 5215SOL     OW16543   5.587   5.318   3.452
 5215SOL    HW116544   5.494   5.301   3.483
 5215SOL    HW216545   5.601   5.417   3.441
 5216SOL     OW16546   4.409   5.732   1.569
 5216SOL    HW116547   4.353   5.671   1.625
 5216SOL    HW216548   4.440   5.683   1.487
 5217SOL     OW16549   2.679   4.906   3.633
 5217SOL    HW116550   2.698   5.001   3.655
 5217SOL    HW216551   2.705   4.847   3.709
 5218SOL     OW16552   1.840   0.175   4.073
 5218SOL    HW116553   1.753   0.197   4.118
 5218SOL    HW216554   1.822   0.140   3.981
 5219SOL     OW16555   3.069   0.403   1.448
 5219SOL    HW116556   3.036   0.353   1.527
 5219SOL    HW216557   3.097   0.339   1.377
 5220SOL     OW16558   1.223   6.998   2.352
 5220SOL    HW116559   1.134   0.021   2.369
 5220SOL    HW216560   1.284   0.045   2.308
 5221SOL     OW16561   4.408   0.942   7.007
 5221SOL    HW116562   4.373   0.987   0.070
 5221SOL    HW216563   4.332   0.914   6.950
 5222SOL     OW16564   0.941   6.446   2.513
 5222SOL    HW116565   0.923   6.518   2.445
 5222SOL    HW216566   0.854   6.410   2.546
 5223SOL     OW16567   4.251   6.555   0.874
 5223SOL    HW116568   4.166   6.524   0.917
 5223SOL    HW216569   4.252   6.526   0.778
 5224SOL     OW16570   5.635   1.062   3.640
 5224SOL    HW116571   5.583   1.049   3.725
 5224SOL    HW216572   5.581   1.029   3.563
 5225SOL     OW16573   0.295   6.930   5.170
 5225SOL    HW116574   0.373   6.975   5.213
 5225SOL    HW216575   0.215   6.990   5.177
 5226SOL     OW16576   2.693   0.409   4.043
 5226SOL    HW116577   2.673   0.396   3.946
 5226SOL    HW216578   2.776   0.358   4.067
 5227SOL     OW16579   4.886   3.550   4.053
 5227SOL    HW116580   4.874   3.636   4.004
 5227SOL    HW216581   4.890   3.474   3.988
 5228SOL     OW16582   5.056   1.343   1.613
 5228SOL    HW116583   5.113   1.320   1.535
 5228SOL    HW216584   5.009   1.261   1.647
 5229SOL     OW16585   1.360   4.390   3.625
 5229SOL    HW116586   1.356   4.293   3.597
 5229SOL    HW216587   1.279   4.437   3.591
 5230SOL     OW16588   1.340   1.025   6.128
 5230SOL    HW116589   1.330   1.122   6.151
 5230SOL    HW216590   1.257   0.992   6.084
 5231SOL     OW16591   2.901   3.633   3.563
 5231SOL    HW116592   2.901   3.648   3.464
 5231SOL    HW216593   2.935   3.541   3.582
 5232SOL     OW16594   5.593   2.876   4.735
 5232SOL    HW116595   5.509   2.841   4.693
 5232SOL    HW216596   5.610   2.969   4.703
 5233SOL     OW16597   0.737   6.827   3.229
 5233SOL    HW116598   0.746   6.830   3.130
 5233SOL    HW216599   0.671   6.896   3.259
 5234SOL     OW16600   4.044   5.101   1.397
 5234SOL    HW116601   3.974   5.037   1.367
 5234SOL    HW216602   4.134   5.069   1.366
 5235SOL     OW16603   0.939   3.181   1.841
 5235SOL    HW116604   0.930   3.172   1.742
 5235SOL    HW216605   1.033   3.161   1.868
 5236SOL     OW16606   6.342   3.481   0.146
 5236SOL    HW116607   6.377   3.481   0.053
 5236SOL    HW216608   6.400   3.538   0.204
 5237SOL     OW16609   1.938   1.396   3.218
 5237SOL    HW116610   1.849   1.389   3.264
 5237SOL    HW216611   1.993   1.466   3.263
 5238SOL     OW16612   2.100   3.487   1.165
 5238SOL    HW116613   2.110   3.388   1.167
 5238SOL    HW216614   2.154   3.524   1.089
 5239SOL     OW16615   3.056   3.170   4.774
 5239SOL    HW116616   3.003   3.225   4.839
 5239SOL    HW216617   3.028   3.191   4.681
 5240SOL     OW16618   3.524   2.159   4.872
 5240SOL    HW116619   3.527   2.257   4.894
 5240SOL    HW216620   3.448   2.142   4.809
 5241SOL     OW16621   2.896   5.396   5.473
 5241SOL    HW116622   2.810   5.377   5.520
 5241SOL    HW216623   2.973   5.379   5.535
 5242SOL     OW16624   4.390   0.120   5.699
 5242SOL    HW116625   4.299   0.081   5.684
 5242SOL    HW216626   4.451   0.050   5.735
 5243SOL     OW16627   0.708   4.196   0.665
 5243SOL    HW116628   0.693   4.293   0.646
 5243SOL    HW216629   0.804   4.181   0.687
 5244SOL     OW16630   5.478   3.532   6.824
 5244SOL    HW116631   5.442   3.459   6.883
 5244SOL    HW216632   5.472   3.504   6.728
 5245SOL     OW16633   4.883   4.701   6.259
 5245SOL    HW116634   4.981   4.716   6.243
 5245SOL    HW216635   4.830   4.767   6.205
 5246SOL     OW16636   1.286   3.929   3.140
 5246SOL    HW116637   1.277   3.844   3.087
 5246SOL    HW216638   1.352   3.915   3.214
 5247SOL     OW16639   0.131   4.633   0.155
 5247SOL    HW116640   0.116   4.682   0.069
 5247SOL    HW216641   0.076   4.550   0.156
 5248SOL     OW16642   5.079   1.212   0.356
 5248SOL    HW116643   5.034   1.190   0.269
 5248SOL    HW216644   5.046   1.300   0.390
 5249SOL     OW16645   1.614   5.741   6.925
 5249SOL    HW116646   1.695   5.765   6.978
 5249SOL    HW216647   1.549   5.818   6.927
 5250SOL     OW16648   1.131   1.503   5.845
 5250SOL    HW116649   1.047   1.477   5.797
 5250SOL    HW216650   1.194   1.545   5.779
 5251SOL     OW16651   0.121   2.963   0.875
 5251SOL    HW116652   0.087   3.046   0.829
 5251SOL    HW216653   0.221   2.967   0.880
 5252SOL     OW16654   5.121   6.625   1.021
 5252SOL    HW116655   5.097   6.711   1.067
 5252SOL    HW216656   5.052   6.556   1.042
 5253SOL     OW16657   5.633   2.809   3.746
 5253SOL    HW116658   5.642   2.757   3.661
 5253SOL    HW216659   5.539   2.840   3.757
 5254SOL     OW16660   5.396   0.812   4.583
 5254SOL    HW116661   5.494   0.823   4.603
 5254SOL    HW216662   5.383   0.799   4.485
 5255SOL     OW16663   2.609   5.574   4.032
 5255SOL    HW116664   2.644   5.510   4.100
 5255SOL    HW216665   2.661   5.659   4.037
 5256SOL     OW16666   4.836   6.409   1.824
 5256SOL    HW116667   4.861   6.378   1.916
 5256SOL    HW216668   4.801   6.502   1.828
 5257SOL     OW16669   3.139   1.506   3.313
 5257SOL    HW116670   3.144   1.449   3.231
 5257SOL    HW216671   3.052   1.491   3.359
 5258SOL     OW16672   5.702   2.011   1.857
 5258SOL    HW116673   5.779   1.964   1.901
 5258SOL    HW216674   5.616   1.971   1.890
 5259SOL     OW16675   5.773   4.331   1.549
 5259SOL    HW116676   5.759   4.245   1.501
 5259SOL    HW216677   5.698   4.394   1.529
 5260SOL     OW16678   4.646   2.621   1.560
 5260SOL    HW116679   4.670   2.547   1.623
 5260SOL    HW216680   4.599   2.694   1.610
 5261SOL     OW16681   2.555   2.523   4.977
 5261SOL    HW116682   2.515   2.448   5.029
 5261SOL    HW216683   2.520   2.610   5.012
 5262SOL     OW16684   1.593   0.374   1.787
 5262SOL    HW116685   1.512   0.374   1.728
 5262SOL    HW216686   1.644   0.289   1.775
 5263SOL     OW16687   1.383   6.744   6.425
 5263SOL    HW116688   1.309   6.700   6.477
 5263SOL    HW216689   1.355   6.753   6.329
 5264SOL     OW16690   1.151   1.483   1.123
 5264SOL    HW116691   1.155   1.536   1.038
 5264SOL    HW216692   1.106   1.538   1.194
 5265SOL     OW16693   5.245   4.849   3.700
 5265SOL    HW116694   5.344   4.843   3.686
 5265SOL    HW216695   5.217   4.785   3.771
 5266SOL     OW16696   1.963   6.924   1.201
 5266SOL    HW116697   2.012   6.870   1.269
 5266SOL    HW216698   2.008   7.013   1.190
 5267SOL     OW16699   4.331   3.676   5.418
 5267SOL    HW116700   4.302   3.587   5.382
 5267SOL    HW216701   4.272   3.748   5.382
 5268SOL     OW16702   5.521   5.085   5.791
 5268SOL    HW116703   5.589   5.090   5.719
 5268SOL    HW216704   5.447   5.024   5.762
 5269SOL     OW16705   1.771   4.682   6.109
 5269SOL    HW116706   1.778   4.605   6.172
 5269SOL    HW216707   1.711   4.658   6.032
 5270SOL     OW16708   6.881   2.164   3.700
 5270SOL    HW116709   6.882   2.083   3.642
 5270SOL    HW216710   6.792   2.210   3.690
 5271SOL     OW16711   5.496   3.772   5.763
 5271SOL    HW116712   5.417   3.781   5.822
 5271SOL    HW216713   5.568   3.834   5.793
 5272SOL     OW16714   2.104   1.325   3.550
 5272SOL    HW116715   2.141   1.399   3.494
 5272SOL    HW216716   2.170   1.302   3.622
 5273SOL     OW16717   6.764   0.255   5.262
 5273SOL    HW116718   6.859   0.270   5.292
 5273SOL    HW216719   6.710   0.337   5.282
 5274SOL     OW16720   0.611   5.589   4.707
 5274SOL    HW116721   0.583   5.603   4.802
 5274SOL    HW216722   0.666   5.667   4.677
 5275SOL     OW16723   2.231   6.630   6.685
 5275SOL    HW116724   2.136   6.626   6.715
 5275SOL    HW216725   2.235   6.677   6.596
 5276SOL     OW16726   0.476   6.786   0.597
 5276SOL    HW116727   0.512   6.724   0.667
 5276SOL    HW216728   0.481   6.880   0.630
 5277SOL     OW16729   0.353   0.918   2.053
 5277SOL    HW116730   0.370   1.016   2.041
 5277SOL    HW216731   0.256   0.899   2.040
 5278SOL     OW16732   0.762   3.999   6.012
 5278SOL    HW116733   0.696   4.042   6.074
 5278SOL    HW216734   0.831   4.067   5.986
 5279SOL     OW16735   2.963   6.803   6.730
 5279SOL    HW116736   2.990   6.846   6.644
 5279SOL    HW216737   2.915   6.871   6.787
 5280SOL     OW16738   4.553   6.551   5.417
 5280SOL    HW116739   4.593   6.536   5.508
 5280SOL    HW216740   4.523   6.646   5.409
 5281SOL     OW16741   2.893   6.783   4.820
 5281SOL    HW116742   2.829   6.795   4.896
 5281SOL    HW216743   2.981   6.825   4.844
 5282SOL     OW16744   0.202   6.529   0.669
 5282SOL    HW116745   0.284   6.488   0.628
 5282SOL    HW216746   0.185   6.618   0.628
 5283SOL     OW16747   1.291   0.996   4.003
 5283SOL    HW116748   1.276   1.093   4.020
 5283SOL    HW216749   1.347   0.957   4.076
 5284SOL     OW16750   4.933   3.148   2.078
 5284SOL    HW116751   5.001   3.087   2.119
 5284SOL    HW216752   4.859   3.094   2.038
 5285SOL     OW16753   1.771   2.024   3.952
 5285SOL    HW116754   1.775   1.966   3.870
 5285SOL    HW216755   1.727   1.973   4.026
 5286SOL     OW16756   6.523   3.085   1.247
 5286SOL    HW116757   6.500   3.122   1.157
 5286SOL    HW216758   6.491   2.990   1.253
 5287SOL     OW16759   0.884   5.505   2.040
 5287SOL    HW116760   0.936   5.439   1.986
 5287SOL    HW216761   0.907   5.495   2.137
 5288SOL     OW16762   4.393   0.783   1.642
 5288SOL    HW116763   4.360   0.755   1.552
 5288SOL    HW216764   4.330   0.752   1.712
 5289SOL     OW16765   2.421   4.656   5.801
 5289SOL    HW116766   2.382   4.583   5.857
 5289SOL    HW216767   2.399   4.639   5.705
 5290SOL     OW16768   1.841   2.537   4.864
 5290SOL    HW116769   1.848   2.635   4.885
 5290SOL    HW216770   1.777   2.524   4.788
 5291SOL     OW16771   2.986   4.867   4.533
 5291SOL    HW116772   2.949   4.825   4.615
 5291SOL    HW216773   3.079   4.900   4.551
 5292SOL     OW16774   0.391   3.705   4.719
 5292SOL    HW116775   0.432   3.786   4.761
 5292SOL    HW216776   0.463   3.642   4.691
 5293SOL     OW16777   2.485   0.518   4.192
 5293SOL    HW116778   2.399   0.492   4.148
 5293SOL    HW216779   2.561   0.487   4.136
 5294SOL     OW16780   5.161   6.948   4.631
 5294SOL    HW116781   5.246   6.914   4.591
 5294SOL    HW216782   5.127   6.882   4.697
 5295SOL     OW16783   2.109   0.650   1.561
 5295SOL    HW116784   2.023   0.685   1.598
 5295SOL    HW216785   2.147   0.581   1.623
 5296SOL     OW16786   4.611   4.624   2.095
 5296SOL    HW116787   4.632   4.606   1.999
 5296SOL    HW216788   4.591   4.721   2.108
 5297SOL     OW16789   3.319   5.174   5.986
 5297SOL    HW116790   3.401   5.226   5.963
 5297SOL    HW216791   3.324   5.144   6.082
 5298SOL     OW16792   2.697   2.220   0.408
 5298SOL    HW116793   2.634   2.152   0.370
 5298SOL    HW216794   2.764   2.175   0.467
 5299SOL     OW16795   2.533   0.713   1.607
 5299SOL    HW116796   2.561   0.622   1.637
 5299SOL    HW216797   2.603   0.780   1.634
 5300SOL     OW16798   3.096   5.102   6.655
 5300SOL    HW116799   3.120   5.194   6.684
 5300SOL    HW216800   3.011   5.073   6.700
 5301SOL     OW16801   5.667   0.159   5.865
 5301SOL    HW116802   5.704   0.087   5.806
 5301SOL    HW216803   5.584   0.126   5.911
 5302SOL     OW16804   4.847   5.852   2.793
 5302SOL    HW116805   4.934   5.810   2.822
 5302SOL    HW216806   4.784   5.854   2.870
 5303SOL     OW16807   0.979   5.663   5.551
 5303SOL    HW116808   1.051   5.664   5.481
 5303SOL    HW216809   1.009   5.608   5.629
 5304SOL     OW16810   0.767   0.727   3.114
 5304SOL    HW116811   0.830   0.649   3.114
 5304SOL    HW216812   0.767   0.770   3.024
 5305SOL     OW16813   6.947   5.524   4.728
 5305SOL    HW116814   7.012   5.449   4.719
 5305SOL    HW216815   6.996   5.609   4.748
 5306SOL     OW16816   1.280   2.107   5.800
 5306SOL    HW116817   1.251   2.194   5.838
 5306SOL    HW216818   1.250   2.033   5.860
 5307SOL     OW16819   0.139   1.417   1.393
 5307SOL    HW116820   0.137   1.348   1.320
 5307SOL    HW216821   0.046   1.445   1.415
 5308SOL     OW16822   1.448   4.538   2.316
 5308SOL    HW116823   1.383   4.592   2.369
 5308SOL    HW216824   1.426   4.546   2.219
 5309SOL     OW16825   5.598   5.603   3.413
 5309SOL    HW116826   5.672   5.612   3.480
 5309SOL    HW216827   5.558   5.693   3.395
 5310SOL     OW16828   6.475   2.455   3.472
 5310SOL    HW116829   6.517   2.473   3.383
 5310SOL    HW216830   6.414   2.530   3.496
 5311SOL     OW16831   6.125   0.468   0.103
 5311SOL    HW116832   6.156   0.444   0.195
 5311SOL    HW216833   6.037   0.515   0.108
 5312SOL     OW16834   6.154   6.567   0.271
 5312SOL    HW116835   6.153   6.642   0.205
 5312SOL    HW216836   6.147   6.480   0.222
 5313SOL     OW16837   0.932   6.892   5.969
 5313SOL    HW116838   0.962   6.810   6.019
 5313SOL    HW216839   1.011   6.951   5.952
 5314SOL     OW16840   6.057   1.637   2.003
 5314SOL    HW116841   6.049   1.716   2.064
 5314SOL    HW216842   6.014   1.658   1.915
 5315SOL     OW16843   4.000   2.194   3.664
 5315SOL    HW116844   4.025   2.099   3.682
 5315SOL    HW216845   4.076   2.254   3.689
 5316SOL     OW16846   0.470   2.664   4.498
 5316SOL    HW116847   0.424   2.729   4.437
 5316SOL    HW216848   0.528   2.603   4.443
 5317SOL     OW16849   5.541   2.828   6.544
 5317SOL    HW116850   5.620   2.767   6.551
 5317SOL    HW216851   5.499   2.838   6.634
 5318SOL     OW16852   6.963   3.861   6.124
 5318SOL    HW116853   6.950   3.855   6.025
 5318SOL    HW216854   6.962   3.957   6.153
 5319SOL     OW16855   3.441   5.985   2.595
 5319SOL    HW116856   3.418   6.039   2.514
 5319SOL    HW216857   3.357   5.952   2.638
 5320SOL     OW16858   4.413   5.566   0.973
 5320SOL    HW116859   4.476   5.500   0.933
 5320SOL    HW216860   4.318   5.538   0.956
 5321SOL     OW16861   1.536   4.352   5.456
 5321SOL    HW116862   1.555   4.450   5.461
 5321SOL    HW216863   1.575   4.315   5.372
 5322SOL     OW16864   3.972   6.770   2.261
 5322SOL    HW116865   3.978   6.686   2.315
 5322SOL    HW216866   3.909   6.755   2.185
 5323SOL     OW16867   4.313   0.316   6.127
 5323SOL    HW116868   4.307   0.325   6.027
 5323SOL    HW216869   4.265   0.393   6.170
 5324SOL     OW16870   1.632   2.222   1.469
 5324SOL    HW116871   1.535   2.204   1.454
 5324SOL    HW216872   1.657   2.194   1.561
 5325SOL     OW16873   1.762   2.476   5.157
 5325SOL    HW116874   1.802   2.510   5.072
 5325SOL    HW216875   1.835   2.455   5.223
 5326SOL     OW16876   6.233   6.980   1.312
 5326SOL    HW116877   6.216   0.013   1.228
 5326SOL    HW216878   6.146   6.943   1.346
 5327SOL     OW16879   0.486   2.373   5.368
 5327SOL    HW116880   0.455   2.362   5.463
 5327SOL    HW216881   0.519   2.466   5.354
 5328SOL     OW16882   5.114   5.366   0.517
 5328SOL    HW116883   5.178   5.316   0.459
 5328SOL    HW216884   5.058   5.426   0.459
 5329SOL     OW16885   2.145   6.938   6.292
 5329SOL    HW116886   2.231   6.988   6.304
 5329SOL    HW216887   2.107   6.960   6.202
 5330SOL     OW16888   2.199   4.727   1.401
 5330SOL    HW116889   2.246   4.658   1.456
 5330SOL    HW216890   2.266   4.793   1.366
 5331SOL     OW16891   6.355   0.957   6.589
 5331SOL    HW116892   6.389   0.923   6.677
 5331SOL    HW216893   6.286   1.029   6.606
 5332SOL     OW16894   6.876   5.182   1.683
 5332SOL    HW116895   6.925   5.262   1.650
 5332SOL    HW216896   6.939   5.104   1.689
 5333SOL     OW16897   1.057   5.924   4.908
 5333SOL    HW116898   1.154   5.937   4.927
 5333SOL    HW216899   1.023   5.845   4.958
 5334SOL     OW16900   3.902   0.102   5.003
 5334SOL    HW116901   3.949   0.188   5.025
 5334SOL    HW216902   3.848   0.115   4.920
 5335SOL     OW16903   0.266   5.629   0.240
 5335SOL    HW116904   0.290   5.714   0.193
 5335SOL    HW216905   0.201   5.577   0.184
 5336SOL     OW16906   1.113   4.506   1.337
 5336SOL    HW116907   1.129   4.583   1.275
 5336SOL    HW216908   1.114   4.538   1.431
 5337SOL     OW16909   4.939   3.888   1.292
 5337SOL    HW116910   4.859   3.923   1.342
 5337SOL    HW216911   4.913   3.868   1.197
 5338SOL     OW16912   5.885   2.023   0.228
 5338SOL    HW116913   5.833   2.108   0.242
 5338SOL    HW216914   5.866   1.988   0.136
 5339SOL     OW16915   6.363   0.520   1.828
 5339SOL    HW116916   6.309   0.481   1.902
 5339SOL    HW216917   6.438   0.573   1.866
 5340SOL     OW16918   5.572   2.173   6.125
 5340SOL    HW116919   5.656   2.176   6.179
 5340SOL    HW216920   5.590   2.209   6.034
 5341SOL     OW16921   4.349   0.709   0.714
 5341SOL    HW116922   4.418   0.694   0.643
 5341SOL    HW216923   4.289   0.629   0.721
 5342SOL     OW16924   2.314   0.877   6.221
 5342SOL    HW116925   2.390   0.841   6.275
 5342SOL    HW216926   2.349   0.924   6.141
 5343SOL     OW16927   4.008   3.866   2.121
 5343SOL    HW116928   4.078   3.795   2.123
 5343SOL    HW216929   4.023   3.930   2.196
 5344SOL     OW16930   2.498   2.583   2.881
 5344SOL    HW116931   2.458   2.570   2.972
 5344SOL    HW216932   2.574   2.519   2.868
 5345SOL     OW16933   5.098   0.342   2.798
 5345SOL    HW116934   5.126   0.420   2.743
 5345SOL    HW216935   5.000   0.326   2.785
 5346SOL     OW16936   2.912   6.973   3.483
 5346SOL    HW116937   2.958   6.989   3.396
 5346SOL    HW216938   2.860   0.035   3.509
 5347SOL     OW16939   6.799   1.744   1.699
 5347SOL    HW116940   6.873   1.682   1.726
 5347SOL    HW216941   6.730   1.693   1.647
 5348SOL     OW16942   0.083   1.143   0.833
 5348SOL    HW116943   0.010   1.078   0.851
 5348SOL    HW216944   0.171   1.106   0.863
 5349SOL     OW16945   6.249   0.241   1.175
 5349SOL    HW116946   6.199   0.325   1.157
 5349SOL    HW216947   6.346   0.262   1.188
 5350SOL     OW16948   2.676   0.549   0.131
 5350SOL    HW116949   2.596   0.539   0.072
 5350SOL    HW216950   2.690   0.645   0.153
 5351SOL     OW16951   4.238   0.698   1.834
 5351SOL    HW116952   4.147   0.662   1.854
 5351SOL    HW216953   4.276   0.741   1.916
 5352SOL     OW16954   3.295   6.316   3.468
 5352SOL    HW116955   3.236   6.275   3.399
 5352SOL    HW216956   3.239   6.359   3.539
 5353SOL     OW16957   5.676   0.320   5.652
 5353SOL    HW116958   5.650   0.257   5.725
 5353SOL    HW216959   5.654   0.280   5.563
 5354SOL     OW16960   1.511   3.449   1.101
 5354SOL    HW116961   1.550   3.400   1.179
 5354SOL    HW216962   1.533   3.400   1.017
 5355SOL     OW16963   4.266   1.902   5.580
 5355SOL    HW116964   4.223   1.926   5.667
 5355SOL    HW216965   4.257   1.979   5.517
 5356SOL     OW16966   5.951   3.134   0.875
 5356SOL    HW116967   5.909   3.062   0.820
 5356SOL    HW216968   6.008   3.092   0.946
 5357SOL     OW16969   4.040   5.928   0.610
 5357SOL    HW116970   3.973   5.928   0.684
 5357SOL    HW216971   3.994   5.920   0.522
 5358SOL     OW16972   5.034   3.828   1.634
 5358SOL    HW116973   4.979   3.911   1.638
 5358SOL    HW216974   5.126   3.847   1.670
 5359SOL     OW16975   3.118   0.404   0.002
 5359SOL    HW116976   3.194   0.341   7.006
 5359SOL    HW216977   3.123   0.478   6.955
 5360SOL     OW16978   4.264   0.606   0.138
 5360SOL    HW116979   4.249   0.604   0.039
 5360SOL    HW216980   4.176   0.603   0.186
 5361SOL     OW16981   1.766   0.857   6.350
 5361SOL    HW116982   1.707   0.926   6.307
 5361SOL    HW216983   1.727   0.829   6.437
 5362SOL     OW16984   4.075   5.519   3.543
 5362SOL    HW116985   4.032   5.605   3.514
 5362SOL    HW216986   4.064   5.508   3.642
 5363SOL     OW16987   0.623   5.201   4.985
 5363SOL    HW116988   0.712   5.231   4.951
 5363SOL    HW216989   0.558   5.277   4.981
 5364SOL     OW16990   1.093   6.169   6.615
 5364SOL    HW116991   1.023   6.223   6.569
 5364SOL    HW216992   1.075   6.071   6.601
 5365SOL     OW16993   3.489   1.810   6.039
 5365SOL    HW116994   3.501   1.711   6.033
 5365SOL    HW216995   3.579   1.854   6.045
 5366SOL     OW16996   3.539   4.100   6.272
 5366SOL    HW116997   3.627   4.134   6.305
 5366SOL    HW216998   3.468   4.169   6.290
 5367SOL     OW16999   0.620   4.849   0.861
 5367SOL    HW117000   0.535   4.803   0.836
 5367SOL    HW217001   0.697   4.785   0.853
 5368SOL     OW17002   6.976   0.694   4.002
 5368SOL    HW117003   6.903   0.705   4.069
 5368SOL    HW217004   6.940   0.715   3.911
 5369SOL     OW17005   2.099   3.370   2.480
 5369SOL    HW117006   2.148   3.302   2.427
 5369SOL    HW217007   2.000   3.355   2.470
 5370SOL     OW17008   4.010   2.947   1.422
 5370SOL    HW117009   4.097   2.943   1.374
 5370SOL    HW217010   4.005   2.873   1.489
 5371SOL     OW17011   1.614   4.143   4.955
 5371SOL    HW117012   1.676   4.098   4.890
 5371SOL    HW217013   1.591   4.234   4.921
 5372SOL     OW17014   2.993   6.282   2.995
 5372SOL    HW117015   2.981   6.339   3.076
 5372SOL    HW217016   2.997   6.341   2.914
 5373SOL     OW17017   2.006   5.005   4.332
 5373SOL    HW117018   1.920   5.035   4.290
 5373SOL    HW217019   1.998   4.910   4.361
 5374SOL     OW17020   3.023   2.546   0.616
 5374SOL    HW117021   2.955   2.518   0.683
 5374SOL    HW217022   3.107   2.574   0.663
 5375SOL     OW17023   1.087   3.990   4.942
 5375SOL    HW117024   1.024   4.050   4.992
 5375SOL    HW217025   1.054   3.896   4.947
 5376SOL     OW17026   2.956   4.305   6.943
 5376SOL    HW117027   2.929   4.318   6.848
 5376SOL    HW217028   2.906   4.227   6.982
 5377SOL     OW17029   0.609   1.530   1.792
 5377SOL    HW117030   0.611   1.441   1.745
 5377SOL    HW217031   0.661   1.523   1.877
 5378SOL     OW17032   5.081   6.938   0.233
 5378SOL    HW117033   4.998   6.883   0.229
 5378SOL    HW217034   5.069   7.014   0.297
 5379SOL     OW17035   6.897   6.599   1.056
 5379SOL    HW117036   6.915   6.538   0.979
 5379SOL    HW217037   6.969   6.668   1.062
 5380SOL     OW17038   2.004   1.309   4.277
 5380SOL    HW117039   2.094   1.351   4.281
 5380SOL    HW217040   1.934   1.380   4.268
 5381SOL     OW17041   5.802   3.648   1.660
 5381SOL    HW117042   5.900   3.633   1.649
 5381SOL    HW217043   5.781   3.666   1.756
 5382SOL     OW17044   1.629   6.860   1.546
 5382SOL    HW117045   1.677   6.864   1.633
 5382SOL    HW217046   1.667   6.786   1.490
 5383SOL     OW17047   2.084   2.193   4.542
 5383SOL    HW117048   2.038   2.190   4.453
 5383SOL    HW217049   2.016   2.204   4.615
 5384SOL     OW17050   5.309   6.747   4.409
 5384SOL    HW117051   5.398   6.705   4.428
 5384SOL    HW217052   5.236   6.688   4.446
 5385SOL     OW17053   3.139   4.042   2.927
 5385SOL    HW117054   3.087   4.028   3.012
 5385SOL    HW217055   3.093   3.994   2.852
 5386SOL     OW17056   5.703   6.957   5.660
 5386SOL    HW117057   5.665   6.865   5.653
 5386SOL    HW217058   5.782   6.966   5.599
 5387SOL     OW17059   3.400   4.980   1.221
 5387SOL    HW117060   3.441   5.045   1.286
 5387SOL    HW217061   3.458   4.974   1.140
 5388SOL     OW17062   6.054   6.086   2.891
 5388SOL    HW117063   6.145   6.080   2.850
 5388SOL    HW217064   5.997   6.147   2.835
 5389SOL     OW17065   5.728   2.310   1.239
 5389SOL    HW117066   5.683   2.222   1.252
 5389SOL    HW217067   5.711   2.368   1.319
 5390SOL     OW17068   6.163   4.860   5.867
 5390SOL    HW117069   6.239   4.809   5.827
 5390SOL    HW217070   6.077   4.831   5.825
 5391SOL     OW17071   3.473   3.167   0.032
 5391SOL    HW117072   3.436   3.087   7.005
 5391SOL    HW217073   3.497   3.144   0.126
 5392SOL     OW17074   6.694   2.721   2.980
 5392SOL    HW117075   6.678   2.683   2.889
 5392SOL    HW217076   6.607   2.752   3.019
 5393SOL     OW17077   6.272   6.528   6.325
 5393SOL    HW117078   6.241   6.597   6.391
 5393SOL    HW217079   6.306   6.448   6.374
 5394SOL     OW17080   2.040   3.814   5.660
 5394SOL    HW117081   2.118   3.752   5.655
 5394SOL    HW217082   1.962   3.775   5.611
 5395SOL     OW17083   4.522   0.526   1.033
 5395SOL    HW117084   4.617   0.549   1.058
 5395SOL    HW217085   4.522   0.448   0.971
 5396SOL     OW17086   4.592   2.604   1.947
 5396SOL    HW117087   4.674   2.658   1.926
 5396SOL    HW217088   4.598   2.570   2.041
 5397SOL     OW17089   0.810   2.861   1.687
 5397SOL    HW117090   0.903   2.883   1.715
 5397SOL    HW217091   0.786   2.770   1.721
 5398SOL     OW17092   3.334   3.086   2.177
 5398SOL    HW117093   3.384   3.056   2.095
 5398SOL    HW217094   3.236   3.078   2.161
 5399SOL     OW17095   0.713   5.313   6.744
 5399SOL    HW117096   0.811   5.323   6.726
 5399SOL    HW217097   0.700   5.249   6.820
 5400SOL     OW17098   2.205   3.460   7.005
 5400SOL    HW117099   2.216   3.405   0.069
 5400SOL    HW217100   2.251   3.414   6.929
 5401SOL     OW17101   6.492   1.957   0.738
 5401SOL    HW117102   6.551   1.879   0.720
 5401SOL    HW217103   6.419   1.931   0.801
 5402SOL     OW17104   1.166   5.975   2.484
 5402SOL    HW117105   1.119   6.061   2.505
 5402SOL    HW217106   1.259   5.977   2.521
 5403SOL     OW17107   6.139   2.932   6.799
 5403SOL    HW117108   6.050   2.975   6.809
 5403SOL    HW217109   6.140   2.875   6.717
 5404SOL     OW17110   1.149   2.959   3.258
 5404SOL    HW117111   1.191   2.868   3.254
 5404SOL    HW217112   1.160   3.004   3.170
 5405SOL     OW17113   0.056   4.191   5.399
 5405SOL    HW117114   0.087   4.112   5.452
 5405SOL    HW217115   6.984   4.172   5.363
 5406SOL     OW17116   1.232   0.253   4.100
 5406SOL    HW117117   1.226   0.201   4.185
 5406SOL    HW217118   1.220   0.192   4.022
 5407SOL     OW17119   4.213   3.461   6.503
 5407SOL    HW117120   4.160   3.476   6.587
 5407SOL    HW217121   4.244   3.366   6.500
 5408SOL     OW17122   3.537   1.058   0.157
 5408SOL    HW117123   3.576   1.009   0.079
 5408SOL    HW217124   3.451   1.102   0.131
 5409SOL     OW17125   4.704   0.460   2.576
 5409SOL    HW117126   4.707   0.490   2.480
 5409SOL    HW217127   4.665   0.368   2.581
 5410SOL     OW17128   1.527   2.223   3.339
 5410SOL    HW117129   1.434   2.235   3.374
 5410SOL    HW217130   1.541   2.126   3.317
 5411SOL     OW17131   2.104   4.856   4.991
 5411SOL    HW117132   2.154   4.941   4.974
 5411SOL    HW217133   2.170   4.782   5.007
 5412SOL     OW17134   6.501   2.284   2.199
 5412SOL    HW117135   6.420   2.317   2.151
 5412SOL    HW217136   6.572   2.260   2.132
 5413SOL     OW17137   1.938   6.695   2.419
 5413SOL    HW117138   1.853   6.744   2.439
 5413SOL    HW217139   1.923   6.596   2.429
 5414SOL     OW17140   4.389   0.511   5.190
 5414SOL    HW117141   4.371   0.421   5.231
 5414SOL    HW217142   4.342   0.517   5.102
 5415SOL     OW17143   6.372   3.989   2.403
 5415SOL    HW117144   6.318   4.062   2.444
 5415SOL    HW217145   6.377   3.911   2.465
 5416SOL     OW17146   4.105   5.467   4.404
 5416SOL    HW117147   4.052   5.484   4.321
 5416SOL    HW217148   4.096   5.371   4.430
 5417SOL     OW17149   2.867   6.977   6.125
 5417SOL    HW117150   2.905   0.048   6.144
 5417SOL    HW217151   2.777   6.986   6.082
 5418SOL     OW17152   3.514   1.007   3.745
 5418SOL    HW117153   3.430   1.018   3.799
 5418SOL    HW217154   3.500   0.937   3.676
 5419SOL     OW17155   3.325   3.913   0.262
 5419SOL    HW117156   3.378   3.942   0.342
 5419SOL    HW217157   3.277   3.992   0.224
 5420SOL     OW17158   0.852   2.540   2.556
 5420SOL    HW117159   0.779   2.603   2.581
 5420SOL    HW217160   0.936   2.567   2.604
 5421SOL     OW17161   2.002   2.814   0.719
 5421SOL    HW117162   2.058   2.871   0.659
 5421SOL    HW217163   1.949   2.750   0.663
 5422SOL     OW17164   0.798   3.694   0.187
 5422SOL    HW117165   0.717   3.731   0.141
 5422SOL    HW217166   0.831   3.760   0.254
 5423SOL     OW17167   5.226   3.014   5.813
 5423SOL    HW117168   5.129   3.016   5.837
 5423SOL    HW217169   5.236   3.005   5.714
 5424SOL     OW17170   5.407   3.621   5.519
 5424SOL    HW117171   5.423   3.634   5.617
 5424SOL    HW217172   5.346   3.692   5.486
 5425SOL     OW17173   5.240   0.984   4.751
 5425SOL    HW117174   5.316   0.989   4.686
 5425SOL    HW217175   5.168   0.926   4.713
 5426SOL     OW17176   0.319   6.638   5.196
 5426SOL    HW117177   0.331   6.733   5.169
 5426SOL    HW217178   0.387   6.615   5.267
 5427SOL     OW17179   4.267   6.650   0.007
 5427SOL    HW117180   4.265   6.642   0.107
 5427SOL    HW217181   4.203   6.584   6.986
 5428SOL     OW17182   2.212   0.929   6.955
 5428SOL    HW117183   2.139   0.997   6.964
 5428SOL    HW217184   2.172   0.839   6.937
 5429SOL     OW17185   1.286   2.364   5.898
 5429SOL    HW117186   1.203   2.396   5.945
 5429SOL    HW217187   1.364   2.368   5.961
 5430SOL     OW17188   2.258   2.288   5.290
 5430SOL    HW117189   2.240   2.190   5.296
 5430SOL    HW217190   2.276   2.324   5.382
 5431SOL     OW17191   3.542   5.572   4.426
 5431SOL    HW117192   3.482   5.520   4.488
 5431SOL    HW217193   3.634   5.533   4.429
 5432SOL     OW17194   5.541   5.537   1.064
 5432SOL    HW117195   5.456   5.573   1.027
 5432SOL    HW217196   5.539   5.437   1.061
 5433SOL     OW17197   0.291   1.906   4.054
 5433SOL    HW117198   0.233   1.966   4.001
 5433SOL    HW217199   0.260   1.904   4.149
 5434SOL     OW17200   2.518   6.862   5.266
 5434SOL    HW117201   2.442   6.872   5.201
 5434SOL    HW217202   2.542   6.765   5.274
 5435SOL     OW17203   5.259   1.686   1.818
 5435SOL    HW117204   5.218   1.735   1.741
 5435SOL    HW217205   5.274   1.591   1.793
 5436SOL     OW17206   5.144   4.184   2.645
 5436SOL    HW117207   5.200   4.267   2.639
 5436SOL    HW217208   5.151   4.134   2.559
 5437SOL     OW17209   3.510   4.508   6.715
 5437SOL    HW117210   3.523   4.563   6.797
 5437SOL    HW217211   3.495   4.412   6.741
 5438SOL     OW17212   6.763   0.849   1.155
 5438SOL    HW117213   6.785   0.945   1.134
 5438SOL    HW217214   6.721   0.844   1.245
 5439SOL     OW17215   1.145   2.741   1.049
 5439SOL    HW117216   1.055   2.785   1.054
 5439SOL    HW217217   1.206   2.795   0.991
 5440SOL     OW17218   1.370   1.314   1.704
 5440SOL    HW117219   1.339   1.409   1.711
 5440SOL    HW217220   1.436   1.306   1.629
 5441SOL     OW17221   3.570   2.017   4.102
 5441SOL    HW117222   3.541   2.051   4.012
 5441SOL    HW217223   3.533   2.077   4.174
 5442SOL     OW17224   3.434   0.674   2.236
 5442SOL    HW117225   3.355   0.714   2.190
 5442SOL    HW217226   3.491   0.746   2.275
 5443SOL     OW17227   2.664   0.023   5.937
 5443SOL    HW117228   2.638   0.119   5.951
 5443SOL    HW217229   2.689   0.008   5.841
 5444SOL     OW17230   0.400   0.653   3.542
 5444SOL    HW117231   0.318   0.629   3.594
 5444SOL    HW217232   0.375   0.713   3.466
 5445SOL     OW17233   6.075   3.331   1.853
 5445SOL    HW117234   6.150   3.385   1.891
 5445SOL    HW217235   6.108   3.280   1.773
 5446SOL     OW17236   6.683   5.587   5.911
 5446SOL    HW117237   6.778   5.560   5.900
 5446SOL    HW217238   6.676   5.686   5.917
 5447SOL     OW17239   2.977   2.250   0.814
 5447SOL    HW117240   3.031   2.236   0.897
 5447SOL    HW217241   2.948   2.346   0.808
 5448SOL     OW17242   5.630   1.836   6.184
 5448SOL    HW117243   5.550   1.851   6.126
 5448SOL    HW217244   5.707   1.889   6.149
 5449SOL     OW17245   0.282   2.404   6.500
 5449SOL    HW117246   0.370   2.436   6.465
 5449SOL    HW217247   0.278   2.421   6.599
 5450SOL     OW17248   2.678   6.021   1.065
 5450SOL    HW117249   2.646   6.001   1.158
 5450SOL    HW217250   2.666   5.940   1.008
 5451SOL     OW17251   1.939   0.106   3.060
 5451SOL    HW117252   1.872   0.057   3.003
 5451SOL    HW217253   1.995   0.165   3.002
 5452SOL     OW17254   2.494   3.638   5.519
 5452SOL    HW117255   2.585   3.671   5.544
 5452SOL    HW217256   2.436   3.716   5.495
 5453SOL     OW17257   0.436   5.032   6.177
 5453SOL    HW117258   0.534   5.015   6.192
 5453SOL    HW217259   0.419   5.043   6.079
 5454SOL     OW17260   0.348   3.871   5.012
 5454SOL    HW117261   0.268   3.831   5.056
 5454SOL    HW217262   0.421   3.803   5.008
 5455SOL     OW17263   6.625   2.581   0.539
 5455SOL    HW117264   6.656   2.665   0.494
 5455SOL    HW217265   6.705   2.530   0.571
 5456SOL     OW17266   3.472   6.693   1.727
 5456SOL    HW117267   3.420   6.715   1.644
 5456SOL    HW217268   3.532   6.615   1.708
 5457SOL     OW17269   6.447   3.756   0.509
 5457SOL    HW117270   6.458   3.692   0.586
 5457SOL    HW217271   6.350   3.775   0.495
 5458SOL     OW17272   1.706   4.271   6.044
 5458SOL    HW117273   1.687   4.264   6.142
 5458SOL    HW217274   1.802   4.295   6.031
 5459SOL     OW17275   1.946   4.242   5.895
 5459SOL    HW117276   1.975   4.324   5.945
 5459SOL    HW217277   2.023   4.206   5.842
 5460SOL     OW17278   4.104   0.222   3.351
 5460SOL    HW117279   4.030   0.277   3.389
 5460SOL    HW217280   4.179   0.215   3.417
 5461SOL     OW17281   4.426   6.528   4.728
 5461SOL    HW117282   4.351   6.465   4.748
 5461SOL    HW217283   4.498   6.479   4.679
 5462SOL     OW17284   0.566   0.624   1.513
 5462SOL    HW117285   0.521   0.706   1.478
 5462SOL    HW217286   0.575   0.630   1.612
 5463SOL     OW17287   6.950   3.680   0.883
 5463SOL    HW117288   6.897   3.599   0.858
 5463SOL    HW217289   6.994   3.666   0.971
 5464SOL     OW17290   2.186   6.460   4.238
 5464SOL    HW117291   2.134   6.511   4.169
 5464SOL    HW217292   2.221   6.523   4.307
 5465SOL     OW17293   2.562   5.557   6.712
 5465SOL    HW117294   2.581   5.565   6.614
 5465SOL    HW217295   2.604   5.633   6.761
 5466SOL     OW17296   5.156   5.050   5.023
 5466SOL    HW117297   5.231   5.116   5.023
 5466SOL    HW217298   5.179   4.973   4.963
 5467SOL     OW17299   5.615   1.568   2.220
 5467SOL    HW117300   5.713   1.551   2.215
 5467SOL    HW217301   5.565   1.485   2.194
 5468SOL     OW17302   4.352   1.470   5.704
 5468SOL    HW117303   4.388   1.559   5.675
 5468SOL    HW217304   4.350   1.464   5.803
 5469SOL     OW17305   5.053   4.448   1.585
 5469SOL    HW117306   5.020   4.403   1.501
 5469SOL    HW217307   5.109   4.527   1.561
 5470SOL     OW17308   0.142   5.030   3.317
 5470SOL    HW117309   0.238   5.032   3.347
 5470SOL    HW217310   0.136   4.993   3.225
 5471SOL     OW17311   6.200   4.587   2.430
 5471SOL    HW117312   6.269   4.596   2.358
 5471SOL    HW217313   6.116   4.632   2.401
 5472SOL     OW17314   3.671   5.340   5.198
 5472SOL    HW117315   3.747   5.401   5.218
 5472SOL    HW217316   3.649   5.345   5.100
 5473SOL     OW17317   1.579   4.401   3.448
 5473SOL    HW117318   1.526   4.377   3.530
 5473SOL    HW217319   1.614   4.317   3.406
 5474SOL     OW17320   1.162   6.450   3.332
 5474SOL    HW117321   1.063   6.458   3.329
 5474SOL    HW217322   1.191   6.435   3.427
 5475SOL     OW17323   2.971   2.706   1.661
 5475SOL    HW117324   3.045   2.766   1.691
 5475SOL    HW217325   2.886   2.759   1.655
 5476SOL     OW17326   1.700   3.192   0.054
 5476SOL    HW117327   1.702   3.291   0.037
 5476SOL    HW217328   1.757   3.172   0.134
 5477SOL     OW17329   2.084   2.342   2.273
 5477SOL    HW117330   2.010   2.388   2.224
 5477SOL    HW217331   2.076   2.243   2.259
 5478SOL     OW17332   6.966   5.546   6.028
 5478SOL    HW117333   6.907   5.615   6.069
 5478SOL    HW217334   6.952   5.459   6.075
 5479SOL     OW17335   4.878   6.995   5.349
 5479SOL    HW117336   4.850   6.901   5.328
 5479SOL    HW217337   4.859   0.035   5.271
 5480SOL     OW17338   0.863   2.619   5.454
 5480SOL    HW117339   0.859   2.673   5.538
 5480SOL    HW217340   0.923   2.540   5.469
 5481SOL     OW17341   4.511   6.592   3.580
 5481SOL    HW117342   4.592   6.635   3.540
 5481SOL    HW217343   4.474   6.651   3.652
 5482SOL     OW17344   1.967   5.459   2.094
 5482SOL    HW117345   1.960   5.374   2.146
 5482SOL    HW217346   1.971   5.439   1.996
 5483SOL     OW17347   0.632   2.242   6.157
 5483SOL    HW117348   0.542   2.261   6.196
 5483SOL    HW217349   0.625   2.237   6.058
 5484SOL     OW17350   5.359   0.018   4.929
 5484SOL    HW117351   5.394   0.102   4.887
 5484SOL    HW217352   5.391   6.958   4.878
 5485SOL     OW17353   3.963   0.901   4.915
 5485SOL    HW117354   4.061   0.883   4.911
 5485SOL    HW217355   3.935   0.950   4.832
 5486SOL     OW17356   3.196   4.995   3.769
 5486SOL    HW117357   3.103   4.994   3.805
 5486SOL    HW217358   3.235   5.087   3.781
 5487SOL     OW17359   3.063   5.827   5.526
 5487SOL    HW117360   3.110   5.743   5.498
 5487SOL    HW217361   2.968   5.805   5.550
 5488SOL     OW17362   4.729   1.814   6.843
 5488SOL    HW117363   4.699   1.856   6.758
 5488SOL    HW217364   4.823   1.783   6.834
 5489SOL     OW17365   0.260   3.306   4.009
 5489SOL    HW117366   0.328   3.274   3.943
 5489SOL    HW217367   0.181   3.344   3.960
 5490SOL     OW17368   0.792   5.077   2.562
 5490SOL    HW117369   0.870   5.031   2.521
 5490SOL    HW217370   0.805   5.176   2.558
 5491SOL     OW17371   6.176   3.762   0.443
 5491SOL    HW117372   6.146   3.839   0.386
 5491SOL    HW217373   6.117   3.683   0.426
 5492SOL     OW17374   0.009   1.907   6.089
 5492SOL    HW117375   6.987   1.903   6.181
 5492SOL    HW217376   0.047   1.818   6.066
 5493SOL     OW17377   4.193   4.215   0.032
 5493SOL    HW117378   4.256   4.292   0.035
 5493SOL    HW217379   4.123   4.232   6.981
 5494SOL     OW17380   5.932   2.802   5.527
 5494SOL    HW117381   5.967   2.866   5.595
 5494SOL    HW217382   5.927   2.847   5.437
 5495SOL     OW17383   5.920   0.629   0.008
 5495SOL    HW117384   5.833   0.645   0.055
 5495SOL    HW217385   5.916   0.667   6.935
 5496SOL     OW17386   3.956   0.132   6.088
 5496SOL    HW117387   4.036   0.190   6.076
 5496SOL    HW217388   3.880   0.186   6.124
 5497SOL     OW17389   0.849   0.519   5.336
 5497SOL    HW117390   0.924   0.576   5.369
 5497SOL    HW217391   0.781   0.508   5.408
 5498SOL     OW17392   0.461   5.062   1.432
 5498SOL    HW117393   0.499   5.073   1.524
 5498SOL    HW217394   0.422   5.149   1.401
 5499SOL     OW17395   2.242   0.597   3.977
 5499SOL    HW117396   2.288   0.658   3.913
 5499SOL    HW217397   2.174   0.543   3.927
 5500SOL     OW17398   2.388   6.483   1.241
 5500SOL    HW117399   2.300   6.529   1.253
 5500SOL    HW217400   2.378   6.386   1.260
 5501SOL     OW17401   4.527   3.341   6.897
 5501SOL    HW117402   4.547   3.401   6.975
 5501SOL    HW217403   4.429   3.345   6.877
 5502SOL     OW17404   4.600   3.247   6.625
 5502SOL    HW117405   4.579   3.286   6.715
 5502SOL    HW217406   4.586   3.148   6.628
 5503SOL     OW17407   5.808   3.565   0.934
 5503SOL    HW117408   5.827   3.634   0.864
 5503SOL    HW217409   5.878   3.570   1.006
 5504SOL     OW17410   3.370   2.171   6.853
 5504SOL    HW117411   3.416   2.243   6.905
 5504SOL    HW217412   3.436   2.123   6.796
 5505SOL     OW17413   2.912   4.915   2.548
 5505SOL    HW117414   2.827   4.890   2.503
 5505SOL    HW217415   2.928   4.854   2.627
 5506SOL     OW17416   6.562   2.515   6.145
 5506SOL    HW117417   6.473   2.522   6.189
 5506SOL    HW217418   6.580   2.597   6.091
 5507SOL     OW17419   3.866   6.568   0.737
 5507SOL    HW117420   3.815   6.626   0.801
 5507SOL    HW217421   3.917   6.625   0.673
 5508SOL     OW17422   0.508   1.384   6.510
 5508SOL    HW117423   0.553   1.443   6.577
 5508SOL    HW217424   0.433   1.335   6.554
 5509SOL     OW17425   6.243   3.812   6.941
 5509SOL    HW117426   6.154   3.856   6.925
 5509SOL    HW217427   6.294   3.863   7.009
 5510SOL     OW17428   5.296   5.633   6.451
 5510SOL    HW117429   5.220   5.651   6.513
 5510SOL    HW217430   5.364   5.576   6.497
 5511SOL     OW17431   1.112   2.492   6.061
 5511SOL    HW117432   1.024   2.454   6.091
 5511SOL    HW217433   1.171   2.503   6.141
 5512SOL     OW17434   1.985   7.004   2.417
 5512SOL    HW117435   2.002   6.960   2.505
 5512SOL    HW217436   2.049   6.967   2.349
 5513SOL     OW17437   3.313   4.668   6.951
 5513SOL    HW117438   3.356   4.724   0.004
 5513SOL    HW217439   3.219   4.699   6.936
 5514SOL     OW17440   3.492   1.320   0.671
 5514SOL    HW117441   3.434   1.376   0.611
 5514SOL    HW217442   3.558   1.270   0.615
 5515SOL     OW17443   3.120   5.175   2.636
 5515SOL    HW117444   3.166   5.104   2.584
 5515SOL    HW217445   3.130   5.157   2.734
 5516SOL     OW17446   1.840   2.306   5.813
 5516SOL    HW117447   1.811   2.401   5.809
 5516SOL    HW217448   1.804   2.264   5.897
 5517SOL     OW17449   0.920   1.961   3.443
 5517SOL    HW117450   0.856   1.892   3.407
 5517SOL    HW217451   0.871   2.022   3.505
 5518SOL     OW17452   4.462   4.916   6.292
 5518SOL    HW117453   4.469   5.011   6.324
 5518SOL    HW217454   4.446   4.916   6.193
 5519SOL     OW17455   5.562   2.551   5.857
 5519SOL    HW117456   5.491   2.615   5.829
 5519SOL    HW217457   5.528   2.492   5.930
 5520SOL     OW17458   5.035   6.291   1.236
 5520SOL    HW117459   4.982   6.346   1.171
 5520SOL    HW217460   5.001   6.197   1.235
 5521SOL     OW17461   4.586   6.767   2.106
 5521SOL    HW117462   4.581   6.860   2.143
 5521SOL    HW217463   4.501   6.719   2.124
 5522SOL     OW17464   5.256   6.311   7.003
 5522SOL    HW117465   5.182   6.347   6.945
 5522SOL    HW217466   5.219   6.246   0.049
 5523SOL     OW17467   5.152   2.286   0.900
 5523SOL    HW117468   5.172   2.359   0.834
 5523SOL    HW217469   5.071   2.235   0.869
 5524SOL     OW17470   2.807   1.241   3.339
 5524SOL    HW117471   2.779   1.314   3.401
 5524SOL    HW217472   2.859   1.279   3.263
 5525SOL     OW17473   6.933   1.760   1.374
 5525SOL    HW117474   6.949   1.690   1.304
 5525SOL    HW217475   6.837   1.788   1.371
 5526SOL     OW17476   5.524   4.212   4.274
 5526SOL    HW117477   5.568   4.158   4.202
 5526SOL    HW217478   5.546   4.172   4.363
 5527SOL     OW17479   6.514   0.355   2.391
 5527SOL    HW117480   6.514   0.407   2.476
 5527SOL    HW217481   6.588   0.288   2.392
 5528SOL     OW17482   1.321   1.666   6.608
 5528SOL    HW117483   1.329   1.653   6.707
 5528SOL    HW217484   1.225   1.685   6.585
 5529SOL     OW17485   3.226   0.758   2.076
 5529SOL    HW117486   3.170   0.704   2.013
 5529SOL    HW217487   3.282   0.823   2.025
 5530SOL     OW17488   0.978   1.666   1.242
 5530SOL    HW117489   0.894   1.715   1.220
 5530SOL    HW217490   1.053   1.731   1.251
 5531SOL     OW17491   1.506   4.375   0.500
 5531SOL    HW117492   1.444   4.385   0.421
 5531SOL    HW217493   1.576   4.446   0.496
 5532SOL     OW17494   0.494   4.028   6.128
 5532SOL    HW117495   0.493   4.124   6.158
 5532SOL    HW217496   0.414   4.010   6.072
 5533SOL     OW17497   3.913   1.154   2.995
 5533SOL    HW117498   3.864   1.127   2.912
 5533SOL    HW217499   3.866   1.231   3.038
 5534SOL     OW17500   1.636   0.428   4.456
 5534SOL    HW117501   1.729   0.451   4.427
 5534SOL    HW217502   1.580   0.511   4.454
 5535SOL     OW17503   0.007   1.934   2.548
 5535SOL    HW117504   0.052   2.015   2.586
 5535SOL    HW217505   0.035   1.923   2.452
 5536SOL     OW17506   4.721   6.996   4.507
 5536SOL    HW117507   4.643   0.036   4.486
 5536SOL    HW217508   4.806   0.025   4.485
 5537SOL     OW17509   2.736   2.364   3.114
 5537SOL    HW117510   2.645   2.359   3.153
 5537SOL    HW217511   2.744   2.447   3.058
 5538SOL     OW17512   4.453   5.675   4.087
 5538SOL    HW117513   4.444   5.614   4.166
 5538SOL    HW217514   4.547   5.670   4.052
 5539SOL     OW17515   2.147   4.210   6.849
 5539SOL    HW117516   2.048   4.205   6.859
 5539SOL    HW217517   2.170   4.247   6.759
 5540SOL     OW17518   4.167   5.533   1.311
 5540SOL    HW117519   4.102   5.458   1.327
 5540SOL    HW217520   4.123   5.620   1.331
 5541SOL     OW17521   4.454   0.702   6.022
 5541SOL    HW117522   4.528   0.679   6.085
 5541SOL    HW217523   4.479   0.676   5.929
 5542SOL     OW17524   5.331   4.622   6.102
 5542SOL    HW117525   5.400   4.644   6.032
 5542SOL    HW217526   5.343   4.528   6.132
 5543SOL     OW17527   0.714   1.765   5.126
 5543SOL    HW117528   0.801   1.810   5.108
 5543SOL    HW217529   0.652   1.777   5.048
 5544SOL     OW17530   5.662   0.839   0.055
 5544SOL    HW117531   5.632   0.792   6.991
 5544SOL    HW217532   5.583   0.879   0.102
 5545SOL     OW17533   2.309   2.077   2.020
 5545SOL    HW117534   2.284   2.154   1.961
 5545SOL    HW217535   2.403   2.048   2.000
 5546SOL     OW17536   3.929   5.568   5.386
 5546SOL    HW117537   3.857   5.568   5.455
 5546SOL    HW217538   3.996   5.639   5.408
 5547SOL     OW17539   3.454   5.508   4.003
 5547SOL    HW117540   3.511   5.466   4.074
 5547SOL    HW217541   3.457   5.452   3.920
 5548SOL     OW17542   0.273   1.618   4.946
 5548SOL    HW117543   0.332   1.569   4.883
 5548SOL    HW217544   0.186   1.570   4.955
 5549SOL     OW17545   3.633   5.336   6.788
 5549SOL    HW117546   3.668   5.411   6.733
 5549SOL    HW217547   3.585   5.270   6.730
 5550SOL     OW17548   2.650   6.144   2.779
 5550SOL    HW117549   2.705   6.184   2.705
 5550SOL    HW217550   2.650   6.205   2.858
 5551SOL     OW17551   0.836   1.352   2.348
 5551SOL    HW117552   0.752   1.340   2.295
 5551SOL    HW217553   0.909   1.297   2.307
 5552SOL     OW17554   1.918   2.421   2.716
 5552SOL    HW117555   1.889   2.326   2.724
 5552SOL    HW217556   1.840   2.481   2.735
 5553SOL     OW17557   4.601   6.307   6.208
 5553SOL    HW117558   4.550   6.288   6.123
 5553SOL    HW217559   4.677   6.368   6.189
 5554SOL     OW17560   3.082   0.764   4.591
 5554SOL    HW117561   2.992   0.752   4.633
 5554SOL    HW217562   3.110   0.860   4.597
 5555SOL     OW17563   0.538   6.451   1.532
 5555SOL    HW117564   0.537   6.545   1.568
 5555SOL    HW217565   0.482   6.447   1.450
 5556SOL     OW17566   6.988   1.051   5.616
 5556SOL    HW117567   0.039   1.094   5.560
 5556SOL    HW217568   6.958   0.966   5.572
 5557SOL     OW17569   3.316   0.400   2.623
 5557SOL    HW117570   3.402   0.447   2.644
 5557SOL    HW217571   3.336   0.307   2.592
 5558SOL     OW17572   5.111   2.111   5.764
 5558SOL    HW117573   5.196   2.113   5.711
 5558SOL    HW217574   5.133   2.097   5.861
 5559SOL     OW17575   2.801   0.872   0.999
 5559SOL    HW117576   2.848   0.792   1.036
 5559SOL    HW217577   2.868   0.940   0.969
 5560SOL     OW17578   0.264   1.293   5.144
 5560SOL    HW117579   0.175   1.272   5.104
 5560SOL    HW217580   0.319   1.345   5.078
 5561SOL     OW17581   1.328   4.469   1.817
 5561SOL    HW117582   1.257   4.412   1.777
 5561SOL    HW217583   1.289   4.556   1.847
 5562SOL     OW17584   3.516   2.293   0.023
 5562SOL    HW117585   3.593   2.234   0.048
 5562SOL    HW217586   3.464   2.317   0.105
 5563SOL     OW17587   3.832   4.298   1.199
 5563SOL    HW117588   3.742   4.254   1.191
 5563SOL    HW217589   3.830   4.364   1.275
 5564SOL     OW17590   5.767   1.452   2.566
 5564SOL    HW117591   5.720   1.480   2.650
 5564SOL    HW217592   5.749   1.356   2.548
 5565SOL     OW17593   1.822   2.764   5.686
 5565SOL    HW117594   1.809   2.844   5.744
 5565SOL    HW217595   1.733   2.722   5.667
 5566SOL     OW17596   2.496   3.938   0.322
 5566SOL    HW117597   2.428   3.931   0.396
 5566SOL    HW217598   2.449   3.927   0.234
 5567SOL     OW17599   1.237   5.352   3.470
 5567SOL    HW117600   1.186   5.310   3.545
 5567SOL    HW217601   1.234   5.292   3.390
 5568SOL     OW17602   3.438   2.489   6.609
 5568SOL    HW117603   3.447   2.486   6.709
 5568SOL    HW217604   3.398   2.576   6.581
 5569SOL     OW17605   4.639   1.964   0.022
 5569SOL    HW117606   4.679   1.899   6.977
 5569SOL    HW217607   4.667   1.942   0.115
 5570SOL     OW17608   1.854   2.995   5.834
 5570SOL    HW117609   1.865   3.094   5.822
 5570SOL    HW217610   1.830   2.976   5.929
 5571SOL     OW17611   0.180   4.118   6.617
 5571SOL    HW117612   0.244   4.044   6.596
 5571SOL    HW217613   0.222   4.180   6.684
 5572SOL     OW17614   0.431   3.238   6.032
 5572SOL    HW117615   0.439   3.202   6.125
 5572SOL    HW217616   0.481   3.324   6.024
 5573SOL     OW17617   6.883   3.803   6.477
 5573SOL    HW117618   6.890   3.895   6.517
 5573SOL    HW217619   6.814   3.803   6.406
 5574SOL     OW17620   2.024   6.725   4.512
 5574SOL    HW117621   1.924   6.717   4.505
 5574SOL    HW217622   2.052   6.711   4.607
 5575SOL     OW17623   0.920   1.267   2.789
 5575SOL    HW117624   1.010   1.260   2.746
 5575SOL    HW217625   0.849   1.243   2.723
 5576SOL     OW17626   5.643   6.297   5.372
 5576SOL    HW117627   5.660   6.201   5.396
 5576SOL    HW217628   5.561   6.329   5.417
 5577SOL     OW17629   1.479   4.375   4.785
 5577SOL    HW117630   1.430   4.424   4.857
 5577SOL    HW217631   1.414   4.342   4.717
 5578SOL     OW17632   3.868   1.854   5.911
 5578SOL    HW117633   3.791   1.790   5.905
 5578SOL    HW217634   3.850   1.920   5.984
 5579SOL     OW17635   4.963   4.421   2.164
 5579SOL    HW117636   4.936   4.398   2.071
 5579SOL    HW217637   5.014   4.345   2.204
 5580SOL     OW17638   5.674   1.141   2.084
 5580SOL    HW117639   5.749   1.201   2.110
 5580SOL    HW217640   5.662   1.144   1.984
 5581SOL     OW17641   3.110   2.934   0.619
 5581SOL    HW117642   3.029   2.992   0.621
 5581SOL    HW217643   3.153   2.933   0.709
 5582SOL     OW17644   2.989   3.239   3.803
 5582SOL    HW117645   2.953   3.259   3.712
 5582SOL    HW217646   2.955   3.307   3.868
 5583SOL     OW17647   3.720   0.686   6.458
 5583SOL    HW117648   3.772   0.601   6.458
 5583SOL    HW217649   3.678   0.699   6.368
 5584SOL     OW17650   5.153   3.166   4.134
 5584SOL    HW117651   5.168   3.211   4.046
 5584SOL    HW217652   5.145   3.067   4.120
 5585SOL     OW17653   0.245   0.265   3.583
 5585SOL    HW117654   0.309   0.260   3.506
 5585SOL    HW217655   0.262   0.349   3.635
 5586SOL     OW17656   1.951   0.705   0.206
 5586SOL    HW117657   2.001   0.772   0.260
 5586SOL    HW217658   2.016   0.653   0.150
 5587SOL     OW17659   3.831   6.260   3.420
 5587SOL    HW117660   3.806   6.195   3.348
 5587SOL    HW217661   3.795   6.228   3.507
 5588SOL     OW17662   5.078   6.771   6.635
 5588SOL    HW117663   5.031   6.703   6.578
 5588SOL    HW217664   5.037   6.772   6.726
 5589SOL     OW17665   1.871   3.654   6.741
 5589SOL    HW117666   1.892   3.751   6.757
 5589SOL    HW217667   1.777   3.635   6.770
 5590SOL     OW17668   6.632   0.626   3.141
 5590SOL    HW117669   6.706   0.559   3.148
 5590SOL    HW217670   6.597   0.627   3.047
 5591SOL     OW17671   5.547   0.556   0.013
 5591SOL    HW117672   5.501   0.601   6.955
 5591SOL    HW217673   5.495   0.572   0.097
 5592SOL     OW17674   1.391   2.964   2.535
 5592SOL    HW117675   1.480   2.949   2.491
 5592SOL    HW217676   1.405   2.987   2.631
 5593SOL     OW17677   2.097   3.876   4.856
 5593SOL    HW117678   2.116   3.780   4.878
 5593SOL    HW217679   2.169   3.934   4.896
 5594SOL     OW17680   2.849   1.390   6.052
 5594SOL    HW117681   2.829   1.488   6.063
 5594SOL    HW217682   2.768   1.343   6.017
 5595SOL     OW17683   6.937   3.155   6.907
 5595SOL    HW117684   6.984   3.068   6.894
 5595SOL    HW217685   6.983   3.226   6.853
 5596SOL     OW17686   4.890   3.493   4.340
 5596SOL    HW117687   4.840   3.541   4.268
 5596SOL    HW217688   4.867   3.396   4.338
 5597SOL     OW17689   0.201   1.898   6.624
 5597SOL    HW117690   0.293   1.863   6.610
 5597SOL    HW217691   0.189   1.983   6.573
 5598SOL     OW17692   6.400   0.645   3.336
 5598SOL    HW117693   6.476   0.586   3.307
 5598SOL    HW217694   6.403   0.658   3.435
 5599SOL     OW17695   5.549   3.529   2.859
 5599SOL    HW117696   5.456   3.494   2.873
 5599SOL    HW217697   5.567   3.535   2.761
 5600SOL     OW17698   1.639   3.027   2.410
 5600SOL    HW117699   1.715   2.976   2.369
 5600SOL    HW217700   1.662   3.050   2.505
 5601SOL     OW17701   6.027   2.495   6.214
 5601SOL    HW117702   6.084   2.559   6.163
 5601SOL    HW217703   5.945   2.474   6.161
 5602SOL     OW17704   6.156   1.855   3.181
 5602SOL    HW117705   6.130   1.854   3.278
 5602SOL    HW217706   6.114   1.934   3.136
 5603SOL     OW17707   3.415   1.536   5.972
 5603SOL    HW117708   3.387   1.462   5.911
 5603SOL    HW217709   3.337   1.595   5.990
 5604SOL     OW17710   1.468   4.841   3.349
 5604SOL    HW117711   1.449   4.884   3.260
 5604SOL    HW217712   1.543   4.890   3.394
 5605SOL     OW17713   3.522   6.309   4.540
 5605SOL    HW117714   3.428   6.328   4.568
 5605SOL    HW217715   3.572   6.395   4.531
 5606SOL     OW17716   4.356   3.769   1.089
 5606SOL    HW117717   4.437   3.715   1.113
 5606SOL    HW217718   4.326   3.820   1.169
 5607SOL     OW17719   1.199   2.308   2.521
 5607SOL    HW117720   1.228   2.402   2.502
 5607SOL    HW217721   1.258   2.244   2.473
 5608SOL     OW17722   6.561   6.982   3.487
 5608SOL    HW117723   6.563   6.948   3.581
 5608SOL    HW217724   6.602   0.054   3.484
 5609SOL     OW17725   6.729   1.274   0.118
 5609SOL    HW117726   6.826   1.274   0.096
 5609SOL    HW217727   6.716   1.320   0.206
 5610SOL     OW17728   5.823   0.010   6.084
 5610SOL    HW117729   5.781   0.092   6.047
 5610SOL    HW217730   5.854   0.026   6.178
 5611SOL     OW17731   6.581   3.957   1.095
 5611SOL    HW117732   6.490   3.999   1.090
 5611SOL    HW217733   6.627   3.964   1.007
 5612SOL     OW17734   4.829   2.007   1.382
 5612SOL    HW117735   4.875   2.022   1.294
 5612SOL    HW217736   4.739   2.053   1.380
 5613SOL     OW17737   6.375   5.225   5.229
 5613SOL    HW117738   6.389   5.230   5.327
 5613SOL    HW217739   6.292   5.173   5.209
 5614SOL     OW17740   5.780   2.656   4.657
 5614SOL    HW117741   5.726   2.739   4.674
 5614SOL    HW217742   5.874   2.681   4.637
 5615SOL     OW17743   0.157   3.576   2.460
 5615SOL    HW117744   0.096   3.654   2.473
 5615SOL    HW217745   0.107   3.491   2.477
 5616SOL     OW17746   1.467   3.115   1.607
 5616SOL    HW117747   1.549   3.165   1.582
 5616SOL    HW217748   1.395   3.180   1.632
 5617SOL     OW17749   0.345   4.907   5.217
 5617SOL    HW117750   0.342   4.929   5.314
 5617SOL    HW217751   0.419   4.842   5.200
 5618SOL     OW17752   4.656   1.019   2.983
 5618SOL    HW117753   4.646   1.102   2.927
 5618SOL    HW217754   4.583   0.955   2.961
 5619SOL     OW17755   2.943   3.588   4.213
 5619SOL    HW117756   2.845   3.601   4.232
 5619SOL    HW217757   2.977   3.667   4.162
 5620SOL     OW17758   4.720   5.274   5.409
 5620SOL    HW117759   4.725   5.269   5.509
 5620SOL    HW217760   4.636   5.229   5.378
 5621SOL     OW17761   1.149   3.361   6.310
 5621SOL    HW117762   1.071   3.422   6.325
 5621SOL    HW217763   1.133   3.274   6.357
 5622SOL     OW17764   5.781   5.656   3.015
 5622SOL    HW117765   5.722   5.581   2.985
 5622SOL    HW217766   5.863   5.618   3.058
 5623SOL     OW17767   4.780   5.126   3.277
 5623SOL    HW117768   4.767   5.220   3.247
 5623SOL    HW217769   4.869   5.093   3.247
 5624SOL     OW17770   4.860   4.031   3.929
 5624SOL    HW117771   4.834   4.049   4.024
 5624SOL    HW217772   4.890   3.936   3.920
 5625SOL     OW17773   3.301   6.876   6.248
 5625SOL    HW117774   3.332   6.952   6.192
 5625SOL    HW217775   3.216   6.839   6.210
 5626SOL     OW17776   1.841   4.902   5.961
 5626SOL    HW117777   1.797   4.910   5.872
 5626SOL    HW217778   1.824   4.811   5.999
 5627SOL     OW17779   1.249   5.307   0.860
 5627SOL    HW117780   1.280   5.314   0.766
 5627SOL    HW217781   1.199   5.221   0.872
 5628SOL     OW17782   1.001   2.670   0.434
 5628SOL    HW117783   1.033   2.764   0.422
 5628SOL    HW217784   0.955   2.640   0.350
 5629SOL     OW17785   7.012   3.503   4.018
 5629SOL    HW117786   6.959   3.471   4.096
 5629SOL    HW217787   0.022   3.598   4.033
 5630SOL     OW17788   1.045   4.519   0.180
 5630SOL    HW117789   0.979   4.452   0.146
 5630SOL    HW217790   1.089   4.564   0.102
 5631SOL     OW17791   3.854   0.671   2.860
 5631SOL    HW117792   3.765   0.652   2.820
 5631SOL    HW217793   3.842   0.705   2.954
 5632SOL     OW17794   3.534   6.748   6.775
 5632SOL    HW117795   3.570   6.717   6.863
 5632SOL    HW217796   3.441   6.781   6.787
 5633SOL     OW17797   1.701   5.405   5.318
 5633SOL    HW117798   1.615   5.410   5.369
 5633SOL    HW217799   1.682   5.399   5.220
 5634SOL     OW17800   2.769   6.977   2.154
 5634SOL    HW117801   2.762   0.041   2.098
 5634SOL    HW217802   2.751   6.897   2.097
 5635SOL     OW17803   3.628   0.276   1.999
 5635SOL    HW117804   3.574   0.319   2.071
 5635SOL    HW217805   3.571   0.212   1.948
 5636SOL     OW17806   5.278   0.309   4.588
 5636SOL    HW117807   5.270   0.310   4.489
 5636SOL    HW217808   5.280   0.402   4.623
 5637SOL     OW17809   5.491   0.205   5.134
 5637SOL    HW117810   5.475   0.282   5.072
 5637SOL    HW217811   5.421   0.205   5.205
 5638SOL     OW17812   0.763   5.462   0.096
 5638SOL    HW117813   0.727   5.549   0.131
 5638SOL    HW217814   0.689   5.410   0.054
 5639SOL     OW17815   3.042   6.935   2.149
 5639SOL    HW117816   3.102   7.013   2.129
 5639SOL    HW217817   2.953   6.968   2.179
 5640SOL     OW17818   3.652   6.753   4.016
 5640SOL    HW117819   3.698   6.809   4.084
 5640SOL    HW217820   3.650   6.658   4.047
 5641SOL     OW17821   6.435   4.794   3.505
 5641SOL    HW117822   6.391   4.819   3.592
 5641SOL    HW217823   6.365   4.770   3.438
 5642SOL     OW17824   2.349   1.733   6.207
 5642SOL    HW117825   2.310   1.783   6.285
 5642SOL    HW217826   2.441   1.702   6.230
 5643SOL     OW17827   5.479   3.050   3.549
 5643SOL    HW117828   5.501   3.140   3.511
 5643SOL    HW217829   5.496   2.980   3.479
 5644SOL     OW17830   3.156   0.756   6.015
 5644SOL    HW117831   3.235   0.780   5.960
 5644SOL    HW217832   3.121   0.666   5.986
 5645SOL     OW17833   6.249   6.709   3.556
 5645SOL    HW117834   6.154   6.682   3.570
 5645SOL    HW217835   6.253   6.792   3.501
 5646SOL     OW17836   0.135   0.648   2.959
 5646SOL    HW117837   0.134   0.571   2.896
 5646SOL    HW217838   0.083   0.624   3.042
 5647SOL     OW17839   6.286   3.800   6.220
 5647SOL    HW117840   6.293   3.722   6.283
 5647SOL    HW217841   6.191   3.829   6.214
 5648SOL     OW17842   1.688   1.683   4.138
 5648SOL    HW117843   1.628   1.631   4.199
 5648SOL    HW217844   1.783   1.653   4.151
 5649SOL     OW17845   0.290   0.534   4.836
 5649SOL    HW117846   0.247   0.598   4.772
 5649SOL    HW217847   0.388   0.551   4.841
 5650SOL     OW17848   6.046   5.114   5.134
 5650SOL    HW117849   6.043   5.151   5.226
 5650SOL    HW217850   6.020   5.017   5.136
 5651SOL     OW17851   6.084   0.494   2.421
 5651SOL    HW117852   6.112   0.432   2.348
 5651SOL    HW217853   6.119   0.460   2.509
 5652SOL     OW17854   5.043   4.499   0.121
 5652SOL    HW117855   5.005   4.512   0.213
 5652SOL    HW217856   4.991   4.428   0.073
 5653SOL     OW17857   2.102   5.915   6.604
 5653SOL    HW117858   2.171   5.844   6.621
 5653SOL    HW217859   2.148   6.003   6.589
 5654SOL     OW17860   2.185   6.893   0.216
 5654SOL    HW117861   2.281   6.919   0.206
 5654SOL    HW217862   2.149   6.930   0.301
 5655SOL     OW17863   6.277   5.875   2.967
 5655SOL    HW117864   6.214   5.840   2.898
 5655SOL    HW217865   6.247   5.844   3.058
 5656SOL     OW17866   3.896   4.995   5.921
 5656SOL    HW117867   3.901   4.902   5.886
 5656SOL    HW217868   3.955   5.004   6.001
 5657SOL     OW17869   4.895   5.302   2.227
 5657SOL    HW117870   4.845   5.368   2.282
 5657SOL    HW217871   4.836   5.224   2.207
 5658SOL     OW17872   4.538   6.713   6.139
 5658SOL    HW117873   4.524   6.634   6.198
 5658SOL    HW217874   4.513   6.797   6.188
 5659SOL     OW17875   3.665   3.947   2.474
 5659SOL    HW117876   3.568   3.936   2.451
 5659SOL    HW217877   3.684   3.904   2.562
 5660SOL     OW17878   6.706   5.897   1.500
 5660SOL    HW117879   6.787   5.954   1.513
 5660SOL    HW217880   6.669   5.871   1.589
 5661SOL     OW17881   6.365   6.082   4.474
 5661SOL    HW117882   6.327   6.080   4.566
 5661SOL    HW217883   6.341   5.998   4.425
 5662SOL     OW17884   1.679   4.277   4.475
 5662SOL    HW117885   1.598   4.336   4.478
 5662SOL    HW217886   1.694   4.237   4.565
 5663SOL     OW17887   2.300   3.584   1.002
 5663SOL    HW117888   2.345   3.506   0.958
 5663SOL    HW217889   2.339   3.669   0.966
 5664SOL     OW17890   6.420   6.378   1.897
 5664SOL    HW117891   6.335   6.345   1.938
 5664SOL    HW217892   6.432   6.337   1.807
 5665SOL     OW17893   2.026   1.245   5.798
 5665SOL    HW117894   2.010   1.310   5.723
 5665SOL    HW217895   2.046   1.296   5.882
 5666SOL     OW17896   5.707   5.494   6.515
 5666SOL    HW117897   5.730   5.585   6.549
 5666SOL    HW217898   5.743   5.482   6.423
 5667SOL     OW17899   5.592   4.589   2.566
 5667SOL    HW117900   5.532   4.609   2.643
 5667SOL    HW217901   5.620   4.675   2.522
 5668SOL     OW17902   6.858   1.997   6.728
 5668SOL    HW117903   6.870   2.081   6.675
 5668SOL    HW217904   6.761   1.971   6.729
 5669SOL     OW17905   7.011   2.293   4.765
 5669SOL    HW117906   6.996   2.354   4.687
 5669SOL    HW217907   7.012   2.346   4.850
 5670SOL     OW17908   1.409   3.383   2.427
 5670SOL    HW117909   1.509   3.393   2.423
 5670SOL    HW217910   1.365   3.465   2.392
 5671SOL     OW17911   1.054   0.714   5.430
 5671SOL    HW117912   1.029   0.803   5.467
 5671SOL    HW217913   1.140   0.721   5.381
 5672SOL     OW17914   4.713   4.534   5.446
 5672SOL    HW117915   4.636   4.494   5.396
 5672SOL    HW217916   4.745   4.616   5.398
 5673SOL     OW17917   1.647   6.489   1.374
 5673SOL    HW117918   1.565   6.492   1.432
 5673SOL    HW217919   1.668   6.581   1.341
 5674SOL     OW17920   0.645   3.140   1.031
 5674SOL    HW117921   0.548   3.132   1.055
 5674SOL    HW217922   0.677   3.054   0.993
 5675SOL     OW17923   4.113   1.142   5.620
 5675SOL    HW117924   4.154   1.226   5.586
 5675SOL    HW217925   4.172   1.102   5.690
 5676SOL     OW17926   2.300   6.285   2.291
 5676SOL    HW117927   2.237   6.251   2.360
 5676SOL    HW217928   2.384   6.317   2.334
 5677SOL     OW17929   6.566   6.998   2.686
 5677SOL    HW117930   6.537   6.916   2.735
 5677SOL    HW217931   6.588   6.974   2.591
 5678SOL     OW17932   0.949   5.062   2.925
 5678SOL    HW117933   0.887   5.097   2.994
 5678SOL    HW217934   0.916   5.087   2.834
 5679SOL     OW17935   3.724   5.587   5.574
 5679SOL    HW117936   3.632   5.551   5.557
 5679SOL    HW217937   3.720   5.687   5.576
 5680SOL     OW17938   2.084   6.764   6.495
 5680SOL    HW117939   2.094   6.830   6.420
 5680SOL    HW217940   2.039   6.682   6.460
 5681SOL     OW17941   2.784   3.738   6.622
 5681SOL    HW117942   2.800   3.656   6.677
 5681SOL    HW217943   2.751   3.712   6.531
 5682SOL     OW17944   2.071   3.373   4.109
 5682SOL    HW117945   1.975   3.358   4.085
 5682SOL    HW217946   2.122   3.288   4.099
 5683SOL     OW17947   4.145   3.005   5.335
 5683SOL    HW117948   4.224   3.061   5.357
 5683SOL    HW217949   4.063   3.063   5.330
 5684SOL     OW17950   3.424   3.962   3.096
 5684SOL    HW117951   3.449   3.872   3.132
 5684SOL    HW217952   3.479   3.981   3.014
 5685SOL     OW17953   6.830   6.096   1.197
 5685SOL    HW117954   6.742   6.107   1.243
 5685SOL    HW217955   6.846   6.174   1.137
 5686SOL     OW17956   3.150   4.896   6.931
 5686SOL    HW117957   3.092   4.905   7.012
 5686SOL    HW217958   3.115   4.954   6.858
 5687SOL     OW17959   4.412   6.001   6.536
 5687SOL    HW117960   4.437   5.991   6.632
 5687SOL    HW217961   4.465   5.936   6.481
 5688SOL     OW17962   5.270   1.295   2.681
 5688SOL    HW117963   5.341   1.346   2.633
 5688SOL    HW217964   5.311   1.216   2.726
 5689SOL     OW17965   4.124   3.211   5.627
 5689SOL    HW117966   4.199   3.176   5.571
 5689SOL    HW217967   4.062   3.264   5.570
 5690SOL     OW17968   3.750   0.169   3.148
 5690SOL    HW117969   3.675   0.230   3.173
 5690SOL    HW217970   3.722   0.112   3.071
 5691SOL     OW17971   3.493   0.341   4.360
 5691SOL    HW117972   3.523   0.301   4.274
 5691SOL    HW217973   3.408   0.297   4.389
 5692SOL     OW17974   5.785   2.134   6.715
 5692SOL    HW117975   5.839   2.066   6.765
 5692SOL    HW217976   5.781   2.108   6.619
 5693SOL     OW17977   5.296   2.842   1.880
 5693SOL    HW117978   5.211   2.789   1.869
 5693SOL    HW217979   5.348   2.839   1.795
 5694SOL     OW17980   1.436   2.353   4.874
 5694SOL    HW117981   1.487   2.330   4.792
 5694SOL    HW217982   1.492   2.336   4.955
 5695SOL     OW17983   1.859   4.350   3.481
 5695SOL    HW117984   1.798   4.425   3.455
 5695SOL    HW217985   1.953   4.381   3.477
 5696SOL     OW17986   3.006   1.186   6.646
 5696SOL    HW117987   2.965   1.099   6.675
 5696SOL    HW217988   2.968   1.213   6.558
 5697SOL     OW17989   6.542   3.652   0.258
 5697SOL    HW117990   6.597   3.576   0.292
 5697SOL    HW217991   6.521   3.714   0.333
 5698SOL     OW17992   1.444   4.368   3.932
 5698SOL    HW117993   1.407   4.311   4.006
 5698SOL    HW217994   1.404   4.340   3.845
 5699SOL     OW17995   0.570   2.316   4.881
 5699SOL    HW117996   0.491   2.264   4.913
 5699SOL    HW217997   0.652   2.288   4.932
 5700SOL     OW17998   1.553   4.811   4.288
 5700SOL    HW117999   1.639   4.786   4.331
 5700SOL    HW218000   1.499   4.729   4.269
 5701SOL     OW18001   4.902   3.479   3.106
 5701SOL    HW118002   4.910   3.403   3.042
 5701SOL    HW218003   4.905   3.565   3.055
 5702SOL     OW18004   3.452   0.374   0.064
 5702SOL    HW118005   3.530   0.327   0.023
 5702SOL    HW218006   3.373   0.312   0.064
 5703SOL     OW18007   4.818   4.298   1.966
 5703SOL    HW118008   4.831   4.284   1.868
 5703SOL    HW218009   4.721   4.291   1.988
 5704SOL     OW18010   4.715   4.495   2.991
 5704SOL    HW118011   4.766   4.514   2.907
 5704SOL    HW218012   4.619   4.478   2.968
 5705SOL     OW18013   6.615   1.308   3.769
 5705SOL    HW118014   6.520   1.309   3.803
 5705SOL    HW218015   6.668   1.241   3.821
 5706SOL     OW18016   2.288   1.416   6.939
 5706SOL    HW118017   2.208   1.415   6.880
 5706SOL    HW218018   2.268   1.469   0.003
 5707SOL     OW18019   3.899   1.587   0.291
 5707SOL    HW118020   3.962   1.522   0.334
 5707SOL    HW218021   3.929   1.680   0.309
 5708SOL     OW18022   6.992   6.761   0.721
 5708SOL    HW118023   0.059   6.794   0.681
 5708SOL    HW218024   7.009   6.677   0.772
 5709SOL     OW18025   1.062   2.679   1.317
 5709SOL    HW118026   1.133   2.663   1.386
 5709SOL    HW218027   1.103   2.719   1.235
 5710SOL     OW18028   3.519   4.866   0.311
 5710SOL    HW118029   3.551   4.784   0.358
 5710SOL    HW218030   3.439   4.845   0.256
 5711SOL     OW18031   5.218   1.597   5.293
 5711SOL    HW118032   5.140   1.599   5.230
 5711SOL    HW218033   5.258   1.505   5.292
 5712SOL     OW18034   6.002   6.755   6.772
 5712SOL    HW118035   5.954   6.668   6.764
 5712SOL    HW218036   6.052   6.759   6.858
 5713SOL     OW18037   0.443   2.965   2.739
 5713SOL    HW118038   0.417   3.018   2.820
 5713SOL    HW218039   0.365   2.914   2.705
 5714SOL     OW18040   2.194   0.419   6.763
 5714SOL    HW118041   2.169   0.325   6.741
 5714SOL    HW218042   2.234   0.463   6.682
 5715SOL     OW18043   0.996   0.036   3.726
 5715SOL    HW118044   1.026   0.079   3.640
 5715SOL    HW218045   0.916   6.998   3.709
 5716SOL     OW18046   2.082   2.694   5.190
 5716SOL    HW118047   2.045   2.689   5.283
 5716SOL    HW218048   2.167   2.642   5.185
 5717SOL     OW18049   0.813   3.216   5.983
 5717SOL    HW118050   0.898   3.250   5.943
 5717SOL    HW218051   0.786   3.131   5.938
 5718SOL     OW18052   3.116   5.403   5.984
 5718SOL    HW118053   3.033   5.358   6.017
 5718SOL    HW218054   3.191   5.336   5.984
 5719SOL     OW18055   2.052   0.906   0.347
 5719SOL    HW118056   2.072   0.836   0.416
 5719SOL    HW218057   2.032   0.992   0.392
 5720SOL     OW18058   1.765   5.822   3.821
 5720SOL    HW118059   1.854   5.785   3.847
 5720SOL    HW218060   1.759   5.917   3.853
 5721SOL     OW18061   6.639   4.409   6.995
 5721SOL    HW118062   6.650   4.469   6.915
 5721SOL    HW218063   6.723   4.410   0.030
 5722SOL     OW18064   5.602   1.318   4.867
 5722SOL    HW118065   5.600   1.416   4.888
 5722SOL    HW218066   5.648   1.270   4.941
 5723SOL     OW18067   0.235   4.388   1.269
 5723SOL    HW118068   0.309   4.387   1.201
 5723SOL    HW218069   0.147   4.395   1.223
 5724SOL     OW18070   5.333   3.052   6.077
 5724SOL    HW118071   5.333   2.954   6.097
 5724SOL    HW218072   5.298   3.068   5.985
 5725SOL     OW18073   5.604   6.700   5.640
 5725SOL    HW118074   5.552   6.658   5.715
 5725SOL    HW218075   5.567   6.669   5.553
 5726SOL     OW18076   3.881   4.514   5.601
 5726SOL    HW118077   3.842   4.424   5.582
 5726SOL    HW218078   3.814   4.569   5.650
 5727SOL     OW18079   5.931   2.504   4.147
 5727SOL    HW118080   5.955   2.601   4.159
 5727SOL    HW218081   5.909   2.465   4.236
 5728SOL     OW18082   4.211   0.681   4.504
 5728SOL    HW118083   4.254   0.764   4.466
 5728SOL    HW218084   4.112   0.688   4.494
 5729SOL     OW18085   1.855   2.509   3.883
 5729SOL    HW118086   1.894   2.495   3.975
 5729SOL    HW218087   1.785   2.441   3.866
 5730SOL     OW18088   4.052   4.667   6.926
 5730SOL    HW118089   4.061   4.693   0.003
 5730SOL    HW218090   4.143   4.648   6.888
 5731SOL     OW18091   4.150   1.422   4.816
 5731SOL    HW118092   4.227   1.454   4.761
 5731SOL    HW218093   4.142   1.479   4.898
 5732SOL     OW18094   5.434   4.807   4.345
 5732SOL    HW118095   5.357   4.841   4.292
 5732SOL    HW218096   5.508   4.779   4.283
 5733SOL     OW18097   2.647   6.779   1.936
 5733SOL    HW118098   2.662   6.826   1.849
 5733SOL    HW218099   2.551   6.789   1.963
 5734SOL     OW18100   1.248   6.825   5.927
 5734SOL    HW118101   1.273   6.834   6.023
 5734SOL    HW218102   1.209   6.911   5.894
 5735SOL     OW18103   5.349   1.287   0.923
 5735SOL    HW118104   5.398   1.208   0.886
 5735SOL    HW218105   5.414   1.352   0.961
 5736SOL     OW18106   5.117   3.702   6.499
 5736SOL    HW118107   5.077   3.788   6.466
 5736SOL    HW218108   5.048   3.630   6.496
 5737SOL     OW18109   4.958   6.121   2.392
 5737SOL    HW118110   4.971   6.090   2.486
 5737SOL    HW218111   4.898   6.201   2.391
 5738SOL     OW18112   3.284   0.788   1.621
 5738SOL    HW118113   3.216   0.792   1.694
 5738SOL    HW218114   3.260   0.852   1.549
 5739SOL     OW18115   2.187   0.903   5.069
 5739SOL    HW118116   2.093   0.890   5.101
 5739SOL    HW218117   2.186   0.930   4.973
 5740SOL     OW18118   4.923   3.562   2.724
 5740SOL    HW118119   4.905   3.517   2.637
 5740SOL    HW218120   4.937   3.660   2.708
 5741SOL     OW18121   1.504   3.071   4.053
 5741SOL    HW118122   1.584   3.030   4.008
 5741SOL    HW218123   1.444   2.998   4.087
 5742SOL     OW18124   5.701   5.320   1.907
 5742SOL    HW118125   5.665   5.381   1.978
 5742SOL    HW218126   5.733   5.235   1.948
 5743SOL     OW18127   4.433   6.244   6.729
 5743SOL    HW118128   4.506   6.192   6.686
 5743SOL    HW218129   4.431   6.226   6.827
 5744SOL     OW18130   5.163   5.883   3.303
 5744SOL    HW118131   5.234   5.916   3.364
 5744SOL    HW218132   5.074   5.916   3.334
 5745SOL     OW18133   0.526   3.748   2.812
 5745SOL    HW118134   0.435   3.719   2.786
 5745SOL    HW218135   0.567   3.681   2.873
 5746SOL     OW18136   5.407   0.446   3.239
 5746SOL    HW118137   5.492   0.468   3.190
 5746SOL    HW218138   5.342   0.404   3.176
 5747SOL     OW18139   2.182   6.647   1.251
 5747SOL    HW118140   2.263   6.704   1.238
 5747SOL    HW218141   2.127   6.684   1.327
 5748SOL     OW18142   6.322   6.481   6.984
 5748SOL    HW118143   6.326   6.577   7.012
 5748SOL    HW218144   6.239   6.440   0.001
 5749SOL     OW18145   2.242   6.229   6.549
 5749SOL    HW118146   2.150   6.224   6.588
 5749SOL    HW218147   2.236   6.262   6.455
 5750SOL     OW18148   6.709   2.499   3.963
 5750SOL    HW118149   6.711   2.593   3.999
 5750SOL    HW218150   6.671   2.438   4.033
 5751SOL     OW18151   0.276   3.641   3.956
 5751SOL    HW118152   0.333   3.712   3.914
 5751SOL    HW218153   0.289   3.641   4.055
 5752SOL     OW18154   5.914   0.975   6.956
 5752SOL    HW118155   5.835   0.928   6.995
 5752SOL    HW218156   5.993   0.914   6.954
 5753SOL     OW18157   3.595   3.828   4.089
 5753SOL    HW118158   3.572   3.828   3.992
 5753SOL    HW218159   3.620   3.921   4.117
 5754SOL     OW18160   5.829   6.372   1.133
 5754SOL    HW118161   5.865   6.334   1.219
 5754SOL    HW218162   5.764   6.308   1.093
 5755SOL     OW18163   1.204   2.806   6.468
 5755SOL    HW118164   1.199   2.863   6.550
 5755SOL    HW218165   1.163   2.855   6.391
 5756SOL     OW18166   6.427   6.232   1.679
 5756SOL    HW118167   6.423   6.161   1.749
 5756SOL    HW218168   6.334   6.251   1.647
 5757SOL     OW18169   0.854   1.310   3.535
 5757SOL    HW118170   0.950   1.287   3.523
 5757SOL    HW218171   0.816   1.341   3.448
 5758SOL     OW18172   6.660   6.772   3.163
 5758SOL    HW118173   6.638   6.713   3.085
 5758SOL    HW218174   6.633   6.866   3.144
 5759SOL     OW18175   1.807   6.331   3.262
 5759SOL    HW118176   1.833   6.311   3.357
 5759SOL    HW218177   1.890   6.347   3.208
 5760SOL     OW18178   0.477   2.283   0.236
 5760SOL    HW118179   0.523   2.295   0.148
 5760SOL    HW218180   0.519   2.206   0.285
 5761SOL     OW18181   6.494   6.813   4.922
 5761SOL    HW118182   6.472   6.910   4.911
 5761SOL    HW218183   6.593   6.800   4.914
 5762SOL     OW18184   0.700   5.472   5.441
 5762SOL    HW118185   0.619   5.529   5.453
 5762SOL    HW218186   0.676   5.391   5.386
 5763SOL     OW18187   5.058   0.649   0.391
 5763SOL    HW118188   5.135   0.710   0.409
 5763SOL    HW218189   5.002   0.640   0.474
 5764SOL     OW18190   4.141   6.468   4.474
 5764SOL    HW118191   4.199   6.463   4.393
 5764SOL    HW218192   4.189   6.427   4.551
 5765SOL     OW18193   6.992   6.069   2.530
 5765SOL    HW118194   6.926   6.013   2.581
 5765SOL    HW218195   0.051   6.091   2.588
 5766SOL     OW18196   0.675   1.127   3.962
 5766SOL    HW118197   0.713   1.126   3.870
 5766SOL    HW218198   0.718   1.200   4.015
 5767SOL     OW18199   5.130   6.407   0.276
 5767SOL    HW118200   5.145   6.503   0.250
 5767SOL    HW218201   5.142   6.349   0.196
 5768SOL     OW18202   1.359   1.115   4.842
 5768SOL    HW118203   1.451   1.077   4.846
 5768SOL    HW218204   1.304   1.063   4.776
 5769SOL     OW18205   0.831   2.750   5.718
 5769SOL    HW118206   0.748   2.695   5.719
 5769SOL    HW218207   0.875   2.745   5.807
 5770SOL     OW18208   1.859   4.441   2.622
 5770SOL    HW118209   1.797   4.404   2.553
 5770SOL    HW218210   1.812   4.446   2.710
 5771SOL     OW18211   2.911   5.480   2.946
 5771SOL    HW118212   2.947   5.572   2.935
 5771SOL    HW218213   2.830   5.469   2.889
 5772SOL     OW18214   2.499   0.293   3.205
 5772SOL    HW118215   2.418   0.254   3.161
 5772SOL    HW218216   2.494   0.276   3.304
 5773SOL     OW18217   5.785   0.651   3.657
 5773SOL    HW118218   5.866   0.612   3.701
 5773SOL    HW218219   5.734   0.705   3.724
 5774SOL     OW18220   0.913   6.527   3.433
 5774SOL    HW118221   0.976   6.594   3.472
 5774SOL    HW218222   0.820   6.563   3.435
 5775SOL     OW18223   5.951   5.037   2.618
 5775SOL    HW118224   6.039   5.037   2.572
 5775SOL    HW218225   5.932   4.946   2.655
 5776SOL     OW18226   3.485   0.894   4.247
 5776SOL    HW118227   3.539   0.958   4.301
 5776SOL    HW218228   3.424   0.844   4.308
 5777SOL     OW18229   1.036   0.515   1.586
 5777SOL    HW118230   1.045   0.425   1.629
 5777SOL    HW218231   0.992   0.578   1.650
 5778SOL     OW18232   0.197   0.492   0.094
 5778SOL    HW118233   0.150   0.580   0.100
 5778SOL    HW218234   0.294   0.507   0.075
 5779SOL     OW18235   5.934   1.912   0.575
 5779SOL    HW118236   5.846   1.909   0.528
 5779SOL    HW218237   5.961   2.007   0.590
 5780SOL     OW18238   4.845   5.024   4.062
 5780SOL    HW118239   4.792   5.108   4.051
 5780SOL    HW218240   4.925   5.027   4.002
 5781SOL     OW18241   1.404   5.357   6.215
 5781SOL    HW118242   1.454   5.271   6.202
 5781SOL    HW218243   1.465   5.424   6.258
 5782SOL     OW18244   6.899   0.951   0.042
 5782SOL    HW118245   6.939   1.042   0.027
 5782SOL    HW218246   6.877   0.939   0.138
 5783SOL     OW18247   2.688   2.827   6.560
 5783SOL    HW118248   2.650   2.785   6.478
 5783SOL    HW218249   2.633   2.803   6.640
 5784SOL     OW18250   6.767   6.326   7.000
 5784SOL    HW118251   6.679   6.307   0.026
 5784SOL    HW218252   6.755   6.400   6.934
 5785SOL     OW18253   1.472   1.600   1.695
 5785SOL    HW118254   1.474   1.544   1.778
 5785SOL    HW218255   1.561   1.641   1.681
 5786SOL     OW18256   6.122   5.565   1.730
 5786SOL    HW118257   6.023   5.557   1.737
 5786SOL    HW218258   6.145   5.648   1.679
 5787SOL     OW18259   2.135   3.646   6.392
 5787SOL    HW118260   2.203   3.660   6.320
 5787SOL    HW218261   2.110   3.549   6.397
 5788SOL     OW18262   3.488   0.763   3.581
 5788SOL    HW118263   3.501   0.760   3.482
 5788SOL    HW218264   3.414   0.701   3.607
 5789SOL     OW18265   3.716   4.797   6.206
 5789SOL    HW118266   3.756   4.713   6.168
 5789SOL    HW218267   3.676   4.851   6.132
 5790SOL     OW18268   1.199   4.048   3.844
 5790SOL    HW118269   1.225   4.093   3.929
 5790SOL    HW218270   1.194   3.949   3.858
 5791SOL     OW18271   1.484   0.320   3.317
 5791SOL    HW118272   1.581   0.296   3.320
 5791SOL    HW218273   1.436   0.270   3.389
 5792SOL     OW18274   0.075   2.608   2.936
 5792SOL    HW118275   0.161   2.612   2.987
 5792SOL    HW218276   0.080   2.670   2.858
 5793SOL     OW18277   6.450   0.624   4.744
 5793SOL    HW118278   6.432   0.526   4.755
 5793SOL    HW218279   6.423   0.652   4.652
 5794SOL     OW18280   6.583   4.023   6.555
 5794SOL    HW118281   6.538   3.935   6.567
 5794SOL    HW218282   6.681   4.014   6.576
 5795SOL     OW18283   6.388   4.355   6.577
 5795SOL    HW118284   6.377   4.403   6.663
 5795SOL    HW218285   6.367   4.258   6.590
 5796SOL     OW18286   2.830   2.475   0.827
 5796SOL    HW118287   2.811   2.495   0.923
 5796SOL    HW218288   2.746   2.441   0.784
 5797SOL     OW18289   3.106   2.685   5.303
 5797SOL    HW118290   3.205   2.675   5.317
 5797SOL    HW218291   3.062   2.595   5.312
 5798SOL     OW18292   6.649   5.236   4.070
 5798SOL    HW118293   6.579   5.307   4.068
 5798SOL    HW218294   6.697   5.238   4.157
 5799SOL     OW18295   5.532   1.222   4.101
 5799SOL    HW118296   5.574   1.298   4.151
 5799SOL    HW218297   5.501   1.255   4.011
 5800SOL     OW18298   6.085   5.625   6.725
 5800SOL    HW118299   5.993   5.602   6.756
 5800SOL    HW218300   6.114   5.711   6.768
 5801SOL     OW18301   1.945   0.926   2.901
 5801SOL    HW118302   2.008   0.887   2.968
 5801SOL    HW218303   1.854   0.887   2.914
 5802SOL     OW18304   0.573   2.593   4.749
 5802SOL    HW118305   0.568   2.504   4.794
 5802SOL    HW218306   0.506   2.597   4.675
 5803SOL     OW18307   1.471   5.351   1.006
 5803SOL    HW118308   1.385   5.346   0.955
 5803SOL    HW218309   1.493   5.260   1.041
 5804SOL     OW18310   0.380   2.364   6.190
 5804SOL    HW118311   0.317   2.442   6.191
 5804SOL    HW218312   0.328   2.279   6.187
 5805SOL     OW18313   5.816   3.348   6.723
 5805SOL    HW118314   5.898   3.329   6.777
 5805SOL    HW218315   5.736   3.311   6.770
 5806SOL     OW18316   6.421   6.833   6.691
 5806SOL    HW118317   6.337   6.859   6.739
 5806SOL    HW218318   6.491   6.904   6.705
 5807SOL     OW18319   2.227   3.463   1.633
 5807SOL    HW118320   2.285   3.436   1.710
 5807SOL    HW218321   2.165   3.535   1.663
 5808SOL     OW18322   6.299   1.670   3.671
 5808SOL    HW118323   6.384   1.637   3.710
 5808SOL    HW218324   6.259   1.599   3.613
 5809SOL     OW18325   0.103   2.765   3.656
 5809SOL    HW118326   0.035   2.731   3.590
 5809SOL    HW218327   0.179   2.700   3.662
 5810SOL     OW18328   2.774   2.331   2.487
 5810SOL    HW118329   2.822   2.281   2.415
 5810SOL    HW218330   2.692   2.374   2.449
 5811SOL     OW18331   3.285   0.115   2.602
 5811SOL    HW118332   3.252   0.034   2.650
 5811SOL    HW218333   3.253   0.113   2.507
 5812SOL     OW18334   4.555   0.462   4.913
 5812SOL    HW118335   4.456   0.473   4.916
 5812SOL    HW218336   4.594   0.487   5.001
 5813SOL     OW18337   1.577   1.152   5.305
 5813SOL    HW118338   1.669   1.126   5.334
 5813SOL    HW218339   1.526   1.070   5.278
 5814SOL     OW18340   0.067   5.097   1.109
 5814SOL    HW118341   0.053   5.179   1.052
 5814SOL    HW218342   0.124   5.121   1.187
 5815SOL     OW18343   3.950   0.732   3.850
 5815SOL    HW118344   3.961   0.689   3.760
 5815SOL    HW218345   3.985   0.670   3.920
 5816SOL     OW18346   4.916   6.854   0.603
 5816SOL    HW118347   4.865   6.770   0.620
 5816SOL    HW218348   5.005   6.832   0.564
 5817SOL     OW18349   5.844   2.441   5.999
 5817SOL    HW118350   5.851   2.518   5.936
 5817SOL    HW218351   5.785   2.371   5.959
 5818SOL     OW18352   6.486   6.219   5.614
 5818SOL    HW118353   6.506   6.313   5.642
 5818SOL    HW218354   6.477   6.215   5.515
 5819SOL     OW18355   6.050   0.440   0.662
 5819SOL    HW118356   6.135   0.441   0.610
 5819SOL    HW218357   6.050   0.363   0.726
 5820SOL     OW18358   5.605   5.015   2.066
 5820SOL    HW118359   5.534   4.951   2.037
 5820SOL    HW218360   5.572   5.109   2.052
 5821SOL     OW18361   3.090   0.170   2.817
 5821SOL    HW118362   3.146   0.190   2.737
 5821SOL    HW218363   3.022   0.100   2.794
 5822SOL     OW18364   0.913   1.006   2.091
 5822SOL    HW118365   0.833   1.040   2.041
 5822SOL    HW218366   0.996   1.028   2.040
 5823SOL     OW18367   2.065   2.891   4.023
 5823SOL    HW118368   2.001   2.943   4.079
 5823SOL    HW218369   2.102   2.815   4.076
 5824SOL     OW18370   4.481   0.324   3.830
 5824SOL    HW118371   4.388   0.295   3.853
 5824SOL    HW218372   4.499   0.414   3.871
 5825SOL     OW18373   3.855   1.170   1.716
 5825SOL    HW118374   3.941   1.222   1.717
 5825SOL    HW218375   3.801   1.196   1.636
 5826SOL     OW18376   7.003   6.470   3.883
 5826SOL    HW118377   7.003   6.542   3.813
 5826SOL    HW218378   6.939   6.398   3.856
 5827SOL     OW18379   1.694   4.584   5.517
 5827SOL    HW118380   1.743   4.661   5.558
 5827SOL    HW218381   1.732   4.498   5.552
 5828SOL     OW18382   6.624   2.018   1.704
 5828SOL    HW118383   6.711   2.059   1.733
 5828SOL    HW218384   6.642   1.927   1.666
 5829SOL     OW18385   1.398   1.869   1.802
 5829SOL    HW118386   1.399   1.775   1.767
 5829SOL    HW218387   1.388   1.868   1.901
 5830SOL     OW18388   2.418   1.090   5.474
 5830SOL    HW118389   2.498   1.129   5.428
 5830SOL    HW218390   2.375   1.161   5.531
 5831SOL     OW18391   5.710   5.768   2.754
 5831SOL    HW118392   5.773   5.760   2.832
 5831SOL    HW218393   5.616   5.767   2.788
 5832SOL     OW18394   3.645   3.360   4.210
 5832SOL    HW118395   3.679   3.301   4.284
 5832SOL    HW218396   3.549   3.381   4.225
 5833SOL     OW18397   3.474   3.253   5.108
 5833SOL    HW118398   3.557   3.269   5.056
 5833SOL    HW218399   3.402   3.221   5.047
 5834SOL     OW18400   6.332   0.998   0.202
 5834SOL    HW118401   6.313   0.900   0.196
 5834SOL    HW218402   6.356   1.033   0.111
 5835SOL     OW18403   5.373   3.277   4.806
 5835SOL    HW118404   5.300   3.337   4.773
 5835SOL    HW218405   5.460   3.325   4.801
 5836SOL     OW18406   3.137   0.115   3.086
 5836SOL    HW118407   3.183   0.181   3.147
 5836SOL    HW218408   3.122   0.158   2.997
 5837SOL     OW18409   4.354   4.580   6.006
 5837SOL    HW118410   4.431   4.544   6.058
 5837SOL    HW218411   4.385   4.603   5.913
 5838SOL     OW18412   0.930   1.103   5.674
 5838SOL    HW118413   1.003   1.121   5.740
 5838SOL    HW218414   0.846   1.148   5.703
 5839SOL     OW18415   0.068   2.440   2.259
 5839SOL    HW118416   0.008   2.371   2.301
 5839SOL    HW218417   0.057   2.526   2.308
 5840SOL     OW18418   3.374   5.363   0.257
 5840SOL    HW118419   3.396   5.354   0.159
 5840SOL    HW218420   3.451   5.405   0.304
 5841SOL     OW18421   6.072   2.422   3.238
 5841SOL    HW118422   6.072   2.481   3.319
 5841SOL    HW218423   6.088   2.327   3.266
 5842SOL     OW18424   3.762   2.605   0.433
 5842SOL    HW118425   3.662   2.612   0.428
 5842SOL    HW218426   3.801   2.697   0.432
 5843SOL     OW18427   0.937   2.941   1.040
 5843SOL    HW118428   0.903   2.923   0.947
 5843SOL    HW218429   0.983   3.030   1.042
 5844SOL     OW18430   1.931   6.476   6.884
 5844SOL    HW118431   1.931   6.551   6.818
 5844SOL    HW218432   2.012   6.483   6.942
 5845SOL     OW18433   1.708   2.521   4.613
 5845SOL    HW118434   1.632   2.456   4.613
 5845SOL    HW218435   1.788   2.479   4.569
 5846SOL     OW18436   0.066   3.323   6.756
 5846SOL    HW118437   0.053   3.419   6.783
 5846SOL    HW218438   0.044   3.312   6.659
 5847SOL     OW18439   1.093   2.242   3.752
 5847SOL    HW118440   1.164   2.194   3.701
 5847SOL    HW218441   1.135   2.292   3.828
 5848SOL     OW18442   0.958   4.763   3.325
 5848SOL    HW118443   0.970   4.743   3.227
 5848SOL    HW218444   1.031   4.824   3.355
 5849SOL     OW18445   3.204   6.716   5.860
 5849SOL    HW118446   3.175   6.805   5.827
 5849SOL    HW218447   3.133   6.648   5.840
 5850SOL     OW18448   0.611   4.629   3.282
 5850SOL    HW118449   0.696   4.596   3.323
 5850SOL    HW218450   0.533   4.593   3.334
 5851SOL     OW18451   5.742   3.007   1.888
 5851SOL    HW118452   5.664   2.965   1.935
 5851SOL    HW218453   5.825   2.992   1.942
 5852SOL     OW18454   3.941   6.367   3.119
 5852SOL    HW118455   3.841   6.363   3.125
 5852SOL    HW218456   3.979   6.401   3.205
 5853SOL     OW18457   4.886   4.015   5.517
 5853SOL    HW118458   4.801   3.963   5.509
 5853SOL    HW218459   4.915   4.046   5.426
 5854SOL     OW18460   1.067   1.078   6.605
 5854SOL    HW118461   1.057   1.177   6.614
 5854SOL    HW218462   1.131   1.057   6.531
 5855SOL     OW18463   1.846   1.716   4.763
 5855SOL    HW118464   1.848   1.788   4.695
 5855SOL    HW218465   1.935   1.710   4.808
 5856SOL     OW18466   1.594   5.161   3.095
 5856SOL    HW118467   1.686   5.175   3.059
 5856SOL    HW218468   1.563   5.244   3.142
 5857SOL     OW18469   0.597   2.641   5.399
 5857SOL    HW118470   0.694   2.619   5.403
 5857SOL    HW218471   0.585   2.737   5.375
 5858SOL     OW18472   3.544   6.843   3.542
 5858SOL    HW118473   3.561   6.896   3.459
 5858SOL    HW218474   3.525   6.748   3.516
 5859SOL     OW18475   6.072   5.903   1.928
 5859SOL    HW118476   6.074   5.861   2.019
 5859SOL    HW218477   6.026   5.841   1.865
 5860SOL     OW18478   6.902   3.947   0.908
 5860SOL    HW118479   6.952   3.987   0.985
 5860SOL    HW218480   6.917   3.848   0.907
 5861SOL     OW18481   6.080   1.625   3.867
 5861SOL    HW118482   6.074   1.691   3.793
 5861SOL    HW218483   6.173   1.624   3.904
 5862SOL     OW18484   4.804   5.017   3.507
 5862SOL    HW118485   4.828   5.074   3.428
 5862SOL    HW218486   4.855   4.931   3.503
 5863SOL     OW18487   2.252   1.809   0.758
 5863SOL    HW118488   2.292   1.807   0.849
 5863SOL    HW218489   2.261   1.901   0.719
 5864SOL     OW18490   4.557   5.355   0.816
 5864SOL    HW118491   4.545   5.273   0.872
 5864SOL    HW218492   4.493   5.352   0.739
 5865SOL     OW18493   4.334   0.609   3.265
 5865SOL    HW118494   4.323   0.628   3.168
 5865SOL    HW218495   4.244   0.598   3.308
 5866SOL     OW18496   3.473   1.674   6.857
 5866SOL    HW118497   3.543   1.618   6.903
 5866SOL    HW218498   3.471   1.652   6.760
 5867SOL     OW18499   6.509   2.955   1.598
 5867SOL    HW118500   6.480   2.879   1.539
 5867SOL    HW218501   6.528   3.035   1.541
 5868SOL     OW18502   1.101   6.584   4.801
 5868SOL    HW118503   1.054   6.663   4.763
 5868SOL    HW218504   1.056   6.557   4.887
 5869SOL     OW18505   2.999   4.890   4.262
 5869SOL    HW118506   3.097   4.889   4.244
 5869SOL    HW218507   2.982   4.863   4.356
 5870SOL     OW18508   4.856   5.393   3.877
 5870SOL    HW118509   4.809   5.310   3.847
 5870SOL    HW218510   4.932   5.414   3.814
 5871SOL     OW18511   2.897   3.522   0.520
 5871SOL    HW118512   2.911   3.592   0.590
 5871SOL    HW218513   2.809   3.477   0.535
 5872SOL     OW18514   4.037   5.321   3.782
 5872SOL    HW118515   4.018   5.252   3.852
 5872SOL    HW218516   4.091   5.395   3.822
 5873SOL     OW18517   2.214   2.808   6.772
 5873SOL    HW118518   2.228   2.810   6.871
 5873SOL    HW218519   2.120   2.835   6.751
 5874SOL     OW18520   1.056   4.158   6.247
 5874SOL    HW118521   1.018   4.213   6.173
 5874SOL    HW218522   1.097   4.218   6.316
 5875SOL     OW18523   3.234   2.559   0.848
 5875SOL    HW118524   3.278   2.648   0.834
 5875SOL    HW218525   3.276   2.514   0.927
 5876SOL     OW18526   4.366   4.210   6.335
 5876SOL    HW118527   4.310   4.242   6.258
 5876SOL    HW218528   4.306   4.175   6.407
 5877SOL     OW18529   5.948   0.235   2.534
 5877SOL    HW118530   6.014   0.233   2.459
 5877SOL    HW218531   5.932   0.330   2.562
 5878SOL     OW18532   4.887   4.070   2.508
 5878SOL    HW118533   4.824   4.115   2.445
 5878SOL    HW218534   4.903   4.130   2.587
 5879SOL     OW18535   3.013   4.343   5.334
 5879SOL    HW118536   2.965   4.398   5.265
 5879SOL    HW218537   2.952   4.272   5.369
 5880SOL     OW18538   5.982   2.402   0.448
 5880SOL    HW118539   5.903   2.462   0.453
 5880SOL    HW218540   6.066   2.455   0.456
 5881SOL     OW18541   1.438   5.968   2.593
 5881SOL    HW118542   1.474   5.875   2.584
 5881SOL    HW218543   1.452   6.000   2.687
 5882SOL     OW18544   1.572   4.843   5.494
 5882SOL    HW118545   1.597   4.746   5.507
 5882SOL    HW218546   1.560   4.861   5.397
 5883SOL     OW18547   6.988   5.452   0.472
 5883SOL    HW118548   0.030   5.481   0.546
 5883SOL    HW218549   6.897   5.491   0.488
 5884SOL     OW18550   6.554   0.839   2.559
 5884SOL    HW118551   6.525   0.884   2.643
 5884SOL    HW218552   6.508   0.881   2.481
 5885SOL     OW18553   0.324   5.667   1.604
 5885SOL    HW118554   0.409   5.682   1.553
 5885SOL    HW218555   0.342   5.607   1.683
 5886SOL     OW18556   2.147   4.642   3.729
 5886SOL    HW118557   2.168   4.725   3.678
 5886SOL    HW218558   2.227   4.582   3.730
 5887SOL     OW18559   3.162   3.276   0.239
 5887SOL    HW118560   3.100   3.270   0.317
 5887SOL    HW218561   3.190   3.371   0.227
 5888SOL     OW18562   2.630   5.972   1.682
 5888SOL    HW118563   2.712   5.997   1.732
 5888SOL    HW218564   2.557   6.038   1.701
 5889SOL     OW18565   5.200   1.675   2.613
 5889SOL    HW118566   5.130   1.605   2.624
 5889SOL    HW218567   5.277   1.638   2.561
 5890SOL     OW18568   2.526   4.864   3.428
 5890SOL    HW118569   2.540   4.765   3.433
 5890SOL    HW218570   2.565   4.908   3.509
 5891SOL     OW18571   2.585   3.087   6.409
 5891SOL    HW118572   2.497   3.128   6.433
 5891SOL    HW218573   2.592   2.997   6.451
 5892SOL     OW18574   1.515   2.712   0.578
 5892SOL    HW118575   1.591   2.733   0.517
 5892SOL    HW218576   1.472   2.626   0.549
 5893SOL     OW18577   0.470   6.196   1.585
 5893SOL    HW118578   0.509   6.288   1.584
 5893SOL    HW218579   0.377   6.199   1.548
 5894SOL     OW18580   2.387   5.356   6.688
 5894SOL    HW118581   2.432   5.267   6.686
 5894SOL    HW218582   2.456   5.428   6.687
 5895SOL     OW18583   6.186   3.925   3.803
 5895SOL    HW118584   6.224   3.857   3.865
 5895SOL    HW218585   6.181   4.013   3.848
 5896SOL     OW18586   5.962   2.602   1.958
 5896SOL    HW118587   5.886   2.601   2.023
 5896SOL    HW218588   6.029   2.532   1.985
 5897SOL     OW18589   3.480   2.585   0.452
 5897SOL    HW118590   3.488   2.648   0.374
 5897SOL    HW218591   3.404   2.614   0.510
 5898SOL     OW18592   2.772   0.902   6.952
 5898SOL    HW118593   2.764   0.929   6.856
 5898SOL    HW218594   2.759   0.982   7.010
 5899SOL     OW18595   0.278   6.792   6.997
 5899SOL    HW118596   0.296   6.694   7.006
 5899SOL    HW218597   0.200   6.805   6.936
 5900SOL     OW18598   6.065   6.644   2.540
 5900SOL    HW118599   5.984   6.692   2.505
 5900SOL    HW218600   6.113   6.704   2.604
 5901SOL     OW18601   2.370   0.721   4.987
 5901SOL    HW118602   2.463   0.755   5.003
 5901SOL    HW218603   2.305   0.777   5.039
 5902SOL     OW18604   3.994   3.973   5.777
 5902SOL    HW118605   3.905   3.938   5.748
 5902SOL    HW218606   4.067   3.917   5.737
 5903SOL     OW18607   6.182   2.124   4.877
 5903SOL    HW118608   6.173   2.210   4.926
 5903SOL    HW218609   6.100   2.068   4.891
 5904SOL     OW18610   6.852   4.879   1.811
 5904SOL    HW118611   6.782   4.880   1.882
 5904SOL    HW218612   6.824   4.818   1.737
 5905SOL     OW18613   6.407   2.672   4.855
 5905SOL    HW118614   6.403   2.771   4.866
 5905SOL    HW218615   6.480   2.634   4.911
 5906SOL     OW18616   4.598   1.081   5.702
 5906SOL    HW118617   4.531   1.009   5.722
 5906SOL    HW218618   4.596   1.104   5.605
 5907SOL     OW18619   1.274   3.592   5.940
 5907SOL    HW118620   1.340   3.563   5.870
 5907SOL    HW218621   1.254   3.515   6.001
 5908SOL     OW18622   4.209   3.953   6.847
 5908SOL    HW118623   4.242   3.983   6.937
 5908SOL    HW218624   4.282   3.963   6.780
 5909SOL     OW18625   5.789   5.160   3.477
 5909SOL    HW118626   5.854   5.180   3.550
 5909SOL    HW218627   5.725   5.236   3.468
 5910SOL     OW18628   3.039   4.509   1.399
 5910SOL    HW118629   3.043   4.603   1.364
 5910SOL    HW218630   3.123   4.489   1.449
 5911SOL     OW18631   6.030   0.407   5.982
 5911SOL    HW118632   5.995   0.352   6.058
 5911SOL    HW218633   6.126   0.431   6.001
 5912SOL     OW18634   0.641   3.421   6.035
 5912SOL    HW118635   0.676   3.505   5.994
 5912SOL    HW218636   0.700   3.345   6.010
 5913SOL     OW18637   2.111   2.459   4.335
 5913SOL    HW118638   2.158   2.504   4.411
 5913SOL    HW218639   2.176   2.402   4.285
 5914SOL     OW18640   1.302   5.945   1.022
 5914SOL    HW118641   1.336   5.851   1.026
 5914SOL    HW218642   1.253   5.966   1.107
 5915SOL     OW18643   5.851   3.608   3.801
 5915SOL    HW118644   5.822   3.515   3.823
 5915SOL    HW218645   5.934   3.605   3.745
 5916SOL     OW18646   2.992   0.647   6.648
 5916SOL    HW118647   2.905   0.607   6.621
 5916SOL    HW218648   3.040   0.584   6.710
 5917SOL     OW18649   3.955   3.968   2.387
 5917SOL    HW118650   3.979   3.873   2.405
 5917SOL    HW218651   3.857   3.981   2.398
 5918SOL     OW18652   2.593   2.163   3.989
 5918SOL    HW118653   2.523   2.103   4.028
 5918SOL    HW218654   2.682   2.115   3.989
 5919SOL     OW18655   1.936   2.119   6.804
 5919SOL    HW118656   1.938   2.176   6.887
 5919SOL    HW218657   1.842   2.096   6.781
 5920SOL     OW18658   2.602   5.014   6.902
 5920SOL    HW118659   2.535   4.970   6.962
 5920SOL    HW218660   2.647   5.088   6.953
 5921SOL     OW18661   3.941   5.463   5.132
 5921SOL    HW118662   3.946   5.508   5.221
 5921SOL    HW218663   3.940   5.532   5.060
 5922SOL     OW18664   6.454   4.658   1.919
 5922SOL    HW118665   6.432   4.614   1.832
 5922SOL    HW218666   6.491   4.749   1.902
 5923SOL     OW18667   0.887   0.864   3.458
 5923SOL    HW118668   0.797   0.874   3.415
 5923SOL    HW218669   0.877   0.813   3.544
 5924SOL     OW18670   5.926   1.832   4.595
 5924SOL    HW118671   5.831   1.860   4.604
 5924SOL    HW218672   5.940   1.791   4.504
 5925SOL     OW18673   6.248   5.712   0.322
 5925SOL    HW118674   6.299   5.788   0.364
 5925SOL    HW218675   6.157   5.744   0.295
 5926SOL     OW18676   3.675   6.180   1.772
 5926SOL    HW118677   3.763   6.217   1.799
 5926SOL    HW218678   3.604   6.251   1.784
 5927SOL     OW18679   2.090   5.049   1.514
 5927SOL    HW118680   2.071   5.045   1.612
 5927SOL    HW218681   2.180   5.091   1.500
 5928SOL     OW18682   0.618   6.225   1.040
 5928SOL    HW118683   0.541   6.234   0.976
 5928SOL    HW218684   0.687   6.294   1.019
 5929SOL     OW18685   0.607   6.845   5.686
 5929SOL    HW118686   0.632   6.801   5.599
 5929SOL    HW218687   0.559   6.930   5.667
 5930SOL     OW18688   6.221   1.096   5.161
 5930SOL    HW118689   6.156   1.121   5.233
 5930SOL    HW218690   6.214   0.998   5.142
 5931SOL     OW18691   5.605   5.020   0.628
 5931SOL    HW118692   5.516   4.976   0.638
 5931SOL    HW218693   5.623   5.038   0.531
 5932SOL     OW18694   2.085   0.388   0.224
 5932SOL    HW118695   2.021   0.351   0.157
 5932SOL    HW218696   2.142   0.313   0.260
 5933SOL     OW18697   5.997   3.094   3.149
 5933SOL    HW118698   6.005   3.181   3.100
 5933SOL    HW218699   6.082   3.075   3.198
 5934SOL     OW18700   4.036   3.691   2.388
 5934SOL    HW118701   4.107   3.677   2.318
 5934SOL    HW218702   3.946   3.688   2.344
 5935SOL     OW18703   3.912   3.063   3.074
 5935SOL    HW118704   3.978   3.132   3.102
 5935SOL    HW218705   3.910   3.055   2.975
 5936SOL     OW18706   6.874   5.981   6.864
 5936SOL    HW118707   6.827   6.067   6.844
 5936SOL    HW218708   6.806   5.909   6.877
 5937SOL     OW18709   0.817   4.113   6.903
 5937SOL    HW118710   0.723   4.147   6.893
 5937SOL    HW218711   0.824   4.023   6.860
 5938SOL     OW18712   2.495   4.682   0.509
 5938SOL    HW118713   2.456   4.725   0.427
 5938SOL    HW218714   2.422   4.669   0.577
 5939SOL     OW18715   1.455   0.801   2.124
 5939SOL    HW118716   1.476   0.867   2.052
 5939SOL    HW218717   1.520   0.811   2.199
 5940SOL     OW18718   3.740   4.874   3.472
 5940SOL    HW118719   3.643   4.898   3.468
 5940SOL    HW218720   3.787   4.913   3.392
 5941SOL     OW18721   6.321   2.678   3.526
 5941SOL    HW118722   6.304   2.776   3.512
 5941SOL    HW218723   6.286   2.651   3.616
 5942SOL     OW18724   6.808   1.170   4.466
 5942SOL    HW118725   6.721   1.121   4.455
 5942SOL    HW218726   6.866   1.121   4.531
 5943SOL     OW18727   1.409   5.110   0.437
 5943SOL    HW118728   1.347   5.185   0.416
 5943SOL    HW218729   1.503   5.139   0.419
 5944SOL     OW18730   5.294   2.463   2.429
 5944SOL    HW118731   5.276   2.561   2.434
 5944SOL    HW218732   5.236   2.422   2.360
 5945SOL     OW18733   6.591   5.723   6.229
 5945SOL    HW118734   6.541   5.637   6.230
 5945SOL    HW218735   6.527   5.799   6.217
 5946SOL     OW18736   3.507   2.720   5.320
 5946SOL    HW118737   3.512   2.770   5.234
 5946SOL    HW218738   3.445   2.642   5.310
 5947SOL     OW18739   4.858   3.788   2.006
 5947SOL    HW118740   4.827   3.883   2.008
 5947SOL    HW218741   4.786   3.730   1.968
 5948SOL     OW18742   3.165   5.267   3.173
 5948SOL    HW118743   3.217   5.204   3.230
 5948SOL    HW218744   3.069   5.242   3.174
 5949SOL     OW18745   4.373   4.804   3.215
 5949SOL    HW118746   4.392   4.781   3.310
 5949SOL    HW218747   4.393   4.900   3.198
 5950SOL     OW18748   6.472   2.668   4.497
 5950SOL    HW118749   6.470   2.642   4.594
 5950SOL    HW218750   6.378   2.681   4.464
 5951SOL     OW18751   1.994   0.422   4.182
 5951SOL    HW118752   1.933   0.353   4.142
 5951SOL    HW218753   1.946   0.510   4.187
 5952SOL     OW18754   0.505   5.867   5.073
 5952SOL    HW118755   0.582   5.898   5.129
 5952SOL    HW218756   0.506   5.915   4.985
 5953SOL     OW18757   0.892   3.148   6.251
 5953SOL    HW118758   0.982   3.104   6.253
 5953SOL    HW218759   0.862   3.157   6.157
 5954SOL     OW18760   1.298   4.847   6.492
 5954SOL    HW118761   1.334   4.937   6.516
 5954SOL    HW218762   1.230   4.857   6.419
 5955SOL     OW18763   4.943   4.933   2.816
 5955SOL    HW118764   4.946   4.981   2.729
 5955SOL    HW218765   4.941   5.000   2.891
 5956SOL     OW18766   0.076   1.971   0.276
 5956SOL    HW118767   0.109   1.894   0.331
 5956SOL    HW218768   0.015   2.027   0.331
 5957SOL     OW18769   4.480   6.832   5.403
 5957SOL    HW118770   4.384   6.805   5.402
 5957SOL    HW218771   4.509   6.848   5.497
 5958SOL     OW18772   1.104   5.321   2.685
 5958SOL    HW118773   1.148   5.368   2.609
 5958SOL    HW218774   1.017   5.367   2.707
 5959SOL     OW18775   1.392   1.094   6.571
 5959SOL    HW118776   1.350   1.026   6.510
 5959SOL    HW218777   1.432   1.168   6.517
 5960SOL     OW18778   3.471   6.220   5.577
 5960SOL    HW118779   3.443   6.135   5.534
 5960SOL    HW218780   3.439   6.222   5.672
 5961SOL     OW18781   2.639   1.181   5.360
 5961SOL    HW118782   2.688   1.249   5.416
 5961SOL    HW218783   2.629   1.216   5.267
 5962SOL     OW18784   5.244   3.950   2.104
 5962SOL    HW118785   5.197   3.862   2.092
 5962SOL    HW218786   5.332   3.947   2.056
 5963SOL     OW18787   4.245   4.067   1.734
 5963SOL    HW118788   4.187   4.102   1.660
 5963SOL    HW218789   4.300   4.142   1.771
 5964SOL     OW18790   1.455   3.540   5.735
 5964SOL    HW118791   1.555   3.535   5.737
 5964SOL    HW218792   1.427   3.631   5.704
 5965SOL     OW18793   2.205   1.743   3.753
 5965SOL    HW118794   2.195   1.835   3.716
 5965SOL    HW218795   2.263   1.688   3.693
 5966SOL     OW18796   1.878   5.541   4.327
 5966SOL    HW118797   1.950   5.479   4.297
 5966SOL    HW218798   1.789   5.507   4.295
 5967SOL     OW18799   4.604   5.936   2.407
 5967SOL    HW118800   4.543   6.012   2.428
 5967SOL    HW218801   4.551   5.857   2.377
 5968SOL     OW18802   0.491   1.445   4.071
 5968SOL    HW118803   0.480   1.497   4.155
 5968SOL    HW218804   0.589   1.429   4.054
 5969SOL     OW18805   6.090   2.285   2.815
 5969SOL    HW118806   6.094   2.237   2.903
 5969SOL    HW218807   6.170   2.344   2.806
 5970SOL     OW18808   2.124   3.431   3.452
 5970SOL    HW118809   2.126   3.378   3.537
 5970SOL    HW218810   2.120   3.368   3.374
 5971SOL     OW18811   3.133   6.178   3.329
 5971SOL    HW118812   3.176   6.176   3.239
 5971SOL    HW218813   3.034   6.166   3.319
 5972SOL     OW18814   5.446   0.192   1.633
 5972SOL    HW118815   5.508   0.207   1.556
 5972SOL    HW218816   5.384   0.117   1.612
 5973SOL     OW18817   1.859   4.678   3.255
 5973SOL    HW118818   1.901   4.716   3.173
 5973SOL    HW218819   1.771   4.636   3.231
 5974SOL     OW18820   0.849   4.073   6.421
 5974SOL    HW118821   0.887   4.018   6.495
 5974SOL    HW218822   0.922   4.102   6.360
 5975SOL     OW18823   2.057   2.378   6.158
 5975SOL    HW118824   2.031   2.408   6.250
 5975SOL    HW218825   2.051   2.455   6.095
 5976SOL     OW18826   3.572   2.934   4.504
 5976SOL    HW118827   3.527   2.919   4.416
 5976SOL    HW218828   3.507   2.974   4.568
 5977SOL     OW18829   0.233   3.598   3.094
 5977SOL    HW118830   0.188   3.632   3.012
 5977SOL    HW218831   0.321   3.557   3.070
 5978SOL     OW18832   4.973   5.359   1.955
 5978SOL    HW118833   4.957   5.376   2.052
 5978SOL    HW218834   5.069   5.376   1.933
 5979SOL     OW18835   0.981   1.132   1.368
 5979SOL    HW118836   0.902   1.094   1.416
 5979SOL    HW218837   1.004   1.222   1.407
 5980SOL     OW18838   5.914   2.784   6.174
 5980SOL    HW118839   5.854   2.841   6.118
 5980SOL    HW218840   5.957   2.839   6.245
 5981SOL     OW18841   3.542   2.074   0.886
 5981SOL    HW118842   3.521   2.098   0.791
 5981SOL    HW218843   3.466   2.103   0.944
 5982SOL     OW18844   6.338   2.393   6.928
 5982SOL    HW118845   6.250   2.361   6.965
 5982SOL    HW218846   6.413   2.355   6.982
 5983SOL     OW18847   1.369   0.703   4.873
 5983SOL    HW118848   1.321   0.781   4.914
 5983SOL    HW218849   1.389   0.636   4.945
 5984SOL     OW18850   0.671   0.006   6.167
 5984SOL    HW118851   0.693   6.948   6.108
 5984SOL    HW218852   0.628   0.078   6.114
 5985SOL     OW18853   5.444   3.722   3.878
 5985SOL    HW118854   5.491   3.660   3.941
 5985SOL    HW218855   5.495   3.726   3.792
 5986SOL     OW18856   2.870   3.367   3.000
 5986SOL    HW118857   2.943   3.391   3.064
 5986SOL    HW218858   2.790   3.422   3.018
 5987SOL     OW18859   4.838   0.359   5.770
 5987SOL    HW118860   4.756   0.416   5.779
 5987SOL    HW218861   4.920   0.417   5.772
 5988SOL     OW18862   3.475   0.264   5.947
 5988SOL    HW118863   3.558   0.237   5.899
 5988SOL    HW218864   3.474   0.363   5.960
 5989SOL     OW18865   2.891   1.498   0.075
 5989SOL    HW118866   2.931   1.434   0.009
 5989SOL    HW218867   2.933   1.588   0.065
 5990SOL     OW18868   3.613   5.164   2.573
 5990SOL    HW118869   3.565   5.138   2.656
 5990SOL    HW218870   3.574   5.116   2.495
 5991SOL     OW18871   2.788   5.177   3.711
 5991SOL    HW118872   2.788   5.212   3.617
 5991SOL    HW218873   2.753   5.247   3.773
 5992SOL     OW18874   4.302   2.143   4.148
 5992SOL    HW118875   4.331   2.050   4.171
 5992SOL    HW218876   4.221   2.139   4.089
 5993SOL     OW18877   2.774   5.562   3.678
 5993SOL    HW118878   2.730   5.544   3.590
 5993SOL    HW218879   2.781   5.660   3.693
 5994SOL     OW18880   6.392   2.177   1.182
 5994SOL    HW118881   6.348   2.256   1.139
 5994SOL    HW218882   6.390   2.187   1.281
 5995SOL     OW18883   0.912   4.316   1.307
 5995SOL    HW118884   0.987   4.381   1.316
 5995SOL    HW218885   0.863   4.332   1.221
 5996SOL     OW18886   1.148   5.353   6.042
 5996SOL    HW118887   1.237   5.308   6.045
 5996SOL    HW218888   1.106   5.350   6.133
 5997SOL     OW18889   0.270   0.774   1.385
 5997SOL    HW118890   0.320   0.854   1.353
 5997SOL    HW218891   0.225   0.729   1.307
 5998SOL     OW18892   4.628   2.668   3.323
 5998SOL    HW118893   4.660   2.723   3.400
 5998SOL    HW218894   4.682   2.690   3.242
 5999SOL     OW18895   2.329   2.750   3.322
 5999SOL    HW118896   2.302   2.845   3.308
 5999SOL    HW218897   2.345   2.735   3.420
 6000SOL     OW18898   4.980   0.819   3.463
 6000SOL    HW118899   5.069   0.850   3.497
 6000SOL    HW218900   4.909   0.882   3.495
 6001SOL     OW18901   6.546   1.690   0.420
 6001SOL    HW118902   6.534   1.758   0.348
 6001SOL    HW218903   6.457   1.652   0.444
 6002SOL     OW18904   1.502   0.318   2.033
 6002SOL    HW118905   1.543   0.352   1.948
 6002SOL    HW218906   1.480   0.396   2.092
 6003SOL     OW18907   5.439   4.508   4.166
 6003SOL    HW118908   5.485   4.596   4.156
 6003SOL    HW218909   5.493   4.436   4.124
 6004SOL     OW18910   6.752   3.237   2.054
 6004SOL    HW118911   6.807   3.160   2.023
 6004SOL    HW218912   6.698   3.273   1.977
 6005SOL     OW18913   1.772   6.061   2.482
 6005SOL    HW118914   1.794   6.121   2.405
 6005SOL    HW218915   1.778   5.966   2.453
 6006SOL     OW18916   2.768   5.891   0.297
 6006SOL    HW118917   2.708   5.857   0.224
 6006SOL    HW218918   2.728   5.870   0.386
 6007SOL     OW18919   5.335   3.570   4.580
 6007SOL    HW118920   5.338   3.669   4.569
 6007SOL    HW218921   5.384   3.526   4.505
 6008SOL     OW18922   4.657   3.937   1.254
 6008SOL    HW118923   4.610   3.957   1.340
 6008SOL    HW218924   4.641   3.842   1.228
 6009SOL     OW18925   4.812   2.074   5.067
 6009SOL    HW118926   4.786   2.005   4.999
 6009SOL    HW218927   4.905   2.056   5.099
 6010SOL     OW18928   1.597   4.361   3.114
 6010SOL    HW118929   1.573   4.279   3.166
 6010SOL    HW218930   1.582   4.442   3.172
 6011SOL     OW18931   6.432   2.240   1.742
 6011SOL    HW118932   6.365   2.214   1.811
 6011SOL    HW218933   6.496   2.164   1.727
 6012SOL     OW18934   0.318   2.967   1.576
 6012SOL    HW118935   0.289   2.874   1.553
 6012SOL    HW218936   0.309   3.025   1.496
 6013SOL     OW18937   5.462   0.254   2.691
 6013SOL    HW118938   5.542   0.194   2.682
 6013SOL    HW218939   5.467   0.326   2.622
 6014SOL     OW18940   6.166   0.473   1.032
 6014SOL    HW118941   6.115   0.512   1.109
 6014SOL    HW218942   6.174   0.540   0.959
 6015SOL     OW18943   5.754   0.356   4.012
 6015SOL    HW118944   5.691   0.424   3.976
 6015SOL    HW218945   5.724   0.265   3.984
 6016SOL     OW18946   2.069   0.053   5.233
 6016SOL    HW118947   1.973   0.027   5.218
 6016SOL    HW218948   2.078   0.152   5.224
 6017SOL     OW18949   6.963   4.016   2.405
 6017SOL    HW118950   6.925   4.024   2.313
 6017SOL    HW218951   0.044   4.017   2.400
 6018SOL     OW18952   2.534   5.279   1.541
 6018SOL    HW118953   2.603   5.207   1.547
 6018SOL    HW218954   2.474   5.275   1.620
 6019SOL     OW18955   5.996   6.278   3.289
 6019SOL    HW118956   6.037   6.370   3.284
 6019SOL    HW218957   5.905   6.285   3.330
 6020SOL     OW18958   2.022   6.524   2.755
 6020SOL    HW118959   1.986   6.618   2.755
 6020SOL    HW218960   1.969   6.469   2.691
 6021SOL     OW18961   4.164   0.527   3.701
 6021SOL    HW118962   4.125   0.503   3.790
 6021SOL    HW218963   4.152   0.450   3.637
 6022SOL     OW18964   4.423   0.993   4.988
 6022SOL    HW118965   4.354   1.036   5.046
 6022SOL    HW218966   4.501   0.965   5.044
 6023SOL     OW18967   0.029   2.174   2.327
 6023SOL    HW118968   0.110   2.210   2.281
 6023SOL    HW218969   7.006   2.103   2.270
 6024SOL     OW18970   6.827   5.831   2.528
 6024SOL    HW118971   6.902   5.764   2.523
 6024SOL    HW218972   6.773   5.813   2.610
 6025SOL     OW18973   4.044   2.227   2.487
 6025SOL    HW118974   3.948   2.218   2.461
 6025SOL    HW218975   4.077   2.140   2.523
 6026SOL     OW18976   0.328   4.462   5.314
 6026SOL    HW118977   0.270   4.417   5.245
 6026SOL    HW218978   0.306   4.426   5.404
 6027SOL     OW18979   3.971   3.870   0.542
 6027SOL    HW118980   4.028   3.832   0.615
 6027SOL    HW218981   3.998   3.830   0.455
 6028SOL     OW18982   0.842   4.333   0.045
 6028SOL    HW118983   0.859   4.272   6.986
 6028SOL    HW218984   0.757   4.308   0.090
 6029SOL     OW18985   0.718   5.074   1.659
 6029SOL    HW118986   0.626   5.078   1.699
 6029SOL    HW218987   0.741   4.979   1.636
 6030SOL     OW18988   1.884   6.624   1.634
 6030SOL    HW118989   1.799   6.576   1.655
 6030SOL    HW218990   1.962   6.566   1.661
 6031SOL     OW18991   5.023   0.906   4.352
 6031SOL    HW118992   4.978   0.936   4.436
 6031SOL    HW218993   5.122   0.908   4.365
 6032SOL     OW18994   0.445   3.123   2.333
 6032SOL    HW118995   0.502   3.062   2.278
 6032SOL    HW218996   0.503   3.173   2.398
 6033SOL     OW18997   0.069   6.841   4.547
 6033SOL    HW118998   0.126   6.817   4.468
 6033SOL    HW218999   6.992   6.837   4.521
 6034SOL     OW19000   2.270   4.362   4.898
 6034SOL    HW119001   2.213   4.326   4.972
 6034SOL    HW219002   2.292   4.289   4.834
 6035SOL     OW19003   5.539   0.298   3.484
 6035SOL    HW119004   5.565   0.229   3.416
 6035SOL    HW219005   5.485   0.370   3.439
 6036SOL     OW19006   6.931   0.604   4.886
 6036SOL    HW119007   6.914   0.577   4.791
 6036SOL    HW219008   6.858   0.666   4.916
 6037SOL     OW19009   0.310   5.542   4.769
 6037SOL    HW119010   0.272   5.611   4.829
 6037SOL    HW219011   0.350   5.586   4.688
 6038SOL     OW19012   6.497   3.773   6.629
 6038SOL    HW119013   6.408   3.731   6.648
 6038SOL    HW219014   6.533   3.814   6.714
 6039SOL     OW19015   4.134   3.550   4.298
 6039SOL    HW119016   4.106   3.573   4.204
 6039SOL    HW219017   4.156   3.453   4.303
 6040SOL     OW19018   1.357   0.857   1.459
 6040SOL    HW119019   1.328   0.839   1.365
 6040SOL    HW219020   1.354   0.772   1.511
 6041SOL     OW19021   0.184   2.439   0.614
 6041SOL    HW119022   0.237   2.481   0.687
 6041SOL    HW219023   0.146   2.510   0.555
 6042SOL     OW19024   5.282   5.410   5.045
 6042SOL    HW119025   5.217   5.427   5.118
 6042SOL    HW219026   5.275   5.482   4.976
 6043SOL     OW19027   0.332   4.268   4.231
 6043SOL    HW119028   0.316   4.198   4.161
 6043SOL    HW219029   0.334   4.358   4.188
 6044SOL     OW19030   1.873   0.237   1.468
 6044SOL    HW119031   1.960   0.190   1.456
 6044SOL    HW219032   1.803   0.195   1.411
 6045SOL     OW19033   6.450   4.052   0.493
 6045SOL    HW119034   6.491   3.961   0.483
 6045SOL    HW219035   6.489   4.114   0.424
 6046SOL     OW19036   1.865   3.499   0.224
 6046SOL    HW119037   1.828   3.435   0.290
 6046SOL    HW219038   1.839   3.471   0.132
 6047SOL     OW19039   0.488   6.271   4.905
 6047SOL    HW119040   0.393   6.303   4.907
 6047SOL    HW219041   0.529   6.281   4.996
 6048SOL     OW19042   4.447   6.176   4.486
 6048SOL    HW119043   4.386   6.120   4.431
 6048SOL    HW219044   4.447   6.270   4.452
 6049SOL     OW19045   6.711   5.501   0.210
 6049SOL    HW119046   6.611   5.510   0.201
 6049SOL    HW219047   6.738   5.521   0.304
 6050SOL     OW19048   5.403   4.791   5.386
 6050SOL    HW119049   5.378   4.833   5.298
 6050SOL    HW219050   5.385   4.692   5.382
 6051SOL     OW19051   3.277   2.098   3.477
 6051SOL    HW119052   3.358   2.141   3.435
 6051SOL    HW219053   3.200   2.103   3.413
 6052SOL     OW19054   6.929   1.329   0.470
 6052SOL    HW119055   6.884   1.399   0.414
 6052SOL    HW219056   6.937   1.245   0.417
 6053SOL     OW19057   1.715   0.244   6.410
 6053SOL    HW119058   1.762   0.284   6.331
 6053SOL    HW219059   1.777   0.181   6.457
 6054SOL     OW19060   1.773   4.239   6.578
 6054SOL    HW119061   1.714   4.264   6.655
 6054SOL    HW219062   1.766   4.141   6.561
 6055SOL     OW19063   5.673   0.218   3.101
 6055SOL    HW119064   5.770   0.196   3.111
 6055SOL    HW219065   5.657   0.312   3.130
 6056SOL     OW19066   5.423   3.194   6.340
 6056SOL    HW119067   5.495   3.203   6.410
 6056SOL    HW219068   5.466   3.183   6.251
 6057SOL     OW19069   3.496   1.005   6.483
 6057SOL    HW119070   3.477   1.015   6.385
 6057SOL    HW219071   3.442   1.071   6.534
 6058SOL     OW19072   5.613   1.675   4.966
 6058SOL    HW119073   5.692   1.630   4.924
 6058SOL    HW219074   5.641   1.716   5.053
 6059SOL     OW19075   6.782   6.090   6.330
 6059SOL    HW119076   6.767   6.007   6.384
 6059SOL    HW219077   6.872   6.127   6.351
 6060SOL     OW19078   3.474   6.285   6.287
 6060SOL    HW119079   3.511   6.256   6.375
 6060SOL    HW219080   3.413   6.364   6.302
 6061SOL     OW19081   1.892   1.764   0.088
 6061SOL    HW119082   1.801   1.741   0.123
 6061SOL    HW219083   1.943   1.815   0.157
 6062SOL     OW19084   1.279   0.051   4.320
 6062SOL    HW119085   1.245   0.076   4.410
 6062SOL    HW219086   1.376   0.027   4.326
 6063SOL     OW19087   5.662   5.709   6.959
 6063SOL    HW119088   5.688   5.801   6.928
 6063SOL    HW219089   5.568   5.711   6.992
 6064SOL     OW19090   0.998   4.992   2.373
 6064SOL    HW119091   0.937   4.936   2.318
 6064SOL    HW219092   1.002   5.085   2.335
 6065SOL     OW19093   5.682   6.833   1.719
 6065SOL    HW119094   5.769   6.818   1.766
 6065SOL    HW219095   5.617   6.763   1.747
 6066SOL     OW19096   4.441   1.923   6.108
 6066SOL    HW119097   4.516   1.883   6.056
 6066SOL    HW219098   4.478   1.981   6.181
 6067SOL     OW19099   5.152   2.536   0.022
 6067SOL    HW119100   5.111   2.513   0.111
 6067SOL    HW219101   5.222   2.468   7.019
 6068SOL     OW19102   5.475   1.661   5.394
 6068SOL    HW119103   5.451   1.605   5.473
 6068SOL    HW219104   5.405   1.652   5.323
 6069SOL     OW19105   6.203   5.227   4.124
 6069SOL    HW119106   6.297   5.238   4.156
 6069SOL    HW219107   6.203   5.192   4.031
 6070SOL     OW19108   5.050   3.133   0.168
 6070SOL    HW119109   5.034   3.144   0.266
 6070SOL    HW219110   5.139   3.091   0.153
 6071SOL     OW19111   5.260   6.756   5.570
 6071SOL    HW119112   5.338   6.749   5.508
 6071SOL    HW219113   5.197   6.826   5.535
 6072SOL     OW19114   6.659   1.322   1.112
 6072SOL    HW119115   6.678   1.390   1.183
 6072SOL    HW219116   6.598   1.362   1.043
 6073SOL     OW19117   6.429   1.172   1.301
 6073SOL    HW119118   6.456   1.083   1.265
 6073SOL    HW219119   6.400   1.162   1.396
 6074SOL     OW19120   0.870   0.420   5.098
 6074SOL    HW119121   0.843   0.467   5.182
 6074SOL    HW219122   0.904   0.487   5.032
 6075SOL     OW19123   4.243   3.970   6.512
 6075SOL    HW119124   4.250   3.881   6.467
 6075SOL    HW219125   4.162   3.971   6.571
 6076SOL     OW19126   2.773   0.282   4.345
 6076SOL    HW119127   2.714   0.206   4.372
 6076SOL    HW219128   2.735   0.367   4.381
 6077SOL     OW19129   5.006   4.954   3.220
 6077SOL    HW119130   5.036   5.008   3.141
 6077SOL    HW219131   5.085   4.935   3.279
 6078SOL     OW19132   1.694   4.407   3.843
 6078SOL    HW119133   1.599   4.407   3.872
 6078SOL    HW219134   1.707   4.338   3.771
 6079SOL     OW19135   2.901   1.442   0.812
 6079SOL    HW119136   2.897   1.478   0.718
 6079SOL    HW219137   2.823   1.478   0.863
 6080SOL     OW19138   5.987   2.726   3.196
 6080SOL    HW119139   6.017   2.671   3.274
 6080SOL    HW219140   6.029   2.817   3.202
 6081SOL     OW19141   0.928   3.845   2.876
 6081SOL    HW119142   0.858   3.846   2.804
 6081SOL    HW219143   0.893   3.891   2.957
 6082SOL     OW19144   3.228   1.749   4.689
 6082SOL    HW119145   3.158   1.780   4.625
 6082SOL    HW219146   3.244   1.820   4.758
 6083SOL     OW19147   1.853   6.588   0.605
 6083SOL    HW119148   1.920   6.586   0.532
 6083SOL    HW219149   1.882   6.652   0.676
 6084SOL     OW19150   0.411   5.239   5.474
 6084SOL    HW119151   0.334   5.298   5.497
 6084SOL    HW219152   0.386   5.144   5.490
 6085SOL     OW19153   4.838   5.010   1.780
 6085SOL    HW119154   4.920   4.988   1.832
 6085SOL    HW219155   4.786   5.080   1.829
 6086SOL     OW19156   3.239   1.589   2.494
 6086SOL    HW119157   3.286   1.596   2.582
 6086SOL    HW219158   3.148   1.551   2.508
 6087SOL     OW19159   3.484   0.401   0.768
 6087SOL    HW119160   3.523   0.330   0.828
 6087SOL    HW219161   3.557   0.462   0.737
 6088SOL     OW19162   6.981   6.954   4.951
 6088SOL    HW119163   6.952   7.018   4.880
 6088SOL    HW219164   0.020   7.001   5.018
 6089SOL     OW19165   6.308   3.815   0.807
 6089SOL    HW119166   6.246   3.738   0.787
 6089SOL    HW219167   6.317   3.872   0.726
 6090SOL     OW19168   0.052   5.732   4.103
 6090SOL    HW119169   0.080   5.669   4.031
 6090SOL    HW219170   0.023   5.680   4.184
 6091SOL     OW19171   6.659   2.295   1.292
 6091SOL    HW119172   6.625   2.262   1.204
 6091SOL    HW219173   6.584   2.297   1.358
 6092SOL     OW19174   0.966   3.451   1.015
 6092SOL    HW119175   0.976   3.383   1.088
 6092SOL    HW219176   0.946   3.404   0.929
 6093SOL     OW19177   1.252   4.179   0.683
 6093SOL    HW119178   1.262   4.276   0.704
 6093SOL    HW219179   1.340   4.133   0.695
 6094SOL     OW19180   0.815   1.254   0.475
 6094SOL    HW119181   0.837   1.313   0.553
 6094SOL    HW219182   0.861   1.289   0.393
 6095SOL     OW19183   6.230   4.208   5.204
 6095SOL    HW119184   6.192   4.146   5.135
 6095SOL    HW219185   6.222   4.303   5.172
 6096SOL     OW19186   4.889   2.318   2.867
 6096SOL    HW119187   4.864   2.222   2.877
 6096SOL    HW219188   4.810   2.370   2.834
 6097SOL     OW19189   3.189   2.137   2.448
 6097SOL    HW119190   3.098   2.175   2.436
 6097SOL    HW219191   3.235   2.130   2.360
 6098SOL     OW19192   1.090   0.248   6.643
 6098SOL    HW119193   1.018   0.302   6.599
 6098SOL    HW219194   1.076   0.249   6.743
 6099SOL     OW19195   5.704   4.489   5.123
 6099SOL    HW119196   5.740   4.402   5.158
 6099SOL    HW219197   5.772   4.532   5.063
 6100SOL     OW19198   0.113   2.750   6.962
 6100SOL    HW119199   0.111   2.654   6.986
 6100SOL    HW219200   0.028   2.775   6.916
 6101SOL     OW19201   6.349   6.938   3.301
 6101SOL    HW119202   6.346   6.839   3.292
 6101SOL    HW219203   6.415   6.963   3.372
 6102SOL     OW19204   2.586   6.834   4.906
 6102SOL    HW119205   2.619   6.777   4.981
 6102SOL    HW219206   2.514   6.785   4.857
 6103SOL     OW19207   5.736   1.627   5.303
 6103SOL    HW119208   5.645   1.636   5.343
 6103SOL    HW219209   5.755   1.708   5.247
 6104SOL     OW19210   1.414   3.078   1.083
 6104SOL    HW119211   1.480   3.047   1.152
 6104SOL    HW219212   1.461   3.130   1.012
 6105SOL     OW19213   3.187   5.035   4.820
 6105SOL    HW119214   3.241   5.000   4.743
 6105SOL    HW219215   3.131   4.962   4.858
 6106SOL     OW19216   2.389   5.061   4.382
 6106SOL    HW119217   2.438   5.121   4.318
 6106SOL    HW219218   2.295   5.094   4.393
 6107SOL     OW19219   2.072   4.932   5.258
 6107SOL    HW119220   2.079   4.893   5.166
 6107SOL    HW219221   2.132   4.882   5.321
 6108SOL     OW19222   5.273   1.850   4.693
 6108SOL    HW119223   5.364   1.886   4.710
 6108SOL    HW219224   5.280   1.761   4.649
 6109SOL     OW19225   6.926   3.588   1.973
 6109SOL    HW119226   6.901   3.546   2.059
 6109SOL    HW219227   6.846   3.592   1.913
 6110SOL     OW19228   3.185   2.163   3.143
 6110SOL    HW119229   3.145   2.215   3.067
 6110SOL    HW219230   3.281   2.143   3.123
 6111SOL     OW19231   0.579   4.427   3.585
 6111SOL    HW119232   0.570   4.340   3.634
 6111SOL    HW219233   0.675   4.443   3.563
 6112SOL     OW19234   1.445   2.375   0.873
 6112SOL    HW119235   1.397   2.463   0.874
 6112SOL    HW219236   1.468   2.348   0.966
 6113SOL     OW19237   1.790   5.219   5.052
 6113SOL    HW119238   1.703   5.262   5.074
 6113SOL    HW219239   1.808   5.228   4.954
 6114SOL     OW19240   4.648   4.483   0.921
 6114SOL    HW119241   4.561   4.438   0.898
 6114SOL    HW219242   4.690   4.434   0.998
 6115SOL     OW19243   6.374   4.516   1.695
 6115SOL    HW119244   6.441   4.442   1.694
 6115SOL    HW219245   6.354   4.545   1.601
 6116SOL     OW19246   3.302   2.458   1.085
 6116SOL    HW119247   3.374   2.392   1.107
 6116SOL    HW219248   3.216   2.430   1.128
 6117SOL     OW19249   5.392   6.809   4.050
 6117SOL    HW119250   5.479   6.829   4.094
 6117SOL    HW219251   5.318   6.855   4.099
 6118SOL     OW19252   6.829   7.011   3.194
 6118SOL    HW119253   6.856   6.933   3.251
 6118SOL    HW219254   6.730   0.003   3.198
 6119SOL     OW19255   5.325   6.002   4.167
 6119SOL    HW119256   5.249   5.996   4.232
 6119SOL    HW219257   5.407   6.032   4.215
 6120SOL     OW19258   2.169   1.679   3.030
 6120SOL    HW119259   2.095   1.641   3.086
 6120SOL    HW219260   2.213   1.754   3.080
 6121SOL     OW19261   0.002   1.513   4.885
 6121SOL    HW119262   7.001   1.440   4.819
 6121SOL    HW219263   6.937   1.536   4.935
 6122SOL     OW19264   3.563   6.060   4.411
 6122SOL    HW119265   3.552   6.143   4.466
 6122SOL    HW219266   3.644   6.068   4.353
 6123SOL     OW19267   5.574   1.184   2.671
 6123SOL    HW119268   5.618   1.245   2.738
 6123SOL    HW219269   5.509   1.125   2.718
 6124SOL     OW19270   2.996   0.397   4.725
 6124SOL    HW119271   3.007   0.298   4.736
 6124SOL    HW219272   2.963   0.417   4.633
 6125SOL     OW19273   1.188   4.402   2.139
 6125SOL    HW119274   1.238   4.483   2.108
 6125SOL    HW219275   1.200   4.328   2.072
 6126SOL     OW19276   3.706   6.358   2.818
 6126SOL    HW119277   3.614   6.389   2.795
 6126SOL    HW219278   3.771   6.433   2.807
 6127SOL     OW19279   1.870   5.166   1.826
 6127SOL    HW119280   1.905   5.249   1.783
 6127SOL    HW219281   1.822   5.111   1.758
 6128SOL     OW19282   5.084   3.624   1.404
 6128SOL    HW119283   5.062   3.694   1.472
 6128SOL    HW219284   5.011   3.619   1.336
 6129SOL     OW19285   6.295   3.801   3.236
 6129SOL    HW119286   6.368   3.814   3.170
 6129SOL    HW219287   6.222   3.747   3.195
 6130SOL     OW19288   5.343   3.766   2.753
 6130SOL    HW119289   5.319   3.789   2.847
 6130SOL    HW219290   5.410   3.831   2.718
 6131SOL     OW19291   6.497   1.158   5.185
 6131SOL    HW119292   6.503   1.255   5.210
 6131SOL    HW219293   6.402   1.127   5.192
 6132SOL     OW19294   6.801   2.386   0.622
 6132SOL    HW119295   6.891   2.351   0.649
 6132SOL    HW219296   6.731   2.322   0.652
 6133SOL     OW19297   1.297   4.490   0.303
 6133SOL    HW119298   1.203   4.512   0.279
 6133SOL    HW219299   1.351   4.574   0.304
 6134SOL     OW19300   4.473   4.243   6.788
 6134SOL    HW119301   4.558   4.294   6.797
 6134SOL    HW219302   4.493   4.145   6.781
 6135SOL     OW19303   6.097   6.978   2.866
 6135SOL    HW119304   6.079   0.015   2.785
 6135SOL    HW219305   6.011   6.943   2.903
 6136SOL     OW19306   1.371   1.539   2.116
 6136SOL    HW119307   1.303   1.466   2.123
 6136SOL    HW219308   1.404   1.562   2.208
 6137SOL     OW19309   3.361   0.337   6.626
 6137SOL    HW119310   3.262   0.322   6.625
 6137SOL    HW219311   3.405   0.263   6.677
 6138SOL     OW19312   5.482   0.526   2.895
 6138SOL    HW119313   5.383   0.539   2.896
 6138SOL    HW219314   5.504   0.440   2.848
 6139SOL     OW19315   2.942   6.258   3.639
 6139SOL    HW119316   2.902   6.222   3.723
 6139SOL    HW219317   3.030   6.301   3.659
 6140SOL     OW19318   1.954   5.449   1.403
 6140SOL    HW119319   1.886   5.388   1.444
 6140SOL    HW219320   2.006   5.398   1.334
 6141SOL     OW19321   0.288   5.979   5.210
 6141SOL    HW119322   0.192   5.962   5.186
 6141SOL    HW219323   0.346   5.916   5.157
 6142SOL     OW19324   0.421   4.099   3.423
 6142SOL    HW119325   0.324   4.096   3.399
 6142SOL    HW219326   0.444   4.019   3.479
 6143SOL     OW19327   6.462   4.519   5.923
 6143SOL    HW119328   6.384   4.531   5.983
 6143SOL    HW219329   6.543   4.562   5.964
 6144SOL     OW19330   0.254   5.087   4.050
 6144SOL    HW119331   0.241   5.047   4.141
 6144SOL    HW219332   0.345   5.065   4.017
 6145SOL     OW19333   5.623   5.464   3.140
 6145SOL    HW119334   5.643   5.487   3.236
 6145SOL    HW219335   5.670   5.380   3.115
 6146SOL     OW19336   5.777   2.412   3.664
 6146SOL    HW119337   5.806   2.507   3.646
 6146SOL    HW219338   5.703   2.388   3.601
 6147SOL     OW19339   1.033   3.994   3.270
 6147SOL    HW119340   1.123   3.972   3.233
 6147SOL    HW219341   0.962   3.945   3.218
 6148SOL     OW19342   6.341   6.184   2.804
 6148SOL    HW119343   6.358   6.282   2.790
 6148SOL    HW219344   6.385   6.156   2.890
 6149SOL     OW19345   1.445   5.657   4.923
 6149SOL    HW119346   1.481   5.603   4.999
 6149SOL    HW219347   1.463   5.610   4.837
 6150SOL     OW19348   4.237   6.733   5.843
 6150SOL    HW119349   4.292   6.717   5.761
 6150SOL    HW219350   4.243   6.830   5.867
 6151SOL     OW19351   4.652   0.105   5.825
 6151SOL    HW119352   4.644   0.041   5.748
 6151SOL    HW219353   4.698   0.188   5.794
 6152SOL     OW19354   6.524   4.357   5.275
 6152SOL    HW119355   6.506   4.429   5.342
 6152SOL    HW219356   6.493   4.387   5.185
 6153SOL     OW19357   4.109   4.994   6.126
 6153SOL    HW119358   4.171   5.071   6.141
 6153SOL    HW219359   4.139   4.942   6.046
 6154SOL     OW19360   5.385   3.292   3.400
 6154SOL    HW119361   5.363   3.382   3.436
 6154SOL    HW219362   5.301   3.242   3.379
 6155SOL     OW19363   2.559   4.736   4.710
 6155SOL    HW119364   2.649   4.697   4.724
 6155SOL    HW219365   2.489   4.670   4.737
 6156SOL     OW19366   5.692   0.670   4.586
 6156SOL    HW119367   5.723   0.709   4.500
 6156SOL    HW219368   5.626   0.597   4.569
 6157SOL     OW19369   0.998   1.464   4.024
 6157SOL    HW119370   0.957   1.407   4.095
 6157SOL    HW219371   0.934   1.471   3.947
 6158SOL     OW19372   5.331   6.738   6.985
 6158SOL    HW119373   5.280   6.667   0.015
 6158SOL    HW219374   5.337   6.820   0.024
 6159SOL     OW19375   4.878   3.480   6.745
 6159SOL    HW119376   4.966   3.528   6.752
 6159SOL    HW219377   4.877   3.404   6.810
 6160SOL     OW19378   6.394   4.430   0.119
 6160SOL    HW119379   6.404   4.368   0.197
 6160SOL    HW219380   6.482   4.439   0.072
 6161SOL     OW19381   6.009   6.981   6.332
 6161SOL    HW119382   6.004   6.917   6.409
 6161SOL    HW219383   6.094   6.966   6.281
 6162SOL     OW19384   5.069   4.990   3.909
 6162SOL    HW119385   5.136   5.052   3.950
 6162SOL    HW219386   5.045   5.022   3.817
 6163SOL     OW19387   0.102   4.031   2.672
 6163SOL    HW119388   0.109   4.011   2.770
 6163SOL    HW219389   0.115   3.947   2.619
 6164SOL     OW19390   4.343   3.064   1.065
 6164SOL    HW119391   4.284   3.043   0.986
 6164SOL    HW219392   4.437   3.039   1.044
 6165SOL     OW19393   4.082   0.330   1.342
 6165SOL    HW119394   4.021   0.409   1.335
 6165SOL    HW219395   4.177   0.361   1.338
 6166SOL     OW19396   3.746   1.158   0.848
 6166SOL    HW119397   3.647   1.177   0.850
 6166SOL    HW219398   3.787   1.187   0.935
 6167SOL     OW19399   0.206   5.429   3.590
 6167SOL    HW119400   0.242   5.378   3.669
 6167SOL    HW219401   0.140   5.372   3.542
 6168SOL     OW19402   0.161   3.285   0.961
 6168SOL    HW119403   0.141   3.263   0.866
 6168SOL    HW219404   0.204   3.375   0.966
 6169SOL     OW19405   2.037   4.085   1.298
 6169SOL    HW119406   2.114   4.058   1.240
 6169SOL    HW219407   2.042   4.183   1.316
 6170SOL     OW19408   6.442   1.797   3.234
 6170SOL    HW119409   6.349   1.812   3.200
 6170SOL    HW219410   6.447   1.819   3.331
 6171SOL     OW19411   6.273   1.498   6.069
 6171SOL    HW119412   6.306   1.555   6.144
 6171SOL    HW219413   6.261   1.404   6.102
 6172SOL     OW19414   0.544   4.854   3.803
 6172SOL    HW119415   0.516   4.801   3.724
 6172SOL    HW219416   0.583   4.794   3.873
 6173SOL     OW19417   5.460   6.037   2.971
 6173SOL    HW119418   5.495   6.109   2.912
 6173SOL    HW219419   5.462   6.067   3.066
 6174SOL     OW19420   6.734   2.255   3.393
 6174SOL    HW119421   6.711   2.177   3.334
 6174SOL    HW219422   6.682   2.249   3.478
 6175SOL     OW19423   3.847   1.363   0.065
 6175SOL    HW119424   3.824   1.441   0.124
 6175SOL    HW219425   3.869   1.395   6.992
 6176SOL     OW19426   2.545   4.604   6.141
 6176SOL    HW119427   2.639   4.588   6.108
 6176SOL    HW219428   2.481   4.555   6.082
 6177SOL     OW19429   5.863   5.473   1.706
 6177SOL    HW119430   5.802   5.532   1.652
 6177SOL    HW219431   5.814   5.440   1.787
 6178SOL     OW19432   4.063   4.807   1.966
 6178SOL    HW119433   4.004   4.823   2.046
 6178SOL    HW219434   4.009   4.766   1.892
 6179SOL     OW19435   5.267   5.232   4.726
 6179SOL    HW119436   5.184   5.264   4.770
 6179SOL    HW219437   5.265   5.256   4.629
 6180SOL     OW19438   1.849   3.926   6.793
 6180SOL    HW119439   1.791   3.910   6.873
 6180SOL    HW219440   1.791   3.949   6.714
 6181SOL     OW19441   6.593   6.024   6.812
 6181SOL    HW119442   6.611   5.928   6.790
 6181SOL    HW219443   6.547   6.030   6.900
 6182SOL     OW19444   3.018   2.290   6.695
 6182SOL    HW119445   2.948   2.302   6.624
 6182SOL    HW219446   3.108   2.286   6.652
 6183SOL     OW19447   0.212   0.661   0.529
 6183SOL    HW119448   0.175   0.615   0.610
 6183SOL    HW219449   0.244   0.752   0.554
 6184SOL     OW19450   3.461   6.713   5.730
 6184SOL    HW119451   3.421   6.736   5.642
 6184SOL    HW219452   3.389   6.697   5.797
 6185SOL     OW19453   3.589   2.873   4.804
 6185SOL    HW119454   3.528   2.934   4.754
 6185SOL    HW219455   3.641   2.818   4.739
 6186SOL     OW19456   1.301   2.088   2.386
 6186SOL    HW119457   1.265   2.002   2.424
 6186SOL    HW219458   1.394   2.102   2.420
 6187SOL     OW19459   3.293   1.897   5.880
 6187SOL    HW119460   3.245   1.817   5.917
 6187SOL    HW219461   3.368   1.922   5.942
 6188SOL     OW19462   1.689   1.819   5.390
 6188SOL    HW119463   1.613   1.755   5.383
 6188SOL    HW219464   1.699   1.849   5.486
 6189SOL     OW19465   6.451   5.325   0.427
 6189SOL    HW119466   6.504   5.250   0.388
 6189SOL    HW219467   6.467   5.408   0.374
 6190SOL     OW19468   0.982   2.904   3.647
 6190SOL    HW119469   0.906   2.930   3.707
 6190SOL    HW219470   1.068   2.940   3.684
 6191SOL     OW19471   2.599   4.426   0.498
 6191SOL    HW119472   2.604   4.418   0.398
 6191SOL    HW219473   2.562   4.516   0.522
 6192SOL     OW19474   3.145   1.694   1.343
 6192SOL    HW119475   3.203   1.623   1.383
 6192SOL    HW219476   3.074   1.651   1.287
 6193SOL     OW19477   3.926   5.847   6.731
 6193SOL    HW119478   4.007   5.836   6.673
 6193SOL    HW219479   3.946   5.814   6.823
 6194SOL     OW19480   5.158   0.244   6.161
 6194SOL    HW119481   5.242   0.236   6.109
 6194SOL    HW219482   5.081   0.258   6.099
 6195SOL     OW19483   4.585   5.731   5.425
 6195SOL    HW119484   4.524   5.656   5.452
 6195SOL    HW219485   4.614   5.781   5.507
 6196SOL     OW19486   6.180   3.504   3.309
 6196SOL    HW119487   6.132   3.494   3.222
 6196SOL    HW219488   6.269   3.459   3.304
 6197SOL     OW19489   0.981   5.477   0.734
 6197SOL    HW119490   1.064   5.510   0.689
 6197SOL    HW219491   0.929   5.554   0.770
 6198SOL     OW19492   6.216   1.381   6.433
 6198SOL    HW119493   6.239   1.478   6.440
 6198SOL    HW219494   6.119   1.368   6.454
 6199SOL     OW19495   2.566   0.214   6.325
 6199SOL    HW119496   2.630   0.240   6.252
 6199SOL    HW219497   2.615   0.207   6.411
 6200SOL     OW19498   1.734   0.340   0.692
 6200SOL    HW119499   1.777   0.430   0.681
 6200SOL    HW219500   1.663   0.328   0.623
 6201SOL     OW19501   0.413   4.969   3.381
 6201SOL    HW119502   0.512   4.974   3.371
 6201SOL    HW219503   0.384   4.874   3.385
 6202SOL     OW19504   5.488   0.830   2.033
 6202SOL    HW119505   5.479   0.875   1.944
 6202SOL    HW219506   5.573   0.860   2.076
 6203SOL     OW19507   6.497   1.245   2.326
 6203SOL    HW119508   6.486   1.196   2.239
 6203SOL    HW219509   6.514   1.179   2.399
 6204SOL     OW19510   1.159   5.509   4.908
 6204SOL    HW119511   1.171   5.557   4.821
 6204SOL    HW219512   1.197   5.417   4.900
 6205SOL     OW19513   6.317   4.349   3.257
 6205SOL    HW119514   6.333   4.299   3.172
 6205SOL    HW219515   6.404   4.373   3.298
 6206SOL     OW19516   4.843   1.884   3.143
 6206SOL    HW119517   4.850   1.969   3.197
 6206SOL    HW219518   4.856   1.806   3.203
 6207SOL     OW19519   1.633   5.843   3.525
 6207SOL    HW119520   1.588   5.820   3.611
 6207SOL    HW219521   1.731   5.853   3.540
 6208SOL     OW19522   3.725   4.459   6.529
 6208SOL    HW119523   3.649   4.470   6.593
 6208SOL    HW219524   3.740   4.362   6.511
 6209SOL     OW19525   3.551   1.386   2.206
 6209SOL    HW119526   3.523   1.328   2.129
 6209SOL    HW219527   3.516   1.479   2.191
 6210SOL     OW19528   5.701   1.414   4.169
 6210SOL    HW119529   5.701   1.505   4.210
 6210SOL    HW219530   5.765   1.412   4.092
 6211SOL     OW19531   5.326   2.931   5.277
 6211SOL    HW119532   5.313   2.911   5.180
 6211SOL    HW219533   5.390   2.864   5.316
 6212SOL     OW19534   5.027   4.189   4.997
 6212SOL    HW119535   4.938   4.159   4.962
 6212SOL    HW219536   5.098   4.126   4.967
 6213SOL     OW19537   5.462   5.967   0.251
 6213SOL    HW119538   5.487   6.064   0.241
 6213SOL    HW219539   5.370   5.961   0.288
 6214SOL     OW19540   6.508   6.997   6.295
 6214SOL    HW119541   6.508   6.923   6.228
 6214SOL    HW219542   6.420   6.999   6.343
 6215SOL     OW19543   5.976   1.960   4.897
 6215SOL    HW119544   5.891   2.008   4.874
 6215SOL    HW219545   5.995   1.890   4.828
 6216SOL     OW19546   5.345   2.211   5.406
 6216SOL    HW119547   5.291   2.270   5.466
 6216SOL    HW219548   5.435   2.196   5.447
 6217SOL     OW19549   6.866   4.145   2.616
 6217SOL    HW119550   6.925   4.096   2.680
 6217SOL    HW219551   6.890   4.120   2.522
 6218SOL     OW19552   4.495   6.454   0.926
 6218SOL    HW119553   4.402   6.486   0.909
 6218SOL    HW219554   4.560   6.518   0.887
 6219SOL     OW19555   2.137   0.611   6.954
 6219SOL    HW119556   2.216   0.605   7.015
 6219SOL    HW219557   2.132   0.528   6.898
 6220SOL     OW19558   3.260   0.127   2.080
 6220SOL    HW119559   3.316   0.103   2.000
 6220SOL    HW219560   3.287   0.069   2.157
 6221SOL     OW19561   4.515   5.843   5.158
 6221SOL    HW119562   4.545   5.834   5.252
 6221SOL    HW219563   4.422   5.880   5.155
 6222SOL     OW19564   6.098   1.730   2.365
 6222SOL    HW119565   6.078   1.707   2.460
 6222SOL    HW219566   6.108   1.646   2.312
 6223SOL     OW19567   6.753   5.327   4.313
 6223SOL    HW119568   6.694   5.405   4.294
 6223SOL    HW219569   6.782   5.329   4.409
 6224SOL     OW19570   4.185   6.538   0.254
 6224SOL    HW119571   4.163   6.565   0.348
 6224SOL    HW219572   4.159   6.443   0.240
 6225SOL     OW19573   5.095   6.346   6.444
 6225SOL    HW119574   5.190   6.370   6.421
 6225SOL    HW219575   5.047   6.317   6.361
 6226SOL     OW19576   0.758   0.898   4.045
 6226SOL    HW119577   0.740   0.994   4.027
 6226SOL    HW219578   0.831   0.890   4.114
 6227SOL     OW19579   2.251   4.650   6.234
 6227SOL    HW119580   2.333   4.700   6.261
 6227SOL    HW219581   2.189   4.711   6.185
 6228SOL     OW19582   0.747   3.196   3.967
 6228SOL    HW119583   0.790   3.180   4.056
 6228SOL    HW219584   0.710   3.110   3.933
 6229SOL     OW19585   0.146   4.044   4.571
 6229SOL    HW119586   0.101   4.055   4.659
 6229SOL    HW219587   0.080   4.009   4.504
 6230SOL     OW19588   0.795   0.969   1.506
 6230SOL    HW119589   0.700   0.944   1.526
 6230SOL    HW219590   0.851   0.956   1.588
 6231SOL     OW19591   2.105   5.879   5.977
 6231SOL    HW119592   2.029   5.834   5.930
 6231SOL    HW219593   2.182   5.816   5.986
 6232SOL     OW19594   4.404   0.178   6.839
 6232SOL    HW119595   4.309   0.188   6.809
 6232SOL    HW219596   4.433   0.084   6.826
 6233SOL     OW19597   6.978   4.060   1.573
 6233SOL    HW119598   0.050   4.048   1.614
 6233SOL    HW219599   6.919   3.984   1.601
 6234SOL     OW19600   4.709   5.982   3.673
 6234SOL    HW119601   4.699   5.960   3.770
 6234SOL    HW219602   4.762   5.910   3.628
 6235SOL     OW19603   0.089   0.330   1.877
 6235SOL    HW119604   0.064   0.309   1.782
 6235SOL    HW219605   0.160   0.400   1.878
 6236SOL     OW19606   6.685   6.294   1.562
 6236SOL    HW119607   6.599   6.266   1.605
 6236SOL    HW219608   6.679   6.285   1.463
 6237SOL     OW19609   4.204   1.295   2.482
 6237SOL    HW119610   4.148   1.222   2.520
 6237SOL    HW219611   4.150   1.349   2.417
 6238SOL     OW19612   2.624   0.382   3.780
 6238SOL    HW119613   2.589   0.457   3.723
 6238SOL    HW219614   2.552   0.313   3.792
 6239SOL     OW19615   3.767   1.457   3.970
 6239SOL    HW119616   3.808   1.365   3.971
 6239SOL    HW219617   3.766   1.493   4.063
 6240SOL     OW19618   3.936   3.319   4.209
 6240SOL    HW119619   4.001   3.337   4.136
 6240SOL    HW219620   3.845   3.350   4.181
 6241SOL     OW19621   3.438   0.311   3.686
 6241SOL    HW119622   3.473   0.220   3.663
 6241SOL    HW219623   3.351   0.326   3.640
 6242SOL     OW19624   3.461   2.129   4.349
 6242SOL    HW119625   3.370   2.089   4.355
 6242SOL    HW219626   3.515   2.102   4.429
 6243SOL     OW19627   3.846   0.865   0.197
 6243SOL    HW119628   3.778   0.910   0.255
 6243SOL    HW219629   3.874   0.927   0.124
 6244SOL     OW19630   4.497   2.280   1.965
 6244SOL    HW119631   4.588   2.289   1.925
 6244SOL    HW219632   4.460   2.372   1.983
 6245SOL     OW19633   6.800   4.773   1.556
 6245SOL    HW119634   6.702   4.793   1.559
 6245SOL    HW219635   6.814   4.674   1.552
 6246SOL     OW19636   0.744   5.920   5.261
 6246SOL    HW119637   0.720   5.882   5.351
 6246SOL    HW219638   0.833   5.886   5.233
 6247SOL     OW19639   5.652   5.240   2.868
 6247SOL    HW119640   5.721   5.250   2.940
 6247SOL    HW219641   5.619   5.330   2.841
 6248SOL     OW19642   4.358   2.742   5.622
 6248SOL    HW119643   4.316   2.784   5.541
 6248SOL    HW219644   4.432   2.800   5.655
 6249SOL     OW19645   5.376   2.616   3.154
 6249SOL    HW119646   5.332   2.541   3.104
 6249SOL    HW219647   5.426   2.675   3.091
 6250SOL     OW19648   5.240   0.311   5.821
 6250SOL    HW119649   5.223   0.213   5.810
 6250SOL    HW219650   5.318   0.338   5.765
 6251SOL     OW19651   2.765   0.819   4.390
 6251SOL    HW119652   2.797   0.874   4.313
 6251SOL    HW219653   2.790   0.723   4.376
 6252SOL     OW19654   3.284   5.131   0.421
 6252SOL    HW119655   3.358   5.163   0.480
 6252SOL    HW219656   3.300   5.163   0.328
 6253SOL     OW19657   5.213   6.431   3.324
 6253SOL    HW119658   5.178   6.481   3.245
 6253SOL    HW219659   5.252   6.495   3.390
 6254SOL     OW19660   0.336   0.251   1.620
 6254SOL    HW119661   0.273   0.329   1.625
 6254SOL    HW219662   0.407   0.262   1.689
 6255SOL     OW19663   1.805   0.845   0.955
 6255SOL    HW119664   1.899   0.830   0.923
 6255SOL    HW219665   1.805   0.849   1.055
 6256SOL     OW19666   6.312   5.019   2.063
 6256SOL    HW119667   6.232   5.077   2.048
 6256SOL    HW219668   6.370   5.021   1.982
 6257SOL     OW19669   3.515   3.604   0.768
 6257SOL    HW119670   3.450   3.614   0.844
 6257SOL    HW219671   3.466   3.581   0.685
 6258SOL     OW19672   3.918   4.999   5.069
 6258SOL    HW119673   3.897   4.942   4.990
 6258SOL    HW219674   3.888   4.952   5.153
 6259SOL     OW19675   4.340   1.633   4.681
 6259SOL    HW119676   4.407   1.622   4.755
 6259SOL    HW219677   4.307   1.728   4.680
 6260SOL     OW19678   3.472   1.992   0.327
 6260SOL    HW119679   3.379   2.027   0.338
 6260SOL    HW219680   3.474   1.922   0.255
 6261SOL     OW19681   3.974   0.019   0.791
 6261SOL    HW119682   3.968   0.004   0.889
 6261SOL    HW219683   3.953   6.953   0.743
 6262SOL     OW19684   6.059   1.293   2.927
 6262SOL    HW119685   6.157   1.286   2.943
 6262SOL    HW219686   6.022   1.203   2.903
 6263SOL     OW19687   6.406   6.296   6.424
 6263SOL    HW119688   6.473   6.291   6.498
 6263SOL    HW219689   6.340   6.222   6.435
 6264SOL     OW19690   0.856   6.386   1.092
 6264SOL    HW119691   0.857   6.459   1.160
 6264SOL    HW219692   0.887   6.301   1.134
 6265SOL     OW19693   3.903   6.766   6.677
 6265SOL    HW119694   3.819   6.789   6.628
 6265SOL    HW219695   3.963   6.713   6.618
 6266SOL     OW19696   3.235   5.194   2.906
 6266SOL    HW119697   3.331   5.170   2.891
 6266SOL    HW219698   3.211   5.180   3.002
 6267SOL     OW19699   0.378   6.257   4.302
 6267SOL    HW119700   0.282   6.233   4.290
 6267SOL    HW219701   0.418   6.203   4.376
 6268SOL     OW19702   3.550   1.628   1.300
 6268SOL    HW119703   3.525   1.725   1.305
 6268SOL    HW219704   3.620   1.615   1.230
 6269SOL     OW19705   6.546   6.140   0.394
 6269SOL    HW119706   6.528   6.232   0.358
 6269SOL    HW219707   6.618   6.096   0.341
 6270SOL     OW19708   1.312   6.468   0.944
 6270SOL    HW119709   1.373   6.427   0.876
 6270SOL    HW219710   1.238   6.517   0.898
 6271SOL     OW19711   6.617   2.979   5.455
 6271SOL    HW119712   6.655   3.071   5.464
 6271SOL    HW219713   6.544   2.980   5.387
 6272SOL     OW19714   0.801   1.036   0.289
 6272SOL    HW119715   0.871   1.079   0.231
 6272SOL    HW219716   0.814   1.065   0.383
 6273SOL     OW19717   0.747   6.377   3.148
 6273SOL    HW119718   0.698   6.355   3.064
 6273SOL    HW219719   0.764   6.294   3.201
 6274SOL     OW19720   2.816   5.794   4.005
 6274SOL    HW119721   2.909   5.775   3.971
 6274SOL    HW219722   2.822   5.842   4.092
 6275SOL     OW19723   2.666   5.803   0.843
 6275SOL    HW119724   2.622   5.820   0.755
 6275SOL    HW219725   2.627   5.720   0.884
 6276SOL     OW19726   1.987   5.021   2.777
 6276SOL    HW119727   1.945   5.111   2.761
 6276SOL    HW219728   1.999   5.008   2.875
 6277SOL     OW19729   5.202   3.002   1.306
 6277SOL    HW119730   5.192   3.048   1.395
 6277SOL    HW219731   5.134   3.039   1.243
 6278SOL     OW19732   3.227   2.735   0.469
 6278SOL    HW119733   3.167   2.809   0.499
 6278SOL    HW219734   3.218   2.723   0.370
 6279SOL     OW19735   1.676   6.473   2.389
 6279SOL    HW119736   1.640   6.534   2.317
 6279SOL    HW219737   1.727   6.398   2.346
 6280SOL     OW19738   5.006   1.284   0.043
 6280SOL    HW119739   4.976   1.249   6.973
 6280SOL    HW219740   5.105   1.278   0.050
 6281SOL     OW19741   5.294   4.126   5.881
 6281SOL    HW119742   5.240   4.184   5.941
 6281SOL    HW219743   5.340   4.183   5.812
 6282SOL     OW19744   0.587   3.668   5.482
 6282SOL    HW119745   0.537   3.601   5.427
 6282SOL    HW219746   0.661   3.622   5.531
 6283SOL     OW19747   2.372   0.686   4.397
 6283SOL    HW119748   2.417   0.661   4.312
 6283SOL    HW219749   2.337   0.603   4.442
 6284SOL     OW19750   1.680   3.759   6.372
 6284SOL    HW119751   1.702   3.666   6.402
 6284SOL    HW219752   1.591   3.759   6.325
 6285SOL     OW19753   1.183   4.220   3.368
 6285SOL    HW119754   1.117   4.163   3.320
 6285SOL    HW219755   1.228   4.166   3.439
 6286SOL     OW19756   0.753   2.556   6.940
 6286SOL    HW119757   0.701   2.521   7.018
 6286SOL    HW219758   0.806   2.483   6.899
 6287SOL     OW19759   4.442   5.204   4.525
 6287SOL    HW119760   4.404   5.192   4.433
 6287SOL    HW219761   4.379   5.165   4.592
 6288SOL     OW19762   3.070   3.567   5.618
 6288SOL    HW119763   3.168   3.587   5.614
 6288SOL    HW219764   3.027   3.589   5.531
 6289SOL     OW19765   2.599   4.646   5.136
 6289SOL    HW119766   2.637   4.698   5.212
 6289SOL    HW219767   2.666   4.641   5.062
 6290SOL     OW19768   6.846   6.784   3.371
 6290SOL    HW119769   6.786   6.734   3.308
 6290SOL    HW219770   6.823   6.759   3.465
 6291SOL     OW19771   3.253   3.614   1.969
 6291SOL    HW119772   3.180   3.624   2.037
 6291SOL    HW219773   3.307   3.698   1.965
 6292SOL     OW19774   1.246   4.323   4.576
 6292SOL    HW119775   1.329   4.342   4.524
 6292SOL    HW219776   1.167   4.330   4.516
 6293SOL     OW19777   3.009   1.130   0.094
 6293SOL    HW119778   2.910   1.127   0.090
 6293SOL    HW219779   3.038   1.149   0.187
 6294SOL     OW19780   1.916   0.470   2.296
 6294SOL    HW119781   1.913   0.373   2.273
 6294SOL    HW219782   1.841   0.518   2.250
 6295SOL     OW19783   4.608   3.018   6.028
 6295SOL    HW119784   4.569   3.074   5.955
 6295SOL    HW219785   4.705   3.002   6.011
 6296SOL     OW19786   0.187   2.285   0.259
 6296SOL    HW119787   0.137   2.292   0.173
 6296SOL    HW219788   0.285   2.277   0.240
 6297SOL     OW19789   6.371   0.839   4.127
 6297SOL    HW119790   6.303   0.860   4.197
 6297SOL    HW219791   6.430   0.918   4.111
 6298SOL     OW19792   6.806   0.161   6.638
 6298SOL    HW119793   6.895   0.175   6.595
 6298SOL    HW219794   6.758   0.085   6.594
 6299SOL     OW19795   3.384   1.667   3.941
 6299SOL    HW119796   3.441   1.585   3.948
 6299SOL    HW219797   3.406   1.715   3.856
 6300SOL     OW19798   2.556   1.835   1.171
 6300SOL    HW119799   2.541   1.873   1.263
 6300SOL    HW219800   2.467   1.812   1.130
 6301SOL     OW19801   4.252   6.449   0.620
 6301SOL    HW119802   4.205   6.379   0.566
 6301SOL    HW219803   4.347   6.421   0.636
 6302SOL     OW19804   1.228   3.358   0.219
 6302SOL    HW119805   1.198   3.361   0.314
 6302SOL    HW219806   1.171   3.293   0.168
 6303SOL     OW19807   6.813   5.313   4.589
 6303SOL    HW119808   6.866   5.394   4.614
 6303SOL    HW219809   6.743   5.295   4.658
 6304SOL     OW19810   2.587   1.902   3.589
 6304SOL    HW119811   2.541   1.990   3.606
 6304SOL    HW219812   2.553   1.863   3.503
 6305SOL     OW19813   0.416   5.592   5.452
 6305SOL    HW119814   0.372   5.542   5.526
 6305SOL    HW219815   0.363   5.675   5.432
 6306SOL     OW19816   0.574   4.425   4.077
 6306SOL    HW119817   0.597   4.389   3.987
 6306SOL    HW219818   0.580   4.351   4.145
 6307SOL     OW19819   2.975   3.183   3.356
 6307SOL    HW119820   3.008   3.090   3.374
 6307SOL    HW219821   2.889   3.179   3.304
 6308SOL     OW19822   1.203   2.033   0.786
 6308SOL    HW119823   1.296   2.064   0.765
 6308SOL    HW219824   1.157   2.007   0.701
 6309SOL     OW19825   1.958   5.464   5.350
 6309SOL    HW119826   1.973   5.438   5.446
 6309SOL    HW219827   1.862   5.448   5.327
 6310SOL     OW19828   0.425   6.713   3.458
 6310SOL    HW119829   0.346   6.660   3.489
 6310SOL    HW219830   0.495   6.651   3.422
 6311SOL     OW19831   6.459   1.282   6.477
 6311SOL    HW119832   6.366   1.317   6.466
 6311SOL    HW219833   6.457   1.182   6.486
 6312SOL     OW19834   3.583   5.796   1.010
 6312SOL    HW119835   3.609   5.748   0.926
 6312SOL    HW219836   3.486   5.778   1.030
 6313SOL     OW19837   5.621   4.980   2.979
 6313SOL    HW119838   5.557   5.008   3.050
 6313SOL    HW219839   5.645   5.058   2.921
 6314SOL     OW19840   1.847   6.868   3.585
 6314SOL    HW119841   1.786   6.789   3.590
 6314SOL    HW219842   1.942   6.836   3.586
 6315SOL     OW19843   2.327   2.561   3.106
 6315SOL    HW119844   2.326   2.634   3.173
 6315SOL    HW219845   2.239   2.556   3.060
 6316SOL     OW19846   4.290   0.517   4.922
 6316SOL    HW119847   4.248   0.607   4.933
 6316SOL    HW219848   4.238   0.464   4.856
 6317SOL     OW19849   4.442   4.482   2.982
 6317SOL    HW119850   4.433   4.386   2.956
 6317SOL    HW219851   4.479   4.489   3.074
 6318SOL     OW19852   5.998   0.043   6.840
 6318SOL    HW119853   5.995   0.125   6.897
 6318SOL    HW219854   6.010   0.069   6.744
 6319SOL     OW19855   5.160   2.642   4.649
 6319SOL    HW119856   5.121   2.608   4.735
 6319SOL    HW219857   5.089   2.643   4.579
 6320SOL     OW19858   6.313   1.693   6.272
 6320SOL    HW119859   6.283   1.722   6.363
 6320SOL    HW219860   6.410   1.672   6.275
 6321SOL     OW19861   0.489   3.646   0.297
 6321SOL    HW119862   0.403   3.692   0.319
 6321SOL    HW219863   0.551   3.652   0.376
 6322SOL     OW19864   1.852   1.615   2.453
 6322SOL    HW119865   1.883   1.573   2.368
 6322SOL    HW219866   1.791   1.551   2.501
 6323SOL     OW19867   2.239   5.949   1.242
 6323SOL    HW119868   2.166   5.925   1.306
 6323SOL    HW219869   2.289   5.866   1.215
 6324SOL     OW19870   5.010   3.501   0.999
 6324SOL    HW119871   4.977   3.444   0.925
 6324SOL    HW219872   4.966   3.474   1.085
 6325SOL     OW19873   1.074   3.430   3.834
 6325SOL    HW119874   0.993   3.376   3.810
 6325SOL    HW219875   1.156   3.378   3.810
 6326SOL     OW19876   4.556   5.557   5.196
 6326SOL    HW119877   4.613   5.582   5.274
 6326SOL    HW219878   4.529   5.640   5.146
 6327SOL     OW19879   0.558   0.685   2.521
 6327SOL    HW119880   0.650   0.704   2.489
 6327SOL    HW219881   0.491   0.727   2.460
 6328SOL     OW19882   3.938   3.892   5.280
 6328SOL    HW119883   3.925   3.797   5.250
 6328SOL    HW219884   3.921   3.953   5.203
 6329SOL     OW19885   0.395   3.159   4.795
 6329SOL    HW119886   0.336   3.139   4.874
 6329SOL    HW219887   0.420   3.073   4.750
 6330SOL     OW19888   4.157   1.945   3.672
 6330SOL    HW119889   4.251   1.976   3.685
 6330SOL    HW219890   4.149   1.899   3.583
 6331SOL     OW19891   1.823   3.664   4.007
 6331SOL    HW119892   1.911   3.692   4.046
 6331SOL    HW219893   1.815   3.564   4.011
 6332SOL     OW19894   4.334   1.519   0.237
 6332SOL    HW119895   4.314   1.580   0.160
 6332SOL    HW219896   4.255   1.517   0.298
 6333SOL     OW19897   5.982   0.826   0.261
 6333SOL    HW119898   5.998   0.729   0.245
 6333SOL    HW219899   5.892   0.839   0.304
 6334SOL     OW19900   2.297   1.295   2.170
 6334SOL    HW119901   2.374   1.331   2.117
 6334SOL    HW219902   2.291   1.196   2.158
 6335SOL     OW19903   6.633   3.237   5.542
 6335SOL    HW119904   6.669   3.327   5.566
 6335SOL    HW219905   6.543   3.247   5.501
 6336SOL     OW19906   0.699   4.541   5.736
 6336SOL    HW119907   0.608   4.571   5.706
 6336SOL    HW219908   0.756   4.621   5.753
 6337SOL     OW19909   5.851   6.703   5.245
 6337SOL    HW119910   5.922   6.649   5.290
 6337SOL    HW219911   5.894   6.774   5.188
 6338SOL     OW19912   0.602   0.437   2.355
 6338SOL    HW119913   0.573   0.524   2.394
 6338SOL    HW219914   0.620   0.372   2.430
 6339SOL     OW19915   0.405   3.852   3.070
 6339SOL    HW119916   0.357   3.764   3.070
 6339SOL    HW219917   0.462   3.859   2.988
 6340SOL     OW19918   2.780   5.410   6.030
 6340SOL    HW119919   2.773   5.339   6.099
 6340SOL    HW219920   2.689   5.434   5.997
 6341SOL     OW19921   0.450   4.485   2.766
 6341SOL    HW119922   0.406   4.540   2.695
 6341SOL    HW219923   0.382   4.428   2.811
 6342SOL     OW19924   1.751   0.449   1.549
 6342SOL    HW119925   1.817   0.380   1.520
 6342SOL    HW219926   1.724   0.432   1.644
 6343SOL     OW19927   1.437   5.004   6.869
 6343SOL    HW119928   1.385   4.920   6.885
 6343SOL    HW219929   1.502   4.988   6.795
 6344SOL     OW19930   1.038   1.128   4.116
 6344SOL    HW119931   1.082   1.039   4.128
 6344SOL    HW219932   1.100   1.191   4.069
 6345SOL     OW19933   6.721   3.114   3.176
 6345SOL    HW119934   6.702   3.081   3.268
 6345SOL    HW219935   6.813   3.154   3.172
 6346SOL     OW19936   0.481   4.820   4.189
 6346SOL    HW119937   0.440   4.743   4.139
 6346SOL    HW219938   0.493   4.897   4.126
 6347SOL     OW19939   1.993   2.537   3.392
 6347SOL    HW119940   2.021   2.627   3.426
 6347SOL    HW219941   2.064   2.470   3.414
 6348SOL     OW19942   0.918   2.951   6.624
 6348SOL    HW119943   1.012   2.981   6.608
 6348SOL    HW219944   0.861   3.030   6.649
 6349SOL     OW19945   6.083   1.468   0.656
 6349SOL    HW119946   6.150   1.440   0.724
 6349SOL    HW219947   6.009   1.401   0.652
 6350SOL     OW19948   0.792   6.262   1.579
 6350SOL    HW119949   0.723   6.273   1.508
 6350SOL    HW219950   0.869   6.209   1.542
 6351SOL     OW19951   6.170   2.392   1.715
 6351SOL    HW119952   6.105   2.415   1.788
 6351SOL    HW219953   6.250   2.347   1.754
 6352SOL     OW19954   4.664   0.706   4.430
 6352SOL    HW119955   4.650   0.615   4.468
 6352SOL    HW219956   4.648   0.774   4.501
 6353SOL     OW19957   3.558   6.366   5.861
 6353SOL    HW119958   3.582   6.397   5.953
 6353SOL    HW219959   3.476   6.309   5.865
 6354SOL     OW19960   5.663   4.865   2.498
 6354SOL    HW119961   5.723   4.867   2.579
 6354SOL    HW219962   5.701   4.925   2.428
 6355SOL     OW19963   5.419   5.778   0.070
 6355SOL    HW119964   5.434   5.853   0.134
 6355SOL    HW219965   5.338   5.797   0.014
 6356SOL     OW19966   0.525   6.675   6.510
 6356SOL    HW119967   0.590   6.600   6.524
 6356SOL    HW219968   0.486   6.669   6.418
 6357SOL     OW19969   4.846   2.084   2.723
 6357SOL    HW119970   4.890   2.147   2.659
 6357SOL    HW219971   4.914   2.023   2.761
 6358SOL     OW19972   1.008   1.614   4.438
 6358SOL    HW119973   0.920   1.585   4.400
 6358SOL    HW219974   1.080   1.597   4.371
 6359SOL     OW19975   6.064   4.771   0.819
 6359SOL    HW119976   5.987   4.717   0.853
 6359SOL    HW219977   6.044   4.802   0.726
 6360SOL     OW19978   2.195   2.784   1.161
 6360SOL    HW119979   2.118   2.808   1.220
 6360SOL    HW219980   2.243   2.867   1.133
 6361SOL     OW19981   0.251   1.882   2.345
 6361SOL    HW119982   0.249   1.785   2.370
 6361SOL    HW219983   0.259   1.892   2.246
 6362SOL     OW19984   1.922   5.294   0.550
 6362SOL    HW119985   1.907   5.252   0.640
 6362SOL    HW219986   2.017   5.283   0.523
 6363SOL     OW19987   0.975   2.360   2.245
 6363SOL    HW119988   0.889   2.347   2.295
 6363SOL    HW219989   0.995   2.458   2.238
 6364SOL     OW19990   2.582   0.996   4.129
 6364SOL    HW119991   2.483   0.991   4.116
 6364SOL    HW219992   2.605   1.082   4.173
 6365SOL     OW19993   6.796   6.782   2.532
 6365SOL    HW119994   6.731   6.715   2.496
 6365SOL    HW219995   6.819   6.758   2.626
 6366SOL     OW19996   6.002   1.636   5.123
 6366SOL    HW119997   6.086   1.683   5.095
 6366SOL    HW219998   6.011   1.603   5.217
 6367SOL     OW19999   1.191   2.413   4.591
 6367SOL    HW120000   1.144   2.389   4.675
 6367SOL    HW220001   1.203   2.331   4.535
 6368SOL     OW20002   4.960   3.487   4.838
 6368SOL    HW120003   4.907   3.541   4.904
 6368SOL    HW220004   5.057   3.508   4.848
 6369SOL     OW20005   3.165   4.191   0.985
 6369SOL    HW120006   3.169   4.122   1.056
 6369SOL    HW220007   3.111   4.269   1.017
 6370SOL     OW20008   5.950   4.231   4.708
 6370SOL    HW120009   6.037   4.261   4.748
 6370SOL    HW220010   5.874   4.268   4.762
 6371SOL     OW20011   6.085   4.300   0.799
 6371SOL    HW120012   6.128   4.388   0.778
 6371SOL    HW220013   6.141   4.226   0.762
 6372SOL     OW20014   6.633   1.026   0.897
 6372SOL    HW120015   6.639   1.125   0.901
 6372SOL    HW220016   6.587   0.992   0.979
 6373SOL     OW20017   5.382   2.152   1.283
 6373SOL    HW120018   5.445   2.076   1.272
 6373SOL    HW220019   5.390   2.189   1.376
 6374SOL     OW20020   4.185   3.182   6.508
 6374SOL    HW120021   4.212   3.098   6.556
 6374SOL    HW220022   4.193   3.168   6.409
 6375SOL     OW20023   5.129   0.854   2.325
 6375SOL    HW120024   5.084   0.895   2.245
 6375SOL    HW220025   5.228   0.856   2.313
 6376SOL     OW20026   2.747   6.563   0.526
 6376SOL    HW120027   2.688   6.502   0.578
 6376SOL    HW220028   2.696   6.645   0.500
 6377SOL     OW20029   0.343   0.879   0.521
 6377SOL    HW120030   0.432   0.835   0.524
 6377SOL    HW220031   0.336   0.945   0.597
 6378SOL     OW20032   6.079   4.026   3.066
 6378SOL    HW120033   6.014   4.081   3.013
 6378SOL    HW220034   6.064   3.929   3.047
 6379SOL     OW20035   3.081   5.345   6.752
 6379SOL    HW120036   3.057   5.349   6.849
 6379SOL    HW220037   3.011   5.395   6.699
 6380SOL     OW20038   2.175   3.157   4.786
 6380SOL    HW120039   2.190   3.139   4.689
 6380SOL    HW220040   2.198   3.075   4.839
 6381SOL     OW20041   3.153   3.738   0.940
 6381SOL    HW120042   3.219   3.663   0.946
 6381SOL    HW220043   3.193   3.815   0.891
 6382SOL     OW20044   2.060   1.267   1.325
 6382SOL    HW120045   2.128   1.242   1.393
 6382SOL    HW220046   1.988   1.321   1.368
 6383SOL     OW20047   2.691   2.046   2.666
 6383SOL    HW120048   2.758   2.119   2.681
 6383SOL    HW220049   2.658   2.050   2.572
 6384SOL     OW20050   6.772   2.044   2.235
 6384SOL    HW120051   6.861   2.012   2.202
 6384SOL    HW220052   6.749   2.131   2.191
 6385SOL     OW20053   7.014   3.889   1.289
 6385SOL    HW120054   0.088   3.894   1.326
 6385SOL    HW220055   6.969   3.978   1.298
 6386SOL     OW20056   3.000   3.877   0.392
 6386SOL    HW120057   3.017   3.795   0.338
 6386SOL    HW220058   2.903   3.883   0.413
 6387SOL     OW20059   6.446   0.908   6.321
 6387SOL    HW120060   6.410   0.921   6.229
 6387SOL    HW220061   6.386   0.954   6.387
 6388SOL     OW20062   6.301   5.141   1.798
 6388SOL    HW120063   6.297   5.089   1.713
 6388SOL    HW220064   6.344   5.230   1.780
 6389SOL     OW20065   6.244   6.512   0.932
 6389SOL    HW120066   6.336   6.548   0.918
 6389SOL    HW220067   6.195   6.572   0.996
 6390SOL     OW20068   4.948   6.507   6.612
 6390SOL    HW120069   5.007   6.441   6.565
 6390SOL    HW220070   4.899   6.562   6.544
 6391SOL     OW20071   1.606   2.263   5.091
 6391SOL    HW120072   1.643   2.340   5.144
 6391SOL    HW220073   1.678   2.226   5.032
 6392SOL     OW20074   5.096   6.638   3.821
 6392SOL    HW120075   5.048   6.552   3.805
 6392SOL    HW220076   5.175   6.643   3.760
 6393SOL     OW20077   2.286   5.340   0.456
 6393SOL    HW120078   2.243   5.349   0.366
 6393SOL    HW220079   2.312   5.244   0.470
 6394SOL     OW20080   1.673   5.631   1.982
 6394SOL    HW120081   1.703   5.647   2.076
 6394SOL    HW220082   1.667   5.718   1.933
 6395SOL     OW20083   1.350   4.082   4.828
 6395SOL    HW120084   1.420   4.113   4.893
 6395SOL    HW220085   1.265   4.063   4.877
 6396SOL     OW20086   1.302   3.079   5.116
 6396SOL    HW120087   1.344   2.990   5.134
 6396SOL    HW220088   1.332   3.144   5.186
 6397SOL     OW20089   0.108   2.966   4.798
 6397SOL    HW120090   0.081   3.048   4.748
 6397SOL    HW220091   0.173   2.991   4.870
 6398SOL     OW20092   1.377   0.350   2.562
 6398SOL    HW120093   1.406   0.419   2.496
 6398SOL    HW220094   1.333   0.396   2.640
 6399SOL     OW20095   2.734   0.139   0.139
 6399SOL    HW120096   2.803   0.206   0.113
 6399SOL    HW220097   2.697   0.162   0.229
 6400SOL     OW20098   0.868   6.221   2.845
 6400SOL    HW120099   0.940   6.243   2.911
 6400SOL    HW220100   0.779   6.224   2.890
 6401SOL     OW20101   3.976   4.973   1.661
 6401SOL    HW120102   3.885   4.933   1.675
 6401SOL    HW220103   3.994   4.980   1.562
 6402SOL     OW20104   4.106   4.033   6.196
 6402SOL    HW120105   4.173   4.100   6.165
 6402SOL    HW220106   4.021   4.045   6.145
 6403SOL     OW20107   4.137   5.676   5.567
 6403SOL    HW120108   4.223   5.670   5.516
 6403SOL    HW220109   4.112   5.586   5.601
 6404SOL     OW20110   4.581   5.812   6.410
 6404SOL    HW120111   4.546   5.751   6.481
 6404SOL    HW220112   4.680   5.822   6.421
 6405SOL     OW20113   4.476   0.934   2.437
 6405SOL    HW120114   4.439   0.963   2.349
 6405SOL    HW220115   4.404   0.891   2.491
 6406SOL     OW20116   0.308   3.691   1.929
 6406SOL    HW120117   0.259   3.612   1.967
 6406SOL    HW220118   0.256   3.774   1.947
 6407SOL     OW20119   0.601   6.929   1.738
 6407SOL    HW120120   0.675   6.902   1.799
 6407SOL    HW220121   0.533   6.981   1.790
 6408SOL     OW20122   6.839   1.075   1.828
 6408SOL    HW120123   6.863   1.026   1.912
 6408SOL    HW220124   6.912   1.139   1.805
 6409SOL     OW20125   5.714   4.201   3.676
 6409SOL    HW120126   5.639   4.158   3.626
 6409SOL    HW220127   5.752   4.135   3.741
 6410SOL     OW20128   1.571   0.469   0.190
 6410SOL    HW120129   1.651   0.409   0.180
 6410SOL    HW220130   1.532   0.459   0.281
 6411SOL     OW20131   1.193   2.402   3.957
 6411SOL    HW120132   1.113   2.407   4.017
 6411SOL    HW220133   1.273   2.440   4.004
 6412SOL     OW20134   4.117   0.115   0.111
 6412SOL    HW120135   4.090   0.019   0.112
 6412SOL    HW220136   4.216   0.122   0.124
 6413SOL     OW20137   4.283   6.233   3.163
 6413SOL    HW120138   4.270   6.299   3.089
 6413SOL    HW220139   4.330   6.277   3.239
 6414SOL     OW20140   3.093   0.329   0.320
 6414SOL    HW120141   3.077   0.368   0.230
 6414SOL    HW220142   3.187   0.349   0.349
 6415SOL     OW20143   0.504   1.850   3.708
 6415SOL    HW120144   0.494   1.791   3.788
 6415SOL    HW220145   0.413   1.872   3.671
 6416SOL     OW20146   2.862   4.793   0.598
 6416SOL    HW120147   2.766   4.818   0.589
 6416SOL    HW220148   2.880   4.708   0.549
 6417SOL     OW20149   4.040   3.347   6.243
 6417SOL    HW120150   4.036   3.418   6.172
 6417SOL    HW220151   4.014   3.387   6.331
 6418SOL     OW20152   4.916   5.303   0.236
 6418SOL    HW120153   4.818   5.322   0.232
 6418SOL    HW220154   4.947   5.267   0.148
 6419SOL     OW20155   1.198   6.512   6.413
 6419SOL    HW120156   1.199   6.543   6.318
 6419SOL    HW220157   1.288   6.475   6.436
 6420SOL     OW20158   2.699   4.948   3.253
 6420SOL    HW120159   2.631   4.950   3.326
 6420SOL    HW220160   2.716   5.041   3.221
 6421SOL     OW20161   5.631   6.876   1.443
 6421SOL    HW120162   5.627   6.974   1.423
 6421SOL    HW220163   5.643   6.864   1.542
 6422SOL     OW20164   0.750   1.935   4.306
 6422SOL    HW120165   0.715   1.925   4.213
 6422SOL    HW220166   0.677   1.966   4.366
 6423SOL     OW20167   1.412   4.094   4.523
 6423SOL    HW120168   1.506   4.062   4.527
 6423SOL    HW220169   1.372   4.091   4.614
 6424SOL     OW20170   6.720   3.750   5.555
 6424SOL    HW120171   6.811   3.713   5.532
 6424SOL    HW220172   6.724   3.791   5.646
 6425SOL     OW20173   0.923   6.699   5.410
 6425SOL    HW120174   1.015   6.738   5.403
 6425SOL    HW220175   0.921   6.610   5.364
 6426SOL     OW20176   3.821   5.677   3.974
 6426SOL    HW120177   3.895   5.740   3.997
 6426SOL    HW220178   3.734   5.713   4.009
 6427SOL     OW20179   3.705   3.126   3.587
 6427SOL    HW120180   3.751   3.117   3.675
 6427SOL    HW220181   3.771   3.108   3.513
 6428SOL     OW20182   6.183   2.143   0.263
 6428SOL    HW120183   6.231   2.125   0.348
 6428SOL    HW220184   6.113   2.072   0.249
 6429SOL     OW20185   2.683   1.841   4.465
 6429SOL    HW120186   2.723   1.753   4.487
 6429SOL    HW220187   2.704   1.865   4.370
 6430SOL     OW20188   5.873   1.437   4.474
 6430SOL    HW120189   5.920   1.480   4.396
 6430SOL    HW220190   5.893   1.340   4.476
 6431SOL     OW20191   3.117   4.874   2.914
 6431SOL    HW120192   3.084   4.968   2.921
 6431SOL    HW220193   3.040   4.812   2.905
 6432SOL     OW20194   4.554   2.967   6.600
 6432SOL    HW120195   4.645   2.930   6.582
 6432SOL    HW220196   4.500   2.964   6.516
 6433SOL     OW20197   3.642   5.155   6.126
 6433SOL    HW120198   3.677   5.073   6.080
 6433SOL    HW220199   3.611   5.221   6.057
 6434SOL     OW20200   6.634   4.677   6.123
 6434SOL    HW120201   6.658   4.755   6.180
 6434SOL    HW220202   6.573   4.616   6.173
 6435SOL     OW20203   4.690   1.617   1.290
 6435SOL    HW120204   4.664   1.713   1.305
 6435SOL    HW220205   4.684   1.596   1.192
 6436SOL     OW20206   0.688   2.781   3.583
 6436SOL    HW120207   0.635   2.728   3.649
 6436SOL    HW220208   0.637   2.863   3.558
 6437SOL     OW20209   1.509   2.879   5.818
 6437SOL    HW120210   1.502   2.962   5.764
 6437SOL    HW220211   1.422   2.828   5.813
 6438SOL     OW20212   0.706   4.973   1.100
 6438SOL    HW120213   0.672   4.941   1.011
 6438SOL    HW220214   0.710   5.072   1.101
 6439SOL     OW20215   4.778   6.390   2.864
 6439SOL    HW120216   4.734   6.476   2.840
 6439SOL    HW220217   4.709   6.318   2.870
 6440SOL     OW20218   2.635   1.908   5.306
 6440SOL    HW120219   2.708   1.846   5.335
 6440SOL    HW220220   2.675   1.983   5.252
 6441SOL     OW20221   1.259   1.960   1.539
 6441SOL    HW120222   1.346   1.955   1.588
 6441SOL    HW220223   1.185   1.982   1.602
 6442SOL     OW20224   2.473   1.881   4.034
 6442SOL    HW120225   2.523   1.890   4.120
 6442SOL    HW220226   2.405   1.809   4.042
 6443SOL     OW20227   2.570   2.651   5.892
 6443SOL    HW120228   2.658   2.679   5.931
 6443SOL    HW220229   2.580   2.561   5.850
 6444SOL     OW20230   0.116   3.752   5.076
 6444SOL    HW120231   0.120   3.653   5.062
 6444SOL    HW220232   0.022   3.779   5.098
 6445SOL     OW20233   3.588   2.940   3.334
 6445SOL    HW120234   3.553   3.028   3.301
 6445SOL    HW220235   3.532   2.907   3.410
 6446SOL     OW20236   1.346   0.593   1.578
 6446SOL    HW120237   1.297   0.508   1.556
 6446SOL    HW220238   1.339   0.612   1.676
 6447SOL     OW20239   6.121   3.933   1.056
 6447SOL    HW120240   6.066   4.016   1.065
 6447SOL    HW220241   6.217   3.957   1.045
 6448SOL     OW20242   4.094   4.190   1.527
 6448SOL    HW120243   4.123   4.208   1.433
 6448SOL    HW220244   4.009   4.138   1.527
 6449SOL     OW20245   4.721   5.269   0.493
 6449SOL    HW120246   4.741   5.362   0.462
 6449SOL    HW220247   4.660   5.224   0.428
 6450SOL     OW20248   4.544   3.503   0.149
 6450SOL    HW120249   4.608   3.555   0.206
 6450SOL    HW220250   4.493   3.567   0.091
 6451SOL     OW20251   4.301   2.673   1.508
 6451SOL    HW120252   4.324   2.632   1.597
 6451SOL    HW220253   4.204   2.658   1.489
 6452SOL     OW20254   4.264   2.114   4.417
 6452SOL    HW120255   4.339   2.112   4.484
 6452SOL    HW220256   4.300   2.139   4.327
 6453SOL     OW20257   2.628   0.457   2.801
 6453SOL    HW120258   2.567   0.381   2.780
 6453SOL    HW220259   2.662   0.498   2.717
 6454SOL     OW20260   5.114   3.834   4.827
 6454SOL    HW120261   5.151   3.907   4.885
 6454SOL    HW220262   5.014   3.835   4.832
 6455SOL     OW20263   0.633   2.553   4.216
 6455SOL    HW120264   0.671   2.634   4.171
 6455SOL    HW220265   0.535   2.547   4.197
 6456SOL     OW20266   6.090   2.217   3.503
 6456SOL    HW120267   6.072   2.276   3.582
 6456SOL    HW220268   6.188   2.221   3.481
 6457SOL     OW20269   1.538   6.113   3.460
 6457SOL    HW120270   1.535   6.013   3.464
 6457SOL    HW220271   1.571   6.141   3.370
 6458SOL     OW20272   1.521   0.363   4.730
 6458SOL    HW120273   1.590   0.410   4.785
 6458SOL    HW220274   1.552   0.360   4.635
 6459SOL     OW20275   0.524   3.375   2.786
 6459SOL    HW120276   0.468   3.320   2.724
 6459SOL    HW220277   0.615   3.333   2.796
 6460SOL     OW20278   1.813   4.908   5.644
 6460SOL    HW120279   1.804   5.002   5.678
 6460SOL    HW220280   1.741   4.891   5.576
 6461SOL     OW20281   0.315   6.963   1.512
 6461SOL    HW120282   0.312   6.967   1.413
 6461SOL    HW220283   0.307   0.036   1.550
 6462SOL     OW20284   2.596   4.016   5.653
 6462SOL    HW120285   2.540   4.093   5.682
 6462SOL    HW220286   2.609   4.019   5.554
 6463SOL     OW20287   4.461   3.215   1.331
 6463SOL    HW120288   4.373   3.254   1.306
 6463SOL    HW220289   4.448   3.137   1.392
 6464SOL     OW20290   1.311   3.524   3.271
 6464SOL    HW120291   1.333   3.438   3.226
 6464SOL    HW220292   1.212   3.539   3.267
 6465SOL     OW20293   2.548   1.607   2.834
 6465SOL    HW120294   2.487   1.554   2.775
 6465SOL    HW220295   2.546   1.703   2.806
 6466SOL     OW20296   6.556   5.033   6.710
 6466SOL    HW120297   6.646   5.024   6.752
 6466SOL    HW220298   6.542   5.128   6.681
 6467SOL     OW20299   2.253   3.618   5.678
 6467SOL    HW120300   2.273   3.628   5.775
 6467SOL    HW220301   2.338   3.630   5.625
 6468SOL     OW20302   1.136   0.684   1.297
 6468SOL    HW120303   1.165   0.648   1.386
 6468SOL    HW220304   1.046   0.727   1.306
 6469SOL     OW20305   2.250   0.775   1.236
 6469SOL    HW120306   2.184   0.847   1.215
 6469SOL    HW220307   2.291   0.792   1.325
 6470SOL     OW20308   6.047   1.647   6.711
 6470SOL    HW120309   6.038   1.690   6.801
 6470SOL    HW220310   5.963   1.665   6.658
 6471SOL     OW20311   0.769   6.026   5.931
 6471SOL    HW120312   0.801   6.000   5.840
 6471SOL    HW220313   0.780   6.125   5.943
 6472SOL     OW20314   0.596   6.715   1.264
 6472SOL    HW120315   0.593   6.756   1.355
 6472SOL    HW220316   0.551   6.626   1.266
 6473SOL     OW20317   2.928   1.765   3.433
 6473SOL    HW120318   2.846   1.721   3.397
 6473SOL    HW220319   3.008   1.733   3.380
 6474SOL     OW20320   3.802   6.879   4.226
 6474SOL    HW120321   3.843   6.816   4.292
 6474SOL    HW220322   3.742   6.943   4.273
 6475SOL     OW20323   5.299   5.628   3.316
 6475SOL    HW120324   5.387   5.627   3.268
 6475SOL    HW220325   5.248   5.710   3.290
 6476SOL     OW20326   5.125   4.368   5.629
 6476SOL    HW120327   5.089   4.291   5.682
 6476SOL    HW220328   5.092   4.361   5.534
 6477SOL     OW20329   0.461   6.356   0.848
 6477SOL    HW120330   0.460   6.370   0.749
 6477SOL    HW220331   0.395   6.416   0.891
 6478SOL     OW20332   1.661   6.229   0.784
 6478SOL    HW120333   1.618   6.257   0.870
 6478SOL    HW220334   1.689   6.133   0.790
 6479SOL     OW20335   4.551   6.139   3.992
 6479SOL    HW120336   4.612   6.109   4.065
 6479SOL    HW220337   4.527   6.061   3.934
 6480SOL     OW20338   3.419   1.544   5.139
 6480SOL    HW120339   3.357   1.472   5.109
 6480SOL    HW220340   3.369   1.631   5.145
 6481SOL     OW20341   4.373   3.157   1.661
 6481SOL    HW120342   4.416   3.108   1.737
 6481SOL    HW220343   4.370   3.097   1.581
 6482SOL     OW20344   5.199   3.186   5.234
 6482SOL    HW120345   5.277   3.145   5.187
 6482SOL    HW220346   5.202   3.285   5.221
 6483SOL     OW20347   1.747   5.572   5.886
 6483SOL    HW120348   1.698   5.651   5.922
 6483SOL    HW220349   1.724   5.559   5.789
 6484SOL     OW20350   3.991   1.411   3.141
 6484SOL    HW120351   4.040   1.482   3.090
 6484SOL    HW220352   4.013   1.419   3.238
 6485SOL     OW20353   2.333   4.884   4.574
 6485SOL    HW120354   2.410   4.822   4.595
 6485SOL    HW220355   2.351   4.931   4.488
 6486SOL     OW20356   0.149   4.371   2.283
 6486SOL    HW120357   0.238   4.354   2.240
 6486SOL    HW220358   0.147   4.329   2.374
 6487SOL     OW20359   5.769   5.456   3.999
 6487SOL    HW120360   5.851   5.443   4.055
 6487SOL    HW220361   5.727   5.543   4.021
 6488SOL     OW20362   4.001   5.130   3.975
 6488SOL    HW120363   4.031   5.128   4.070
 6488SOL    HW220364   3.992   5.036   3.941
 6489SOL     OW20365   6.451   3.271   5.024
 6489SOL    HW120366   6.451   3.317   4.935
 6489SOL    HW220367   6.540   3.227   5.040
 6490SOL     OW20368   1.842   3.168   0.302
 6490SOL    HW120369   1.894   3.089   0.334
 6490SOL    HW220370   1.826   3.230   0.378
 6491SOL     OW20371   1.775   0.175   1.720
 6491SOL    HW120372   1.848   0.133   1.774
 6491SOL    HW220373   1.803   0.183   1.625
 6492SOL     OW20374   4.016   3.497   3.595
 6492SOL    HW120375   4.020   3.428   3.668
 6492SOL    HW220376   3.938   3.558   3.610
 6493SOL     OW20377   1.086   4.761   4.309
 6493SOL    HW120378   1.036   4.706   4.242
 6493SOL    HW220379   1.049   4.746   4.400
 6494SOL     OW20380   6.605   1.068   1.598
 6494SOL    HW120381   6.627   0.994   1.534
 6494SOL    HW220382   6.689   1.108   1.632
 6495SOL     OW20383   6.155   6.455   2.385
 6495SOL    HW120384   6.097   6.523   2.430
 6495SOL    HW220385   6.203   6.400   2.454
 6496SOL     OW20386   2.600   2.156   1.433
 6496SOL    HW120387   2.628   2.173   1.338
 6496SOL    HW220388   2.549   2.070   1.437
 6497SOL     OW20389   0.504   2.474   0.988
 6497SOL    HW120390   0.423   2.503   1.039
 6497SOL    HW220391   0.582   2.532   1.012
 6498SOL     OW20392   2.474   4.457   4.234
 6498SOL    HW120393   2.455   4.500   4.322
 6498SOL    HW220394   2.557   4.497   4.194
 6499SOL     OW20395   5.607   2.360   2.480
 6499SOL    HW120396   5.529   2.415   2.509
 6499SOL    HW220397   5.641   2.306   2.557
 6500SOL     OW20398   1.739   3.986   2.464
 6500SOL    HW120399   1.659   3.927   2.459
 6500SOL    HW220400   1.822   3.930   2.469
 6501SOL     OW20401   6.940   1.486   2.594
 6501SOL    HW120402   6.845   1.505   2.621
 6501SOL    HW220403   7.001   1.550   2.640
 6502SOL     OW20404   0.971   2.887   2.232
 6502SOL    HW120405   0.885   2.893   2.182
 6502SOL    HW220406   1.020   2.973   2.224
 6503SOL     OW20407   0.357   2.636   5.559
 6503SOL    HW120408   0.332   2.539   5.563
 6503SOL    HW220409   0.447   2.645   5.515
 6504SOL     OW20410   3.882   6.852   6.174
 6504SOL    HW120411   3.817   6.928   6.183
 6504SOL    HW220412   3.832   6.766   6.163
 6505SOL     OW20413   0.261   6.495   0.090
 6505SOL    HW120414   0.231   6.406   0.126
 6505SOL    HW220415   0.352   6.516   0.125
 6506SOL     OW20416   0.238   3.811   1.427
 6506SOL    HW120417   0.142   3.800   1.455
 6506SOL    HW220418   0.279   3.720   1.415
 6507SOL     OW20419   4.606   5.651   0.702
 6507SOL    HW120420   4.559   5.637   0.615
 6507SOL    HW220421   4.632   5.563   0.741
 6508SOL     OW20422   6.993   0.441   4.319
 6508SOL    HW120423   6.925   0.512   4.302
 6508SOL    HW220424   0.064   0.484   4.331
 6509SOL     OW20425   2.491   1.880   0.550
 6509SOL    HW120426   2.566   1.936   0.513
 6509SOL    HW220427   2.413   1.939   0.571
 6510SOL     OW20428   3.266   4.901   4.584
 6510SOL    HW120429   3.362   4.880   4.602
 6510SOL    HW220430   3.260   4.952   4.498
 6511SOL     OW20431   3.478   2.818   6.762
 6511SOL    HW120432   3.404   2.760   6.728
 6511SOL    HW220433   3.563   2.795   6.713
 6512SOL     OW20434   5.145   1.269   1.375
 6512SOL    HW120435   5.217   1.316   1.323
 6512SOL    HW220436   5.064   1.257   1.317
 6513SOL     OW20437   3.182   4.963   2.466
 6513SOL    HW120438   3.088   4.933   2.453
 6513SOL    HW220439   3.240   4.921   2.396
 6514SOL     OW20440   4.867   5.634   5.835
 6514SOL    HW120441   4.951   5.672   5.874
 6514SOL    HW220442   4.882   5.538   5.809
 6515SOL     OW20443   0.819   4.819   2.210
 6515SOL    HW120444   0.836   4.864   2.122
 6515SOL    HW220445   0.721   4.820   2.229
 6516SOL     OW20446   5.812   1.248   3.757
 6516SOL    HW120447   5.896   1.207   3.723
 6516SOL    HW220448   5.733   1.200   3.719
 6517SOL     OW20449   6.793   4.329   0.280
 6517SOL    HW120450   6.783   4.357   0.375
 6517SOL    HW220451   6.783   4.230   0.272
 6518SOL     OW20452   1.099   1.804   2.184
 6518SOL    HW120453   1.069   1.774   2.275
 6518SOL    HW220454   1.031   1.865   2.145
 6519SOL     OW20455   1.204   1.516   3.363
 6519SOL    HW120456   1.237   1.610   3.351
 6519SOL    HW220457   1.245   1.477   3.445
 6520SOL     OW20458   5.720   6.264   6.365
 6520SOL    HW120459   5.664   6.209   6.427
 6520SOL    HW220460   5.816   6.259   6.394
 6521SOL     OW20461   1.458   4.420   4.451
 6521SOL    HW120462   1.445   4.440   4.354
 6521SOL    HW220463   1.455   4.506   4.503
 6522SOL     OW20464   2.284   3.155   5.327
 6522SOL    HW120465   2.187   3.133   5.318
 6522SOL    HW220466   2.338   3.095   5.268
 6523SOL     OW20467   5.277   6.600   0.517
 6523SOL    HW120468   5.373   6.582   0.496
 6523SOL    HW220469   5.261   6.698   0.520
 6524SOL     OW20470   3.148   2.582   1.449
 6524SOL    HW120471   3.203   2.666   1.448
 6524SOL    HW220472   3.053   2.605   1.472
 6525SOL     OW20473   2.045   4.500   3.981
 6525SOL    HW120474   1.953   4.477   4.013
 6525SOL    HW220475   2.040   4.526   3.884
 6526SOL     OW20476   6.272   6.395   0.458
 6526SOL    HW120477   6.348   6.414   0.396
 6526SOL    HW220478   6.187   6.429   0.417
 6527SOL     OW20479   5.262   2.334   1.135
 6527SOL    HW120480   5.226   2.312   1.044
 6527SOL    HW220481   5.283   2.250   1.184
 6528SOL     OW20482   4.506   6.287   0.590
 6528SOL    HW120483   4.564   6.356   0.547
 6528SOL    HW220484   4.488   6.213   0.525
 6529SOL     OW20485   4.422   0.082   1.773
 6529SOL    HW120486   4.445   0.042   1.685
 6529SOL    HW220487   4.339   0.040   1.809
 6530SOL     OW20488   0.490   2.246   4.190
 6530SOL    HW120489   0.433   2.309   4.138
 6530SOL    HW220490   0.578   2.289   4.211
 6531SOL     OW20491   3.689   3.417   3.654
 6531SOL    HW120492   3.722   3.329   3.619
 6531SOL    HW220493   3.692   3.417   3.754
 6532SOL     OW20494   1.299   5.573   0.158
 6532SOL    HW120495   1.367   5.517   0.207
 6532SOL    HW220496   1.218   5.518   0.138
 6533SOL     OW20497   4.854   5.109   1.325
 6533SOL    HW120498   4.825   5.055   1.404
 6533SOL    HW220499   4.834   5.205   1.341
 6534SOL     OW20500   6.666   2.833   4.104
 6534SOL    HW120501   6.659   2.823   4.203
 6534SOL    HW220502   6.576   2.852   4.065
 6535SOL     OW20503   5.224   3.494   5.794
 6535SOL    HW120504   5.147   3.538   5.840
 6535SOL    HW220505   5.198   3.470   5.701
 6536SOL     OW20506   0.331   5.111   5.916
 6536SOL    HW120507   0.355   5.208   5.924
 6536SOL    HW220508   0.380   5.072   5.837
 6537SOL     OW20509   6.627   5.558   4.297
 6537SOL    HW120510   6.544   5.614   4.298
 6537SOL    HW220511   6.699   5.605   4.348
 6538SOL     OW20512   1.789   3.167   3.487
 6538SOL    HW120513   1.797   3.266   3.475
 6538SOL    HW220514   1.700   3.137   3.452
 6539SOL     OW20515   5.175   0.056   5.806
 6539SOL    HW120516   5.271   0.029   5.791
 6539SOL    HW220517   5.121   0.032   5.725
 6540SOL     OW20518   0.994   2.362   4.794
 6540SOL    HW120519   0.944   2.282   4.828
 6540SOL    HW220520   0.932   2.438   4.781
 6541SOL     OW20521   3.879   1.584   5.627
 6541SOL    HW120522   3.887   1.501   5.683
 6541SOL    HW220523   3.944   1.653   5.660
 6542SOL     OW20524   1.952   4.162   2.138
 6542SOL    HW120525   1.930   4.254   2.169
 6542SOL    HW220526   1.940   4.157   2.039
 6543SOL     OW20527   3.890   1.606   4.196
 6543SOL    HW120528   3.947   1.685   4.172
 6543SOL    HW220529   3.937   1.552   4.266
 6544SOL     OW20530   0.766   0.415   1.037
 6544SOL    HW120531   0.771   0.382   1.131
 6544SOL    HW220532   0.728   0.508   1.037
 6545SOL     OW20533   5.554   5.658   0.770
 6545SOL    HW120534   5.600   5.633   0.856
 6545SOL    HW220535   5.502   5.742   0.783
 6546SOL     OW20536   4.491   5.326   5.087
 6546SOL    HW120537   4.508   5.413   5.133
 6546SOL    HW220538   4.537   5.325   4.999
 6547SOL     OW20539   1.230   6.242   5.261
 6547SOL    HW120540   1.247   6.304   5.337
 6547SOL    HW220541   1.311   6.186   5.244
 6548SOL     OW20542   1.555   2.157   5.793
 6548SOL    HW120543   1.571   2.074   5.847
 6548SOL    HW220544   1.459   2.183   5.801
 6549SOL     OW20545   4.045   1.075   2.557
 6549SOL    HW120546   4.091   1.006   2.613
 6549SOL    HW220547   4.013   1.034   2.472
 6550SOL     OW20548   6.050   0.280   1.937
 6550SOL    HW120549   6.000   0.214   1.881
 6550SOL    HW220550   6.147   0.256   1.938
 6551SOL     OW20551   2.492   4.824   1.467
 6551SOL    HW120552   2.497   4.727   1.491
 6551SOL    HW220553   2.554   4.843   1.391
 6552SOL     OW20554   2.067   3.872   6.962
 6552SOL    HW120555   2.111   3.955   6.997
 6552SOL    HW220556   2.003   3.897   6.890
 6553SOL     OW20557   0.164   1.669   3.233
 6553SOL    HW120558   0.072   1.644   3.203
 6553SOL    HW220559   0.176   1.768   3.226
 6554SOL     OW20560   1.391   1.583   3.948
 6554SOL    HW120561   1.307   1.601   3.897
 6554SOL    HW220562   1.400   1.650   4.022
 6555SOL     OW20563   1.345   3.600   2.271
 6555SOL    HW120564   1.316   3.547   2.191
 6555SOL    HW220565   1.283   3.677   2.284
 6556SOL     OW20566   4.886   3.491   3.375
 6556SOL    HW120567   4.790   3.483   3.402
 6556SOL    HW220568   4.894   3.484   3.276
 6557SOL     OW20569   1.927   6.778   2.809
 6557SOL    HW120570   1.859   6.842   2.846
 6557SOL    HW220571   2.005   6.830   2.774
 6558SOL     OW20572   5.306   5.642   0.975
 6558SOL    HW120573   5.309   5.723   0.916
 6558SOL    HW220574   5.303   5.560   0.918
 6559SOL     OW20575   0.315   1.644   6.224
 6559SOL    HW120576   0.265   1.672   6.142
 6559SOL    HW220577   0.349   1.551   6.211
 6560SOL     OW20578   6.913   4.692   6.033
 6560SOL    HW120579   6.818   4.712   6.053
 6560SOL    HW220580   6.919   4.611   5.974
 6561SOL     OW20581   2.831   5.602   0.633
 6561SOL    HW120582   2.887   5.589   0.551
 6561SOL    HW220583   2.876   5.668   0.694
 6562SOL     OW20584   4.803   2.453   1.713
 6562SOL    HW120585   4.792   2.435   1.811
 6562SOL    HW220586   4.900   2.465   1.692
 6563SOL     OW20587   6.075   5.758   4.975
 6563SOL    HW120588   6.029   5.804   5.051
 6563SOL    HW220589   6.025   5.675   4.952
 6564SOL     OW20590   5.270   3.489   2.386
 6564SOL    HW120591   5.301   3.400   2.354
 6564SOL    HW220592   5.173   3.501   2.363
 6565SOL     OW20593   5.065   6.073   2.149
 6565SOL    HW120594   5.033   6.104   2.239
 6565SOL    HW220595   5.016   5.989   2.124
 6566SOL     OW20596   5.073   5.485   3.712
 6566SOL    HW120597   5.153   5.428   3.728
 6566SOL    HW220598   5.063   5.502   3.614
 6567SOL     OW20599   2.952   0.838   2.794
 6567SOL    HW120600   2.934   0.909   2.862
 6567SOL    HW220601   3.042   0.853   2.753
 6568SOL     OW20602   5.140   1.654   0.926
 6568SOL    HW120603   5.118   1.578   0.987
 6568SOL    HW220604   5.076   1.729   0.942
 6569SOL     OW20605   1.543   4.582   3.261
 6569SOL    HW120606   1.546   4.523   3.341
 6569SOL    HW220607   1.497   4.667   3.284
 6570SOL     OW20608   4.695   6.984   2.710
 6570SOL    HW120609   4.757   6.911   2.681
 6570SOL    HW220610   4.664   6.965   2.803
 6571SOL     OW20611   3.118   6.438   2.793
 6571SOL    HW120612   3.177   6.502   2.842
 6571SOL    HW220613   3.059   6.488   2.730
 6572SOL     OW20614   1.268   6.270   3.804
 6572SOL    HW120615   1.287   6.182   3.848
 6572SOL    HW220616   1.230   6.334   3.871
 6573SOL     OW20617   0.677   2.088   3.106
 6573SOL    HW120618   0.728   2.014   3.061
 6573SOL    HW220619   0.718   2.108   3.195
 6574SOL     OW20620   0.389   5.506   1.796
 6574SOL    HW120621   0.353   5.491   1.888
 6574SOL    HW220622   0.489   5.503   1.798
 6575SOL     OW20623   0.297   1.172   3.403
 6575SOL    HW120624   0.280   1.085   3.449
 6575SOL    HW220625   0.232   1.241   3.434
 6576SOL     OW20626   4.166   6.888   2.079
 6576SOL    HW120627   4.106   6.886   2.159
 6576SOL    HW220628   4.215   6.801   2.071
 6577SOL     OW20629   3.531   1.120   4.963
 6577SOL    HW120630   3.581   1.204   4.940
 6577SOL    HW220631   3.596   1.047   4.983
 6578SOL     OW20632   1.156   5.781   6.846
 6578SOL    HW120633   1.201   5.833   6.918
 6578SOL    HW220634   1.118   5.844   6.778
 6579SOL     OW20635   1.636   1.519   3.302
 6579SOL    HW120636   1.649   1.608   3.258
 6579SOL    HW220637   1.602   1.532   3.395
 6580SOL     OW20638   3.324   2.955   6.939
 6580SOL    HW120639   3.234   2.939   6.899
 6580SOL    HW220640   3.386   2.881   6.911
 6581SOL     OW20641   0.437   2.551   2.312
 6581SOL    HW120642   0.452   2.602   2.396
 6581SOL    HW220643   0.372   2.477   2.328
 6582SOL     OW20644   4.076   0.570   3.318
 6582SOL    HW120645   4.068   0.542   3.222
 6582SOL    HW220646   4.010   0.519   3.373
 6583SOL     OW20647   2.662   4.346   1.179
 6583SOL    HW120648   2.606   4.280   1.129
 6583SOL    HW220649   2.719   4.297   1.245
 6584SOL     OW20650   4.145   3.093   6.262
 6584SOL    HW120651   4.069   3.028   6.256
 6584SOL    HW220652   4.112   3.184   6.236
 6585SOL     OW20653   5.648   0.451   1.834
 6585SOL    HW120654   5.740   0.489   1.827
 6585SOL    HW220655   5.609   0.475   1.923
 6586SOL     OW20656   6.795   1.513   0.336
 6586SOL    HW120657   6.720   1.577   0.353
 6586SOL    HW220658   6.860   1.554   0.272
 6587SOL     OW20659   3.111   4.836   5.552
 6587SOL    HW120660   3.163   4.919   5.534
 6587SOL    HW220661   3.096   4.786   5.467
 6588SOL     OW20662   1.251   1.446   0.584
 6588SOL    HW120663   1.258   1.545   0.575
 6588SOL    HW220664   1.156   1.420   0.599
 6589SOL     OW20665   6.031   6.967   1.140
 6589SOL    HW120666   6.012   0.036   1.096
 6589SOL    HW220667   5.960   6.947   1.207
 6590SOL     OW20668   1.496   5.923   4.731
 6590SOL    HW120669   1.505   6.022   4.722
 6590SOL    HW220670   1.426   5.903   4.800
 6591SOL     OW20671   6.195   3.257   3.650
 6591SOL    HW120672   6.127   3.272   3.578
 6591SOL    HW220673   6.284   3.240   3.609
 6592SOL     OW20674   0.185   0.802   4.111
 6592SOL    HW120675   0.178   0.900   4.089
 6592SOL    HW220676   0.114   0.751   4.063
 6593SOL     OW20677   1.349   0.326   3.020
 6593SOL    HW120678   1.283   0.254   3.040
 6593SOL    HW220679   1.404   0.344   3.102
 6594SOL     OW20680   5.548   0.137   6.530
 6594SOL    HW120681   5.543   0.057   6.471
 6594SOL    HW220682   5.599   0.115   6.612
 6595SOL     OW20683   1.477   1.535   4.866
 6595SOL    HW120684   1.554   1.579   4.911
 6595SOL    HW220685   1.423   1.485   4.933
 6596SOL     OW20686   5.445   0.816   2.994
 6596SOL    HW120687   5.380   0.743   2.974
 6596SOL    HW220688   5.397   0.893   3.036
 6597SOL     OW20689   1.011   5.165   1.276
 6597SOL    HW120690   0.915   5.155   1.249
 6597SOL    HW220691   1.027   5.258   1.310
 6598SOL     OW20692   1.360   5.489   1.725
 6598SOL    HW120693   1.308   5.415   1.683
 6598SOL    HW220694   1.433   5.450   1.781
 6599SOL     OW20695   0.812   5.686   6.454
 6599SOL    HW120696   0.891   5.746   6.450
 6599SOL    HW220697   0.784   5.660   6.362
 6600SOL     OW20698   4.239   6.345   4.752
 6600SOL    HW120699   4.144   6.372   4.770
 6600SOL    HW220700   4.241   6.253   4.712
 6601SOL     OW20701   1.134   3.026   2.500
 6601SOL    HW120702   1.233   3.016   2.509
 6601SOL    HW220703   1.111   3.050   2.406
 6602SOL     OW20704   5.873   6.138   0.325
 6602SOL    HW120705   5.947   6.085   0.368
 6602SOL    HW220706   5.820   6.079   0.265
 6603SOL     OW20707   0.295   4.581   2.354
 6603SOL    HW120708   0.274   4.657   2.292
 6603SOL    HW220709   0.234   4.504   2.335
 6604SOL     OW20710   1.603   5.274   2.407
 6604SOL    HW120711   1.690   5.258   2.360
 6604SOL    HW220712   1.530   5.226   2.360
 6605SOL     OW20713   6.916   5.000   1.479
 6605SOL    HW120714   6.859   5.065   1.529
 6605SOL    HW220715   6.894   4.907   1.508
 6606SOL     OW20716   1.363   4.478   2.973
 6606SOL    HW120717   1.294   4.422   2.926
 6606SOL    HW220718   1.441   4.420   2.999
 6607SOL     OW20719   6.464   3.486   4.068
 6607SOL    HW120720   6.455   3.432   3.984
 6607SOL    HW220721   6.373   3.507   4.103
 6608SOL     OW20722   1.429   0.378   5.184
 6608SOL    HW120723   1.357   0.429   5.231
 6608SOL    HW220724   1.495   0.442   5.144
 6609SOL     OW20725   3.187   2.416   0.110
 6609SOL    HW120726   3.158   2.323   0.089
 6609SOL    HW220727   3.156   2.478   0.037
 6610SOL     OW20728   3.314   6.362   1.194
 6610SOL    HW120729   3.346   6.422   1.121
 6610SOL    HW220730   3.389   6.304   1.225
 6611SOL     OW20731   3.033   1.497   4.370
 6611SOL    HW120732   3.058   1.465   4.279
 6611SOL    HW220733   3.069   1.590   4.384
 6612SOL     OW20734   6.985   0.390   6.991
 6612SOL    HW120735   0.034   0.446   0.021
 6612SOL    HW220736   6.958   0.313   0.029
 6613SOL     OW20737   4.152   6.785   1.409
 6613SOL    HW120738   4.238   6.736   1.423
 6613SOL    HW220739   4.122   6.770   1.315
 6614SOL     OW20740   3.636   4.286   0.925
 6614SOL    HW120741   3.661   4.243   1.012
 6614SOL    HW220742   3.587   4.371   0.942
 6615SOL     OW20743   3.067   6.105   5.792
 6615SOL    HW120744   3.038   6.009   5.794
 6615SOL    HW220745   2.993   6.161   5.756
 6616SOL     OW20746   4.073   2.049   6.602
 6616SOL    HW120747   4.089   2.079   6.508
 6616SOL    HW220748   3.975   2.035   6.617
 6617SOL     OW20749   3.381   1.636   4.215
 6617SOL    HW120750   3.458   1.581   4.248
 6617SOL    HW220751   3.391   1.650   4.116
 6618SOL     OW20752   5.775   3.428   3.543
 6618SOL    HW120753   5.858   3.396   3.496
 6618SOL    HW220754   5.701   3.439   3.478
 6619SOL     OW20755   4.662   5.240   4.067
 6619SOL    HW120756   4.631   5.297   3.990
 6619SOL    HW220757   4.586   5.185   4.100
 6620SOL     OW20758   1.155   2.689   3.166
 6620SOL    HW120759   1.058   2.670   3.150
 6620SOL    HW220760   1.197   2.611   3.214
 6621SOL     OW20761   3.238   3.639   3.592
 6621SOL    HW120762   3.143   3.628   3.563
 6621SOL    HW220763   3.241   3.654   3.691
 6622SOL     OW20764   0.066   5.002   1.778
 6622SOL    HW120765   6.998   4.953   1.788
 6622SOL    HW220766   0.139   4.936   1.757
 6623SOL     OW20767   3.386   3.336   3.934
 6623SOL    HW120768   3.388   3.423   3.982
 6623SOL    HW220769   3.480   3.304   3.919
 6624SOL     OW20770   2.655   2.381   2.770
 6624SOL    HW120771   2.618   2.402   2.680
 6624SOL    HW220772   2.752   2.358   2.761
 6625SOL     OW20773   6.940   4.606   5.415
 6625SOL    HW120774   6.954   4.567   5.324
 6625SOL    HW220775   6.962   4.704   5.413
 6626SOL     OW20776   3.345   5.926   5.601
 6626SOL    HW120777   3.338   5.904   5.698
 6626SOL    HW220778   3.261   5.897   5.554
 6627SOL     OW20779   2.442   6.462   4.553
 6627SOL    HW120780   2.383   6.389   4.588
 6627SOL    HW220781   2.390   6.520   4.490
 6628SOL     OW20782   3.921   0.404   3.467
 6628SOL    HW120783   3.920   0.350   3.551
 6628SOL    HW220784   3.832   0.450   3.456
 6629SOL     OW20785   4.875   6.003   4.808
 6629SOL    HW120786   4.801   6.033   4.868
 6629SOL    HW220787   4.947   6.072   4.807
 6630SOL     OW20788   2.084   6.978   0.446
 6630SOL    HW120789   2.112   6.959   0.540
 6630SOL    HW220790   1.986   7.000   0.445
 6631SOL     OW20791   1.543   2.254   5.530
 6631SOL    HW120792   1.574   2.209   5.614
 6631SOL    HW220793   1.609   2.237   5.457
 6632SOL     OW20794   1.289   0.329   6.348
 6632SOL    HW120795   1.211   0.380   6.312
 6632SOL    HW220796   1.258   0.265   6.417
 6633SOL     OW20797   4.851   6.633   6.393
 6633SOL    HW120798   4.821   6.573   6.319
 6633SOL    HW220799   4.825   6.728   6.372
 6634SOL     OW20800   2.800   2.234   4.338
 6634SOL    HW120801   2.743   2.293   4.281
 6634SOL    HW220802   2.887   2.216   4.291
 6635SOL     OW20803   5.109   5.716   6.038
 6635SOL    HW120804   5.139   5.805   6.072
 6635SOL    HW220805   5.145   5.644   6.096
 6636SOL     OW20806   3.982   1.355   1.005
 6636SOL    HW120807   4.052   1.416   0.968
 6636SOL    HW220808   4.010   1.322   1.095
 6637SOL     OW20809   0.031   2.251   0.035
 6637SOL    HW120810   0.004   2.299   6.970
 6637SOL    HW220811   6.995   2.169   0.046
 6638SOL     OW20812   2.877   3.644   3.835
 6638SOL    HW120813   2.858   3.638   3.737
 6638SOL    HW220814   2.879   3.553   3.874
 6639SOL     OW20815   4.557   2.850   1.242
 6639SOL    HW120816   4.588   2.758   1.265
 6639SOL    HW220817   4.539   2.856   1.144
 6640SOL     OW20818   1.059   3.572   4.486
 6640SOL    HW120819   1.149   3.582   4.529
 6640SOL    HW220820   1.045   3.646   4.420
 6641SOL     OW20821   5.616   2.501   6.918
 6641SOL    HW120822   5.695   2.554   6.949
 6641SOL    HW220823   5.532   2.546   6.949
 6642SOL     OW20824   1.266   4.977   6.064
 6642SOL    HW120825   1.223   4.983   6.154
 6642SOL    HW220826   1.275   4.881   6.037
 6643SOL     OW20827   4.247   5.715   5.991
 6643SOL    HW120828   4.197   5.629   5.979
 6643SOL    HW220829   4.283   5.720   6.084
 6644SOL     OW20830   2.063   0.218   3.763
 6644SOL    HW120831   1.986   0.154   3.764
 6644SOL    HW220832   2.106   0.217   3.672
 6645SOL     OW20833   4.970   2.346   5.145
 6645SOL    HW120834   4.947   2.383   5.235
 6645SOL    HW220835   4.912   2.388   5.075
 6646SOL     OW20836   4.943   0.456   6.486
 6646SOL    HW120837   4.869   0.392   6.469
 6646SOL    HW220838   5.031   0.410   6.468
 6647SOL     OW20839   4.083   4.755   1.117
 6647SOL    HW120840   4.073   4.663   1.080
 6647SOL    HW220841   4.079   4.822   1.042
 6648SOL     OW20842   3.233   5.605   5.499
 6648SOL    HW120843   3.285   5.532   5.454
 6648SOL    HW220844   3.154   5.565   5.545
 6649SOL     OW20845   5.338   2.400   5.956
 6649SOL    HW120846   5.330   2.361   6.048
 6649SOL    HW220847   5.266   2.469   5.944
 6650SOL     OW20848   2.799   1.332   4.814
 6650SOL    HW120849   2.789   1.254   4.875
 6650SOL    HW220850   2.891   1.370   4.825
 6651SOL     OW20851   6.997   1.142   3.805
 6651SOL    HW120852   0.018   1.231   3.785
 6651SOL    HW220853   7.011   1.082   3.726
 6652SOL     OW20854   6.960   4.834   6.691
 6652SOL    HW120855   0.031   4.826   6.648
 6652SOL    HW220856   6.896   4.773   6.645
 6653SOL     OW20857   5.449   4.069   6.849
 6653SOL    HW120858   5.385   4.102   6.919
 6653SOL    HW220859   5.400   4.051   6.764
 6654SOL     OW20860   6.718   2.065   3.153
 6654SOL    HW120861   6.627   2.057   3.114
 6654SOL    HW220862   6.772   2.131   3.100
 6655SOL     OW20863   6.977   6.016   1.454
 6655SOL    HW120864   6.936   6.033   1.364
 6655SOL    HW220865   0.055   5.995   1.443
 6656SOL     OW20866   4.757   1.175   2.294
 6656SOL    HW120867   4.672   1.145   2.337
 6656SOL    HW220868   4.780   1.267   2.325
 6657SOL     OW20869   4.669   2.192   4.730
 6657SOL    HW120870   4.626   2.282   4.745
 6657SOL    HW220871   4.768   2.201   4.736
 6658SOL     OW20872   6.622   5.815   4.816
 6658SOL    HW120873   6.632   5.823   4.915
 6658SOL    HW220874   6.647   5.901   4.773
 6659SOL     OW20875   0.368   6.076   0.805
 6659SOL    HW120876   0.342   6.087   0.901
 6659SOL    HW220877   0.309   6.135   0.748
 6660SOL     OW20878   0.971   0.012   4.172
 6660SOL    HW120879   0.946   0.079   4.242
 6660SOL    HW220880   1.034   6.964   4.211
 6661SOL     OW20881   4.225   6.661   3.980
 6661SOL    HW120882   4.319   6.671   3.947
 6661SOL    HW220883   4.189   6.750   4.007
 6662SOL     OW20884   3.516   6.783   2.226
 6662SOL    HW120885   3.574   6.728   2.285
 6662SOL    HW220886   3.533   6.758   2.130
 6663SOL     OW20887   1.575   4.158   5.621
 6663SOL    HW120888   1.592   4.233   5.557
 6663SOL    HW220889   1.526   4.085   5.573
 6664SOL     OW20890   2.988   0.297   2.171
 6664SOL    HW120891   3.084   0.326   2.168
 6664SOL    HW220892   2.979   0.222   2.238
 6665SOL     OW20893   2.649   0.877   0.525
 6665SOL    HW120894   2.724   0.884   0.591
 6665SOL    HW220895   2.638   0.782   0.496
 6666SOL     OW20896   2.809   5.886   5.794
 6666SOL    HW120897   2.804   5.811   5.728
 6666SOL    HW220898   2.898   5.884   5.841
 6667SOL     OW20899   2.032   5.710   0.417
 6667SOL    HW120900   2.126   5.739   0.432
 6667SOL    HW220901   2.018   5.619   0.456
 6668SOL     OW20902   0.155   3.470   5.962
 6668SOL    HW120903   0.155   3.519   6.049
 6668SOL    HW220904   0.085   3.510   5.902
 6669SOL     OW20905   0.626   3.223   3.232
 6669SOL    HW120906   0.672   3.172   3.305
 6669SOL    HW220907   0.645   3.179   3.144
 6670SOL     OW20908   2.728   3.932   0.464
 6670SOL    HW120909   2.765   4.022   0.486
 6670SOL    HW220910   2.642   3.943   0.414
 6671SOL     OW20911   4.640   4.859   0.585
 6671SOL    HW120912   4.648   4.945   0.634
 6671SOL    HW220913   4.694   4.789   0.632
 6672SOL     OW20914   1.997   2.519   1.482
 6672SOL    HW120915   2.065   2.478   1.543
 6672SOL    HW220916   1.906   2.509   1.523
 6673SOL     OW20917   5.759   3.757   4.003
 6673SOL    HW120918   5.808   3.717   3.925
 6673SOL    HW220919   5.825   3.794   4.068
 6674SOL     OW20920   6.878   0.434   0.365
 6674SOL    HW120921   6.931   0.511   0.331
 6674SOL    HW220922   6.790   0.431   0.317
 6675SOL     OW20923   4.518   1.188   0.568
 6675SOL    HW120924   4.485   1.094   0.561
 6675SOL    HW220925   4.537   1.223   0.476
 6676SOL     OW20926   0.707   4.243   5.081
 6676SOL    HW120927   0.646   4.219   5.157
 6676SOL    HW220928   0.652   4.270   5.002
 6677SOL     OW20929   0.369   2.222   6.846
 6677SOL    HW120930   0.420   2.195   6.764
 6677SOL    HW220931   0.309   2.147   6.874
 6678SOL     OW20932   2.642   4.418   6.757
 6678SOL    HW120933   2.722   4.388   6.703
 6678SOL    HW220934   2.559   4.406   6.702
 6679SOL     OW20935   1.294   0.455   4.423
 6679SOL    HW120936   1.323   0.370   4.467
 6679SOL    HW220937   1.288   0.527   4.491
 6680SOL     OW20938   6.125   5.219   1.970
 6680SOL    HW120939   6.180   5.189   1.892
 6680SOL    HW220940   6.080   5.305   1.948
 6681SOL     OW20941   3.278   5.543   0.878
 6681SOL    HW120942   3.236   5.557   0.788
 6681SOL    HW220943   3.246   5.456   0.916
 6682SOL     OW20944   2.422   5.213   6.370
 6682SOL    HW120945   2.453   5.195   6.464
 6682SOL    HW220946   2.378   5.132   6.334
 6683SOL     OW20947   6.412   6.228   6.165
 6683SOL    HW120948   6.316   6.224   6.139
 6683SOL    HW220949   6.421   6.266   6.257
 6684SOL     OW20950   2.692   6.279   6.015
 6684SOL    HW120951   2.663   6.327   6.097
 6684SOL    HW220952   2.617   6.280   5.948
 6685SOL     OW20953   3.750   2.372   0.638
 6685SOL    HW120954   3.651   2.377   0.636
 6685SOL    HW220955   3.789   2.464   0.628
 6686SOL     OW20956   4.505   4.865   5.373
 6686SOL    HW120957   4.451   4.863   5.289
 6686SOL    HW220958   4.595   4.825   5.356
 6687SOL     OW20959   0.538   2.166   1.186
 6687SOL    HW120960   0.476   2.228   1.234
 6687SOL    HW220961   0.630   2.174   1.224
 6688SOL     OW20962   5.071   5.321   0.800
 6688SOL    HW120963   4.979   5.341   0.832
 6688SOL    HW220964   5.077   5.342   0.702
 6689SOL     OW20965   3.279   5.075   6.243
 6689SOL    HW120966   3.246   5.169   6.255
 6689SOL    HW220967   3.361   5.060   6.298
 6690SOL     OW20968   1.129   0.405   0.579
 6690SOL    HW120969   1.152   0.354   0.496
 6690SOL    HW220970   1.036   0.441   0.571
 6691SOL     OW20971   2.876   1.853   2.244
 6691SOL    HW120972   2.918   1.899   2.166
 6691SOL    HW220973   2.840   1.765   2.215
 6692SOL     OW20974   4.338   6.645   2.110
 6692SOL    HW120975   4.304   6.613   2.021
 6692SOL    HW220976   4.301   6.587   2.182
 6693SOL     OW20977   3.353   1.396   5.745
 6693SOL    HW120978   3.356   1.460   5.669
 6693SOL    HW220979   3.304   1.313   5.718
 6694SOL     OW20980   4.489   3.999   1.496
 6694SOL    HW120981   4.496   3.957   1.586
 6694SOL    HW220982   4.490   4.099   1.505
 6695SOL     OW20983   2.882   2.647   0.418
 6695SOL    HW120984   2.945   2.605   0.484
 6695SOL    HW220985   2.930   2.718   0.367
 6696SOL     OW20986   3.880   3.104   5.335
 6696SOL    HW120987   3.818   3.115   5.412
 6696SOL    HW220988   3.836   3.046   5.265
 6697SOL     OW20989   4.586   2.222   2.505
 6697SOL    HW120990   4.596   2.125   2.482
 6697SOL    HW220991   4.505   2.258   2.459
 6698SOL     OW20992   2.608   3.711   1.706
 6698SOL    HW120993   2.690   3.762   1.732
 6698SOL    HW220994   2.535   3.775   1.684
 6699SOL     OW20995   1.734   3.024   6.513
 6699SOL    HW120996   1.742   3.068   6.603
 6699SOL    HW220997   1.724   3.093   6.442
 6700SOL     OW20998   5.657   0.964   1.207
 6700SOL    HW120999   5.603   0.926   1.131
 6700SOL    HW221000   5.601   0.964   1.290
 6701SOL     OW21001   5.746   0.313   1.605
 6701SOL    HW121002   5.680   0.351   1.540
 6701SOL    HW221003   5.731   0.354   1.695
 6702SOL     OW21004   4.127   2.793   1.080
 6702SOL    HW121005   4.156   2.847   1.159
 6702SOL    HW221006   4.147   2.696   1.097
 6703SOL     OW21007   0.835   1.451   0.243
 6703SOL    HW121008   0.886   1.477   0.161
 6703SOL    HW221009   0.824   1.531   0.303
 6704SOL     OW21010   3.113   6.894   5.551
 6704SOL    HW121011   3.147   6.975   5.598
 6704SOL    HW221012   3.190   6.839   5.519
 6705SOL     OW21013   0.268   4.796   2.150
 6705SOL    HW121014   0.198   4.799   2.078
 6705SOL    HW221015   0.344   4.738   2.120
 6706SOL     OW21016   6.824   6.017   0.369
 6706SOL    HW121017   6.892   5.973   0.427
 6706SOL    HW221018   6.867   6.047   0.284
 6707SOL     OW21019   4.466   1.289   2.796
 6707SOL    HW121020   4.369   1.301   2.815
 6707SOL    HW221021   4.478   1.211   2.734
 6708SOL     OW21022   0.332   2.826   0.626
 6708SOL    HW121023   0.308   2.911   0.674
 6708SOL    HW221024   0.321   2.840   0.527
 6709SOL     OW21025   2.380   4.299   1.924
 6709SOL    HW121026   2.362   4.306   2.022
 6709SOL    HW221027   2.460   4.356   1.902
 6710SOL     OW21028   4.572   1.892   1.200
 6710SOL    HW121029   4.529   1.971   1.243
 6710SOL    HW221030   4.671   1.907   1.194
 6711SOL     OW21031   4.159   5.781   6.340
 6711SOL    HW121032   4.082   5.724   6.315
 6711SOL    HW221033   4.173   5.851   6.270
 6712SOL     OW21034   5.233   3.818   1.269
 6712SOL    HW121035   5.309   3.863   1.316
 6712SOL    HW221036   5.154   3.814   1.329
 6713SOL     OW21037   1.775   4.248   4.209
 6713SOL    HW121038   1.745   4.255   4.304
 6713SOL    HW221039   1.766   4.154   4.178
 6714SOL     OW21040   5.483   1.359   2.133
 6714SOL    HW121041   5.514   1.264   2.126
 6714SOL    HW221042   5.403   1.372   2.074
 6715SOL     OW21043   0.931   0.286   5.867
 6715SOL    HW121044   0.897   0.332   5.950
 6715SOL    HW221045   0.978   0.202   5.892
 6716SOL     OW21046   1.219   4.896   1.671
 6716SOL    HW121047   1.144   4.872   1.608
 6716SOL    HW221048   1.307   4.881   1.626
 6717SOL     OW21049   6.704   2.410   5.442
 6717SOL    HW121050   6.621   2.390   5.493
 6717SOL    HW221051   6.706   2.355   5.359
 6718SOL     OW21052   4.586   2.096   0.956
 6718SOL    HW121053   4.654   2.070   1.025
 6718SOL    HW221054   4.622   2.076   0.865
 6719SOL     OW21055   1.722   1.127   0.601
 6719SOL    HW121056   1.675   1.039   0.588
 6719SOL    HW221057   1.661   1.201   0.574
 6720SOL     OW21058   1.485   1.627   5.332
 6720SOL    HW121059   1.450   1.676   5.252
 6720SOL    HW221060   1.462   1.530   5.326
 6721SOL     OW21061   6.515   6.416   0.356
 6721SOL    HW121062   6.538   6.383   0.448
 6721SOL    HW221063   6.581   6.486   0.329
 6722SOL     OW21064   6.132   4.968   1.003
 6722SOL    HW121065   6.048   5.022   1.000
 6722SOL    HW221066   6.115   4.879   0.959
 6723SOL     OW21067   1.682   3.058   4.381
 6723SOL    HW121068   1.677   3.149   4.341
 6723SOL    HW221069   1.590   3.026   4.403
 6724SOL     OW21070   1.751   3.631   4.641
 6724SOL    HW121071   1.705   3.663   4.559
 6724SOL    HW221072   1.850   3.635   4.628
 6725SOL     OW21073   4.895   3.243   4.244
 6725SOL    HW121074   4.835   3.268   4.167
 6725SOL    HW221075   4.990   3.240   4.212
 6726SOL     OW21076   0.067   1.440   6.745
 6726SOL    HW121077   7.004   1.389   6.772
 6726SOL    HW221078   0.070   1.526   6.795
 6727SOL     OW21079   0.606   5.272   5.265
 6727SOL    HW121080   0.574   5.246   5.173
 6727SOL    HW221081   0.532   5.257   5.331
 6728SOL     OW21082   3.589   1.116   4.344
 6728SOL    HW121083   3.552   1.150   4.430
 6728SOL    HW221084   3.582   1.187   4.274
 6729SOL     OW21085   4.324   1.133   1.904
 6729SOL    HW121086   4.295   1.216   1.951
 6729SOL    HW221087   4.264   1.057   1.928
 6730SOL     OW21088   0.607   1.693   0.894
 6730SOL    HW121089   0.658   1.764   0.845
 6730SOL    HW221090   0.526   1.668   0.842
 6731SOL     OW21091   3.996   0.290   6.425
 6731SOL    HW121092   3.939   0.288   6.343
 6731SOL    HW221093   4.051   0.207   6.430
 6732SOL     OW21094   6.270   5.145   5.545
 6732SOL    HW121095   6.299   5.141   5.641
 6732SOL    HW221096   6.320   5.076   5.492
 6733SOL     OW21097   4.952   5.284   5.248
 6733SOL    HW121098   4.924   5.275   5.153
 6733SOL    HW221099   4.871   5.285   5.307
 6734SOL     OW21100   5.825   2.407   4.986
 6734SOL    HW121101   5.840   2.403   4.887
 6734SOL    HW221102   5.731   2.382   5.007
 6735SOL     OW21103   5.362   2.999   4.418
 6735SOL    HW121104   5.391   3.094   4.415
 6735SOL    HW221105   5.431   2.941   4.373
 6736SOL     OW21106   3.474   3.974   0.482
 6736SOL    HW121107   3.514   4.051   0.531
 6736SOL    HW221108   3.518   3.889   0.513
 6737SOL     OW21109   5.952   3.674   0.703
 6737SOL    HW121110   5.993   3.753   0.657
 6737SOL    HW221111   6.019   3.635   0.766
 6738SOL     OW21112   2.272   6.640   4.433
 6738SOL    HW121113   2.333   6.719   4.423
 6738SOL    HW221114   2.188   6.670   4.479
 6739SOL     OW21115   6.860   0.057   6.050
 6739SOL    HW121116   6.924   7.001   6.035
 6739SOL    HW221117   6.864   0.120   5.973
 6740SOL     OW21118   0.493   6.752   2.050
 6740SOL    HW121119   0.513   6.734   2.146
 6740SOL    HW221120   0.436   6.833   2.042
 6741SOL     OW21121   3.424   1.812   0.630
 6741SOL    HW121122   3.451   1.907   0.613
 6741SOL    HW221123   3.343   1.790   0.577
 6742SOL     OW21124   6.565   4.383   2.434
 6742SOL    HW121125   6.602   4.453   2.372
 6742SOL    HW221126   6.543   4.301   2.382
 6743SOL     OW21127   3.782   3.771   0.109
 6743SOL    HW121128   3.763   3.869   0.099
 6743SOL    HW221129   3.776   3.727   0.019
 6744SOL     OW21130   6.630   6.866   5.887
 6744SOL    HW121131   6.717   6.817   5.887
 6744SOL    HW221132   6.586   6.856   5.976
 6745SOL     OW21133   6.135   3.660   5.564
 6745SOL    HW121134   6.233   3.646   5.570
 6745SOL    HW221135   6.116   3.745   5.516
 6746SOL     OW21136   1.214   2.383   2.856
 6746SOL    HW121137   1.274   2.313   2.817
 6746SOL    HW221138   1.146   2.340   2.915
 6747SOL     OW21139   1.533   6.202   4.755
 6747SOL    HW121140   1.560   6.232   4.846
 6747SOL    HW221141   1.434   6.211   4.745
 6748SOL     OW21142   1.752   1.499   4.619
 6748SOL    HW121143   1.765   1.579   4.678
 6748SOL    HW221144   1.836   1.445   4.618
 6749SOL     OW21145   4.051   5.047   2.259
 6749SOL    HW121146   3.970   5.002   2.221
 6749SOL    HW221147   4.101   5.094   2.186
 6750SOL     OW21148   3.759   0.960   5.714
 6750SOL    HW121149   3.789   0.951   5.809
 6750SOL    HW221150   3.667   0.998   5.711
 6751SOL     OW21151   4.329   0.963   4.409
 6751SOL    HW121152   4.319   1.017   4.326
 6751SOL    HW221153   4.342   1.024   4.487
 6752SOL     OW21154   2.104   4.913   2.577
 6752SOL    HW121155   2.058   4.946   2.659
 6752SOL    HW221156   2.066   4.824   2.552
 6753SOL     OW21157   3.405   4.307   0.402
 6753SOL    HW121158   3.451   4.325   0.489
 6753SOL    HW221159   3.473   4.301   0.329
 6754SOL     OW21160   6.398   1.201   0.373
 6754SOL    HW121161   6.347   1.274   0.329
 6754SOL    HW221162   6.375   1.114   0.330
 6755SOL     OW21163   3.656   5.871   5.621
 6755SOL    HW121164   3.689   5.924   5.700
 6755SOL    HW221165   3.556   5.872   5.620
 6756SOL     OW21166   3.797   3.202   6.047
 6756SOL    HW121167   3.840   3.235   6.131
 6756SOL    HW221168   3.776   3.279   5.987
 6757SOL     OW21169   4.504   6.994   1.518
 6757SOL    HW121170   4.522   6.904   1.558
 6757SOL    HW221171   4.429   6.987   1.453
 6758SOL     OW21172   5.317   3.539   3.077
 6758SOL    HW121173   5.330   3.446   3.043
 6758SOL    HW221174   5.245   3.584   3.024
 6759SOL     OW21175   1.413   1.643   2.438
 6759SOL    HW121176   1.398   1.546   2.418
 6759SOL    HW221177   1.410   1.657   2.537
 6760SOL     OW21178   5.733   1.881   5.532
 6760SOL    HW121179   5.746   1.953   5.463
 6760SOL    HW221180   5.700   1.798   5.488
 6761SOL     OW21181   3.098   0.845   5.289
 6761SOL    HW121182   3.057   0.854   5.198
 6761SOL    HW221183   3.197   0.850   5.281
 6762SOL     OW21184   5.877   4.732   4.316
 6762SOL    HW121185   5.944   4.667   4.352
 6762SOL    HW221186   5.916   4.824   4.316
 6763SOL     OW21187   5.819   6.841   4.217
 6763SOL    HW121188   5.908   6.815   4.180
 6763SOL    HW221189   5.751   6.845   4.144
 6764SOL     OW21190   0.453   5.051   1.730
 6764SOL    HW121191   0.429   4.970   1.677
 6764SOL    HW221192   0.384   5.067   1.800
 6765SOL     OW21193   0.266   4.046   2.277
 6765SOL    HW121194   0.312   4.003   2.355
 6765SOL    HW221195   0.219   3.975   2.224
 6766SOL     OW21196   6.082   0.261   0.877
 6766SOL    HW121197   6.008   0.213   0.924
 6766SOL    HW221198   6.131   0.319   0.942
 6767SOL     OW21199   3.302   0.580   1.449
 6767SOL    HW121200   3.295   0.663   1.505
 6767SOL    HW221201   3.222   0.523   1.464
 6768SOL     OW21202   2.083   6.890   6.924
 6768SOL    HW121203   2.025   6.843   6.991
 6768SOL    HW221204   2.171   6.911   6.966
 6769SOL     OW21205   4.698   3.164   1.134
 6769SOL    HW121206   4.689   3.238   1.067
 6769SOL    HW221207   4.608   3.142   1.172
 6770SOL     OW21208   6.979   1.558   1.776
 6770SOL    HW121209   0.057   1.570   1.795
 6770SOL    HW221210   6.940   1.493   1.841
 6771SOL     OW21211   4.939   1.760   3.380
 6771SOL    HW121212   4.903   1.705   3.456
 6771SOL    HW221213   5.027   1.800   3.407
 6772SOL     OW21214   3.444   1.846   4.457
 6772SOL    HW121215   3.448   1.812   4.364
 6772SOL    HW221216   3.355   1.823   4.497
 6773SOL     OW21217   0.577   3.944   1.428
 6773SOL    HW121218   0.609   3.894   1.509
 6773SOL    HW221219   0.614   4.037   1.429
 6774SOL     OW21220   1.099   2.160   6.417
 6774SOL    HW121221   1.008   2.193   6.393
 6774SOL    HW221222   1.090   2.083   6.480
 6775SOL     OW21223   0.831   3.859   6.808
 6775SOL    HW121224   0.864   3.795   6.878
 6775SOL    HW221225   0.845   3.819   6.718
 6776SOL     OW21226   5.837   5.980   6.725
 6776SOL    HW121227   5.800   6.001   6.816
 6776SOL    HW221228   5.869   6.065   6.683
 6777SOL     OW21229   4.731   5.128   6.682
 6777SOL    HW121230   4.825   5.098   6.670
 6777SOL    HW221231   4.695   5.163   6.595
 6778SOL     OW21232   6.416   6.038   3.362
 6778SOL    HW121233   6.385   6.070   3.273
 6778SOL    HW221234   6.352   6.067   3.433
 6779SOL     OW21235   6.013   3.848   6.177
 6779SOL    HW121236   5.937   3.787   6.201
 6779SOL    HW221237   5.984   3.943   6.194
 6780SOL     OW21238   0.641   3.263   1.542
 6780SOL    HW121239   0.719   3.326   1.537
 6780SOL    HW221240   0.659   3.194   1.612
 6781SOL     OW21241   5.801   5.118   5.707
 6781SOL    HW121242   5.800   5.201   5.651
 6781SOL    HW221243   5.855   5.135   5.790
 6782SOL     OW21244   5.695   0.809   3.285
 6782SOL    HW121245   5.673   0.747   3.361
 6782SOL    HW221246   5.614   0.862   3.260
 6783SOL     OW21247   1.038   5.909   6.637
 6783SOL    HW121248   0.941   5.924   6.659
 6783SOL    HW221249   1.045   5.839   6.566
 6784SOL     OW21250   4.159   3.327   0.184
 6784SOL    HW121251   4.070   3.282   0.178
 6784SOL    HW221252   4.226   3.279   0.128
 6785SOL     OW21253   6.075   5.209   2.277
 6785SOL    HW121254   6.116   5.251   2.358
 6785SOL    HW221255   6.105   5.258   2.195
 6786SOL     OW21256   1.740   3.589   5.840
 6786SOL    HW121257   1.840   3.587   5.843
 6786SOL    HW221258   1.705   3.598   5.934
 6787SOL     OW21259   1.128   3.978   1.183
 6787SOL    HW121260   1.069   3.988   1.263
 6787SOL    HW221261   1.224   3.973   1.212
 6788SOL     OW21262   2.549   4.152   1.011
 6788SOL    HW121263   2.504   4.144   0.922
 6788SOL    HW221264   2.641   4.113   1.006
 6789SOL     OW21265   0.973   5.432   3.341
 6789SOL    HW121266   1.071   5.428   3.357
 6789SOL    HW221267   0.935   5.340   3.344
 6790SOL     OW21268   1.222   2.473   1.034
 6790SOL    HW121269   1.222   2.568   1.065
 6790SOL    HW221270   1.280   2.419   1.095
 6791SOL     OW21271   3.131   3.722   6.071
 6791SOL    HW121272   3.128   3.651   6.000
 6791SOL    HW221273   3.226   3.743   6.093
 6792SOL     OW21274   0.405   4.710   0.272
 6792SOL    HW121275   0.306   4.698   0.259
 6792SOL    HW221276   0.437   4.787   0.217
 6793SOL     OW21277   5.921   1.375   1.689
 6793SOL    HW121278   5.875   1.452   1.733
 6793SOL    HW221279   5.901   1.376   1.591
 6794SOL     OW21280   4.031   1.434   4.362
 6794SOL    HW121281   4.018   1.346   4.316
 6794SOL    HW221282   4.018   1.422   4.460
 6795SOL     OW21283   3.611   6.308   6.944
 6795SOL    HW121284   3.522   6.345   6.917
 6795SOL    HW221285   3.684   6.366   6.909
 6796SOL     OW21286   3.922   1.950   3.193
 6796SOL    HW121287   3.932   1.989   3.101
 6796SOL    HW221288   3.964   2.012   3.259
 6797SOL     OW21289   6.744   2.266   2.053
 6797SOL    HW121290   6.831   2.227   2.021
 6797SOL    HW221291   6.693   2.301   1.974
 6798SOL     OW21292   6.723   0.177   2.409
 6798SOL    HW121293   6.805   0.147   2.456
 6798SOL    HW221294   6.746   0.208   2.316
 6799SOL     OW21295   5.198   5.761   1.902
 6799SOL    HW121296   5.202   5.668   1.939
 6799SOL    HW221297   5.278   5.813   1.933
 6800SOL     OW21298   3.408   3.939   6.970
 6800SOL    HW121299   3.447   3.846   6.966
 6800SOL    HW221300   3.321   3.940   6.922
 6801SOL     OW21301   0.914   2.910   2.814
 6801SOL    HW121302   0.894   2.954   2.902
 6801SOL    HW221303   0.835   2.919   2.753
 6802SOL     OW21304   2.662   4.648   2.681
 6802SOL    HW121305   2.601   4.572   2.660
 6802SOL    HW221306   2.696   4.689   2.597
 6803SOL     OW21307   3.673   2.562   1.058
 6803SOL    HW121308   3.724   2.646   1.038
 6803SOL    HW221309   3.608   2.544   0.984
 6804SOL     OW21310   1.171   6.798   3.792
 6804SOL    HW121311   1.116   6.717   3.776
 6804SOL    HW221312   1.124   6.857   3.858
 6805SOL     OW21313   6.030   1.144   5.385
 6805SOL    HW121314   6.030   1.210   5.461
 6805SOL    HW221315   5.941   1.146   5.340
 6806SOL     OW21316   5.386   6.500   5.083
 6806SOL    HW121317   5.349   6.593   5.082
 6806SOL    HW221318   5.485   6.504   5.080
 6807SOL     OW21319   3.322   3.488   6.685
 6807SOL    HW121320   3.287   3.540   6.763
 6807SOL    HW221321   3.307   3.541   6.601
 6808SOL     OW21322   2.136   3.344   3.715
 6808SOL    HW121323   2.126   3.433   3.759
 6808SOL    HW221324   2.180   3.281   3.779
 6809SOL     OW21325   1.498   3.529   0.181
 6809SOL    HW121326   1.420   3.472   0.204
 6809SOL    HW221327   1.483   3.622   0.215
 6810SOL     OW21328   5.883   1.515   3.420
 6810SOL    HW121329   5.836   1.548   3.337
 6810SOL    HW221330   5.896   1.416   3.413
 6811SOL     OW21331   4.970   5.821   2.044
 6811SOL    HW121332   5.047   5.803   1.982
 6811SOL    HW221333   4.888   5.776   2.009
 6812SOL     OW21334   3.513   3.336   2.583
 6812SOL    HW121335   3.570   3.263   2.622
 6812SOL    HW221336   3.475   3.306   2.496
 6813SOL     OW21337   5.291   3.503   1.104
 6813SOL    HW121338   5.201   3.507   1.062
 6813SOL    HW221339   5.361   3.521   1.035
 6814SOL     OW21340   2.351   3.187   0.760
 6814SOL    HW121341   2.428   3.126   0.741
 6814SOL    HW221342   2.376   3.251   0.832
 6815SOL     OW21343   1.209   0.391   1.027
 6815SOL    HW121344   1.152   0.457   0.978
 6815SOL    HW221345   1.240   0.431   1.113
 6816SOL     OW21346   6.336   4.099   1.004
 6816SOL    HW121347   6.294   4.188   1.024
 6816SOL    HW221348   6.358   4.094   0.907
 6817SOL     OW21349   0.648   2.375   6.458
 6817SOL    HW121350   0.617   2.443   6.525
 6817SOL    HW221351   0.744   2.393   6.434
 6818SOL     OW21352   3.959   5.369   1.333
 6818SOL    HW121353   3.989   5.275   1.347
 6818SOL    HW221354   3.878   5.370   1.275
 6819SOL     OW21355   2.992   1.674   3.983
 6819SOL    HW121356   2.893   1.660   3.987
 6819SOL    HW221357   3.021   1.684   3.888
 6820SOL     OW21358   2.168   5.205   4.450
 6820SOL    HW121359   2.178   5.201   4.549
 6820SOL    HW221360   2.103   5.135   4.420
 6821SOL     OW21361   2.357   2.849   4.444
 6821SOL    HW121362   2.339   2.815   4.536
 6821SOL    HW221363   2.390   2.775   4.386
 6822SOL     OW21364   4.901   1.671   6.167
 6822SOL    HW121365   4.971   1.734   6.135
 6822SOL    HW221366   4.938   1.615   6.241
 6823SOL     OW21367   4.044   3.446   2.000
 6823SOL    HW121368   4.099   3.392   1.936
 6823SOL    HW221369   3.947   3.433   1.979
 6824SOL     OW21370   1.166   4.915   5.710
 6824SOL    HW121371   1.157   4.845   5.640
 6824SOL    HW221372   1.200   4.874   5.795
 6825SOL     OW21373   5.634   6.947   4.059
 6825SOL    HW121374   5.574   0.006   4.073
 6825SOL    HW221375   5.681   6.956   3.971
 6826SOL     OW21376   0.842   3.275   2.962
 6826SOL    HW121377   0.815   3.181   2.983
 6826SOL    HW221378   0.886   3.278   2.872
 6827SOL     OW21379   5.432   6.056   4.746
 6827SOL    HW121380   5.444   6.125   4.817
 6827SOL    HW221381   5.371   6.092   4.675
 6828SOL     OW21382   2.155   1.719   1.385
 6828SOL    HW121383   2.220   1.776   1.335
 6828SOL    HW221384   2.130   1.766   1.470
 6829SOL     OW21385   5.527   4.840   3.754
 6829SOL    HW121386   5.617   4.822   3.715
 6829SOL    HW221387   5.490   4.757   3.795
 6830SOL     OW21388   4.730   2.041   4.179
 6830SOL    HW121389   4.813   2.094   4.195
 6830SOL    HW221390   4.755   1.949   4.148
 6831SOL     OW21391   6.998   1.441   6.093
 6831SOL    HW121392   6.926   1.408   6.032
 6831SOL    HW221393   0.009   1.367   6.153
 6832SOL     OW21394   3.129   5.313   1.590
 6832SOL    HW121395   3.091   5.335   1.680
 6832SOL    HW221396   3.057   5.279   1.530
 6833SOL     OW21397   4.386   5.748   6.905
 6833SOL    HW121398   4.422   5.665   6.862
 6833SOL    HW221399   4.287   5.753   6.890
 6834SOL     OW21400   3.421   5.467   2.359
 6834SOL    HW121401   3.417   5.501   2.265
 6834SOL    HW221402   3.367   5.526   2.419
 6835SOL     OW21403   4.183   0.258   4.737
 6835SOL    HW121404   4.116   0.206   4.684
 6835SOL    HW221405   4.193   0.217   4.828
 6836SOL     OW21406   3.736   5.623   6.972
 6836SOL    HW121407   3.660   5.651   6.914
 6836SOL    HW221408   3.720   5.530   7.004
 6837SOL     OW21409   0.312   3.097   2.977
 6837SOL    HW121410   0.306   3.084   3.076
 6837SOL    HW221411   0.250   3.171   2.949
 6838SOL     OW21412   2.676   1.529   0.984
 6838SOL    HW121413   2.691   1.485   1.072
 6838SOL    HW221414   2.680   1.628   0.995
 6839SOL     OW21415   4.647   0.825   1.710
 6839SOL    HW121416   4.548   0.819   1.702
 6839SOL    HW221417   4.690   0.768   1.640
 6840SOL     OW21418   0.849   1.125   6.897
 6840SOL    HW121419   0.856   1.036   6.851
 6840SOL    HW221420   0.818   1.194   6.832
 6841SOL     OW21421   0.376   3.349   5.547
 6841SOL    HW121422   0.281   3.378   5.530
 6841SOL    HW221423   0.388   3.256   5.512
 6842SOL     OW21424   2.469   4.457   2.591
 6842SOL    HW121425   2.408   4.378   2.604
 6842SOL    HW221426   2.485   4.470   2.494
 6843SOL     OW21427   4.354   0.134   0.914
 6843SOL    HW121428   4.310   0.148   1.003
 6843SOL    HW221429   4.392   0.042   0.910
 6844SOL     OW21430   5.705   0.592   5.706
 6844SOL    HW121431   5.631   0.611   5.770
 6844SOL    HW221432   5.710   0.493   5.690
 6845SOL     OW21433   5.040   2.207   2.581
 6845SOL    HW121434   5.135   2.212   2.613
 6845SOL    HW221435   5.037   2.156   2.495
 6846SOL     OW21436   2.175   3.317   0.252
 6846SOL    HW121437   2.103   3.372   0.295
 6846SOL    HW221438   2.240   3.286   0.322
 6847SOL     OW21439   6.530   2.255   4.776
 6847SOL    HW121440   6.524   2.222   4.682
 6847SOL    HW221441   6.481   2.341   4.785
 6848SOL     OW21442   0.094   4.915   3.589
 6848SOL    HW121443   0.084   4.937   3.492
 6848SOL    HW221444   0.139   4.991   3.636
 6849SOL     OW21445   2.757   4.215   5.863
 6849SOL    HW121446   2.659   4.224   5.852
 6849SOL    HW221447   2.778   4.197   5.959
 6850SOL     OW21448   5.039   0.233   4.222
 6850SOL    HW121449   5.017   0.259   4.128
 6850SOL    HW221450   5.139   0.233   4.234
 6851SOL     OW21451   1.483   4.037   2.813
 6851SOL    HW121452   1.532   4.093   2.745
 6851SOL    HW221453   1.441   4.097   2.881
 6852SOL     OW21454   4.580   3.900   0.386
 6852SOL    HW121455   4.488   3.938   0.377
 6852SOL    HW221456   4.626   3.941   0.465
 6853SOL     OW21457   3.800   4.735   6.467
 6853SOL    HW121458   3.773   4.750   6.372
 6853SOL    HW221459   3.806   4.637   6.484
 6854SOL     OW21460   5.219   5.766   5.730
 6854SOL    HW121461   5.159   5.767   5.811
 6854SOL    HW221462   5.221   5.673   5.692
 6855SOL     OW21463   4.259   5.227   2.971
 6855SOL    HW121464   4.344   5.277   2.954
 6855SOL    HW221465   4.182   5.279   2.934
 6856SOL     OW21466   6.754   2.772   0.361
 6856SOL    HW121467   6.825   2.842   0.369
 6856SOL    HW221468   6.674   2.812   0.316
 6857SOL     OW21469   1.186   4.047   5.855
 6857SOL    HW121470   1.160   4.000   5.939
 6857SOL    HW221471   1.255   3.994   5.807
 6858SOL     OW21472   1.416   3.659   1.430
 6858SOL    HW121473   1.405   3.731   1.362
 6858SOL    HW221474   1.358   3.581   1.406
 6859SOL     OW21475   2.210   1.955   1.184
 6859SOL    HW121476   2.111   1.969   1.188
 6859SOL    HW221477   2.256   2.039   1.213
 6860SOL     OW21478   0.180   6.244   0.148
 6860SOL    HW121479   0.097   6.257   0.202
 6860SOL    HW221480   0.203   6.147   0.145
 6861SOL     OW21481   6.226   3.166   6.531
 6861SOL    HW121482   6.147   3.226   6.516
 6861SOL    HW221483   6.201   3.072   6.509
 6862SOL     OW21484   0.797   4.734   3.686
 6862SOL    HW121485   0.852   4.805   3.643
 6862SOL    HW221486   0.723   4.776   3.738
 6863SOL     OW21487   5.016   1.532   5.047
 6863SOL    HW121488   5.008   1.467   5.123
 6863SOL    HW221489   4.933   1.528   4.991
 6864SOL     OW21490   1.636   3.285   6.620
 6864SOL    HW121491   1.540   3.264   6.602
 6864SOL    HW221492   1.655   3.270   6.717
 6865SOL     OW21493   1.986   0.364   4.462
 6865SOL    HW121494   1.929   0.286   4.489
 6865SOL    HW221495   1.971   0.384   4.365
 6866SOL     OW21496   2.013   4.797   0.226
 6866SOL    HW121497   2.039   4.754   0.312
 6866SOL    HW221498   1.984   4.727   0.161
 6867SOL     OW21499   2.172   2.465   6.433
 6867SOL    HW121500   2.087   2.436   6.476
 6867SOL    HW221501   2.192   2.559   6.460
 6868SOL     OW21502   3.464   4.924   3.205
 6868SOL    HW121503   3.365   4.918   3.204
 6868SOL    HW221504   3.503   4.839   3.241
 6869SOL     OW21505   1.776   0.850   5.743
 6869SOL    HW121506   1.871   0.878   5.759
 6869SOL    HW221507   1.715   0.914   5.790
 6870SOL     OW21508   5.674   2.458   6.479
 6870SOL    HW121509   5.666   2.510   6.394
 6870SOL    HW221510   5.593   2.399   6.489
 6871SOL     OW21511   6.952   2.618   2.439
 6871SOL    HW121512   6.859   2.603   2.406
 6871SOL    HW221513   6.984   2.538   2.489
 6872SOL     OW21514   1.393   4.146   1.056
 6872SOL    HW121515   1.318   4.104   1.106
 6872SOL    HW221516   1.428   4.082   0.987
 6873SOL     OW21517   0.426   4.101   2.740
 6873SOL    HW121518   0.514   4.095   2.788
 6873SOL    HW221519   0.353   4.076   2.803
 6874SOL     OW21520   4.473   6.451   2.365
 6874SOL    HW121521   4.407   6.423   2.435
 6874SOL    HW221522   4.512   6.540   2.390
 6875SOL     OW21523   2.607   1.077   0.322
 6875SOL    HW121524   2.611   0.997   0.383
 6875SOL    HW221525   2.515   1.115   0.323
 6876SOL     OW21526   5.389   5.304   3.132
 6876SOL    HW121527   5.476   5.353   3.130
 6876SOL    HW221528   5.406   5.206   3.147
 6877SOL     OW21529   0.788   4.416   1.557
 6877SOL    HW121530   0.753   4.496   1.607
 6877SOL    HW221531   0.815   4.444   1.465
 6878SOL     OW21532   2.370   0.417   4.693
 6878SOL    HW121533   2.351   0.422   4.595
 6878SOL    HW221534   2.315   0.484   4.742
 6879SOL     OW21535   1.416   1.811   1.172
 6879SOL    HW121536   1.446   1.884   1.110
 6879SOL    HW221537   1.455   1.724   1.143
 6880SOL     OW21538   1.942   6.259   0.675
 6880SOL    HW121539   1.861   6.308   0.708
 6880SOL    HW221540   1.935   6.246   0.576
 6881SOL     OW21541   6.899   3.611   0.494
 6881SOL    HW121542   6.856   3.538   0.545
 6881SOL    HW221543   6.973   3.574   0.438
 6882SOL     OW21544   3.007   6.657   0.300
 6882SOL    HW121545   2.931   6.592   0.288
 6882SOL    HW221546   3.030   6.662   0.397
 6883SOL     OW21547   5.185   0.667   1.357
 6883SOL    HW121548   5.104   0.676   1.414
 6883SOL    HW221549   5.167   0.709   1.267
 6884SOL     OW21550   1.932   4.906   3.810
 6884SOL    HW121551   1.885   4.821   3.786
 6884SOL    HW221552   2.018   4.912   3.760
 6885SOL     OW21553   5.486   4.883   4.725
 6885SOL    HW121554   5.430   4.890   4.808
 6885SOL    HW221555   5.469   4.795   4.681
 6886SOL     OW21556   5.441   3.375   0.169
 6886SOL    HW121557   5.504   3.416   0.235
 6886SOL    HW221558   5.354   3.355   0.214
 6887SOL     OW21559   5.575   6.059   5.717
 6887SOL    HW121560   5.583   6.152   5.754
 6887SOL    HW221561   5.478   6.037   5.705
 6888SOL     OW21562   6.611   3.908   6.865
 6888SOL    HW121563   6.578   3.996   6.898
 6888SOL    HW221564   6.584   3.836   6.929
 6889SOL     OW21565   6.874   2.107   5.433
 6889SOL    HW121566   6.804   2.130   5.366
 6889SOL    HW221567   6.863   2.011   5.461
 6890SOL     OW21568   5.002   4.563   4.181
 6890SOL    HW121569   4.914   4.533   4.217
 6890SOL    HW221570   5.008   4.663   4.186
 6891SOL     OW21571   1.914   1.962   0.901
 6891SOL    HW121572   1.922   1.987   0.997
 6891SOL    HW221573   1.938   1.866   0.889
 6892SOL     OW21574   2.529   0.751   5.320
 6892SOL    HW121575   2.593   0.763   5.396
 6892SOL    HW221576   2.542   0.825   5.254
 6893SOL     OW21577   6.205   2.559   0.496
 6893SOL    HW121578   6.292   2.510   0.484
 6893SOL    HW221579   6.219   2.656   0.476
 6894SOL     OW21580   5.402   4.880   7.017
 6894SOL    HW121581   5.475   4.882   0.066
 6894SOL    HW221582   5.350   4.795   0.007
 6895SOL     OW21583   0.965   5.559   2.320
 6895SOL    HW121584   0.919   5.625   2.261
 6895SOL    HW221585   0.939   5.576   2.415
 6896SOL     OW21586   5.277   1.031   5.992
 6896SOL    HW121587   5.214   1.020   6.069
 6896SOL    HW221588   5.365   0.989   6.015
 6897SOL     OW21589   4.294   2.786   5.299
 6897SOL    HW121590   4.241   2.726   5.239
 6897SOL    HW221591   4.243   2.871   5.316
 6898SOL     OW21592   1.725   6.745   1.320
 6898SOL    HW121593   1.795   6.813   1.298
 6898SOL    HW221594   1.650   6.752   1.254
 6899SOL     OW21595   5.300   5.473   2.304
 6899SOL    HW121596   5.313   5.573   2.304
 6899SOL    HW221597   5.373   5.431   2.358
 6900SOL     OW21598   6.690   3.822   4.440
 6900SOL    HW121599   6.658   3.917   4.436
 6900SOL    HW221600   6.729   3.796   4.352
 6901SOL     OW21601   4.980   5.076   5.886
 6901SOL    HW121602   4.961   5.069   5.984
 6901SOL    HW221603   5.039   5.155   5.868
 6902SOL     OW21604   0.216   5.422   5.593
 6902SOL    HW121605   0.134   5.431   5.538
 6902SOL    HW221606   0.195   5.444   5.689
 6903SOL     OW21607   1.842   6.179   5.177
 6903SOL    HW121608   1.916   6.177   5.110
 6903SOL    HW221609   1.788   6.095   5.168
 6904SOL     OW21610   0.502   0.328   5.435
 6904SOL    HW121611   0.503   0.319   5.534
 6904SOL    HW221612   0.596   0.325   5.400
 6905SOL     OW21613   4.704   5.831   5.666
 6905SOL    HW121614   4.776   5.881   5.618
 6905SOL    HW221615   4.745   5.770   5.733
 6906SOL     OW21616   2.736   0.770   3.800
 6906SOL    HW121617   2.677   0.709   3.748
 6906SOL    HW221618   2.697   0.786   3.891
 6907SOL     OW21619   5.907   2.139   0.980
 6907SOL    HW121620   5.823   2.194   0.981
 6907SOL    HW221621   5.977   2.186   0.926
 6908SOL     OW21622   3.736   5.743   0.402
 6908SOL    HW121623   3.665   5.810   0.425
 6908SOL    HW221624   3.823   5.790   0.389
 6909SOL     OW21625   5.782   4.062   1.686
 6909SOL    HW121626   5.724   4.131   1.728
 6909SOL    HW221627   5.821   4.003   1.756
 6910SOL     OW21628   1.019   2.639   2.321
 6910SOL    HW121629   0.997   2.734   2.299
 6910SOL    HW221630   0.990   2.619   2.414
 6911SOL     OW21631   2.891   6.597   5.414
 6911SOL    HW121632   2.813   6.549   5.375
 6911SOL    HW221633   2.859   6.669   5.476
 6912SOL     OW21634   3.121   4.060   0.041
 6912SOL    HW121635   3.118   4.022   6.968
 6912SOL    HW221636   3.100   4.158   0.037
 6913SOL     OW21637   4.037   5.879   5.739
 6913SOL    HW121638   4.009   5.859   5.833
 6913SOL    HW221639   4.063   5.794   5.693
 6914SOL     OW21640   6.525   2.268   2.734
 6914SOL    HW121641   6.499   2.172   2.742
 6914SOL    HW221642   6.448   2.325   2.761
 6915SOL     OW21643   0.345   3.555   3.631
 6915SOL    HW121644   0.253   3.582   3.659
 6915SOL    HW221645   0.404   3.549   3.711
 6916SOL     OW21646   4.592   6.197   5.922
 6916SOL    HW121647   4.689   6.213   5.940
 6916SOL    HW221648   4.581   6.145   5.838
 6917SOL     OW21649   3.842   6.313   1.950
 6917SOL    HW121650   3.799   6.259   2.023
 6917SOL    HW221651   3.825   6.410   1.966
 6918SOL     OW21652   1.741   3.372   0.464
 6918SOL    HW121653   1.651   3.334   0.486
 6918SOL    HW221654   1.737   3.472   0.472
 6919SOL     OW21655   6.373   6.105   3.063
 6919SOL    HW121656   6.472   6.089   3.055
 6919SOL    HW221657   6.324   6.028   3.022
 6920SOL     OW21658   0.005   2.287   5.565
 6920SOL    HW121659   6.995   2.378   5.535
 6920SOL    HW221660   6.953   2.220   5.543
 6921SOL     OW21661   3.278   0.189   4.381
 6921SOL    HW121662   3.343   0.115   4.364
 6921SOL    HW221663   3.216   0.162   4.454
 6922SOL     OW21664   2.766   5.157   6.474
 6922SOL    HW121665   2.708   5.076   6.480
 6922SOL    HW221666   2.743   5.219   6.550
 6923SOL     OW21667   5.153   6.912   3.062
 6923SOL    HW121668   5.072   6.960   3.031
 6923SOL    HW221669   5.182   6.846   2.993
 6924SOL     OW21670   3.401   5.351   1.625
 6924SOL    HW121671   3.303   5.368   1.630
 6924SOL    HW221672   3.451   5.430   1.661
 6925SOL     OW21673   5.883   6.678   4.889
 6925SOL    HW121674   5.949   6.683   4.814
 6925SOL    HW221675   5.842   6.587   4.890
 6926SOL     OW21676   2.935   2.358   0.233
 6926SOL    HW121677   2.976   2.424   0.171
 6926SOL    HW221678   2.899   2.281   0.181
 6927SOL     OW21679   3.536   0.416   6.463
 6927SOL    HW121680   3.611   0.474   6.495
 6927SOL    HW221681   3.467   0.409   6.535
 6928SOL     OW21682   3.503   5.833   0.144
 6928SOL    HW121683   3.581   5.771   0.140
 6928SOL    HW221684   3.499   5.886   0.059
 6929SOL     OW21685   4.753   4.725   2.769
 6929SOL    HW121686   4.783   4.631   2.755
 6929SOL    HW221687   4.828   4.788   2.746
 6930SOL     OW21688   1.002   6.529   1.993
 6930SOL    HW121689   0.976   6.465   2.067
 6930SOL    HW221690   1.022   6.618   2.033
 6931SOL     OW21691   3.119   3.157   1.173
 6931SOL    HW121692   3.216   3.165   1.197
 6931SOL    HW221693   3.082   3.073   1.215
 6932SOL     OW21694   4.547   0.304   6.624
 6932SOL    HW121695   4.490   0.286   6.704
 6932SOL    HW221696   4.629   0.355   6.652
 6933SOL     OW21697   2.844   6.249   5.706
 6933SOL    HW121698   2.755   6.294   5.708
 6933SOL    HW221699   2.905   6.297   5.643
 6934SOL     OW21700   5.188   5.416   7.011
 6934SOL    HW121701   5.268   5.452   6.963
 6934SOL    HW221702   5.209   5.407   0.089
 6935SOL     OW21703   3.962   6.040   1.838
 6935SOL    HW121704   4.001   6.122   1.795
 6935SOL    HW221705   3.937   5.974   1.767
 6936SOL     OW21706   0.902   1.917   6.880
 6936SOL    HW121707   0.994   1.926   6.918
 6936SOL    HW221708   0.851   2.001   6.896
 6937SOL     OW21709   5.867   5.007   0.163
 6937SOL    HW121710   5.779   5.048   0.138
 6937SOL    HW221711   5.879   5.013   0.263
 6938SOL     OW21712   3.238   0.507   4.690
 6938SOL    HW121713   3.239   0.591   4.635
 6938SOL    HW221714   3.146   0.468   4.688
 6939SOL     OW21715   5.435   2.803   3.390
 6939SOL    HW121716   5.394   2.768   3.306
 6939SOL    HW221717   5.443   2.730   3.457
 6940SOL     OW21718   2.617   6.647   1.225
 6940SOL    HW121719   2.550   6.573   1.225
 6940SOL    HW221720   2.704   6.613   1.190
 6941SOL     OW21721   3.642   3.057   2.566
 6941SOL    HW121722   3.648   2.989   2.639
 6941SOL    HW221723   3.585   3.022   2.492
 6942SOL     OW21724   6.515   4.896   3.202
 6942SOL    HW121725   6.462   4.880   3.286
 6942SOL    HW221726   6.470   4.850   3.126
 6943SOL     OW21727   3.889   4.717   5.834
 6943SOL    HW121728   3.945   4.688   5.756
 6943SOL    HW221729   3.805   4.759   5.801
 6944SOL     OW21730   0.429   4.597   4.885
 6944SOL    HW121731   0.469   4.666   4.824
 6944SOL    HW221732   0.499   4.529   4.908
 6945SOL     OW21733   4.735   1.812   0.644
 6945SOL    HW121734   4.676   1.820   0.563
 6945SOL    HW221735   4.764   1.717   0.656
 6946SOL     OW21736   5.588   6.052   2.264
 6946SOL    HW121737   5.491   6.073   2.249
 6946SOL    HW221738   5.644   6.103   2.199
 6947SOL     OW21739   6.042   4.161   5.408
 6947SOL    HW121740   6.075   4.217   5.333
 6947SOL    HW221741   6.095   4.180   5.491
 6948SOL     OW21742   6.874   4.149   0.001
 6948SOL    HW121743   6.914   4.237   6.995
 6948SOL    HW221744   6.826   4.110   6.942
 6949SOL     OW21745   3.151   1.254   3.007
 6949SOL    HW121746   3.245   1.255   3.042
 6949SOL    HW221747   3.149   1.202   2.921
 6950SOL     OW21748   1.956   1.047   3.766
 6950SOL    HW121749   1.899   1.074   3.689
 6950SOL    HW221750   1.938   1.107   3.843
 6951SOL     OW21751   1.219   3.696   6.817
 6951SOL    HW121752   1.193   3.665   6.726
 6951SOL    HW221753   1.207   3.795   6.824
 6952SOL     OW21754   4.089   5.815   3.471
 6952SOL    HW121755   4.128   5.799   3.381
 6952SOL    HW221756   4.136   5.891   3.516
 6953SOL     OW21757   0.081   0.818   2.015
 6953SOL    HW121758   0.036   0.745   1.963
 6953SOL    HW221759   0.038   0.825   2.105
 6954SOL     OW21760   6.798   4.312   6.074
 6954SOL    HW121761   6.854   4.350   6.000
 6954SOL    HW221762   6.822   4.356   6.160
 6955SOL     OW21763   4.204   5.978   2.671
 6955SOL    HW121764   4.172   6.066   2.705
 6955SOL    HW221765   4.137   5.907   2.693
 6956SOL     OW21766   5.418   5.167   1.466
 6956SOL    HW121767   5.344   5.122   1.416
 6956SOL    HW221768   5.502   5.115   1.454
 6957SOL     OW21769   5.960   4.862   5.165
 6957SOL    HW121770   5.890   4.815   5.112
 6957SOL    HW221771   5.957   4.830   5.260
 6958SOL     OW21772   3.250   3.550   2.338
 6958SOL    HW121773   3.324   3.483   2.329
 6958SOL    HW221774   3.226   3.561   2.434
 6959SOL     OW21775   1.316   4.688   2.530
 6959SOL    HW121776   1.357   4.746   2.600
 6959SOL    HW221777   1.314   4.594   2.561
 6960SOL     OW21778   5.077   4.725   1.473
 6960SOL    HW121779   5.125   4.691   1.393
 6960SOL    HW221780   4.979   4.732   1.454
 6961SOL     OW21781   5.178   2.490   4.876
 6961SOL    HW121782   5.187   2.391   4.880
 6961SOL    HW221783   5.209   2.530   4.962
 6962SOL     OW21784   2.534   6.297   0.444
 6962SOL    HW121785   2.471   6.357   0.395
 6962SOL    HW221786   2.560   6.221   0.385
 6963SOL     OW21787   0.932   6.344   6.462
 6963SOL    HW121788   0.978   6.432   6.477
 6963SOL    HW221789   0.842   6.346   6.507
 6964SOL     OW21790   2.119   1.693   4.843
 6964SOL    HW121791   2.195   1.754   4.820
 6964SOL    HW221792   2.142   1.640   4.925
 6965SOL     OW21793   1.967   1.311   0.128
 6965SOL    HW121794   1.868   1.298   0.121
 6965SOL    HW221795   1.991   1.398   0.086
 6966SOL     OW21796   1.500   6.592   1.150
 6966SOL    HW121797   1.426   6.562   1.089
 6966SOL    HW221798   1.519   6.520   1.217
 6967SOL     OW21799   3.947   0.482   6.788
 6967SOL    HW121800   3.913   0.570   6.819
 6967SOL    HW221801   3.962   0.422   6.867
 6968SOL     OW21802   2.992   0.422   2.859
 6968SOL    HW121803   3.045   0.486   2.803
 6968SOL    HW221804   3.036   0.333   2.859
 6969SOL     OW21805   1.751   3.112   2.653
 6969SOL    HW121806   1.799   3.025   2.663
 6969SOL    HW221807   1.817   3.184   2.631
 6970SOL     OW21808   3.183   6.155   5.516
 6970SOL    HW121809   3.201   6.123   5.609
 6970SOL    HW221810   3.268   6.189   5.475
 6971SOL     OW21811   6.093   3.653   6.560
 6971SOL    HW121812   6.117   3.598   6.480
 6971SOL    HW221813   6.162   3.639   6.631
 6972SOL     OW21814   5.584   3.827   1.681
 6972SOL    HW121815   5.624   3.759   1.620
 6972SOL    HW221816   5.629   3.915   1.667
 6973SOL     OW21817   1.006   1.484   2.894
 6973SOL    HW121818   1.066   1.462   2.971
 6973SOL    HW221819   0.956   1.402   2.867
 6974SOL     OW21820   4.128   3.401   2.892
 6974SOL    HW121821   4.059   3.378   2.823
 6974SOL    HW221822   4.205   3.448   2.849
 6975SOL     OW21823   2.662   5.575   4.682
 6975SOL    HW121824   2.562   5.579   4.673
 6975SOL    HW221825   2.698   5.668   4.692
 6976SOL     OW21826   4.269   5.190   6.223
 6976SOL    HW121827   4.244   5.224   6.313
 6976SOL    HW221828   4.353   5.235   6.192
 6977SOL     OW21829   4.972   4.666   2.552
 6977SOL    HW121830   4.983   4.593   2.485
 6977SOL    HW221831   4.944   4.750   2.505
 6978SOL     OW21832   0.969   4.137   0.750
 6978SOL    HW121833   0.939   4.062   0.809
 6978SOL    HW221834   1.069   4.140   0.749
 6979SOL     OW21835   1.237   3.703   2.783
 6979SOL    HW121836   1.167   3.661   2.725
 6979SOL    HW221837   1.218   3.683   2.879
 6980SOL     OW21838   2.288   4.659   2.763
 6980SOL    HW121839   2.195   4.680   2.795
 6980SOL    HW221840   2.348   4.736   2.783
 6981SOL     OW21841   4.459   2.613   6.698
 6981SOL    HW121842   4.411   2.615   6.611
 6981SOL    HW221843   4.532   2.681   6.698
 6982SOL     OW21844   6.707   0.375   1.728
 6982SOL    HW121845   6.647   0.406   1.654
 6982SOL    HW221846   6.767   0.304   1.694
 6983SOL     OW21847   6.505   6.992   4.331
 6983SOL    HW121848   6.457   0.047   4.377
 6983SOL    HW221849   6.599   0.001   4.313
 6984SOL     OW21850   1.939   4.698   3.517
 6984SOL    HW121851   2.020   4.641   3.530
 6984SOL    HW221852   1.905   4.688   3.424
 6985SOL     OW21853   5.357   2.772   0.770
 6985SOL    HW121854   5.300   2.839   0.724
 6985SOL    HW221855   5.403   2.814   0.848
 6986SOL     OW21856   3.846   5.259   5.830
 6986SOL    HW121857   3.828   5.237   5.734
 6986SOL    HW221858   3.863   5.174   5.881
 6987SOL     OW21859   6.982   0.950   6.624
 6987SOL    HW121860   6.887   0.918   6.618
 6987SOL    HW221861   6.985   1.048   6.605
 6988SOL     OW21862   2.459   0.973   6.014
 6988SOL    HW121863   2.545   1.023   6.004
 6988SOL    HW221864   2.419   0.958   5.923
 6989SOL     OW21865   0.662   4.096   2.349
 6989SOL    HW121866   0.703   4.183   2.322
 6989SOL    HW221867   0.717   4.020   2.314
 6990SOL     OW21868   3.675   4.023   0.020
 6990SOL    HW121869   3.710   4.083   6.967
 6990SOL    HW221870   3.577   4.006   0.004
 6991SOL     OW21871   5.770   4.196   3.283
 6991SOL    HW121872   5.835   4.165   3.353
 6991SOL    HW221873   5.731   4.284   3.310
 6992SOL     OW21874   1.842   5.112   6.419
 6992SOL    HW121875   1.855   5.170   6.339
 6992SOL    HW221876   1.755   5.064   6.412
 6993SOL     OW21877   4.203   2.300   1.693
 6993SOL    HW121878   4.107   2.327   1.683
 6993SOL    HW221879   4.212   2.233   1.767
 6994SOL     OW21880   3.004   1.006   3.023
 6994SOL    HW121881   2.957   1.007   3.111
 6994SOL    HW221882   2.968   1.079   2.965
 6995SOL     OW21883   0.431   3.985   0.248
 6995SOL    HW121884   0.448   4.043   0.327
 6995SOL    HW221885   0.517   3.967   0.201
 6996SOL     OW21886   0.808   1.341   6.398
 6996SOL    HW121887   0.716   1.369   6.369
 6996SOL    HW221888   0.874   1.412   6.373
 6997SOL     OW21889   6.412   6.530   6.063
 6997SOL    HW121890   6.333   6.536   6.003
 6997SOL    HW221891   6.382   6.539   6.158
 6998SOL     OW21892   0.551   0.028   0.660
 6998SOL    HW121893   0.627   0.064   0.606
 6998SOL    HW221894   0.569   0.043   0.757
 6999SOL     OW21895   6.731   2.673   0.064
 6999SOL    HW121896   6.667   2.658   0.139
 6999SOL    HW221897   6.750   2.586   0.019
 7000SOL     OW21898   0.741   5.144   3.760
 7000SOL    HW121899   0.746   5.171   3.856
 7000SOL    HW221900   0.687   5.211   3.709
 7001SOL     OW21901   0.419   1.292   3.672
 7001SOL    HW121902   0.485   1.301   3.598
 7001SOL    HW221903   0.378   1.381   3.691
 7002SOL     OW21904   1.280   4.916   2.340
 7002SOL    HW121905   1.302   4.853   2.414
 7002SOL    HW221906   1.191   4.959   2.358
 7003SOL     OW21907   0.560   5.098   6.644
 7003SOL    HW121908   0.603   5.188   6.642
 7003SOL    HW221909   0.486   5.095   6.577
 7004SOL     OW21910   1.963   0.483   6.434
 7004SOL    HW121911   2.038   0.542   6.403
 7004SOL    HW221912   2.000   0.409   6.489
 7005SOL     OW21913   1.862   5.561   0.566
 7005SOL    HW121914   1.891   5.582   0.659
 7005SOL    HW221915   1.875   5.464   0.548
 7006SOL     OW21916   0.872   0.641   3.636
 7006SOL    HW121917   0.806   0.621   3.709
 7006SOL    HW221918   0.943   0.572   3.636
 7007SOL     OW21919   1.970   0.298   6.088
 7007SOL    HW121920   2.036   0.355   6.138
 7007SOL    HW221921   1.880   0.340   6.093
 7008SOL     OW21922   5.059   2.922   3.067
 7008SOL    HW121923   5.062   2.829   3.104
 7008SOL    HW221924   5.142   2.971   3.095
 7009SOL     OW21925   5.347   5.939   2.037
 7009SOL    HW121926   5.290   6.019   2.055
 7009SOL    HW221927   5.435   5.969   2.001
 7010SOL     OW21928   5.175   3.311   2.929
 7010SOL    HW121929   5.219   3.367   2.859
 7010SOL    HW221930   5.077   3.304   2.911
 7011SOL     OW21931   2.419   6.902   6.056
 7011SOL    HW121932   2.508   6.941   6.033
 7011SOL    HW221933   2.399   6.920   6.153
 7012SOL     OW21934   0.249   3.686   0.582
 7012SOL    HW121935   0.173   3.734   0.628
 7012SOL    HW221936   0.253   3.713   0.486
 7013SOL     OW21937   3.536   2.744   0.245
 7013SOL    HW121938   3.587   2.780   0.168
 7013SOL    HW221939   3.443   2.720   0.215
 7014SOL     OW21940   6.213   3.243   0.180
 7014SOL    HW121941   6.238   3.339   0.171
 7014SOL    HW221942   6.291   3.185   0.154
 7015SOL     OW21943   5.940   6.513   0.741
 7015SOL    HW121944   6.017   6.550   0.794
 7015SOL    HW221945   5.956   6.416   0.724
 7016SOL     OW21946   3.170   5.018   1.057
 7016SOL    HW121947   3.208   4.992   0.968
 7016SOL    HW221948   3.241   5.013   1.126
 7017SOL     OW21949   5.884   4.351   6.505
 7017SOL    HW121950   5.937   4.434   6.522
 7017SOL    HW221951   5.911   4.312   6.417
 7018SOL     OW21952   5.607   3.640   5.174
 7018SOL    HW121953   5.625   3.682   5.263
 7018SOL    HW221954   5.510   3.646   5.153
 7019SOL     OW21955   4.032   5.535   2.151
 7019SOL    HW121956   4.091   5.493   2.220
 7019SOL    HW221957   3.938   5.537   2.184
 7020SOL     OW21958   0.641   1.961   0.315
 7020SOL    HW121959   0.620   1.990   0.408
 7020SOL    HW221960   0.557   1.935   0.268
 7021SOL     OW21961   1.146   1.696   4.708
 7021SOL    HW121962   1.105   1.605   4.710
 7021SOL    HW221963   1.244   1.688   4.692
 7022SOL     OW21964   2.011   3.867   0.996
 7022SOL    HW121965   1.925   3.818   0.987
 7022SOL    HW221966   2.036   3.873   1.092
 7023SOL     OW21967   0.211   1.629   0.911
 7023SOL    HW121968   0.276   1.583   0.973
 7023SOL    HW221969   0.195   1.722   0.943
 7024SOL     OW21970   3.673   3.735   5.428
 7024SOL    HW121971   3.677   3.746   5.328
 7024SOL    HW221972   3.580   3.754   5.459
 7025SOL     OW21973   3.404   0.843   1.203
 7025SOL    HW121974   3.499   0.870   1.187
 7025SOL    HW221975   3.398   0.744   1.209
 7026SOL     OW21976   3.058   2.202   1.091
 7026SOL    HW121977   3.156   2.189   1.074
 7026SOL    HW221978   3.046   2.269   1.164
 7027SOL     OW21979   3.063   4.941   1.481
 7027SOL    HW121980   3.139   4.989   1.524
 7027SOL    HW221981   3.054   4.850   1.521
 7028SOL     OW21982   3.207   0.179   3.519
 7028SOL    HW121983   3.217   0.182   3.419
 7028SOL    HW221984   3.145   0.252   3.547
 7029SOL     OW21985   3.486   4.132   3.312
 7029SOL    HW121986   3.572   4.085   3.294
 7029SOL    HW221987   3.418   4.103   3.244
 7030SOL     OW21988   6.279   0.076   5.276
 7030SOL    HW121989   6.256   0.159   5.226
 7030SOL    HW221990   6.370   0.045   5.249
 7031SOL     OW21991   4.836   5.321   0.946
 7031SOL    HW121992   4.736   5.322   0.938
 7031SOL    HW221993   4.865   5.396   1.006
 7032SOL     OW21994   4.224   5.161   4.707
 7032SOL    HW121995   4.213   5.255   4.741
 7032SOL    HW221996   4.247   5.101   4.784
 7033SOL     OW21997   1.983   1.754   5.393
 7033SOL    HW121998   1.941   1.833   5.438
 7033SOL    HW221999   2.017   1.781   5.303
 7034SOL     OW22000   7.015   1.925   2.174
 7034SOL    HW122001   0.072   1.948   2.114
 7034SOL    HW222002   0.001   1.828   2.199
 7035SOL     OW22003   2.489   1.919   1.424
 7035SOL    HW122004   2.402   1.958   1.454
 7035SOL    HW222005   2.509   1.837   1.477
 7036SOL     OW22006   6.146   1.991   1.649
 7036SOL    HW122007   6.056   2.024   1.678
 7036SOL    HW222008   6.171   2.034   1.563
 7037SOL     OW22009   1.594   0.673   6.599
 7037SOL    HW122010   1.585   0.591   6.543
 7037SOL    HW222011   1.682   0.671   6.647
 7038SOL     OW22012   0.354   4.491   0.476
 7038SOL    HW122013   0.443   4.471   0.519
 7038SOL    HW222014   0.367   4.504   0.378
 7039SOL     OW22015   6.386   0.167   1.495
 7039SOL    HW122016   6.299   0.131   1.461
 7039SOL    HW222017   6.458   0.148   1.427
 7040SOL     OW22018   5.248   3.034   5.511
 7040SOL    HW122019   5.290   3.000   5.427
 7040SOL    HW222020   5.252   3.134   5.512
 7041SOL     OW22021   0.960   0.356   3.885
 7041SOL    HW122022   1.023   0.331   3.959
 7041SOL    HW222023   1.013   0.380   3.803
 7042SOL     OW22024   5.946   5.969   4.831
 7042SOL    HW122025   5.987   5.887   4.870
 7042SOL    HW222026   5.913   6.028   4.904
 7043SOL     OW22027   1.990   5.885   0.837
 7043SOL    HW122028   1.890   5.893   0.842
 7043SOL    HW222029   2.031   5.969   0.874
 7044SOL     OW22030   4.608   6.205   5.506
 7044SOL    HW122031   4.582   6.116   5.542
 7044SOL    HW222032   4.648   6.261   5.579
 7045SOL     OW22033   5.945   6.799   1.806
 7045SOL    HW122034   6.031   6.821   1.851
 7045SOL    HW222035   5.954   6.712   1.757
 7046SOL     OW22036   2.862   1.135   2.865
 7046SOL    HW122037   2.885   1.159   2.770
 7046SOL    HW222038   2.804   1.207   2.904
 7047SOL     OW22039   1.278   0.009   1.151
 7047SOL    HW122040   1.222   0.025   1.070
 7047SOL    HW222041   1.374   7.017   1.124
 7048SOL     OW22042   0.431   5.765   3.864
 7048SOL    HW122043   0.352   5.708   3.889
 7048SOL    HW222044   0.460   5.742   3.771
 7049SOL     OW22045   3.462   1.291   4.582
 7049SOL    HW122046   3.394   1.246   4.640
 7049SOL    HW222047   3.444   1.390   4.581
 7050SOL     OW22048   4.104   4.326   1.195
 7050SOL    HW122049   4.145   4.241   1.163
 7050SOL    HW222050   4.005   4.319   1.190
 7051SOL     OW22051   1.655   1.354   2.322
 7051SOL    HW122052   1.636   1.413   2.400
 7051SOL    HW222053   1.639   1.405   2.237
 7052SOL     OW22054   5.195   2.438   3.016
 7052SOL    HW122055   5.134   2.378   3.068
 7052SOL    HW222056   5.140   2.497   2.956
 7053SOL     OW22057   1.074   4.877   3.602
 7053SOL    HW122058   1.128   4.881   3.518
 7053SOL    HW222059   1.128   4.835   3.675
 7054SOL     OW22060   5.364   6.945   0.141
 7054SOL    HW122061   5.427   0.004   0.149
 7054SOL    HW222062   5.270   6.977   0.146
 7055SOL     OW22063   2.371   0.301   0.653
 7055SOL    HW122064   2.408   0.370   0.715
 7055SOL    HW222065   2.273   0.289   0.670
 7056SOL     OW22066   6.873   5.495   0.796
 7056SOL    HW122067   6.829   5.500   0.886
 7056SOL    HW222068   6.826   5.426   0.740
 7057SOL     OW22069   3.423   5.437   4.613
 7057SOL    HW122070   3.372   5.451   4.697
 7057SOL    HW222071   3.394   5.351   4.570
 7058SOL     OW22072   6.285   2.305   6.084
 7058SOL    HW122073   6.281   2.364   6.164
 7058SOL    HW222074   6.321   2.356   6.006
 7059SOL     OW22075   1.945   0.824   5.160
 7059SOL    HW122076   1.916   0.861   5.249
 7059SOL    HW222077   1.956   0.725   5.168
 7060SOL     OW22078   3.162   2.284   1.711
 7060SOL    HW122079   3.247   2.337   1.718
 7060SOL    HW222080   3.087   2.344   1.683
 7061SOL     OW22081   1.925   0.620   1.364
 7061SOL    HW122082   1.851   0.560   1.397
 7061SOL    HW222083   1.985   0.642   1.440
 7062SOL     OW22084   3.768   0.713   4.667
 7062SOL    HW122085   3.710   0.723   4.586
 7062SOL    HW222086   3.809   0.802   4.689
 7063SOL     OW22087   0.179   0.986   1.819
 7063SOL    HW122088   0.133   0.925   1.884
 7063SOL    HW222089   0.147   1.080   1.833
 7064SOL     OW22090   3.151   1.425   5.243
 7064SOL    HW122091   3.214   1.385   5.310
 7064SOL    HW222092   3.178   1.397   5.151
 7065SOL     OW22093   3.702   6.548   4.545
 7065SOL    HW122094   3.726   6.591   4.632
 7065SOL    HW222095   3.627   6.597   4.502
 7066SOL     OW22096   3.650   0.955   1.519
 7066SOL    HW122097   3.619   0.862   1.499
 7066SOL    HW222098   3.591   0.995   1.590
 7067SOL     OW22099   1.996   4.365   6.465
 7067SOL    HW122100   1.937   4.440   6.435
 7067SOL    HW222101   1.942   4.299   6.517
 7068SOL     OW22102   5.212   4.591   4.040
 7068SOL    HW122103   5.142   4.590   4.111
 7068SOL    HW222104   5.296   4.550   4.074
 7069SOL     OW22105   4.735   0.533   5.112
 7069SOL    HW122106   4.764   0.626   5.088
 7069SOL    HW222107   4.792   0.498   5.186
 7070SOL     OW22108   0.135   1.051   5.898
 7070SOL    HW122109   0.225   1.028   5.861
 7070SOL    HW222110   0.067   1.043   5.825
 7071SOL     OW22111   4.099   5.445   6.648
 7071SOL    HW122112   4.145   5.521   6.602
 7071SOL    HW222113   4.070   5.474   6.739
 7072SOL     OW22114   0.812   3.808   6.299
 7072SOL    HW122115   0.826   3.899   6.336
 7072SOL    HW222116   0.774   3.815   6.206
 7073SOL     OW22117   4.545   0.833   3.592
 7073SOL    HW122118   4.640   0.824   3.564
 7073SOL    HW222119   4.540   0.872   3.683
 7074SOL     OW22120   6.131   3.744   1.838
 7074SOL    HW122121   6.199   3.817   1.841
 7074SOL    HW222122   6.040   3.782   1.855
 7075SOL     OW22123   2.374   5.318   1.991
 7075SOL    HW122124   2.390   5.230   2.036
 7075SOL    HW222125   2.314   5.374   2.048
 7076SOL     OW22126   5.888   2.060   1.255
 7076SOL    HW122127   5.976   2.016   1.274
 7076SOL    HW222128   5.886   2.090   1.159
 7077SOL     OW22129   3.754   6.181   1.517
 7077SOL    HW122130   3.853   6.188   1.509
 7077SOL    HW222131   3.728   6.163   1.612
 7078SOL     OW22132   0.127   1.711   6.404
 7078SOL    HW122133   0.201   1.680   6.344
 7078SOL    HW222134   0.160   1.786   6.461
 7079SOL     OW22135   2.169   5.395   5.131
 7079SOL    HW122136   2.108   5.444   5.194
 7079SOL    HW222137   2.133   5.302   5.117
 7080SOL     OW22138   4.089   1.590   6.075
 7080SOL    HW122139   4.023   1.589   6.150
 7080SOL    HW222140   4.087   1.679   6.029
 7081SOL     OW22141   2.223   6.157   0.222
 7081SOL    HW122142   2.153   6.197   0.281
 7081SOL    HW222143   2.253   6.070   0.260
 7082SOL     OW22144   0.836   4.583   2.353
 7082SOL    HW122145   0.839   4.673   2.308
 7082SOL    HW222146   0.741   4.558   2.369
 7083SOL     OW22147   5.241   3.022   2.706
 7083SOL    HW122148   5.219   3.073   2.790
 7083SOL    HW222149   5.219   3.078   2.626
 7084SOL     OW22150   1.069   5.155   0.666
 7084SOL    HW122151   0.973   5.128   0.668
 7084SOL    HW222152   1.080   5.234   0.607
 7085SOL     OW22153   0.448   3.982   2.496
 7085SOL    HW122154   0.437   4.033   2.581
 7085SOL    HW222155   0.493   4.041   2.428
 7086SOL     OW22156   4.441   0.902   3.342
 7086SOL    HW122157   4.352   0.858   3.335
 7086SOL    HW222158   4.476   0.894   3.435
 7087SOL     OW22159   5.345   2.882   3.748
 7087SOL    HW122160   5.266   2.828   3.718
 7087SOL    HW222161   5.363   2.954   3.681
 7088SOL     OW22162   5.965   2.771   4.926
 7088SOL    HW122163   5.919   2.760   4.837
 7088SOL    HW222164   6.035   2.700   4.936
 7089SOL     OW22165   3.319   5.738   1.070
 7089SOL    HW122166   3.286   5.647   1.047
 7089SOL    HW222167   3.242   5.797   1.093
 7090SOL     OW22168   4.574   2.927   0.962
 7090SOL    HW122169   4.562   2.882   0.874
 7090SOL    HW222170   4.671   2.931   0.984
 7091SOL     OW22171   6.330   0.499   6.587
 7091SOL    HW122172   6.286   0.587   6.569
 7091SOL    HW222173   6.378   0.504   6.675
 7092SOL     OW22174   4.201   0.086   6.369
 7092SOL    HW122175   4.255   0.137   6.302
 7092SOL    HW222176   4.178   7.015   6.332
 7093SOL     OW22177   3.991   3.259   0.545
 7093SOL    HW122178   4.048   3.219   0.473
 7093SOL    HW222179   4.004   3.208   0.630
 7094SOL     OW22180   4.567   1.128   4.798
 7094SOL    HW122181   4.523   1.170   4.720
 7094SOL    HW222182   4.501   1.117   4.873
 7095SOL     OW22183   2.515   4.528   3.917
 7095SOL    HW122184   2.444   4.466   3.950
 7095SOL    HW222185   2.562   4.569   3.995
 7096SOL     OW22186   6.607   5.825   0.446
 7096SOL    HW122187   6.670   5.893   0.408
 7096SOL    HW222188   6.524   5.871   0.478
 7097SOL     OW22189   4.595   2.015   2.778
 7097SOL    HW122190   4.540   1.980   2.702
 7097SOL    HW222191   4.673   2.066   2.742
 7098SOL     OW22192   0.786   1.167   2.555
 7098SOL    HW122193   0.691   1.149   2.529
 7098SOL    HW222194   0.830   1.223   2.484
 7099SOL     OW22195   3.604   2.037   4.565
 7099SOL    HW122196   3.694   1.999   4.589
 7099SOL    HW222197   3.540   1.963   4.548
 7100SOL     OW22198   0.331   4.319   1.842
 7100SOL    HW122199   0.303   4.327   1.746
 7100SOL    HW222200   0.422   4.278   1.847
 7101SOL     OW22201   2.527   5.166   4.151
 7101SOL    HW122202   2.483   5.216   4.077
 7101SOL    HW222203   2.535   5.070   4.126
 7102SOL     OW22204   5.174   1.355   2.953
 7102SOL    HW122205   5.077   1.332   2.961
 7102SOL    HW222206   5.212   1.311   2.871
 7103SOL     OW22207   5.740   4.013   3.892
 7103SOL    HW122208   5.740   3.914   3.907
 7103SOL    HW222209   5.746   4.060   3.980
 7104SOL     OW22210   5.117   2.910   4.437
 7104SOL    HW122211   5.205   2.956   4.435
 7104SOL    HW222212   5.049   2.968   4.481
 7105SOL     OW22213   3.303   3.997   2.314
 7105SOL    HW122214   3.212   3.963   2.339
 7105SOL    HW222215   3.349   4.029   2.397
 7106SOL     OW22216   2.948   2.164   2.334
 7106SOL    HW122217   2.967   2.219   2.253
 7106SOL    HW222218   2.896   2.082   2.308
 7107SOL     OW22219   3.926   1.056   0.018
 7107SOL    HW122220   3.834   1.094   0.024
 7107SOL    HW222221   3.990   1.128   7.011
 7108SOL     OW22222   3.814   0.028   2.107
 7108SOL    HW122223   3.765   0.068   2.029
 7108SOL    HW222224   3.832   6.950   2.089
 7109SOL     OW22225   3.138   4.672   5.758
 7109SOL    HW122226   3.152   4.581   5.719
 7109SOL    HW222227   3.128   4.739   5.684
 7110SOL     OW22228   2.608   6.011   5.668
 7110SOL    HW122229   2.526   5.963   5.701
 7110SOL    HW222230   2.689   5.972   5.711
 7111SOL     OW22231   6.874   0.960   4.941
 7111SOL    HW122232   6.866   0.946   5.039
 7111SOL    HW222233   6.828   1.044   4.915
 7112SOL     OW22234   6.649   5.033   5.446
 7112SOL    HW122235   6.718   5.104   5.429
 7112SOL    HW222236   6.673   4.983   5.529
 7113SOL     OW22237   3.232   6.960   5.112
 7113SOL    HW122238   3.271   0.032   5.098
 7113SOL    HW222239   3.152   6.966   5.171
 7114SOL     OW22240   5.192   4.022   0.595
 7114SOL    HW122241   5.289   4.021   0.570
 7114SOL    HW222242   5.142   4.080   0.531
 7115SOL     OW22243   4.741   2.734   5.707
 7115SOL    HW122244   4.673   2.807   5.700
 7115SOL    HW222245   4.761   2.717   5.804
 7116SOL     OW22246   6.646   5.213   4.794
 7116SOL    HW122247   6.703   5.132   4.781
 7116SOL    HW222248   6.550   5.185   4.804
 7117SOL     OW22249   4.499   0.297   2.796
 7117SOL    HW122250   4.499   0.265   2.890
 7117SOL    HW222251   4.518   0.396   2.794
 7118SOL     OW22252   4.542   4.226   5.997
 7118SOL    HW122253   4.547   4.154   6.066
 7118SOL    HW222254   4.551   4.315   6.042
 7119SOL     OW22255   2.925   6.399   4.483
 7119SOL    HW122256   2.962   6.464   4.417
 7119SOL    HW222257   2.856   6.342   4.439
 7120SOL     OW22258   4.404   1.461   1.626
 7120SOL    HW122259   4.420   1.487   1.722
 7120SOL    HW222260   4.492   1.456   1.579
 7121SOL     OW22261   0.856   6.251   2.326
 7121SOL    HW122262   0.905   6.326   2.369
 7121SOL    HW222263   0.794   6.287   2.255
 7122SOL     OW22264   3.238   1.891   6.353
 7122SOL    HW122265   3.263   1.969   6.295
 7122SOL    HW222266   3.203   1.817   6.295
 7123SOL     OW22267   5.098   4.609   6.509
 7123SOL    HW122268   5.180   4.609   6.451
 7123SOL    HW222269   5.064   4.516   6.519
 7124SOL     OW22270   2.961   2.757   0.035
 7124SOL    HW122271   2.863   2.780   0.035
 7124SOL    HW222272   3.002   2.785   0.122
 7125SOL     OW22273   0.947   6.783   1.657
 7125SOL    HW122274   0.856   6.763   1.694
 7125SOL    HW222275   0.986   6.700   1.617
 7126SOL     OW22276   4.294   5.107   1.132
 7126SOL    HW122277   4.294   5.028   1.193
 7126SOL    HW222278   4.206   5.112   1.085
 7127SOL     OW22279   3.333   6.737   5.484
 7127SOL    HW122280   3.374   6.767   5.398
 7127SOL    HW222281   3.290   6.647   5.471
 7128SOL     OW22282   3.168   4.422   0.256
 7128SOL    HW122283   3.097   4.362   0.293
 7128SOL    HW222284   3.253   4.411   0.308
 7129SOL     OW22285   0.065   0.759   0.095
 7129SOL    HW122286   0.006   0.826   0.049
 7129SOL    HW222287   0.160   0.792   0.094
 7130SOL     OW22288   3.626   0.278   4.111
 7130SOL    HW122289   3.602   0.360   4.060
 7130SOL    HW222290   3.719   0.249   4.087
 7131SOL     OW22291   2.342   1.489   2.666
 7131SOL    HW122292   2.280   1.565   2.687
 7131SOL    HW222293   2.322   1.454   2.574
 7132SOL     OW22294   5.296   4.291   1.631
 7132SOL    HW122295   5.207   4.277   1.676
 7132SOL    HW222296   5.311   4.388   1.616
 7133SOL     OW22297   3.853   6.082   2.669
 7133SOL    HW122298   3.924   6.055   2.736
 7133SOL    HW222299   3.775   6.020   2.678
 7134SOL     OW22300   4.797   4.961   0.094
 7134SOL    HW122301   4.734   4.978   0.018
 7134SOL    HW222302   4.889   4.947   0.059
 7135SOL     OW22303   2.002   4.436   1.644
 7135SOL    HW122304   1.959   4.389   1.567
 7135SOL    HW222305   2.060   4.373   1.695
 7136SOL     OW22306   1.255   2.888   1.952
 7136SOL    HW122307   1.193   2.876   1.874
 7136SOL    HW222308   1.341   2.840   1.933
 7137SOL     OW22309   2.152   0.491   2.124
 7137SOL    HW122310   2.134   0.511   2.220
 7137SOL    HW222311   2.067   0.462   2.079
 7138SOL     OW22312   6.673   3.102   6.881
 7138SOL    HW122313   6.671   3.115   6.782
 7138SOL    HW222314   6.767   3.106   6.914
 7139SOL     OW22315   6.174   5.574   1.085
 7139SOL    HW122316   6.115   5.609   1.158
 7139SOL    HW222317   6.151   5.620   0.999
 7140SOL     OW22318   0.157   5.131   0.546
 7140SOL    HW122319   0.251   5.119   0.577
 7140SOL    HW222320   0.138   5.228   0.534
 7141SOL     OW22321   3.484   1.216   1.169
 7141SOL    HW122322   3.408   1.151   1.170
 7141SOL    HW222323   3.495   1.253   1.076
 7142SOL     OW22324   4.619   6.894   5.660
 7142SOL    HW122325   4.687   6.871   5.591
 7142SOL    HW222326   4.606   6.817   5.722
 7143SOL     OW22327   3.133   2.952   5.765
 7143SOL    HW122328   3.138   3.051   5.752
 7143SOL    HW222329   3.226   2.914   5.768
 7144SOL     OW22330   6.468   1.121   5.548
 7144SOL    HW122331   6.451   1.220   5.542
 7144SOL    HW222332   6.387   1.072   5.516
 7145SOL     OW22333   6.554   2.836   5.675
 7145SOL    HW122334   6.536   2.918   5.729
 7145SOL    HW222335   6.582   2.862   5.583
 7146SOL     OW22336   0.113   1.559   4.609
 7146SOL    HW122337   0.156   1.612   4.682
 7146SOL    HW222338   0.026   1.521   4.642
 7147SOL     OW22339   6.639   6.750   1.156
 7147SOL    HW122340   6.598   6.692   1.226
 7147SOL    HW222341   6.703   6.696   1.101
 7148SOL     OW22342   5.546   6.498   0.477
 7148SOL    HW122343   5.620   6.490   0.545
 7148SOL    HW222344   5.586   6.514   0.387
 7149SOL     OW22345   5.841   4.349   6.095
 7149SOL    HW122346   5.909   4.381   6.030
 7149SOL    HW222347   5.791   4.427   6.133
 7150SOL     OW22348   3.160   2.164   7.017
 7150SOL    HW122349   3.144   2.078   0.048
 7150SOL    HW222350   3.231   2.149   6.948
 7151SOL     OW22351   5.389   1.842   6.989
 7151SOL    HW122352   5.423   1.921   6.938
 7151SOL    HW222353   5.463   1.775   6.998
 7152SOL     OW22354   5.006   0.092   5.584
 7152SOL    HW122355   4.976   0.037   5.506
 7152SOL    HW222356   4.929   0.144   5.619
 7153SOL     OW22357   4.747   5.913   0.749
 7153SOL    HW122358   4.692   5.984   0.793
 7153SOL    HW222359   4.698   5.826   0.753
 7154SOL     OW22360   4.924   0.583   1.764
 7154SOL    HW122361   4.876   0.635   1.834
 7154SOL    HW222362   5.016   0.560   1.797
 7155SOL     OW22363   2.317   6.895   1.253
 7155SOL    HW122364   2.278   6.936   1.170
 7155SOL    HW222365   2.377   6.962   1.297
 7156SOL     OW22366   6.238   3.439   5.156
 7156SOL    HW122367   6.142   3.443   5.183
 7156SOL    HW222368   6.248   3.466   5.060
 7157SOL     OW22369   6.985   3.670   5.518
 7157SOL    HW122370   0.016   3.735   5.461
 7157SOL    HW222371   0.009   3.580   5.513
 7158SOL     OW22372   5.139   0.333   3.560
 7158SOL    HW122373   5.091   0.273   3.496
 7158SOL    HW222374   5.155   0.422   3.517
 7159SOL     OW22375   0.425   6.444   3.161
 7159SOL    HW122376   0.442   6.542   3.172
 7159SOL    HW222377   0.454   6.396   3.244
 7160SOL     OW22378   5.836   6.805   2.749
 7160SOL    HW122379   5.822   6.856   2.835
 7160SOL    HW222380   5.881   6.865   2.683
 7161SOL     OW22381   3.770   3.693   2.324
 7161SOL    HW122382   3.699   3.654   2.382
 7161SOL    HW222383   3.727   3.739   2.246
 7162SOL     OW22384   0.406   6.394   0.571
 7162SOL    HW122385   0.363   6.307   0.545
 7162SOL    HW222386   0.490   6.407   0.519
 7163SOL     OW22387   6.773   0.216   0.131
 7163SOL    HW122388   6.739   0.310   0.127
 7163SOL    HW222389   6.866   0.216   0.168
 7164SOL     OW22390   1.803   7.016   0.434
 7164SOL    HW122391   1.786   0.095   0.421
 7164SOL    HW222392   1.729   6.977   0.489
 7165SOL     OW22393   4.483   2.050   6.368
 7165SOL    HW122394   4.513   1.960   6.401
 7165SOL    HW222395   4.549   2.119   6.396
 7166SOL     OW22396   6.532   6.086   5.141
 7166SOL    HW122397   6.454   6.093   5.079
 7166SOL    HW222398   6.587   6.006   5.117
 7167SOL     OW22399   0.635   3.330   5.656
 7167SOL    HW122400   0.636   3.260   5.728
 7167SOL    HW222401   0.540   3.355   5.636
 7168SOL     OW22402   1.408   0.642   2.504
 7168SOL    HW122403   1.379   0.694   2.584
 7168SOL    HW222404   1.328   0.601   2.460
 7169SOL     OW22405   2.066   4.454   5.997
 7169SOL    HW122406   2.141   4.465   6.061
 7169SOL    HW222407   2.045   4.542   5.954
 7170SOL     OW22408   3.726   2.159   1.242
 7170SOL    HW122409   3.800   2.150   1.175
 7170SOL    HW222410   3.762   2.145   1.334
 7171SOL     OW22411   0.194   4.751   1.018
 7171SOL    HW122412   0.194   4.658   0.980
 7171SOL    HW222413   0.209   4.747   1.117
 7172SOL     OW22414   1.087   2.648   3.584
 7172SOL    HW122415   1.125   2.633   3.493
 7172SOL    HW222416   1.048   2.740   3.589
 7173SOL     OW22417   3.522   5.411   4.963
 7173SOL    HW122418   3.589   5.480   4.937
 7173SOL    HW222419   3.430   5.447   4.949
 7174SOL     OW22420   6.707   3.720   2.238
 7174SOL    HW122421   6.611   3.709   2.210
 7174SOL    HW222422   6.757   3.636   2.220
 7175SOL     OW22423   6.698   3.394   5.872
 7175SOL    HW122424   6.790   3.411   5.836
 7175SOL    HW222425   6.676   3.297   5.864
 7176SOL     OW22426   0.311   1.274   6.688
 7176SOL    HW122427   0.359   1.231   6.765
 7176SOL    HW222428   0.248   1.344   6.723
 7177SOL     OW22429   1.133   5.671   3.281
 7177SOL    HW122430   1.144   5.731   3.201
 7177SOL    HW222431   1.041   5.631   3.280
 7178SOL     OW22432   1.137   6.342   5.998
 7178SOL    HW122433   1.093   6.292   5.923
 7178SOL    HW222434   1.073   6.349   6.075
 7179SOL     OW22435   4.773   4.507   5.924
 7179SOL    HW122436   4.871   4.504   5.907
 7179SOL    HW222437   4.738   4.598   5.900
 7180SOL     OW22438   0.856   2.613   2.077
 7180SOL    HW122439   0.777   2.552   2.083
 7180SOL    HW222440   0.880   2.645   2.168
 7181SOL     OW22441   3.200   0.686   0.495
 7181SOL    HW122442   3.229   0.714   0.404
 7181SOL    HW222443   3.280   0.674   0.554
 7182SOL     OW22444   1.890   1.016   3.293
 7182SOL    HW122445   1.989   1.015   3.304
 7182SOL    HW222446   1.866   1.059   3.206
 7183SOL     OW22447   1.325   6.858   1.545
 7183SOL    HW122448   1.417   6.844   1.508
 7183SOL    HW222449   1.316   6.807   1.631
 7184SOL     OW22450   0.116   0.820   3.681
 7184SOL    HW122451   0.183   0.894   3.672
 7184SOL    HW222452   0.162   0.738   3.714
 7185SOL     OW22453   4.179   0.724   3.511
 7185SOL    HW122454   4.162   0.651   3.577
 7185SOL    HW222455   4.150   0.695   3.420
 7186SOL     OW22456   0.028   1.305   6.515
 7186SOL    HW122457   7.016   1.384   6.462
 7186SOL    HW222458   0.088   1.336   6.589
 7187SOL     OW22459   3.416   3.555   4.096
 7187SOL    HW122460   3.330   3.537   4.144
 7187SOL    HW222461   3.463   3.632   4.139
 7188SOL     OW22462   5.271   4.668   0.080
 7188SOL    HW122463   5.315   4.661   0.170
 7188SOL    HW222464   5.177   4.635   0.086
 7189SOL     OW22465   0.100   2.369   5.997
 7189SOL    HW122466   0.032   2.359   5.924
 7189SOL    HW222467   0.073   2.445   6.057
 7190SOL     OW22468   6.004   5.884   0.399
 7190SOL    HW122469   5.928   5.820   0.389
 7190SOL    HW222470   6.029   5.891   0.495
 7191SOL     OW22471   7.007   5.328   2.312
 7191SOL    HW122472   0.027   5.261   2.375
 7191SOL    HW222473   0.059   5.361   2.251
 7192SOL     OW22474   3.045   3.913   5.221
 7192SOL    HW122475   2.964   3.929   5.277
 7192SOL    HW222476   3.041   3.821   5.182
 7193SOL     OW22477   3.506   1.431   3.901
 7193SOL    HW122478   3.594   1.478   3.892
 7193SOL    HW222479   3.476   1.399   3.812
 7194SOL     OW22480   3.427   2.338   5.544
 7194SOL    HW122481   3.367   2.381   5.612
 7194SOL    HW222482   3.467   2.255   5.582
 7195SOL     OW22483   0.641   3.760   6.088
 7195SOL    HW122484   0.621   3.849   6.047
 7195SOL    HW222485   0.708   3.712   6.032
 7196SOL     OW22486   3.126   3.566   1.637
 7196SOL    HW122487   3.116   3.608   1.548
 7196SOL    HW222488   3.087   3.626   1.707
 7197SOL     OW22489   3.316   4.910   6.662
 7197SOL    HW122490   3.282   5.005   6.661
 7197SOL    HW222491   3.283   4.864   6.744
 7198SOL     OW22492   1.150   0.395   1.968
 7198SOL    HW122493   1.164   0.322   2.034
 7198SOL    HW222494   1.108   0.357   1.885
 7199SOL     OW22495   6.158   0.905   3.464
 7199SOL    HW122496   6.075   0.882   3.413
 7199SOL    HW222497   6.229   0.936   3.402
 7200SOL     OW22498   1.002   3.323   6.585
 7200SOL    HW122499   0.911   3.285   6.567
 7200SOL    HW222500   1.035   3.291   6.674
 7201SOL     OW22501   5.927   6.305   4.089
 7201SOL    HW122502   5.855   6.302   4.159
 7201SOL    HW222503   5.928   6.218   4.039
 7202SOL     OW22504   4.728   0.605   5.722
 7202SOL    HW122505   4.750   0.640   5.631
 7202SOL    HW222506   4.788   0.647   5.790
 7203SOL     OW22507   0.802   1.847   1.099
 7203SOL    HW122508   0.762   1.796   1.024
 7203SOL    HW222509   0.868   1.913   1.063
 7204SOL     OW22510   5.964   1.047   2.944
 7204SOL    HW122511   5.879   1.000   2.964
 7204SOL    HW222512   6.039   0.981   2.936
 7205SOL     OW22513   2.906   1.279   4.114
 7205SOL    HW122514   2.825   1.336   4.126
 7205SOL    HW222515   2.984   1.336   4.087
 7206SOL     OW22516   2.186   3.103   6.693
 7206SOL    HW122517   2.222   3.125   6.783
 7206SOL    HW222518   2.093   3.066   6.702
 7207SOL     OW22519   1.474   1.256   2.970
 7207SOL    HW122520   1.464   1.351   3.000
 7207SOL    HW222521   1.410   1.199   3.022
 7208SOL     OW22522   3.620   0.299   3.464
 7208SOL    HW122523   3.556   0.322   3.391
 7208SOL    HW222524   3.577   0.317   3.552
 7209SOL     OW22525   3.890   0.787   2.426
 7209SOL    HW122526   3.806   0.831   2.458
 7209SOL    HW222527   3.871   0.737   2.342
 7210SOL     OW22528   3.624   1.539   4.265
 7210SOL    HW122529   3.606   1.550   4.363
 7210SOL    HW222530   3.708   1.588   4.241
 7211SOL     OW22531   3.866   6.304   5.852
 7211SOL    HW122532   3.773   6.334   5.874
 7211SOL    HW222533   3.922   6.385   5.831
 7212SOL     OW22534   0.735   5.807   5.526
 7212SOL    HW122535   0.679   5.744   5.579
 7212SOL    HW222536   0.821   5.763   5.503
 7213SOL     OW22537   4.472   2.793   0.438
 7213SOL    HW122538   4.498   2.890   0.442
 7213SOL    HW222539   4.465   2.764   0.343
 7214SOL     OW22540   6.181   1.251   6.164
 7214SOL    HW122541   6.185   1.284   6.259
 7214SOL    HW222542   6.272   1.219   6.137
 7215SOL     OW22543   6.328   1.665   2.749
 7215SOL    HW122544   6.306   1.569   2.731
 7215SOL    HW222545   6.336   1.715   2.663
 7216SOL     OW22546   5.448   6.892   3.776
 7216SOL    HW122547   5.382   6.963   3.752
 7216SOL    HW222548   5.444   6.876   3.875
 7217SOL     OW22549   0.991   3.306   3.448
 7217SOL    HW122550   1.034   3.313   3.359
 7217SOL    HW222551   0.977   3.397   3.486
 7218SOL     OW22552   6.543   2.468   5.144
 7218SOL    HW122553   6.453   2.425   5.152
 7218SOL    HW222554   6.614   2.400   5.165
 7219SOL     OW22555   2.716   6.136   2.008
 7219SOL    HW122556   2.706   6.093   1.919
 7219SOL    HW222557   2.710   6.067   2.080
 7220SOL     OW22558   6.639   3.868   3.533
 7220SOL    HW122559   6.720   3.860   3.475
 7220SOL    HW222560   6.579   3.940   3.497
 7221SOL     OW22561   4.379   4.979   3.646
 7221SOL    HW122562   4.326   4.900   3.616
 7221SOL    HW222563   4.323   5.062   3.636
 7222SOL     OW22564   6.858   5.935   4.373
 7222SOL    HW122565   6.789   6.005   4.390
 7222SOL    HW222566   6.866   5.919   4.275
 7223SOL     OW22567   6.730   5.734   1.978
 7223SOL    HW122568   6.818   5.718   2.023
 7223SOL    HW222569   6.673   5.652   1.987
 7224SOL     OW22570   4.670   2.430   2.719
 7224SOL    HW122571   4.603   2.404   2.649
 7224SOL    HW222572   4.633   2.505   2.774
 7225SOL     OW22573   0.873   5.643   0.404
 7225SOL    HW122574   0.867   5.667   0.308
 7225SOL    HW222575   0.809   5.699   0.457
 7226SOL     OW22576   5.700   6.287   6.870
 7226SOL    HW122577   5.732   6.312   6.962
 7226SOL    HW222578   5.630   6.353   6.840
 7227SOL     OW22579   1.885   0.828   2.167
 7227SOL    HW122580   1.977   0.827   2.205
 7227SOL    HW222581   1.832   0.903   2.208
 7228SOL     OW22582   5.750   3.153   2.627
 7228SOL    HW122583   5.740   3.165   2.528
 7228SOL    HW222584   5.661   3.159   2.671
 7229SOL     OW22585   6.014   6.875   5.100
 7229SOL    HW122586   5.986   6.827   5.016
 7229SOL    HW222587   6.100   6.835   5.133
 7230SOL     OW22588   2.307   5.007   4.928
 7230SOL    HW122589   2.376   5.017   4.856
 7230SOL    HW222590   2.343   5.042   5.014
 7231SOL     OW22591   3.764   3.795   6.176
 7231SOL    HW122592   3.835   3.773   6.109
 7231SOL    HW222593   3.806   3.833   6.258
 7232SOL     OW22594   4.196   6.011   3.634
 7232SOL    HW122595   4.149   6.095   3.661
 7232SOL    HW222596   4.293   6.030   3.621
 7233SOL     OW22597   0.395   1.383   6.252
 7233SOL    HW122598   0.422   1.386   6.348
 7233SOL    HW222599   0.305   1.338   6.244
 7234SOL     OW22600   5.438   5.016   3.173
 7234SOL    HW122601   5.346   4.978   3.163
 7234SOL    HW222602   5.476   4.987   3.261
 7235SOL     OW22603   6.253   0.835   1.988
 7235SOL    HW122604   6.202   0.749   1.991
 7235SOL    HW222605   6.245   0.881   2.076
 7236SOL     OW22606   1.130   3.684   3.035
 7236SOL    HW122607   1.053   3.730   2.991
 7236SOL    HW222608   1.097   3.632   3.113
 7237SOL     OW22609   5.322   1.488   0.160
 7237SOL    HW122610   5.301   1.390   0.158
 7237SOL    HW222611   5.355   1.516   0.070
 7238SOL     OW22612   4.211   3.588   0.138
 7238SOL    HW122613   4.199   3.607   0.041
 7238SOL    HW222614   4.210   3.490   0.153
 7239SOL     OW22615   5.561   2.677   1.882
 7239SOL    HW122616   5.624   2.692   1.807
 7239SOL    HW222617   5.542   2.579   1.892
 7240SOL     OW22618   0.256   1.489   0.480
 7240SOL    HW122619   0.218   1.418   0.539
 7240SOL    HW222620   0.299   1.446   0.400
 7241SOL     OW22621   1.720   6.816   2.586
 7241SOL    HW122622   1.624   6.841   2.572
 7241SOL    HW222623   1.758   6.871   2.661
 7242SOL     OW22624   6.483   4.642   5.314
 7242SOL    HW122625   6.496   4.725   5.259
 7242SOL    HW222626   6.537   4.648   5.398
 7243SOL     OW22627   5.634   4.543   6.191
 7243SOL    HW122628   5.607   4.594   6.109
 7243SOL    HW222629   5.562   4.476   6.213
 7244SOL     OW22630   6.680   5.747   6.799
 7244SOL    HW122631   6.708   5.700   6.883
 7244SOL    HW222632   6.610   5.693   6.753
 7245SOL     OW22633   1.283   2.833   0.029
 7245SOL    HW122634   1.244   2.745   0.004
 7245SOL    HW222635   1.282   2.843   0.129
 7246SOL     OW22636   4.210   7.000   3.478
 7246SOL    HW122637   4.132   0.002   3.420
 7246SOL    HW222638   4.178   6.950   3.559
 7247SOL     OW22639   3.019   3.889   4.522
 7247SOL    HW122640   3.015   3.932   4.431
 7247SOL    HW222641   3.114   3.877   4.549
 7248SOL     OW22642   2.906   1.824   5.408
 7248SOL    HW122643   2.909   1.923   5.407
 7248SOL    HW222644   2.993   1.788   5.443
 7249SOL     OW22645   3.186   5.794   2.932
 7249SOL    HW122646   3.203   5.883   2.892
 7249SOL    HW222647   3.099   5.795   2.982
 7250SOL     OW22648   5.633   5.331   5.551
 7250SOL    HW122649   5.591   5.372   5.632
 7250SOL    HW222650   5.562   5.289   5.494
 7251SOL     OW22651   1.112   5.522   4.254
 7251SOL    HW122652   1.033   5.537   4.314
 7251SOL    HW222653   1.083   5.534   4.158
 7252SOL     OW22654   4.147   3.653   2.128
 7252SOL    HW122655   4.104   3.580   2.076
 7252SOL    HW222656   4.246   3.639   2.129
 7253SOL     OW22657   2.191   5.233   4.753
 7253SOL    HW122658   2.152   5.312   4.802
 7253SOL    HW222659   2.200   5.157   4.817
 7254SOL     OW22660   6.604   3.757   3.785
 7254SOL    HW122661   6.516   3.709   3.776
 7254SOL    HW222662   6.620   3.812   3.704
 7255SOL     OW22663   4.673   3.934   0.117
 7255SOL    HW122664   4.668   3.928   0.217
 7255SOL    HW222665   4.617   4.011   0.085
 7256SOL     OW22666   3.383   6.961   4.306
 7256SOL    HW122667   3.474   6.995   4.281
 7256SOL    HW222668   3.345   6.908   4.230
 7257SOL     OW22669   0.872   1.248   5.020
 7257SOL    HW122670   0.782   1.233   5.060
 7257SOL    HW222671   0.873   1.336   4.972
 7258SOL     OW22672   6.239   2.624   2.041
 7258SOL    HW122673   6.233   2.704   2.100
 7258SOL    HW222674   6.309   2.639   1.971
 7259SOL     OW22675   1.517   3.833   2.442
 7259SOL    HW122676   1.442   3.892   2.411
 7259SOL    HW222677   1.511   3.745   2.395
 7260SOL     OW22678   6.227   3.069   0.942
 7260SOL    HW122679   6.310   3.018   0.915
 7260SOL    HW222680   6.207   3.052   1.038
 7261SOL     OW22681   6.868   3.906   6.848
 7261SOL    HW122682   6.770   3.892   6.831
 7261SOL    HW222683   6.910   3.821   6.879
 7262SOL     OW22684   4.699   1.216   5.009
 7262SOL    HW122685   4.665   1.200   4.916
 7262SOL    HW222686   4.786   1.264   5.005
 7263SOL     OW22687   6.629   5.512   5.582
 7263SOL    HW122688   6.582   5.579   5.639
 7263SOL    HW222689   6.674   5.558   5.506
 7264SOL     OW22690   5.716   1.532   1.819
 7264SOL    HW122691   5.681   1.509   1.909
 7264SOL    HW222692   5.675   1.618   1.788
 7265SOL     OW22693   3.933   0.663   5.437
 7265SOL    HW122694   3.956   0.756   5.465
 7265SOL    HW222695   3.952   0.600   5.513
 7266SOL     OW22696   0.407   0.702   2.965
 7266SOL    HW122697   0.404   0.801   2.973
 7266SOL    HW222698   0.317   0.664   2.985
 7267SOL     OW22699   6.824   4.261   4.440
 7267SOL    HW122700   6.897   4.215   4.389
 7267SOL    HW222701   6.857   4.349   4.473
 7268SOL     OW22702   6.064   6.521   4.133
 7268SOL    HW122703   6.114   6.501   4.218
 7268SOL    HW222704   6.018   6.438   4.102
 7269SOL     OW22705   2.635   4.639   4.455
 7269SOL    HW122706   2.720   4.591   4.479
 7269SOL    HW222707   2.602   4.688   4.536
 7270SOL     OW22708   0.699   0.087   4.713
 7270SOL    HW122709   0.671   0.128   4.627
 7270SOL    HW222710   0.624   0.093   4.779
 7271SOL     OW22711   0.498   4.996   3.055
 7271SOL    HW122712   0.473   4.925   2.989
 7271SOL    HW222713   0.476   4.964   3.147
 7272SOL     OW22714   6.316   3.933   1.812
 7272SOL    HW122715   6.311   3.941   1.912
 7272SOL    HW222716   6.271   4.011   1.770
 7273SOL     OW22717   0.789   1.564   5.512
 7273SOL    HW122718   0.729   1.622   5.567
 7273SOL    HW222719   0.857   1.622   5.467
 7274SOL     OW22720   0.415   5.358   6.000
 7274SOL    HW122721   0.383   5.336   6.093
 7274SOL    HW222722   0.506   5.399   6.005
 7275SOL     OW22723   0.941   6.046   3.737
 7275SOL    HW122724   0.978   5.953   3.738
 7275SOL    HW222725   0.896   6.063   3.649
 7276SOL     OW22726   4.504   6.098   3.534
 7276SOL    HW122727   4.578   6.052   3.584
 7276SOL    HW222728   4.480   6.183   3.581
 7277SOL     OW22729   4.760   0.954   0.504
 7277SOL    HW122730   4.665   0.984   0.496
 7277SOL    HW222731   4.796   0.934   0.413
 7278SOL     OW22732   3.486   2.962   2.368
 7278SOL    HW122733   3.541   2.902   2.309
 7278SOL    HW222734   3.431   3.023   2.311
 7279SOL     OW22735   3.555   6.790   6.261
 7279SOL    HW122736   3.458   6.810   6.278
 7279SOL    HW222737   3.602   6.873   6.232
 7280SOL     OW22738   4.841   1.601   5.919
 7280SOL    HW122739   4.772   1.528   5.918
 7280SOL    HW222740   4.795   1.690   5.919
 7281SOL     OW22741   5.680   1.188   6.171
 7281SOL    HW122742   5.742   1.239   6.111
 7281SOL    HW222743   5.594   1.239   6.181
 7282SOL     OW22744   5.569   6.085   1.966
 7282SOL    HW122745   5.667   6.064   1.970
 7282SOL    HW222746   5.556   6.179   1.935
 7283SOL     OW22747   2.298   0.990   4.091
 7283SOL    HW122748   2.241   0.947   4.161
 7283SOL    HW222749   2.245   1.061   4.045
 7284SOL     OW22750   1.146   1.805   5.364
 7284SOL    HW122751   1.210   1.821   5.289
 7284SOL    HW222752   1.180   1.849   5.447
 7285SOL     OW22753   6.139   4.712   1.586
 7285SOL    HW122754   6.197   4.692   1.665
 7285SOL    HW222755   6.067   4.643   1.579
 7286SOL     OW22756   2.080   4.299   0.598
 7286SOL    HW122757   2.094   4.309   0.499
 7286SOL    HW222758   1.982   4.302   0.617
 7287SOL     OW22759   5.890   1.329   5.570
 7287SOL    HW122760   5.852   1.407   5.621
 7287SOL    HW222761   5.870   1.244   5.619
 7288SOL     OW22762   2.774   6.879   0.165
 7288SOL    HW122763   2.768   6.977   0.183
 7288SOL    HW222764   2.813   6.832   0.244
 7289SOL     OW22765   4.926   2.364   4.420
 7289SOL    HW122766   4.842   2.420   4.419
 7289SOL    HW222767   5.006   2.425   4.418
 7290SOL     OW22768   2.835   5.710   4.470
 7290SOL    HW122769   2.818   5.613   4.455
 7290SOL    HW222770   2.900   5.722   4.545
 7291SOL     OW22771   3.435   4.819   1.473
 7291SOL    HW122772   3.440   4.882   1.551
 7291SOL    HW222773   3.393   4.866   1.395
 7292SOL     OW22774   3.120   6.874   4.877
 7292SOL    HW122775   3.181   6.820   4.818
 7292SOL    HW222776   3.173   6.914   4.952
 7293SOL     OW22777   1.938   1.616   6.662
 7293SOL    HW122778   1.959   1.674   6.741
 7293SOL    HW222779   1.929   1.672   6.580
 7294SOL     OW22780   5.119   5.695   0.198
 7294SOL    HW122781   5.188   5.625   0.211
 7294SOL    HW222782   5.043   5.658   0.145
 7295SOL     OW22783   5.277   0.139   1.349
 7295SOL    HW122784   5.295   0.235   1.371
 7295SOL    HW222785   5.243   0.092   1.431
 7296SOL     OW22786   4.302   5.186   1.730
 7296SOL    HW122787   4.383   5.212   1.678
 7296SOL    HW222788   4.223   5.237   1.697
 7297SOL     OW22789   5.305   6.812   2.292
 7297SOL    HW122790   5.379   6.878   2.284
 7297SOL    HW222791   5.267   6.815   2.385
 7298SOL     OW22792   6.715   3.619   4.111
 7298SOL    HW122793   6.634   3.572   4.076
 7298SOL    HW222794   6.780   3.552   4.147
 7299SOL     OW22795   5.455   3.504   6.328
 7299SOL    HW122796   5.440   3.449   6.246
 7299SOL    HW222797   5.528   3.462   6.383
 7300SOL     OW22798   4.793   5.384   1.500
 7300SOL    HW122799   4.717   5.335   1.543
 7300SOL    HW222800   4.861   5.407   1.569
 7301SOL     OW22801   6.538   1.447   6.261
 7301SOL    HW122802   6.505   1.384   6.330
 7301SOL    HW222803   6.570   1.531   6.304
 7302SOL     OW22804   5.681   0.701   6.387
 7302SOL    HW122805   5.633   0.703   6.299
 7302SOL    HW222806   5.619   0.670   6.459
 7303SOL     OW22807   3.729   0.571   0.753
 7303SOL    HW122808   3.778   0.577   0.667
 7303SOL    HW222809   3.725   0.662   0.795
 7304SOL     OW22810   3.898   3.634   5.186
 7304SOL    HW122811   3.889   3.536   5.205
 7304SOL    HW222812   3.823   3.664   5.126
 7305SOL     OW22813   5.517   1.638   0.326
 7305SOL    HW122814   5.470   1.565   0.276
 7305SOL    HW222815   5.562   1.600   0.407
 7306SOL     OW22816   4.945   4.877   2.007
 7306SOL    HW122817   5.010   4.821   2.059
 7306SOL    HW222818   4.857   4.830   2.003
 7307SOL     OW22819   4.025   6.289   2.299
 7307SOL    HW122820   4.038   6.330   2.209
 7307SOL    HW222821   4.111   6.249   2.331
 7308SOL     OW22822   6.112   0.677   4.093
 7308SOL    HW122823   6.113   0.777   4.083
 7308SOL    HW222824   6.204   0.641   4.083
 7309SOL     OW22825   4.464   5.160   2.005
 7309SOL    HW122826   4.562   5.165   2.019
 7309SOL    HW222827   4.436   5.225   1.934
 7310SOL     OW22828   1.926   5.842   1.923
 7310SOL    HW122829   1.932   5.817   1.826
 7310SOL    HW222830   2.016   5.834   1.965
 7311SOL     OW22831   2.585   2.041   2.396
 7311SOL    HW122832   2.614   2.100   2.320
 7311SOL    HW222833   2.589   1.945   2.367
 7312SOL     OW22834   0.208   2.142   6.116
 7312SOL    HW122835   0.158   2.056   6.102
 7312SOL    HW222836   0.163   2.215   6.064
 7313SOL     OW22837   3.523   2.567   6.184
 7313SOL    HW122838   3.601   2.543   6.127
 7313SOL    HW222839   3.484   2.653   6.152
 7314SOL     OW22840   1.335   2.659   4.689
 7314SOL    HW122841   1.314   2.563   4.672
 7314SOL    HW222842   1.376   2.700   4.607
 7315SOL     OW22843   0.007   0.726   5.914
 7315SOL    HW122844   0.085   0.732   5.852
 7315SOL    HW222845   0.039   0.705   6.006
 7316SOL     OW22846   4.118   3.324   5.126
 7316SOL    HW122847   4.114   3.238   5.076
 7316SOL    HW222848   4.025   3.359   5.140
 7317SOL     OW22849   3.022   1.249   3.676
 7317SOL    HW122850   3.021   1.155   3.709
 7317SOL    HW222851   2.952   1.302   3.725
 7318SOL     OW22852   1.702   1.869   1.340
 7318SOL    HW122853   1.607   1.900   1.328
 7318SOL    HW222854   1.706   1.770   1.325
 7319SOL     OW22855   0.080   4.220   6.020
 7319SOL    HW122856   0.165   4.173   5.997
 7319SOL    HW222857   0.079   4.240   6.118
 7320SOL     OW22858   6.908   2.353   2.505
 7320SOL    HW122859   6.811   2.333   2.495
 7320SOL    HW222860   6.962   2.278   2.465
 7321SOL     OW22861   2.794   1.593   4.500
 7321SOL    HW122862   2.888   1.562   4.483
 7321SOL    HW222863   2.760   1.551   4.584
 7322SOL     OW22864   0.506   3.572   1.801
 7322SOL    HW122865   0.434   3.632   1.836
 7322SOL    HW222866   0.498   3.482   1.843
 7323SOL     OW22867   2.231   3.980   3.110
 7323SOL    HW122868   2.218   4.027   3.197
 7323SOL    HW222869   2.290   3.901   3.122
 7324SOL     OW22870   4.931   5.454   2.810
 7324SOL    HW122871   5.000   5.398   2.766
 7324SOL    HW222872   4.881   5.507   2.741
 7325SOL     OW22873   3.072   6.289   0.416
 7325SOL    HW122874   3.108   6.327   0.501
 7325SOL    HW222875   3.142   6.296   0.344
 7326SOL     OW22876   2.227   1.078   4.549
 7326SOL    HW122877   2.327   1.076   4.555
 7326SOL    HW222878   2.188   1.079   4.641
 7327SOL     OW22879   1.433   2.792   5.156
 7327SOL    HW122880   1.419   2.774   5.058
 7327SOL    HW222881   1.525   2.827   5.171
 7328SOL     OW22882   2.733   6.959   6.594
 7328SOL    HW122883   2.674   6.896   6.542
 7328SOL    HW222884   2.826   6.956   6.557
 7329SOL     OW22885   4.597   3.583   1.495
 7329SOL    HW122886   4.653   3.635   1.559
 7329SOL    HW222887   4.508   3.564   1.537
 7330SOL     OW22888   4.340   2.481   0.690
 7330SOL    HW122889   4.435   2.450   0.682
 7330SOL    HW222890   4.320   2.502   0.786
 7331SOL     OW22891   5.173   1.275   2.144
 7331SOL    HW122892   5.131   1.205   2.201
 7331SOL    HW222893   5.201   1.235   2.057
 7332SOL     OW22894   3.495   5.355   0.893
 7332SOL    HW122895   3.444   5.441   0.900
 7332SOL    HW222896   3.431   5.278   0.899
 7333SOL     OW22897   0.647   4.752   2.502
 7333SOL    HW122898   0.565   4.778   2.552
 7333SOL    HW222899   0.693   4.676   2.549
 7334SOL     OW22900   3.722   6.881   4.540
 7334SOL    HW122901   3.721   6.979   4.523
 7334SOL    HW222902   3.633   6.852   4.576
 7335SOL     OW22903   2.307   2.821   2.788
 7335SOL    HW122904   2.375   2.767   2.836
 7335SOL    HW222905   2.292   2.784   2.696
 7336SOL     OW22906   1.934   6.413   4.321
 7336SOL    HW122907   2.023   6.422   4.276
 7336SOL    HW222908   1.937   6.340   4.389
 7337SOL     OW22909   4.812   2.348   2.039
 7337SOL    HW122910   4.886   2.308   1.985
 7337SOL    HW222911   4.780   2.282   2.107
 7338SOL     OW22912   6.530   3.212   0.106
 7338SOL    HW122913   6.551   3.262   0.022
 7338SOL    HW222914   6.475   3.132   0.084
 7339SOL     OW22915   1.218   5.588   4.645
 7339SOL    HW122916   1.300   5.614   4.593
 7339SOL    HW222917   1.184   5.500   4.612
 7340SOL     OW22918   2.388   6.954   6.591
 7340SOL    HW122919   2.291   6.959   6.613
 7340SOL    HW222920   2.441   6.934   6.674
 7341SOL     OW22921   6.633   1.585   0.727
 7341SOL    HW122922   6.607   1.615   0.635
 7341SOL    HW222923   6.698   1.509   0.719
 7342SOL     OW22924   0.420   6.353   2.195
 7342SOL    HW122925   0.344   6.398   2.241
 7342SOL    HW222926   0.395   6.334   2.100
 7343SOL     OW22927   5.864   2.925   0.683
 7343SOL    HW122928   5.816   2.937   0.596
 7343SOL    HW222929   5.811   2.866   0.743
 7344SOL     OW22930   1.839   6.149   6.117
 7344SOL    HW122931   1.911   6.128   6.182
 7344SOL    HW222932   1.828   6.248   6.109
 7345SOL     OW22933   3.388   5.744   5.851
 7345SOL    HW122934   3.439   5.752   5.936
 7345SOL    HW222935   3.434   5.680   5.789
 7346SOL     OW22936   4.260   5.218   2.546
 7346SOL    HW122937   4.250   5.123   2.578
 7346SOL    HW222938   4.225   5.226   2.453
 7347SOL     OW22939   6.340   1.458   0.221
 7347SOL    HW122940   6.301   1.550   0.215
 7347SOL    HW222941   6.397   1.441   0.141
 7348SOL     OW22942   6.351   4.679   0.194
 7348SOL    HW122943   6.405   4.728   0.125
 7348SOL    HW222944   6.352   4.581   0.173
 7349SOL     OW22945   3.880   1.637   1.641
 7349SOL    HW122946   3.822   1.652   1.721
 7349SOL    HW222947   3.928   1.722   1.618
 7350SOL     OW22948   3.896   0.876   4.116
 7350SOL    HW122949   3.824   0.910   4.055
 7350SOL    HW222950   3.890   0.924   4.204
 7351SOL     OW22951   2.253   4.414   4.434
 7351SOL    HW122952   2.335   4.357   4.430
 7351SOL    HW222953   2.172   4.355   4.434
 7352SOL     OW22954   6.236   3.795   4.037
 7352SOL    HW122955   6.312   3.767   4.097
 7352SOL    HW222956   6.149   3.770   4.080
 7353SOL     OW22957   6.598   0.688   5.624
 7353SOL    HW122958   6.518   0.628   5.613
 7353SOL    HW222959   6.666   0.641   5.681
 7354SOL     OW22960   0.805   1.684   2.812
 7354SOL    HW122961   0.747   1.661   2.890
 7354SOL    HW222962   0.894   1.640   2.822
 7355SOL     OW22963   3.304   1.707   0.404
 7355SOL    HW122964   3.335   1.623   0.359
 7355SOL    HW222965   3.256   1.764   0.337
 7356SOL     OW22966   3.930   3.803   5.965
 7356SOL    HW122967   3.929   3.734   5.893
 7356SOL    HW222968   3.956   3.891   5.927
 7357SOL     OW22969   5.224   6.638   2.065
 7357SOL    HW122970   5.265   6.693   2.138
 7357SOL    HW222971   5.145   6.589   2.101
 7358SOL     OW22972   5.581   0.657   3.493
 7358SOL    HW122973   5.651   0.651   3.564
 7358SOL    HW222974   5.490   0.657   3.535
 7359SOL     OW22975   4.546   6.807   1.770
 7359SOL    HW122976   4.626   6.860   1.798
 7359SOL    HW222977   4.478   6.808   1.843
 7360SOL     OW22978   2.894   3.427   4.952
 7360SOL    HW122979   2.959   3.374   5.006
 7360SOL    HW222980   2.802   3.390   4.965
 7361SOL     OW22981   6.850   0.444   3.176
 7361SOL    HW122982   6.883   0.352   3.199
 7361SOL    HW222983   6.919   0.512   3.200
 7362SOL     OW22984   3.205   5.764   0.224
 7362SOL    HW122985   3.182   5.670   0.201
 7362SOL    HW222986   3.295   5.787   0.187
 7363SOL     OW22987   4.089   0.990   1.357
 7363SOL    HW122988   4.119   0.958   1.447
 7363SOL    HW222989   4.137   0.938   1.286
 7364SOL     OW22990   6.009   6.416   1.701
 7364SOL    HW122991   6.021   6.320   1.674
 7364SOL    HW222992   5.963   6.420   1.789
 7365SOL     OW22993   4.973   3.888   2.339
 7365SOL    HW122994   4.919   3.916   2.259
 7365SOL    HW222995   4.932   3.925   2.422
 7366SOL     OW22996   2.216   6.917   3.462
 7366SOL    HW122997   2.182   6.955   3.376
 7366SOL    HW222998   2.309   6.883   3.450
 7367SOL     OW22999   4.379   1.012   6.227
 7367SOL    HW123000   4.427   0.935   6.186
 7367SOL    HW223001   4.412   1.025   6.321
 7368SOL     OW23002   3.487   3.363   3.476
 7368SOL    HW123003   3.424   3.341   3.550
 7368SOL    HW223004   3.574   3.394   3.515
 7369SOL     OW23005   5.787   3.267   0.133
 7369SOL    HW123006   5.736   3.271   0.219
 7369SOL    HW223007   5.855   3.195   0.139
 7370SOL     OW23008   1.737   1.176   4.812
 7370SOL    HW123009   1.682   1.105   4.854
 7370SOL    HW223010   1.687   1.216   4.735
 7371SOL     OW23011   3.772   1.185   3.667
 7371SOL    HW123012   3.852   1.142   3.708
 7371SOL    HW223013   3.689   1.142   3.703
 7372SOL     OW23014   5.286   1.341   5.371
 7372SOL    HW123015   5.362   1.288   5.408
 7372SOL    HW223016   5.248   1.293   5.292
 7373SOL     OW23017   6.005   3.146   4.404
 7373SOL    HW123018   6.035   3.204   4.328
 7373SOL    HW223019   6.079   3.141   4.472
 7374SOL     OW23020   0.395   2.016   6.317
 7374SOL    HW123021   0.459   1.943   6.293
 7374SOL    HW223022   0.357   2.055   6.234
 7375SOL     OW23023   1.744   3.651   0.497
 7375SOL    HW123024   1.750   3.705   0.413
 7375SOL    HW223025   1.834   3.647   0.540
 7376SOL     OW23026   0.019   4.378   0.697
 7376SOL    HW123027   7.002   4.393   0.605
 7376SOL    HW223028   6.975   4.321   0.749
 7377SOL     OW23029   2.543   5.743   1.535
 7377SOL    HW123030   2.589   5.817   1.584
 7377SOL    HW223031   2.571   5.655   1.573
 7378SOL     OW23032   2.021   5.179   5.171
 7378SOL    HW123033   1.926   5.193   5.143
 7378SOL    HW223034   2.034   5.084   5.200
 7379SOL     OW23035   4.364   1.659   2.707
 7379SOL    HW123036   4.375   1.750   2.667
 7379SOL    HW223037   4.273   1.623   2.684
 7380SOL     OW23038   5.464   3.225   1.626
 7380SOL    HW123039   5.539   3.290   1.642
 7380SOL    HW223040   5.436   3.185   1.713
 7381SOL     OW23041   3.797   6.796   2.002
 7381SOL    HW123042   3.818   6.702   2.028
 7381SOL    HW223043   3.793   6.803   1.902
 7382SOL     OW23044   6.916   1.516   6.416
 7382SOL    HW123045   6.988   1.556   6.360
 7382SOL    HW223046   6.915   1.560   6.506
 7383SOL     OW23047   2.081   6.671   0.828
 7383SOL    HW123048   2.028   6.648   0.910
 7383SOL    HW223049   2.170   6.626   0.833
 7384SOL     OW23050   6.549   6.530   0.794
 7384SOL    HW123051   6.567   6.497   0.701
 7384SOL    HW223052   6.566   6.628   0.799
 7385SOL     OW23053   6.211   4.951   3.014
 7385SOL    HW123054   6.160   4.864   3.015
 7385SOL    HW223055   6.297   4.938   2.966
 7386SOL     OW23056   5.159   3.603   6.772
 7386SOL    HW123057   5.192   3.594   6.678
 7386SOL    HW223058   5.146   3.700   6.794
 7387SOL     OW23059   6.271   5.841   4.450
 7387SOL    HW123060   6.274   5.742   4.440
 7387SOL    HW223061   6.276   5.865   4.548
 7388SOL     OW23062   2.296   4.253   2.659
 7388SOL    HW123063   2.244   4.284   2.579
 7388SOL    HW223064   2.249   4.176   2.702
 7389SOL     OW23065   6.503   3.166   0.394
 7389SOL    HW123066   6.501   3.212   0.305
 7389SOL    HW223067   6.426   3.198   0.450
 7390SOL     OW23068   2.608   2.412   3.897
 7390SOL    HW123069   2.627   2.317   3.920
 7390SOL    HW223070   2.657   2.437   3.814
 7391SOL     OW23071   3.533   3.749   3.210
 7391SOL    HW123072   3.481   3.751   3.295
 7391SOL    HW223073   3.622   3.707   3.227
 7392SOL     OW23074   2.955   6.894   0.414
 7392SOL    HW123075   2.995   6.873   0.325
 7392SOL    HW223076   2.969   6.817   0.476
 7393SOL     OW23077   4.644   5.668   3.368
 7393SOL    HW123078   4.691   5.694   3.453
 7393SOL    HW223079   4.547   5.688   3.376
 7394SOL     OW23080   2.327   2.134   5.674
 7394SOL    HW123081   2.239   2.113   5.716
 7394SOL    HW223082   2.373   2.049   5.648
 7395SOL     OW23083   3.080   5.879   1.077
 7395SOL    HW123084   3.021   5.856   1.000
 7395SOL    HW223085   3.131   5.962   1.056
 7396SOL     OW23086   1.423   5.136   2.278
 7396SOL    HW123087   1.375   5.049   2.290
 7396SOL    HW223088   1.357   5.207   2.253
 7397SOL     OW23089   6.207   4.784   3.848
 7397SOL    HW123090   6.164   4.696   3.832
 7397SOL    HW223091   6.306   4.771   3.859
 7398SOL     OW23092   3.186   4.941   2.192
 7398SOL    HW123093   3.271   4.926   2.140
 7398SOL    HW223094   3.119   4.871   2.167
 7399SOL     OW23095   5.416   1.293   6.147
 7399SOL    HW123096   5.368   1.211   6.114
 7399SOL    HW223097   5.356   1.373   6.137
 7400SOL     OW23098   4.693   3.724   5.727
 7400SOL    HW123099   4.682   3.804   5.667
 7400SOL    HW223100   4.723   3.755   5.817
 7401SOL     OW23101   1.511   2.425   3.698
 7401SOL    HW123102   1.601   2.392   3.670
 7401SOL    HW223103   1.476   2.368   3.772
 7402SOL     OW23104   3.783   5.269   4.297
 7402SOL    HW123105   3.828   5.290   4.210
 7402SOL    HW223106   3.798   5.343   4.361
 7403SOL     OW23107   2.066   4.275   4.158
 7403SOL    HW123108   2.101   4.275   4.251
 7403SOL    HW223109   1.973   4.313   4.157
 7404SOL     OW23110   2.730   3.863   0.747
 7404SOL    HW123111   2.719   3.891   0.651
 7404SOL    HW223112   2.807   3.800   0.755
 7405SOL     OW23113   3.796   6.730   5.673
 7405SOL    HW123114   3.750   6.814   5.645
 7405SOL    HW223115   3.733   6.653   5.666
 7406SOL     OW23116   1.006   1.997   4.224
 7406SOL    HW123117   1.037   2.080   4.270
 7406SOL    HW223118   0.909   1.982   4.243
 7407SOL     OW23119   1.379   6.092   5.615
 7407SOL    HW123120   1.362   6.003   5.573
 7407SOL    HW223121   1.417   6.155   5.548
 7408SOL     OW23122   4.413   5.572   4.903
 7408SOL    HW123123   4.376   5.535   4.818
 7408SOL    HW223124   4.365   5.532   4.981
 7409SOL     OW23125   6.651   4.288   1.269
 7409SOL    HW123126   6.653   4.358   1.340
 7409SOL    HW223127   6.576   4.224   1.287
 7410SOL     OW23128   6.424   0.569   1.112
 7410SOL    HW123129   6.333   0.527   1.116
 7410SOL    HW223130   6.493   0.501   1.133
 7411SOL     OW23131   3.199   1.637   4.942
 7411SOL    HW123132   3.212   1.672   4.850
 7411SOL    HW223133   3.101   1.630   4.962
 7412SOL     OW23134   4.012   6.817   0.579
 7412SOL    HW123135   3.997   6.879   0.501
 7412SOL    HW223136   4.106   6.782   0.576
 7413SOL     OW23137   4.802   0.972   3.627
 7413SOL    HW123138   4.753   1.054   3.596
 7413SOL    HW223139   4.855   0.993   3.709
 7414SOL     OW23140   2.968   0.658   3.834
 7414SOL    HW123141   2.879   0.702   3.821
 7414SOL    HW223142   2.956   0.559   3.839
 7415SOL     OW23143   4.150   6.874   6.209
 7415SOL    HW123144   4.050   6.868   6.216
 7415SOL    HW223145   4.187   6.786   6.180
 7416SOL     OW23146   1.793   0.597   1.837
 7416SOL    HW123147   1.787   0.664   1.763
 7416SOL    HW223148   1.726   0.524   1.821
 7417SOL     OW23149   0.885   0.759   2.211
 7417SOL    HW123150   0.929   0.694   2.149
 7417SOL    HW223151   0.896   0.852   2.176
 7418SOL     OW23152   1.657   4.188   6.317
 7418SOL    HW123153   1.684   4.195   6.413
 7418SOL    HW223154   1.717   4.123   6.270
 7419SOL     OW23155   6.871   3.416   4.231
 7419SOL    HW123156   6.942   3.391   4.296
 7419SOL    HW223157   6.847   3.337   4.175
 7420SOL     OW23158   6.577   6.345   1.003
 7420SOL    HW123159   6.569   6.402   0.921
 7420SOL    HW223160   6.490   6.299   1.021
 7421SOL     OW23161   5.797   4.046   0.848
 7421SOL    HW123162   5.745   3.962   0.861
 7421SOL    HW223163   5.851   4.066   0.930
 7422SOL     OW23164   5.607   3.257   1.901
 7422SOL    HW123165   5.673   3.331   1.919
 7422SOL    HW223166   5.655   3.178   1.863
 7423SOL     OW23167   4.459   2.406   6.385
 7423SOL    HW123168   4.421   2.335   6.446
 7423SOL    HW223169   4.404   2.489   6.393
 7424SOL     OW23170   0.813   2.322   3.325
 7424SOL    HW123171   0.810   2.417   3.295
 7424SOL    HW223172   0.878   2.312   3.400
 7425SOL     OW23173   5.508   0.806   0.996
 7425SOL    HW123174   5.467   0.746   1.066
 7425SOL    HW223175   5.441   0.823   0.924
 7426SOL     OW23176   2.746   2.749   5.655
 7426SOL    HW123177   2.735   2.809   5.576
 7426SOL    HW223178   2.657   2.714   5.684
 7427SOL     OW23179   2.502   6.835   3.209
 7427SOL    HW123180   2.549   6.923   3.203
 7427SOL    HW223181   2.504   6.803   3.303
 7428SOL     OW23182   3.416   0.165   5.037
 7428SOL    HW123183   3.505   0.170   5.081
 7428SOL    HW223184   3.377   0.257   5.031
 7429SOL     OW23185   0.980   0.346   2.371
 7429SOL    HW123186   1.040   0.306   2.441
 7429SOL    HW223187   0.917   0.275   2.337
 7430SOL     OW23188   6.921   4.981   2.841
 7430SOL    HW123189   6.895   4.904   2.783
 7430SOL    HW223190   7.017   5.003   2.826
 7431SOL     OW23191   0.844   1.783   3.797
 7431SOL    HW123192   0.876   1.877   3.789
 7431SOL    HW223193   0.790   1.759   3.716
 7432SOL     OW23194   1.661   0.823   3.064
 7432SOL    HW123195   1.741   0.796   3.117
 7432SOL    HW223196   1.655   0.923   3.061
 7433SOL     OW23197   3.284   6.844   6.516
 7433SOL    HW123198   3.307   6.865   6.421
 7433SOL    HW223199   3.229   6.761   6.520
 7434SOL     OW23200   4.415   0.096   3.639
 7434SOL    HW123201   4.405   0.044   3.554
 7434SOL    HW223202   4.451   0.036   3.711
 7435SOL     OW23203   4.897   4.568   3.225
 7435SOL    HW123204   4.847   4.643   3.268
 7435SOL    HW223205   4.834   4.509   3.175
 7436SOL     OW23206   5.504   3.264   6.090
 7436SOL    HW123207   5.487   3.322   6.010
 7436SOL    HW223208   5.448   3.181   6.083
 7437SOL     OW23209   3.571   0.697   1.506
 7437SOL    HW123210   3.490   0.665   1.457
 7437SOL    HW223211   3.642   0.625   1.503
 7438SOL     OW23212   2.137   0.207   6.598
 7438SOL    HW123213   2.210   0.220   6.530
 7438SOL    HW223214   2.126   0.109   6.616
 7439SOL     OW23215   0.843   4.904   5.935
 7439SOL    HW123216   0.889   4.857   6.010
 7439SOL    HW223217   0.856   5.003   5.946
 7440SOL     OW23218   5.754   4.091   4.174
 7440SOL    HW123219   5.745   4.120   4.270
 7440SOL    HW223220   5.831   4.027   4.166
 7441SOL     OW23221   4.625   6.037   1.132
 7441SOL    HW123222   4.706   5.990   1.096
 7441SOL    HW223223   4.580   6.088   1.058
 7442SOL     OW23224   5.445   1.020   6.450
 7442SOL    HW123225   5.398   1.077   6.382
 7442SOL    HW223226   5.432   0.924   6.427
 7443SOL     OW23227   6.965   0.537   1.411
 7443SOL    HW123228   0.034   0.535   1.457
 7443SOL    HW223229   6.973   0.593   1.328
 7444SOL     OW23230   1.804   6.525   0.186
 7444SOL    HW123231   1.759   6.585   0.120
 7444SOL    HW223232   1.735   6.483   0.244
 7445SOL     OW23233   3.731   5.575   2.298
 7445SOL    HW123234   3.771   5.653   2.250
 7445SOL    HW223235   3.679   5.607   2.377
 7446SOL     OW23236   5.905   4.641   6.842
 7446SOL    HW123237   5.813   4.602   6.835
 7446SOL    HW223238   5.951   4.602   6.922
 7447SOL     OW23239   0.657   5.237   1.062
 7447SOL    HW123240   0.728   5.240   0.991
 7447SOL    HW223241   0.657   5.323   1.113
 7448SOL     OW23242   4.548   5.154   6.482
 7448SOL    HW123243   4.581   5.173   6.390
 7448SOL    HW223244   4.456   5.191   6.493
 7449SOL     OW23245   6.063   4.451   5.936
 7449SOL    HW123246   6.095   4.483   5.847
 7449SOL    HW223247   6.074   4.352   5.941
 7450SOL     OW23248   5.766   2.084   6.461
 7450SOL    HW123249   5.693   2.019   6.439
 7450SOL    HW223250   5.763   2.160   6.396
 7451SOL     OW23251   4.524   4.469   3.256
 7451SOL    HW123252   4.566   4.389   3.299
 7451SOL    HW223253   4.517   4.543   3.323
 7452SOL     OW23254   6.445   5.488   6.230
 7452SOL    HW123255   6.454   5.468   6.132
 7452SOL    HW223256   6.372   5.433   6.270
 7453SOL     OW23257   3.938   5.817   6.014
 7453SOL    HW123258   3.947   5.738   6.075
 7453SOL    HW223259   3.891   5.891   6.062
 7454SOL     OW23260   3.478   2.276   1.203
 7454SOL    HW123261   3.435   2.302   1.290
 7454SOL    HW223262   3.569   2.238   1.222
 7455SOL     OW23263   6.899   0.915   3.168
 7455SOL    HW123264   6.955   0.991   3.199
 7455SOL    HW223265   6.947   0.829   3.182
 7456SOL     OW23266   2.948   2.091   6.102
 7456SOL    HW123267   2.925   2.033   6.024
 7456SOL    HW223268   2.915   2.184   6.085
 7457SOL     OW23269   1.153   1.213   2.677
 7457SOL    HW123270   1.243   1.241   2.643
 7457SOL    HW223271   1.137   1.117   2.656
 7458SOL     OW23272   1.038   5.411   5.171
 7458SOL    HW123273   1.019   5.364   5.084
 7458SOL    HW223274   1.009   5.506   5.164
 7459SOL     OW23275   6.007   7.006   3.197
 7459SOL    HW123276   6.003   0.074   3.148
 7459SOL    HW223277   6.052   0.001   3.286
 7460SOL     OW23278   1.159   0.316   1.369
 7460SOL    HW123279   1.089   0.383   1.395
 7460SOL    HW223280   1.114   0.233   1.335
 7461SOL     OW23281   2.028   4.366   4.702
 7461SOL    HW123282   2.113   4.397   4.746
 7461SOL    HW223283   1.951   4.416   4.740
 7462SOL     OW23284   1.780   4.416   0.335
 7462SOL    HW123285   1.852   4.456   0.392
 7462SOL    HW223286   1.710   4.486   0.317
 7463SOL     OW23287   5.040   4.969   1.576
 7463SOL    HW123288   4.952   4.975   1.623
 7463SOL    HW223289   5.049   4.879   1.532
 7464SOL     OW23290   6.326   5.833   5.067
 7464SOL    HW123291   6.406   5.774   5.076
 7464SOL    HW223292   6.254   5.785   5.016
 7465SOL     OW23293   1.405   4.302   6.519
 7465SOL    HW123294   1.437   4.373   6.456
 7465SOL    HW223295   1.441   4.319   6.610
 7466SOL     OW23296   0.106   0.421   5.008
 7466SOL    HW123297   0.185   0.464   4.964
 7466SOL    HW223298   0.023   0.470   4.982
 7467SOL     OW23299   0.582   3.493   4.708
 7467SOL    HW123300   0.658   3.553   4.682
 7467SOL    HW223301   0.616   3.421   4.770
 7468SOL     OW23302   5.149   2.575   5.847
 7468SOL    HW123303   5.171   2.646   5.779
 7468SOL    HW223304   5.075   2.518   5.812
 7469SOL     OW23305   0.387   1.637   0.674
 7469SOL    HW123306   0.342   1.577   0.608
 7469SOL    HW223307   0.320   1.675   0.737
 7470SOL     OW23308   5.285   3.287   3.887
 7470SOL    HW123309   5.366   3.244   3.848
 7470SOL    HW223310   5.313   3.362   3.948
 7471SOL     OW23311   3.718   0.180   0.013
 7471SOL    HW123312   3.643   0.126   6.994
 7471SOL    HW223313   3.778   0.210   6.958
 7472SOL     OW23314   0.505   0.176   5.781
 7472SOL    HW123315   0.447   0.255   5.800
 7472SOL    HW223316   0.479   0.136   5.693
 7473SOL     OW23317   3.791   5.766   3.480
 7473SOL    HW123318   3.889   5.784   3.470
 7473SOL    HW223319   3.762   5.703   3.409
 7474SOL     OW23320   6.004   2.190   0.634
 7474SOL    HW123321   6.000   2.250   0.554
 7474SOL    HW223322   6.033   2.242   0.714
 7475SOL     OW23323   4.978   3.064   0.857
 7475SOL    HW123324   4.939   3.140   0.805
 7475SOL    HW223325   4.966   3.082   0.955
 7476SOL     OW23326   2.540   0.859   2.781
 7476SOL    HW123327   2.585   0.847   2.869
 7476SOL    HW223328   2.598   0.915   2.721
 7477SOL     OW23329   2.398   3.520   6.126
 7477SOL    HW123330   2.486   3.486   6.092
 7477SOL    HW223331   2.367   3.595   6.069
 7478SOL     OW23332   0.079   1.714   5.729
 7478SOL    HW123333   0.002   1.760   5.771
 7478SOL    HW223334   0.046   1.639   5.671
 7479SOL     OW23335   4.746   2.608   1.280
 7479SOL    HW123336   4.704   2.524   1.245
 7479SOL    HW223337   4.734   2.612   1.379
 7480SOL     OW23338   3.653   6.115   2.909
 7480SOL    HW123339   3.690   6.094   2.999
 7480SOL    HW223340   3.708   6.187   2.866
 7481SOL     OW23341   0.111   3.665   6.190
 7481SOL    HW123342   0.049   3.738   6.160
 7481SOL    HW223343   0.093   3.643   6.286
 7482SOL     OW23344   5.315   2.148   4.057
 7482SOL    HW123345   5.287   2.181   3.967
 7482SOL    HW223346   5.254   2.074   4.086
 7483SOL     OW23347   4.551   1.785   6.390
 7483SOL    HW123348   4.513   1.722   6.458
 7483SOL    HW223349   4.585   1.732   6.312
 7484SOL     OW23350   3.098   0.589   4.257
 7484SOL    HW123351   3.051   0.646   4.189
 7484SOL    HW223352   3.129   0.504   4.213
 7485SOL     OW23353   3.811   0.437   6.555
 7485SOL    HW123354   3.860   0.366   6.504
 7485SOL    HW223355   3.862   0.460   6.638
 7486SOL     OW23356   4.512   6.941   0.864
 7486SOL    HW123357   4.608   6.911   0.864
 7486SOL    HW223358   4.463   6.896   0.789
 7487SOL     OW23359   3.471   6.585   4.200
 7487SOL    HW123360   3.401   6.595   4.130
 7487SOL    HW223361   3.556   6.551   4.158
 7488SOL     OW23362   1.104   5.850   4.044
 7488SOL    HW123363   1.039   5.813   3.978
 7488SOL    HW223364   1.161   5.920   4.000
 7489SOL     OW23365   5.406   2.865   6.775
 7489SOL    HW123366   5.387   2.816   6.860
 7489SOL    HW223367   5.414   2.963   6.794
 7490SOL     OW23368   1.811   2.847   2.289
 7490SOL    HW123369   1.806   2.768   2.350
 7490SOL    HW223370   1.855   2.821   2.203
 7491SOL     OW23371   4.366   3.901   0.060
 7491SOL    HW123372   4.379   3.932   0.155
 7491SOL    HW223373   4.398   3.807   0.051
 7492SOL     OW23374   1.556   0.270   4.006
 7492SOL    HW123375   1.572   0.248   4.103
 7492SOL    HW223376   1.534   0.187   3.956
 7493SOL     OW23377   6.465   4.899   4.535
 7493SOL    HW123378   6.463   4.928   4.630
 7493SOL    HW223379   6.507   4.971   4.479
 7494SOL     OW23380   6.579   1.601   2.910
 7494SOL    HW123381   6.653   1.575   2.848
 7494SOL    HW223382   6.500   1.630   2.856
 7495SOL     OW23383   1.673   3.253   5.069
 7495SOL    HW123384   1.772   3.263   5.076
 7495SOL    HW223385   1.650   3.175   5.012
 7496SOL     OW23386   6.493   4.178   2.265
 7496SOL    HW123387   6.433   4.224   2.200
 7496SOL    HW223388   6.453   4.091   2.292
 7497SOL     OW23389   6.110   0.107   1.576
 7497SOL    HW123390   6.099   0.015   1.537
 7497SOL    HW223391   6.074   0.108   1.670
 7498SOL     OW23392   3.103   6.746   3.568
 7498SOL    HW123393   3.018   6.795   3.548
 7498SOL    HW223394   3.169   6.810   3.607
 7499SOL     OW23395   3.452   1.262   3.459
 7499SOL    HW123396   3.422   1.219   3.543
 7499SOL    HW223397   3.402   1.348   3.446
 7500SOL     OW23398   4.336   0.758   3.860
 7500SOL    HW123399   4.296   0.698   3.791
 7500SOL    HW223400   4.264   0.790   3.922
 7501SOL     OW23401   6.717   1.830   4.620
 7501SOL    HW123402   6.810   1.836   4.657
 7501SOL    HW223403   6.651   1.822   4.694
 7502SOL     OW23404   4.469   1.008   3.816
 7502SOL    HW123405   4.471   1.042   3.910
 7502SOL    HW223406   4.446   0.910   3.816
 7503SOL     OW23407   1.625   5.878   1.865
 7503SOL    HW123408   1.722   5.899   1.878
 7503SOL    HW223409   1.589   5.934   1.789
 7504SOL     OW23410   5.526   6.641   4.542
 7504SOL    HW123411   5.596   6.624   4.471
 7504SOL    HW223412   5.542   6.581   4.619
 7505SOL     OW23413   0.742   6.321   5.671
 7505SOL    HW123414   0.815   6.336   5.605
 7505SOL    HW223415   0.690   6.239   5.646
 7506SOL     OW23416   3.283   1.948   3.723
 7506SOL    HW123417   3.273   1.998   3.638
 7506SOL    HW223418   3.354   1.877   3.712
 7507SOL     OW23419   6.628   4.277   6.439
 7507SOL    HW123420   6.626   4.183   6.473
 7507SOL    HW223421   6.548   4.326   6.474
 7508SOL     OW23422   2.602   6.376   0.695
 7508SOL    HW123423   2.575   6.343   0.604
 7508SOL    HW223424   2.586   6.303   0.762
 7509SOL     OW23425   6.097   4.224   2.132
 7509SOL    HW123426   6.092   4.261   2.225
 7509SOL    HW223427   6.027   4.267   2.075
 7510SOL     OW23428   3.787   4.031   2.115
 7510SOL    HW123429   3.818   4.116   2.072
 7510SOL    HW223430   3.865   3.972   2.133
 7511SOL     OW23431   4.497   5.904   3.877
 7511SOL    HW123432   4.426   5.843   3.842
 7511SOL    HW223433   4.572   5.850   3.915
 7512SOL     OW23434   4.108   0.837   1.085
 7512SOL    HW123435   4.205   0.821   1.105
 7512SOL    HW223436   4.095   0.933   1.058
 7513SOL     OW23437   1.145   1.127   1.964
 7513SOL    HW123438   1.200   1.064   2.018
 7513SOL    HW223439   1.161   1.221   1.996
 7514SOL     OW23440   0.148   6.664   1.321
 7514SOL    HW123441   0.142   6.658   1.421
 7514SOL    HW223442   0.120   6.576   1.281
 7515SOL     OW23443   6.959   4.441   5.163
 7515SOL    HW123444   6.880   4.380   5.168
 7515SOL    HW223445   0.022   4.388   5.141
 7516SOL     OW23446   1.747   6.412   5.241
 7516SOL    HW123447   1.740   6.418   5.340
 7516SOL    HW223448   1.776   6.320   5.215
 7517SOL     OW23449   1.078   1.419   6.314
 7517SOL    HW123450   1.135   1.499   6.296
 7517SOL    HW223451   1.134   1.337   6.309
 7518SOL     OW23452   4.041   1.998   4.448
 7518SOL    HW123453   3.969   2.066   4.462
 7518SOL    HW223454   4.130   2.044   4.442
 7519SOL     OW23455   3.838   0.086   4.448
 7519SOL    HW123456   3.878   0.113   4.361
 7519SOL    HW223457   3.907   0.043   4.506
 7520SOL     OW23458   1.945   1.495   0.599
 7520SOL    HW123459   1.969   1.447   0.683
 7520SOL    HW223460   1.992   1.452   0.522
 7521SOL     OW23461   4.192   1.593   5.066
 7521SOL    HW123462   4.110   1.552   5.106
 7521SOL    HW223463   4.246   1.636   5.138
 7522SOL     OW23464   2.092   6.668   4.071
 7522SOL    HW123465   2.029   6.703   4.001
 7522SOL    HW223466   2.178   6.717   4.066
 7523SOL     OW23467   5.680   1.400   0.345
 7523SOL    HW123468   5.742   1.323   0.358
 7523SOL    HW223469   5.655   1.438   0.434
 7524SOL     OW23470   0.139   3.598   4.772
 7524SOL    HW123471   0.053   3.646   4.754
 7524SOL    HW223472   0.215   3.663   4.768
 7525SOL     OW23473   3.020   4.618   6.005
 7525SOL    HW123474   3.049   4.628   5.910
 7525SOL    HW223475   3.098   4.589   6.061
 7526SOL     OW23476   1.878   4.105   0.868
 7526SOL    HW123477   1.879   4.007   0.885
 7526SOL    HW223478   1.963   4.146   0.904
 7527SOL     OW23479   2.838   5.236   2.640
 7527SOL    HW123480   2.849   5.207   2.545
 7527SOL    HW223481   2.928   5.245   2.683
 7528SOL     OW23482   6.231   2.489   5.587
 7528SOL    HW123483   6.156   2.513   5.525
 7528SOL    HW223484   6.256   2.569   5.642
 7529SOL     OW23485   6.239   3.507   4.203
 7529SOL    HW123486   6.298   3.546   4.273
 7529SOL    HW223487   6.151   3.555   4.202
 7530SOL     OW23488   0.867   2.966   3.246
 7530SOL    HW123489   0.963   2.938   3.248
 7530SOL    HW223490   0.847   3.020   3.328
 7531SOL     OW23491   3.724   1.841   3.858
 7531SOL    HW123492   3.749   1.850   3.954
 7531SOL    HW223493   3.805   1.821   3.803
 7532SOL     OW23494   4.891   5.841   6.712
 7532SOL    HW123495   4.864   5.832   6.616
 7532SOL    HW223496   4.912   5.937   6.731
 7533SOL     OW23497   4.332   4.583   1.888
 7533SOL    HW123498   4.296   4.598   1.980
 7533SOL    HW223499   4.346   4.484   1.873
 7534SOL     OW23500   4.743   5.983   5.092
 7534SOL    HW123501   4.677   5.908   5.094
 7534SOL    HW223502   4.701   6.065   5.132
 7535SOL     OW23503   0.141   6.647   4.112
 7535SOL    HW123504   0.211   6.575   4.105
 7535SOL    HW223505   0.052   6.610   4.087
 7536SOL     OW23506   6.336   6.261   3.636
 7536SOL    HW123507   6.331   6.290   3.731
 7536SOL    HW223508   6.244   6.247   3.600
 7537SOL     OW23509   1.663   6.524   2.904
 7537SOL    HW123510   1.701   6.522   2.812
 7537SOL    HW223511   1.737   6.525   2.971
 7538SOL     OW23512   0.116   4.744   6.921
 7538SOL    HW123513   0.211   4.771   6.905
 7538SOL    HW223514   0.057   4.783   6.850
 7539SOL     OW23515   6.730   0.131   4.278
 7539SOL    HW123516   6.726   0.211   4.337
 7539SOL    HW223517   6.811   0.137   4.220
 7540SOL     OW23518   5.262   4.771   3.175
 7540SOL    HW123519   5.253   4.742   3.270
 7540SOL    HW223520   5.211   4.708   3.116
 7541SOL     OW23521   2.635   3.850   5.885
 7541SOL    HW123522   2.628   3.918   5.958
 7541SOL    HW223523   2.599   3.888   5.800
 7542SOL     OW23524   5.961   5.724   4.588
 7542SOL    HW123525   5.915   5.635   4.590
 7542SOL    HW223526   6.042   5.720   4.645
 7543SOL     OW23527   2.243   1.446   0.554
 7543SOL    HW123528   2.241   1.378   0.628
 7543SOL    HW223529   2.174   1.422   0.485
 7544SOL     OW23530   6.385   1.124   4.485
 7544SOL    HW123531   6.335   1.202   4.445
 7544SOL    HW223532   6.415   1.147   4.577
 7545SOL     OW23533   1.828   5.290   5.530
 7545SOL    HW123534   1.790   5.287   5.438
 7545SOL    HW223535   1.777   5.229   5.590
 7546SOL     OW23536   2.441   2.684   1.859
 7546SOL    HW123537   2.388   2.769   1.856
 7546SOL    HW223538   2.511   2.686   1.788
 7547SOL     OW23539   4.169   0.007   1.836
 7547SOL    HW123540   4.171   6.985   1.928
 7547SOL    HW223541   4.128   0.097   1.841
 7548SOL     OW23542   2.642   2.523   6.470
 7548SOL    HW123543   2.574   2.452   6.452
 7548SOL    HW223544   2.621   2.604   6.415
 7549SOL     OW23545   5.040   0.817   4.699
 7549SOL    HW123546   4.989   0.731   4.695
 7549SOL    HW223547   4.976   0.894   4.702
 7550SOL     OW23548   2.890   5.894   4.251
 7550SOL    HW123549   2.892   5.833   4.331
 7550SOL    HW223550   2.814   5.958   4.261
 7551SOL     OW23551   6.185   2.892   6.516
 7551SOL    HW123552   6.273   2.885   6.564
 7551SOL    HW223553   6.198   2.871   6.419
 7552SOL     OW23554   2.304   6.298   4.702
 7552SOL    HW123555   2.301   6.200   4.720
 7552SOL    HW223556   2.218   6.340   4.729
 7553SOL     OW23557   6.571   6.354   5.902
 7553SOL    HW123558   6.514   6.398   5.972
 7553SOL    HW223559   6.570   6.410   5.819
 7554SOL     OW23560   4.876   1.555   0.687
 7554SOL    HW123561   4.958   1.545   0.743
 7554SOL    HW223562   4.816   1.476   0.703
 7555SOL     OW23563   4.489   5.032   4.085
 7555SOL    HW123564   4.499   5.013   3.987
 7555SOL    HW223565   4.553   4.974   4.136
 7556SOL     OW23566   1.171   6.218   1.642
 7556SOL    HW123567   1.257   6.227   1.692
 7556SOL    HW223568   1.104   6.282   1.680
 7557SOL     OW23569   4.577   6.701   1.242
 7557SOL    HW123570   4.627   6.787   1.234
 7557SOL    HW223571   4.642   6.624   1.241
 7558SOL     OW23572   0.624   1.807   3.262
 7558SOL    HW123573   0.562   1.879   3.231
 7558SOL    HW223574   0.573   1.743   3.320
 7559SOL     OW23575   3.089   1.045   4.973
 7559SOL    HW123576   3.085   1.067   5.070
 7559SOL    HW223577   3.043   0.957   4.957
 7560SOL     OW23578   1.062   1.103   5.921
 7560SOL    HW123579   1.144   1.158   5.903
 7560SOL    HW223580   0.994   1.158   5.969
 7561SOL     OW23581   5.491   0.978   5.384
 7561SOL    HW123582   5.527   1.068   5.406
 7561SOL    HW223583   5.484   0.923   5.467
 7562SOL     OW23584   2.391   5.577   3.311
 7562SOL    HW123585   2.360   5.576   3.216
 7562SOL    HW223586   2.487   5.550   3.315
 7563SOL     OW23587   3.244   6.020   2.787
 7563SOL    HW123588   3.299   6.083   2.841
 7563SOL    HW223589   3.177   6.071   2.733
 7564SOL     OW23590   4.789   1.882   5.422
 7564SOL    HW123591   4.832   1.803   5.378
 7564SOL    HW223592   4.859   1.948   5.449
 7565SOL     OW23593   6.798   3.097   5.724
 7565SOL    HW123594   6.807   3.015   5.668
 7565SOL    HW223595   6.723   3.154   5.690
 7566SOL     OW23596   5.198   4.637   1.973
 7566SOL    HW123597   5.232   4.693   1.898
 7566SOL    HW223598   5.111   4.595   1.948
 7567SOL     OW23599   1.106   0.081   4.646
 7567SOL    HW123600   1.150   7.013   4.625
 7567SOL    HW223601   1.058   0.074   4.733
 7568SOL     OW23602   6.237   4.114   1.435
 7568SOL    HW123603   6.203   4.022   1.454
 7568SOL    HW223604   6.324   4.107   1.385
 7569SOL     OW23605   4.686   3.651   0.344
 7569SOL    HW123606   4.631   3.731   0.366
 7569SOL    HW223607   4.783   3.675   0.345
 7570SOL     OW23608   0.772   3.384   1.806
 7570SOL    HW123609   0.839   3.318   1.840
 7570SOL    HW223610   0.682   3.364   1.845
 7571SOL     OW23611   4.592   1.511   2.680
 7571SOL    HW123612   4.540   1.595   2.698
 7571SOL    HW223613   4.547   1.434   2.725
 7572SOL     OW23614   4.813   6.659   3.991
 7572SOL    HW123615   4.779   6.565   3.983
 7572SOL    HW223616   4.844   6.675   4.085
 7573SOL     OW23617   4.485   6.532   6.340
 7573SOL    HW123618   4.412   6.536   6.408
 7573SOL    HW223619   4.510   6.436   6.324
 7574SOL     OW23620   0.736   2.797   4.090
 7574SOL    HW123621   0.817   2.840   4.050
 7574SOL    HW223622   0.654   2.834   4.046
 7575SOL     OW23623   6.580   6.577   1.351
 7575SOL    HW123624   6.498   6.559   1.404
 7575SOL    HW223625   6.639   6.496   1.352
 7576SOL     OW23626   4.834   2.428   6.695
 7576SOL    HW123627   4.911   2.479   6.735
 7576SOL    HW223628   4.838   2.333   6.725
 7577SOL     OW23629   0.730   0.187   6.839
 7577SOL    HW123630   0.804   0.124   6.818
 7577SOL    HW223631   0.769   0.273   6.873
 7578SOL     OW23632   6.501   6.433   3.348
 7578SOL    HW123633   6.449   6.429   3.434
 7578SOL    HW223634   6.445   6.401   3.273
 7579SOL     OW23635   0.527   1.943   6.938
 7579SOL    HW123636   0.546   1.893   0.004
 7579SOL    HW223637   0.428   1.943   6.920
 7580SOL     OW23638   2.462   5.294   2.931
 7580SOL    HW123639   2.510   5.244   2.859
 7580SOL    HW223640   2.402   5.363   2.890
 7581SOL     OW23641   6.798   6.705   1.517
 7581SOL    HW123642   6.782   6.671   1.424
 7581SOL    HW223643   6.881   6.761   1.518
 7582SOL     OW23644   2.089   1.684   6.091
 7582SOL    HW123645   2.048   1.768   6.126
 7582SOL    HW223646   2.177   1.668   6.135
 7583SOL     OW23647   5.756   3.646   2.378
 7583SOL    HW123648   5.791   3.739   2.368
 7583SOL    HW223649   5.694   3.625   2.303
 7584SOL     OW23650   0.593   1.176   3.308
 7584SOL    HW123651   0.500   1.208   3.329
 7584SOL    HW223652   0.611   1.091   3.358
 7585SOL     OW23653   1.051   1.678   6.077
 7585SOL    HW123654   1.046   1.612   6.002
 7585SOL    HW223655   0.966   1.675   6.129
 7586SOL     OW23656   1.904   6.663   3.834
 7586SOL    HW123657   1.891   6.581   3.778
 7586SOL    HW223658   1.881   6.744   3.780
 7587SOL     OW23659   4.828   0.319   1.669
 7587SOL    HW123660   4.912   0.371   1.684
 7587SOL    HW223661   4.756   0.351   1.731
 7588SOL     OW23662   2.225   3.118   4.516
 7588SOL    HW123663   2.301   3.076   4.466
 7588SOL    HW223664   2.228   3.217   4.503
 7589SOL     OW23665   0.106   0.429   2.808
 7589SOL    HW123666   0.129   0.387   2.720
 7589SOL    HW223667   0.011   0.409   2.831
 7590SOL     OW23668   6.204   1.149   0.558
 7590SOL    HW123669   6.263   1.197   0.493
 7590SOL    HW223670   6.227   1.052   0.558
 7591SOL     OW23671   2.969   3.803   4.766
 7591SOL    HW123672   2.905   3.863   4.814
 7591SOL    HW223673   2.983   3.837   4.673
 7592SOL     OW23674   0.293   6.584   3.828
 7592SOL    HW123675   0.251   6.590   3.919
 7592SOL    HW223676   0.298   6.676   3.788
 7593SOL     OW23677   6.697   1.166   6.209
 7593SOL    HW123678   6.733   1.214   6.130
 7593SOL    HW223679   6.730   1.208   6.293
 7594SOL     OW23680   6.849   3.823   5.817
 7594SOL    HW123681   6.946   3.802   5.825
 7594SOL    HW223682   6.833   3.918   5.844
 7595SOL     OW23683   0.346   3.363   6.504
 7595SOL    HW123684   0.418   3.353   6.573
 7595SOL    HW223685   0.310   3.456   6.508
 7596SOL     OW23686   2.558   1.471   0.528
 7596SOL    HW123687   2.470   1.470   0.481
 7596SOL    HW223688   2.623   1.413   0.479
 7597SOL     OW23689   2.355   5.011   0.944
 7597SOL    HW123690   2.354   5.076   1.019
 7597SOL    HW223691   2.263   5.004   0.904
 7598SOL     OW23692   5.748   0.859   2.120
 7598SOL    HW123693   5.831   0.830   2.072
 7598SOL    HW223694   5.744   0.959   2.124
 7599SOL     OW23695   3.031   3.292   0.472
 7599SOL    HW123696   2.989   3.383   0.483
 7599SOL    HW223697   3.100   3.279   0.543
 7600SOL     OW23698   0.772   6.919   4.017
 7600SOL    HW123699   0.791   6.820   4.019
 7600SOL    HW223700   0.846   6.967   4.065
 7601SOL     OW23701   3.133   6.647   1.448
 7601SOL    HW123702   3.064   6.680   1.512
 7601SOL    HW223703   3.088   6.599   1.373
 7602SOL     OW23704   0.983   1.723   0.785
 7602SOL    HW123705   0.921   1.689   0.856
 7602SOL    HW223706   1.076   1.695   0.806
 7603SOL     OW23707   4.277   1.027   5.801
 7603SOL    HW123708   4.356   1.079   5.836
 7603SOL    HW223709   4.198   1.042   5.860
 7604SOL     OW23710   2.036   2.380   4.749
 7604SOL    HW123711   1.965   2.436   4.793
 7604SOL    HW223712   2.085   2.435   4.681
 7605SOL     OW23713   2.565   6.228   0.010
 7605SOL    HW123714   2.606   6.319   0.019
 7605SOL    HW223715   2.592   6.188   6.942
 7606SOL     OW23716   0.396   0.817   3.338
 7606SOL    HW123717   0.338   0.882   3.287
 7606SOL    HW223718   0.379   0.724   3.304
 7607SOL     OW23719   1.878   5.871   5.646
 7607SOL    HW123720   1.800   5.870   5.583
 7607SOL    HW223721   1.863   5.940   5.717
 7608SOL     OW23722   0.202   2.124   6.476
 7608SOL    HW123723   0.221   2.222   6.469
 7608SOL    HW223724   0.252   2.074   6.405
 7609SOL     OW23725   3.307   1.080   4.826
 7609SOL    HW123726   3.378   1.115   4.887
 7609SOL    HW223727   3.222   1.067   4.877
 7610SOL     OW23728   4.109   4.893   4.666
 7610SOL    HW123729   4.179   4.863   4.731
 7610SOL    HW223730   4.133   4.984   4.631
 7611SOL     OW23731   4.643   2.519   0.421
 7611SOL    HW123732   4.618   2.616   0.414
 7611SOL    HW223733   4.578   2.464   0.369
 7612SOL     OW23734   3.867   2.098   2.955
 7612SOL    HW123735   3.827   2.173   3.007
 7612SOL    HW223736   3.795   2.053   2.902
 7613SOL     OW23737   0.873   0.375   0.005
 7613SOL    HW123738   0.926   0.455   0.034
 7613SOL    HW223739   0.828   0.334   0.085
 7614SOL     OW23740   5.554   4.576   0.732
 7614SOL    HW123741   5.475   4.575   0.793
 7614SOL    HW223742   5.524   4.557   0.638
 7615SOL     OW23743   6.103   3.222   5.720
 7615SOL    HW123744   6.132   3.285   5.648
 7615SOL    HW223745   6.158   3.237   5.802
 7616SOL     OW23746   7.002   6.648   2.297
 7616SOL    HW123747   6.966   6.610   2.383
 7616SOL    HW223748   6.968   6.741   2.284
 7617SOL     OW23749   6.579   4.076   2.641
 7617SOL    HW123750   6.659   4.128   2.614
 7617SOL    HW223751   6.526   4.052   2.559
 7618SOL     OW23752   2.670   2.485   0.363
 7618SOL    HW123753   2.755   2.532   0.339
 7618SOL    HW223754   2.688   2.387   0.374
 7619SOL     OW23755   1.178   0.980   4.678
 7619SOL    HW123756   1.122   0.959   4.598
 7619SOL    HW223757   1.120   1.017   4.751
 7620SOL     OW23758   3.242   3.223   0.659
 7620SOL    HW123759   3.186   3.177   0.728
 7620SOL    HW223760   3.333   3.241   0.697
 7621SOL     OW23761   6.013   4.571   6.592
 7621SOL    HW123762   5.995   4.605   6.684
 7621SOL    HW223763   6.105   4.598   6.564
 7622SOL     OW23764   3.473   3.551   1.740
 7622SOL    HW123765   3.425   3.505   1.814
 7622SOL    HW223766   3.409   3.608   1.689
 7623SOL     OW23767   5.124   4.275   1.897
 7623SOL    HW123768   5.219   4.279   1.927
 7623SOL    HW223769   5.067   4.238   1.971
 7624SOL     OW23770   0.781   3.515   2.441
 7624SOL    HW123771   0.783   3.615   2.442
 7624SOL    HW223772   0.842   3.479   2.511
 7625SOL     OW23773   5.221   0.271   1.865
 7625SOL    HW123774   5.153   0.226   1.923
 7625SOL    HW223775   5.313   0.242   1.893
 7626SOL     OW23776   4.266   0.304   0.314
 7626SOL    HW123777   4.168   0.294   0.298
 7626SOL    HW223778   4.314   0.318   0.227
 7627SOL     OW23779   4.259   2.675   6.081
 7627SOL    HW123780   4.351   2.706   6.103
 7627SOL    HW223781   4.231   2.604   6.146
 7628SOL     OW23782   2.914   3.096   0.670
 7628SOL    HW123783   2.916   3.175   0.609
 7628SOL    HW223784   2.820   3.082   0.703
 7629SOL     OW23785   6.067   2.615   3.447
 7629SOL    HW123786   6.155   2.645   3.484
 7629SOL    HW223787   6.006   2.589   3.522
 7630SOL     OW23788   1.237   6.118   4.176
 7630SOL    HW123789   1.317   6.136   4.120
 7630SOL    HW223790   1.157   6.160   4.135
 7631SOL     OW23791   1.009   0.612   5.895
 7631SOL    HW123792   1.006   0.652   5.803
 7631SOL    HW223793   1.068   0.668   5.953
 7632SOL     OW23794   4.682   5.604   1.325
 7632SOL    HW123795   4.584   5.609   1.304
 7632SOL    HW223796   4.700   5.519   1.375
 7633SOL     OW23797   5.588   1.040   1.496
 7633SOL    HW123798   5.552   0.949   1.476
 7633SOL    HW223799   5.687   1.036   1.504
 7634SOL     OW23800   0.262   1.985   6.880
 7634SOL    HW123801   0.170   1.978   6.918
 7634SOL    HW223802   0.262   1.953   6.785
 7635SOL     OW23803   1.505   3.106   5.307
 7635SOL    HW123804   1.575   3.097   5.378
 7635SOL    HW223805   1.549   3.117   5.218
 7636SOL     OW23806   0.109   3.662   3.748
 7636SOL    HW123807   0.010   3.674   3.759
 7636SOL    HW223808   0.154   3.669   3.837
 7637SOL     OW23809   0.485   4.315   4.918
 7637SOL    HW123810   0.403   4.362   4.885
 7637SOL    HW223811   0.461   4.225   4.954
 7638SOL     OW23812   0.416   5.976   1.322
 7638SOL    HW123813   0.379   5.939   1.237
 7638SOL    HW223814   0.344   5.979   1.392
 7639SOL     OW23815   2.148   6.942   0.722
 7639SOL    HW123816   2.064   6.996   0.719
 7639SOL    HW223817   2.126   6.847   0.744
 7640SOL     OW23818   3.324   0.827   0.869
 7640SOL    HW123819   3.404   0.885   0.881
 7640SOL    HW223820   3.243   0.884   0.855
 7641SOL     OW23821   0.007   5.168   4.941
 7641SOL    HW123822   0.051   5.093   4.989
 7641SOL    HW223823   0.062   5.195   4.861
 7642SOL     OW23824   5.423   0.937   3.769
 7642SOL    HW123825   5.338   0.989   3.767
 7642SOL    HW223826   5.417   0.860   3.706
 7643SOL     OW23827   5.643   3.469   4.779
 7643SOL    HW123828   5.673   3.486   4.685
 7643SOL    HW223829   5.643   3.555   4.830
 7644SOL     OW23830   5.188   4.095   0.849
 7644SOL    HW123831   5.225   4.036   0.920
 7644SOL    HW223832   5.192   4.048   0.761
 7645SOL     OW23833   4.416   5.090   0.077
 7645SOL    HW123834   4.434   5.181   0.042
 7645SOL    HW223835   4.474   5.023   0.030
 7646SOL     OW23836   0.019   2.042   1.168
 7646SOL    HW123837   6.966   2.020   1.234
 7646SOL    HW223838   0.063   2.127   1.193
 7647SOL     OW23839   0.111   2.061   3.922
 7647SOL    HW123840   0.122   2.125   3.846
 7647SOL    HW223841   0.112   2.112   4.008
 7648SOL     OW23842   1.742   2.470   1.572
 7648SOL    HW123843   1.705   2.498   1.660
 7648SOL    HW223844   1.686   2.397   1.534
 7649SOL     OW23845   4.003   0.564   0.237
 7649SOL    HW123846   4.024   0.474   0.198
 7649SOL    HW223847   4.021   0.562   0.336
 7650SOL     OW23848   3.879   2.820   0.090
 7650SOL    HW123849   3.964   2.785   0.051
 7650SOL    HW223850   3.803   2.800   0.029
 7651SOL     OW23851   3.508   5.549   6.193
 7651SOL    HW123852   3.548   5.614   6.128
 7651SOL    HW223853   3.416   5.525   6.163
 7652SOL     OW23854   0.830   0.907   5.128
 7652SOL    HW123855   0.756   0.961   5.167
 7652SOL    HW223856   0.916   0.932   5.172
 7653SOL     OW23857   1.957   6.785   0.110
 7653SOL    HW123858   1.941   6.699   0.157
 7653SOL    HW223859   2.036   6.832   0.150
 7654SOL     OW23860   6.933   2.232   5.822
 7654SOL    HW123861   6.988   2.249   5.739
 7654SOL    HW223862   6.849   2.185   5.797
 7655SOL     OW23863   3.545   1.847   4.826
 7655SOL    HW123864   3.449   1.868   4.843
 7655SOL    HW223865   3.594   1.930   4.801
 7656SOL     OW23866   5.677   3.921   6.871
 7656SOL    HW123867   5.646   3.828   6.891
 7656SOL    HW223868   5.598   3.976   6.843
 7657SOL     OW23869   0.975   3.793   4.675
 7657SOL    HW123870   1.017   3.853   4.607
 7657SOL    HW223871   1.014   3.702   4.668
 7658SOL     OW23872   2.610   0.693   1.294
 7658SOL    HW123873   2.632   0.747   1.375
 7658SOL    HW223874   2.688   0.693   1.232
 7659SOL     OW23875   5.149   5.267   5.810
 7659SOL    HW123876   5.213   5.306   5.877
 7659SOL    HW223877   5.200   5.221   5.738
 7660SOL     OW23878   6.561   6.487   5.640
 7660SOL    HW123879   6.480   6.537   5.610
 7660SOL    HW223880   6.642   6.529   5.600
 7661SOL     OW23881   3.069   1.112   5.237
 7661SOL    HW123882   3.089   1.038   5.301
 7661SOL    HW223883   3.037   1.192   5.287
 7662SOL     OW23884   0.182   5.550   1.268
 7662SOL    HW123885   0.165   5.457   1.234
 7662SOL    HW223886   0.136   5.563   1.355
 7663SOL     OW23887   0.964   5.547   4.469
 7663SOL    HW123888   0.910   5.546   4.553
 7663SOL    HW223889   1.052   5.593   4.487
 7664SOL     OW23890   4.807   2.347   2.375
 7664SOL    HW123891   4.831   2.259   2.333
 7664SOL    HW223892   4.728   2.335   2.435
 7665SOL     OW23893   3.503   0.844   5.511
 7665SOL    HW123894   3.497   0.920   5.576
 7665SOL    HW223895   3.500   0.757   5.561
 7666SOL     OW23896   5.327   5.330   3.816
 7666SOL    HW123897   5.422   5.343   3.788
 7666SOL    HW223898   5.308   5.386   3.897
 7667SOL     OW23899   4.020   5.970   2.101
 7667SOL    HW123900   4.014   6.008   2.009
 7667SOL    HW223901   4.097   6.012   2.150
 7668SOL     OW23902   1.796   5.939   0.276
 7668SOL    HW123903   1.844   5.891   0.203
 7668SOL    HW223904   1.756   6.023   0.241
 7669SOL     OW23905   2.444   1.839   6.710
 7669SOL    HW123906   2.455   1.775   6.786
 7669SOL    HW223907   2.435   1.932   6.746
 7670SOL     OW23908   0.871   0.519   0.792
 7670SOL    HW123909   0.844   0.484   0.881
 7670SOL    HW223910   0.945   0.587   0.804
 7671SOL     OW23911   2.974   0.182   1.603
 7671SOL    HW123912   2.881   0.147   1.611
 7671SOL    HW223913   2.996   0.238   1.683
 7672SOL     OW23914   5.532   3.651   2.174
 7672SOL    HW123915   5.461   3.611   2.116
 7672SOL    HW223916   5.490   3.693   2.254
 7673SOL     OW23917   1.589   6.829   4.640
 7673SOL    HW123918   1.663   6.795   4.581
 7673SOL    HW223919   1.580   6.769   4.719
 7674SOL     OW23920   3.789   5.492   4.463
 7674SOL    HW123921   3.764   5.545   4.544
 7674SOL    HW223922   3.866   5.536   4.416
 7675SOL     OW23923   4.531   6.594   3.279
 7675SOL    HW123924   4.464   6.649   3.328
 7675SOL    HW223925   4.619   6.641   3.278
 7676SOL     OW23926   3.482   3.154   4.687
 7676SOL    HW123927   3.428   3.134   4.769
 7676SOL    HW223928   3.534   3.238   4.701
 7677SOL     OW23929   6.947   5.340   6.860
 7677SOL    HW123930   0.020   5.344   6.819
 7677SOL    HW223931   6.905   5.252   6.839
 7678SOL     OW23932   3.917   1.293   5.689
 7678SOL    HW123933   3.994   1.234   5.662
 7678SOL    HW223934   3.840   1.276   5.627
 7679SOL     OW23935   2.911   5.144   4.436
 7679SOL    HW123936   2.954   5.069   4.385
 7679SOL    HW223937   2.817   5.118   4.461
 7680SOL     OW23938   2.120   0.162   4.111
 7680SOL    HW123939   2.042   0.182   4.051
 7680SOL    HW223940   2.088   0.117   4.194
 7681SOL     OW23941   1.971   2.396   5.384
 7681SOL    HW123942   2.065   2.371   5.361
 7681SOL    HW223943   1.969   2.491   5.415
 7682SOL     OW23944   3.107   0.824   2.310
 7682SOL    HW123945   3.136   0.791   2.220
 7682SOL    HW223946   3.120   0.752   2.378
 7683SOL     OW23947   0.518   4.521   4.541
 7683SOL    HW123948   0.474   4.435   4.567
 7683SOL    HW223949   0.571   4.556   4.618
 7684SOL     OW23950   5.127   3.043   1.600
 7684SOL    HW123951   5.203   3.085   1.651
 7684SOL    HW223952   5.061   3.005   1.665
 7685SOL     OW23953   2.636   0.542   0.403
 7685SOL    HW123954   2.640   0.542   0.303
 7685SOL    HW223955   2.728   0.559   0.440
 7686SOL     OW23956   6.987   0.189   4.197
 7686SOL    HW123957   0.037   0.155   4.262
 7686SOL    HW223958   6.974   0.287   4.210
 7687SOL     OW23959   5.072   3.450   6.200
 7687SOL    HW123960   5.064   3.353   6.176
 7687SOL    HW223961   5.072   3.460   6.299
 7688SOL     OW23962   5.968   2.840   0.230
 7688SOL    HW123963   5.982   2.770   0.160
 7688SOL    HW223964   5.889   2.816   0.286
 7689SOL     OW23965   5.853   0.483   2.630
 7689SOL    HW123966   5.763   0.525   2.621
 7689SOL    HW223967   5.922   0.542   2.589
 7690SOL     OW23968   5.224   4.923   2.134
 7690SOL    HW123969   5.305   4.927   2.075
 7690SOL    HW223970   5.156   4.988   2.101
 7691SOL     OW23971   5.050   2.896   3.985
 7691SOL    HW123972   5.035   2.821   4.049
 7691SOL    HW223973   5.083   2.859   3.898
 7692SOL     OW23974   2.626   6.591   2.147
 7692SOL    HW123975   2.610   6.497   2.120
 7692SOL    HW223976   2.684   6.637   2.080
 7693SOL     OW23977   2.832   1.540   1.890
 7693SOL    HW123978   2.896   1.586   1.829
 7693SOL    HW223979   2.756   1.503   1.835
 7694SOL     OW23980   3.894   2.502   6.947
 7694SOL    HW123981   3.877   2.478   0.024
 7694SOL    HW223982   3.957   2.580   6.944
 7695SOL     OW23983   5.336   6.686   3.625
 7695SOL    HW123984   5.401   6.651   3.558
 7695SOL    HW223985   5.379   6.757   3.680
 7696SOL     OW23986   2.996   2.411   5.627
 7696SOL    HW123987   3.092   2.402   5.653
 7696SOL    HW223988   2.990   2.445   5.533
 7697SOL     OW23989   5.786   6.442   2.809
 7697SOL    HW123990   5.885   6.432   2.798
 7697SOL    HW223991   5.760   6.426   2.904
 7698SOL     OW23992   6.602   2.573   1.120
 7698SOL    HW123993   6.628   2.560   1.216
 7698SOL    HW223994   6.637   2.660   1.087
 7699SOL     OW23995   3.902   6.975   5.865
 7699SOL    HW123996   3.899   6.997   5.963
 7699SOL    HW223997   3.858   6.887   5.849
 7700SOL     OW23998   6.367   5.404   1.800
 7700SOL    HW123999   6.413   5.395   1.711
 7700SOL    HW224000   6.294   5.472   1.793
 7701SOL     OW24001   2.316   1.510   6.542
 7701SOL    HW124002   2.280   1.447   6.610
 7701SOL    HW224003   2.276   1.489   6.452
 7702SOL     OW24004   5.507   6.639   5.385
 7702SOL    HW124005   5.446   6.563   5.362
 7702SOL    HW224006   5.547   6.676   5.301
 7703SOL     OW24007   0.028   6.351   5.704
 7703SOL    HW124008   0.101   6.294   5.742
 7703SOL    HW224009   0.013   6.430   5.763
 7704SOL     OW24010   1.625   1.998   4.694
 7704SOL    HW124011   1.558   1.929   4.722
 7704SOL    HW224012   1.693   1.956   4.634
 7705SOL     OW24013   0.582   4.502   6.975
 7705SOL    HW124014   0.654   4.438   7.000
 7705SOL    HW224015   0.566   4.499   6.876
 7706SOL     OW24016   2.927   3.642   2.411
 7706SOL    HW124017   2.927   3.643   2.511
 7706SOL    HW224018   2.898   3.552   2.378
 7707SOL     OW24019   0.098   4.381   6.268
 7707SOL    HW124020   0.066   4.476   6.268
 7707SOL    HW224021   0.077   4.339   6.356
 7708SOL     OW24022   0.855   6.704   4.669
 7708SOL    HW124023   0.756   6.708   4.681
 7708SOL    HW224024   0.879   6.618   4.626
 7709SOL     OW24025   6.565   4.364   0.967
 7709SOL    HW124026   6.466   4.366   0.983
 7709SOL    HW224027   6.594   4.448   0.921
 7710SOL     OW24028   6.004   3.115   2.044
 7710SOL    HW124029   5.959   3.197   2.010
 7710SOL    HW224030   6.071   3.083   1.977
 7711SOL     OW24031   1.014   4.565   3.812
 7711SOL    HW124032   1.081   4.525   3.750
 7711SOL    HW224033   0.936   4.600   3.759
 7712SOL     OW24034   0.720   4.875   4.348
 7712SOL    HW124035   0.639   4.857   4.293
 7712SOL    HW224036   0.788   4.923   4.292
 7713SOL     OW24037   0.745   5.049   0.658
 7713SOL    HW124038   0.702   4.994   0.730
 7713SOL    HW224039   0.708   5.142   0.661
 7714SOL     OW24040   6.144   1.947   5.479
 7714SOL    HW124041   6.079   1.988   5.416
 7714SOL    HW224042   6.217   2.013   5.499
 7715SOL     OW24043   3.919   3.217   6.577
 7715SOL    HW124044   3.897   3.165   6.659
 7715SOL    HW224045   4.004   3.182   6.537
 7716SOL     OW24046   1.119   0.212   6.132
 7716SOL    HW124047   1.122   0.146   6.208
 7716SOL    HW224048   1.089   0.301   6.167
 7717SOL     OW24049   0.792   1.682   6.178
 7717SOL    HW124050   0.713   1.697   6.238
 7717SOL    HW224051   0.761   1.640   6.093
 7718SOL     OW24052   0.070   3.359   2.611
 7718SOL    HW124053   0.070   3.259   2.616
 7718SOL    HW224054   0.115   3.396   2.692
 7719SOL     OW24055   2.166   5.888   5.111
 7719SOL    HW124056   2.170   5.986   5.091
 7719SOL    HW224057   2.114   5.874   5.195
 7720SOL     OW24058   4.524   1.630   6.869
 7720SOL    HW124059   4.444   1.649   6.926
 7720SOL    HW224060   4.599   1.691   6.896
 7721SOL     OW24061   5.770   5.604   2.082
 7721SOL    HW124062   5.851   5.626   2.026
 7721SOL    HW224063   5.788   5.520   2.133
 7722SOL     OW24064   0.771   5.828   4.595
 7722SOL    HW124065   0.816   5.907   4.553
 7722SOL    HW224066   0.790   5.827   4.693
 7723SOL     OW24067   4.002   4.296   6.829
 7723SOL    HW124068   3.942   4.327   6.902
 7723SOL    HW224069   3.956   4.226   6.775
 7724SOL     OW24070   1.168   3.650   0.287
 7724SOL    HW124071   1.169   3.558   0.249
 7724SOL    HW224072   1.155   3.716   0.212
 7725SOL     OW24073   5.777   3.769   4.379
 7725SOL    HW124074   5.772   3.690   4.440
 7725SOL    HW224075   5.685   3.794   4.349
 7726SOL     OW24076   2.066   3.160   0.055
 7726SOL    HW124077   2.087   3.200   0.144
 7726SOL    HW224078   1.998   3.218   0.008
 7727SOL     OW24079   5.644   0.641   2.682
 7727SOL    HW124080   5.598   0.597   2.759
 7727SOL    HW224081   5.700   0.717   2.716
 7728SOL     OW24082   2.025   3.570   4.662
 7728SOL    HW124083   2.023   3.561   4.761
 7728SOL    HW224084   2.061   3.486   4.621
 7729SOL     OW24085   0.195   1.290   2.604
 7729SOL    HW124086   0.122   1.319   2.667
 7729SOL    HW224087   0.209   1.192   2.613
 7730SOL     OW24088   5.934   4.584   5.547
 7730SOL    HW124089   5.944   4.484   5.547
 7730SOL    HW224090   5.855   4.609   5.492
 7731SOL     OW24091   6.732   0.285   5.856
 7731SOL    HW124092   6.726   0.358   5.924
 7731SOL    HW224093   6.650   0.229   5.859
 7732SOL     OW24094   4.839   0.916   0.246
 7732SOL    HW124095   4.822   1.011   0.220
 7732SOL    HW224096   4.919   0.882   0.197
 7733SOL     OW24097   6.758   5.550   1.029
 7733SOL    HW124098   6.726   5.592   1.114
 7733SOL    HW224099   6.711   5.592   0.952
 7734SOL     OW24100   4.031   3.830   3.363
 7734SOL    HW124101   4.071   3.920   3.347
 7734SOL    HW224102   4.072   3.764   3.300
 7735SOL     OW24103   1.064   5.849   1.168
 7735SOL    HW124104   0.985   5.887   1.216
 7735SOL    HW224105   1.035   5.810   1.081
 7736SOL     OW24106   1.747   1.938   0.421
 7736SOL    HW124107   1.750   1.839   0.415
 7736SOL    HW224108   1.806   1.977   0.350
 7737SOL     OW24109   4.247   4.376   6.694
 7737SOL    HW124110   4.171   4.355   6.755
 7737SOL    HW224111   4.318   4.307   6.704
 7738SOL     OW24112   1.570   1.227   5.683
 7738SOL    HW124113   1.597   1.156   5.618
 7738SOL    HW224114   1.584   1.193   5.776
 7739SOL     OW24115   1.875   2.623   0.552
 7739SOL    HW124116   1.833   2.563   0.621
 7739SOL    HW224117   1.832   2.607   0.463
 7740SOL     OW24118   2.588   0.728   4.049
 7740SOL    HW124119   2.554   0.662   4.116
 7740SOL    HW224120   2.586   0.820   4.089
 7741SOL     OW24121   6.584   4.131   6.040
 7741SOL    HW124122   6.667   4.184   6.054
 7741SOL    HW224123   6.551   4.097   6.128
 7742SOL     OW24124   4.235   2.303   3.722
 7742SOL    HW124125   4.294   2.314   3.802
 7742SOL    HW224126   4.274   2.353   3.645
 7743SOL     OW24127   3.545   1.331   6.370
 7743SOL    HW124128   3.604   1.387   6.311
 7743SOL    HW224129   3.462   1.382   6.393
 7744SOL     OW24130   0.574   6.712   4.688
 7744SOL    HW124131   0.533   6.756   4.768
 7744SOL    HW224132   0.510   6.717   4.611
 7745SOL     OW24133   3.073   7.004   0.973
 7745SOL    HW124134   3.060   0.068   0.917
 7745SOL    HW224135   2.985   6.959   0.986
 7746SOL     OW24136   6.941   6.321   1.089
 7746SOL    HW124137   6.913   6.409   1.129
 7746SOL    HW224138   7.013   6.336   1.021
 7747SOL     OW24139   0.332   5.308   1.369
 7747SOL    HW124140   0.327   5.270   1.277
 7747SOL    HW224141   0.379   5.396   1.366
 7748SOL     OW24142   4.659   0.958   6.032
 7748SOL    HW124143   4.577   1.003   5.996
 7748SOL    HW224144   4.726   1.027   6.059
 7749SOL     OW24145   3.291   3.135   3.050
 7749SOL    HW124146   3.193   3.121   3.042
 7749SOL    HW224147   3.320   3.207   2.987
 7750SOL     OW24148   5.032   5.159   6.157
 7750SOL    HW124149   5.130   5.165   6.175
 7750SOL    HW224150   4.985   5.120   6.237
 7751SOL     OW24151   6.969   0.980   4.581
 7751SOL    HW124152   6.996   0.961   4.486
 7751SOL    HW224153   0.004   0.924   4.643
 7752SOL     OW24154   6.543   4.766   5.061
 7752SOL    HW124155   6.602   4.748   5.140
 7752SOL    HW224156   6.510   4.860   5.065
 7753SOL     OW24157   2.969   0.792   4.946
 7753SOL    HW124158   3.008   0.700   4.948
 7753SOL    HW224159   2.886   0.792   4.890
 7754SOL     OW24160   6.033   0.969   0.979
 7754SOL    HW124161   6.050   0.928   1.069
 7754SOL    HW224162   6.120   0.988   0.934
 7755SOL     OW24163   1.507   6.242   5.415
 7755SOL    HW124164   1.546   6.333   5.432
 7755SOL    HW224165   1.576   6.184   5.371
 7756SOL     OW24166   4.109   5.733   3.153
 7756SOL    HW124167   4.169   5.714   3.075
 7756SOL    HW224168   4.049   5.654   3.168
 7757SOL     OW24169   3.518   0.543   5.945
 7757SOL    HW124170   3.504   0.631   5.900
 7757SOL    HW224171   3.492   0.550   6.042
 7758SOL     OW24172   2.557   2.764   6.328
 7758SOL    HW124173   2.596   2.816   6.252
 7758SOL    HW224174   2.481   2.707   6.294
 7759SOL     OW24175   1.637   0.681   4.705
 7759SOL    HW124176   1.565   0.667   4.773
 7759SOL    HW224177   1.596   0.683   4.614
 7760SOL     OW24178   5.038   2.144   3.354
 7760SOL    HW124179   4.940   2.124   3.360
 7760SOL    HW224180   5.070   2.129   3.260
 7761SOL     OW24181   4.679   0.960   7.001
 7761SOL    HW124182   4.579   0.960   6.995
 7761SOL    HW224183   4.707   0.902   0.058
 7762SOL     OW24184   1.492   2.690   0.184
 7762SOL    HW124185   1.436   2.769   0.211
 7762SOL    HW224186   1.441   2.606   0.204
 7763SOL     OW24187   2.257   2.466   1.639
 7763SOL    HW124188   2.297   2.402   1.573
 7763SOL    HW224189   2.294   2.447   1.730
 7764SOL     OW24190   3.883   3.429   2.332
 7764SOL    HW124191   3.804   3.370   2.316
 7764SOL    HW224192   3.852   3.524   2.339
 7765SOL     OW24193   6.798   1.598   2.099
 7765SOL    HW124194   6.733   1.674   2.108
 7765SOL    HW224195   6.796   1.542   2.181
 7766SOL     OW24196   6.799   2.888   6.644
 7766SOL    HW124197   6.723   2.951   6.629
 7766SOL    HW224198   6.872   2.909   6.578
 7767SOL     OW24199   5.603   4.062   5.088
 7767SOL    HW124200   5.691   4.070   5.135
 7767SOL    HW224201   5.530   4.050   5.155
 7768SOL     OW24202   4.082   5.324   1.621
 7768SOL    HW124203   4.055   5.252   1.556
 7768SOL    HW224204   4.001   5.374   1.651
 7769SOL     OW24205   5.826   2.048   2.861
 7769SOL    HW124206   5.730   2.036   2.884
 7769SOL    HW224207   5.843   2.144   2.836
 7770SOL     OW24208   3.522   6.225   1.305
 7770SOL    HW124209   3.460   6.178   1.367
 7770SOL    HW224210   3.610   6.241   1.350
 7771SOL     OW24211   1.838   1.269   4.001
 7771SOL    HW124212   1.847   1.230   4.093
 7771SOL    HW224213   1.871   1.363   4.000
 7772SOL     OW24214   6.023   0.737   5.308
 7772SOL    HW124215   5.949   0.722   5.375
 7772SOL    HW224216   6.010   0.677   5.230
 7773SOL     OW24217   3.658   4.474   6.268
 7773SOL    HW124218   3.684   4.464   6.364
 7773SOL    HW224219   3.739   4.499   6.214
 7774SOL     OW24220   5.077   1.964   6.704
 7774SOL    HW124221   5.090   1.874   6.745
 7774SOL    HW224222   5.041   2.028   6.772
 7775SOL     OW24223   1.560   6.851   2.137
 7775SOL    HW124224   1.490   6.800   2.188
 7775SOL    HW224225   1.618   6.901   2.201
 7776SOL     OW24226   3.377   3.587   1.001
 7776SOL    HW124227   3.339   3.496   1.017
 7776SOL    HW224228   3.435   3.613   1.079
 7777SOL     OW24229   1.184   7.006   6.560
 7777SOL    HW124230   1.265   6.966   6.604
 7777SOL    HW224231   1.181   0.085   6.580
 7778SOL     OW24232   4.947   1.867   1.577
 7778SOL    HW124233   4.868   1.808   1.593
 7778SOL    HW224234   4.927   1.931   1.503
 7779SOL     OW24235   4.094   2.709   0.374
 7779SOL    HW124236   4.118   2.688   0.279
 7779SOL    HW224237   4.101   2.627   0.430
 7780SOL     OW24238   1.075   0.394   4.740
 7780SOL    HW124239   1.107   0.339   4.664
 7780SOL    HW224240   1.145   0.396   4.812
 7781SOL     OW24241   1.933   4.729   5.372
 7781SOL    HW124242   1.988   4.676   5.437
 7781SOL    HW224243   1.975   4.819   5.359
 7782SOL     OW24244   4.568   4.641   7.002
 7782SOL    HW124245   4.633   4.663   6.930
 7782SOL    HW224246   4.584   4.700   0.062
 7783SOL     OW24247   2.194   6.017   7.003
 7783SOL    HW124248   2.259   5.942   7.019
 7783SOL    HW224249   2.197   6.080   0.061
 7784SOL     OW24250   6.491   3.584   0.710
 7784SOL    HW124251   6.534   3.503   0.751
 7784SOL    HW224252   6.483   3.656   0.779
 7785SOL     OW24253   1.455   5.642   6.449
 7785SOL    HW124254   1.503   5.612   6.366
 7785SOL    HW224255   1.507   5.614   6.529
 7786SOL     OW24256   3.691   4.215   4.998
 7786SOL    HW124257   3.701   4.199   4.900
 7786SOL    HW224258   3.731   4.304   5.022
 7787SOL     OW24259   2.943   2.410   5.358
 7787SOL    HW124260   2.993   2.402   5.271
 7787SOL    HW224261   2.845   2.407   5.340
 7788SOL     OW24262   0.323   1.916   0.908
 7788SOL    HW124263   0.371   1.912   0.995
 7788SOL    HW224264   0.228   1.943   0.923
 7789SOL     OW24265   2.087   0.011   1.550
 7789SOL    HW124266   2.119   0.105   1.539
 7789SOL    HW224267   2.111   6.997   1.641
 7790SOL     OW24268   6.529   3.231   2.558
 7790SOL    HW124269   6.464   3.258   2.487
 7790SOL    HW224270   6.614   3.282   2.547
 7791SOL     OW24271   0.291   5.007   5.530
 7791SOL    HW124272   0.215   5.065   5.558
 7791SOL    HW224273   0.289   4.921   5.582
 7792SOL     OW24274   1.918   5.508   6.609
 7792SOL    HW124275   1.933   5.428   6.668
 7792SOL    HW224276   2.006   5.543   6.578
 7793SOL     OW24277   2.056   1.244   6.401
 7793SOL    HW124278   2.118   1.174   6.436
 7793SOL    HW224279   2.006   1.286   6.477
 7794SOL     OW24280   5.320   5.480   2.880
 7794SOL    HW124281   5.300   5.387   2.850
 7794SOL    HW224282   5.310   5.486   2.979
 7795SOL     OW24283   1.380   4.031   6.484
 7795SOL    HW124284   1.377   4.004   6.388
 7795SOL    HW224285   1.369   4.130   6.491
 7796SOL     OW24286   4.009   3.833   4.953
 7796SOL    HW124287   4.011   3.916   5.009
 7796SOL    HW224288   4.091   3.778   4.972
 7797SOL     OW24289   1.183   0.053   3.080
 7797SOL    HW124290   1.130   0.108   3.144
 7797SOL    HW224291   1.204   6.983   3.121
 7798SOL     OW24292   3.877   6.161   6.083
 7798SOL    HW124293   3.961   6.189   6.130
 7798SOL    HW224294   3.876   6.200   5.991
 7799SOL     OW24295   6.341   5.381   1.241
 7799SOL    HW124296   6.432   5.356   1.209
 7799SOL    HW224297   6.303   5.451   1.180
 7800SOL     OW24298   0.690   6.405   2.138
 7800SOL    HW124299   0.690   6.417   2.038
 7800SOL    HW224300   0.596   6.391   2.169
 7801SOL     OW24301   4.165   2.130   5.387
 7801SOL    HW124302   4.212   2.054   5.342
 7801SOL    HW224303   4.067   2.113   5.387
 7802SOL     OW24304   5.394   2.343   0.252
 7802SOL    HW124305   5.393   2.329   0.153
 7802SOL    HW224306   5.382   2.256   0.299
 7803SOL     OW24307   3.433   3.752   5.553
 7803SOL    HW124308   3.390   3.820   5.613
 7803SOL    HW224309   3.380   3.744   5.469
 7804SOL     OW24310   4.868   0.866   6.354
 7804SOL    HW124311   4.798   0.937   6.361
 7804SOL    HW224312   4.859   0.819   6.266
 7805SOL     OW24313   5.104   2.706   1.500
 7805SOL    HW124314   5.126   2.784   1.559
 7805SOL    HW224315   5.067   2.739   1.413
 7806SOL     OW24316   4.842   3.248   6.890
 7806SOL    HW124317   4.754   3.202   6.875
 7806SOL    HW224318   4.914   3.200   6.841
 7807SOL     OW24319   0.379   2.888   0.371
 7807SOL    HW124320   0.347   2.852   0.283
 7807SOL    HW224321   0.452   2.955   0.354
 7808SOL     OW24322   0.634   0.623   5.196
 7808SOL    HW124323   0.715   0.598   5.250
 7808SOL    HW224324   0.663   0.655   5.106
 7809SOL     OW24325   1.038   5.480   5.791
 7809SOL    HW124326   1.064   5.458   5.885
 7809SOL    HW224327   1.058   5.402   5.732
 7810SOL     OW24328   2.542   1.308   6.926
 7810SOL    HW124329   2.445   1.334   6.919
 7810SOL    HW224330   2.590   1.374   6.984
 7811SOL     OW24331   0.145   4.651   4.827
 7811SOL    HW124332   0.089   4.655   4.910
 7811SOL    HW224333   0.240   4.634   4.852
 7812SOL     OW24334   0.430   2.012   3.394
 7812SOL    HW124335   0.350   2.000   3.452
 7812SOL    HW224336   0.496   2.073   3.438
 7813SOL     OW24337   6.337   2.406   1.066
 7813SOL    HW124338   6.360   2.429   0.971
 7813SOL    HW224339   6.382   2.471   1.127
 7814SOL     OW24340   1.912   3.127   4.731
 7814SOL    HW124341   1.894   3.046   4.674
 7814SOL    HW224342   2.010   3.131   4.753
 7815SOL     OW24343   0.066   1.587   5.311
 7815SOL    HW124344   0.088   1.680   5.280
 7815SOL    HW224345   0.151   1.538   5.330
 7816SOL     OW24346   0.806   4.765   5.077
 7816SOL    HW124347   0.764   4.725   4.995
 7816SOL    HW224348   0.794   4.704   5.155
 7817SOL     OW24349   5.458   3.416   5.880
 7817SOL    HW124350   5.363   3.433   5.856
 7817SOL    HW224351   5.516   3.429   5.799
 7818SOL     OW24352   5.090   4.256   2.911
 7818SOL    HW124353   5.140   4.234   2.828
 7818SOL    HW224354   5.013   4.193   2.920
 7819SOL     OW24355   0.946   1.102   0.847
 7819SOL    HW124356   0.978   1.161   0.921
 7819SOL    HW224357   0.850   1.122   0.827
 7820SOL     OW24358   2.654   0.207   6.581
 7820SOL    HW124359   2.696   0.117   6.587
 7820SOL    HW224360   2.678   0.261   6.662
 7821SOL     OW24361   3.083   5.140   0.786
 7821SOL    HW124362   3.071   5.129   0.688
 7821SOL    HW224363   3.001   5.181   0.826
 7822SOL     OW24364   1.997   6.362   5.910
 7822SOL    HW124365   2.011   6.309   5.827
 7822SOL    HW224366   2.083   6.406   5.936
 7823SOL     OW24367   1.885   3.845   5.025
 7823SOL    HW124368   1.969   3.858   4.972
 7823SOL    HW224369   1.886   3.756   5.068
 7824SOL     OW24370   0.699   3.263   5.357
 7824SOL    HW124371   0.673   3.290   5.450
 7824SOL    HW224372   0.798   3.252   5.352
 7825SOL     OW24373   3.125   0.827   6.915
 7825SOL    HW124374   3.086   0.919   6.921
 7825SOL    HW224375   3.056   0.760   6.942
 7826SOL     OW24376   0.809   3.529   5.600
 7826SOL    HW124377   0.757   3.453   5.638
 7826SOL    HW224378   0.903   3.524   5.633
 7827SOL     OW24379   5.929   5.309   4.339
 7827SOL    HW124380   5.832   5.289   4.325
 7827SOL    HW224381   5.969   5.346   4.255
 7828SOL     OW24382   0.904   4.935   6.581
 7828SOL    HW124383   0.977   4.868   6.571
 7828SOL    HW224384   0.867   4.931   6.674
 7829SOL     OW24385   4.365   4.740   0.623
 7829SOL    HW124386   4.446   4.799   0.616
 7829SOL    HW224387   4.331   4.741   0.717
 7830SOL     OW24388   2.252   5.468   3.503
 7830SOL    HW124389   2.297   5.512   3.425
 7830SOL    HW224390   2.293   5.500   3.588
 7831SOL     OW24391   1.718   0.347   5.686
 7831SOL    HW124392   1.718   0.405   5.604
 7831SOL    HW224393   1.807   0.353   5.731
 7832SOL     OW24394   6.681   0.956   5.586
 7832SOL    HW124395   6.607   1.022   5.601
 7832SOL    HW224396   6.647   0.864   5.604
 7833SOL     OW24397   0.535   0.411   2.743
 7833SOL    HW124398   0.618   0.458   2.713
 7833SOL    HW224399   0.454   0.462   2.711
 7834SOL     OW24400   6.720   3.355   4.701
 7834SOL    HW124401   6.809   3.366   4.745
 7834SOL    HW224402   6.711   3.420   4.626
 7835SOL     OW24403   4.337   2.210   5.718
 7835SOL    HW124404   4.323   2.308   5.702
 7835SOL    HW224405   4.249   2.168   5.740
 7836SOL     OW24406   3.166   3.799   4.965
 7836SOL    HW124407   3.188   3.887   5.006
 7836SOL    HW224408   3.109   3.813   4.884
 7837SOL     OW24409   0.982   5.365   6.703
 7837SOL    HW124410   1.075   5.332   6.713
 7837SOL    HW224411   0.973   5.454   6.747
 7838SOL     OW24412   4.202   5.117   2.055
 7838SOL    HW124413   4.301   5.107   2.049
 7838SOL    HW224414   4.171   5.184   1.988
 7839SOL     OW24415   6.268   4.430   4.291
 7839SOL    HW124416   6.220   4.479   4.363
 7839SOL    HW224417   6.323   4.357   4.331
 7840SOL     OW24418   2.197   2.766   3.785
 7840SOL    HW124419   2.153   2.843   3.830
 7840SOL    HW224420   2.153   2.750   3.696
 7841SOL     OW24421   4.097   1.939   5.805
 7841SOL    HW124422   4.002   1.912   5.819
 7841SOL    HW224423   4.157   1.877   5.855
 7842SOL     OW24424   1.104   0.627   0.918
 7842SOL    HW124425   1.176   0.621   0.848
 7842SOL    HW224426   1.123   0.702   0.980
 7843SOL     OW24427   6.872   6.687   1.874
 7843SOL    HW124428   6.841   6.669   1.781
 7843SOL    HW224429   6.794   6.680   1.937
 7844SOL     OW24430   4.190   0.270   2.455
 7844SOL    HW124431   4.139   0.184   2.456
 7844SOL    HW224432   4.186   0.313   2.545
 7845SOL     OW24433   6.032   3.132   1.136
 7845SOL    HW124434   6.078   3.200   1.194
 7845SOL    HW224435   5.963   3.177   1.080
 7846SOL     OW24436   1.060   0.958   0.594
 7846SOL    HW124437   1.090   1.043   0.551
 7846SOL    HW224438   1.054   0.971   0.693
 7847SOL     OW24439   5.410   4.364   6.174
 7847SOL    HW124440   5.391   4.330   6.265
 7847SOL    HW224441   5.409   4.288   6.109
 7848SOL     OW24442   4.045   4.631   0.215
 7848SOL    HW124443   3.969   4.566   0.224
 7848SOL    HW224444   4.132   4.583   0.222
 7849SOL     OW24445   4.361   5.183   6.782
 7849SOL    HW124446   4.380   5.096   6.737
 7849SOL    HW224447   4.308   5.167   6.865
 7850SOL     OW24448   0.216   0.549   3.721
 7850SOL    HW124449   0.122   0.517   3.727
 7850SOL    HW224450   0.265   0.524   3.806
 7851SOL     OW24451   0.405   5.195   1.128
 7851SOL    HW124452   0.490   5.224   1.085
 7851SOL    HW224453   0.426   5.127   1.199
 7852SOL     OW24454   1.059   3.242   5.883
 7852SOL    HW124455   1.105   3.274   5.966
 7852SOL    HW224456   1.122   3.250   5.805
 7853SOL     OW24457   4.094   2.970   1.708
 7853SOL    HW124458   4.060   2.882   1.675
 7853SOL    HW224459   4.043   3.044   1.664
 7854SOL     OW24460   4.288   1.392   1.314
 7854SOL    HW124461   4.275   1.432   1.405
 7854SOL    HW224462   4.211   1.333   1.291
 7855SOL     OW24463   5.499   6.583   3.873
 7855SOL    HW124464   5.442   6.580   3.791
 7855SOL    HW224465   5.462   6.651   3.937
 7856SOL     OW24466   2.028   6.238   5.672
 7856SOL    HW124467   1.946   6.182   5.681
 7856SOL    HW224468   2.046   6.256   5.575
 7857SOL     OW24469   6.878   4.889   0.707
 7857SOL    HW124470   6.804   4.836   0.665
 7857SOL    HW224471   6.886   4.978   0.661
 7858SOL     OW24472   0.260   4.030   5.931
 7858SOL    HW124473   0.211   3.998   5.849
 7858SOL    HW224474   0.284   3.952   5.988
 7859SOL     OW24475   4.949   2.156   0.789
 7859SOL    HW124476   4.859   2.161   0.746
 7859SOL    HW224477   4.984   2.062   0.782
 7860SOL     OW24478   2.289   1.553   3.492
 7860SOL    HW124479   2.353   1.538   3.567
 7860SOL    HW224480   2.340   1.563   3.407
 7861SOL     OW24481   1.616   5.858   1.126
 7861SOL    HW124482   1.662   5.939   1.088
 7861SOL    HW224483   1.685   5.797   1.166
 7862SOL     OW24484   1.609   6.709   0.095
 7862SOL    HW124485   1.530   6.671   0.143
 7862SOL    HW224486   1.630   6.800   0.130
 7863SOL     OW24487   1.210   4.165   4.327
 7863SOL    HW124488   1.285   4.165   4.394
 7863SOL    HW224489   1.139   4.230   4.357
 7864SOL     OW24490   2.793   5.978   5.074
 7864SOL    HW124491   2.696   5.973   5.051
 7864SOL    HW224492   2.812   5.923   5.155
 7865SOL     OW24493   5.810   4.691   3.685
 7865SOL    HW124494   5.831   4.661   3.591
 7865SOL    HW224495   5.849   4.782   3.700
 7866SOL     OW24496   1.284   0.939   5.480
 7866SOL    HW124497   1.286   1.029   5.524
 7866SOL    HW224498   1.301   0.868   5.549
 7867SOL     OW24499   3.766   4.902   3.896
 7867SOL    HW124500   3.715   4.820   3.871
 7867SOL    HW224501   3.793   4.896   3.992
 7868SOL     OW24502   3.515   6.391   1.741
 7868SOL    HW124503   3.605   6.411   1.702
 7868SOL    HW224504   3.447   6.386   1.668
 7869SOL     OW24505   5.618   4.789   0.161
 7869SOL    HW124506   5.699   4.848   0.160
 7869SOL    HW224507   5.632   4.716   0.228
 7870SOL     OW24508   6.017   6.878   3.705
 7870SOL    HW124509   5.996   6.785   3.673
 7870SOL    HW224510   6.101   6.910   3.660
 7871SOL     OW24511   4.634   1.407   0.763
 7871SOL    HW124512   4.695   1.346   0.711
 7871SOL    HW224513   4.541   1.370   0.761
 7872SOL     OW24514   0.167   5.024   2.788
 7872SOL    HW124515   0.220   4.973   2.722
 7872SOL    HW224516   0.221   5.101   2.822
 7873SOL     OW24517   4.406   2.129   6.742
 7873SOL    HW124518   4.437   2.046   6.695
 7873SOL    HW224519   4.395   2.110   6.840
 7874SOL     OW24520   6.059   2.616   0.082
 7874SOL    HW124521   6.137   2.667   0.118
 7874SOL    HW224522   6.079   2.518   0.084
 7875SOL     OW24523   6.567   4.654   6.561
 7875SOL    HW124524   6.540   4.570   6.514
 7875SOL    HW224525   6.495   4.723   6.549
 7876SOL     OW24526   1.319   6.109   3.243
 7876SOL    HW124527   1.266   6.127   3.326
 7876SOL    HW224528   1.393   6.176   3.235
 7877SOL     OW24529   0.062   3.081   2.591
 7877SOL    HW124530   7.018   3.004   2.594
 7877SOL    HW224531   0.135   3.062   2.526
 7878SOL     OW24532   3.744   6.997   2.590
 7878SOL    HW124533   3.715   7.016   2.497
 7878SOL    HW224534   3.802   0.052   2.624
 7879SOL     OW24535   3.061   5.597   2.595
 7879SOL    HW124536   2.998   5.595   2.517
 7879SOL    HW224537   3.030   5.666   2.661
 7880SOL     OW24538   0.984   5.038   2.055
 7880SOL    HW124539   1.029   5.123   2.029
 7880SOL    HW224540   0.936   5.000   1.976
 7881SOL     OW24541   4.983   3.335   3.905
 7881SOL    HW124542   5.080   3.331   3.879
 7881SOL    HW224543   4.933   3.262   3.858
 7882SOL     OW24544   0.061   2.625   6.672
 7882SOL    HW124545   7.001   2.675   6.705
 7882SOL    HW224546   0.076   2.646   6.575
 7883SOL     OW24547   0.865   6.806   4.400
 7883SOL    HW124548   0.884   6.789   4.496
 7883SOL    HW224549   0.948   6.792   4.346
 7884SOL     OW24550   1.352   2.851   4.124
 7884SOL    HW124551   1.276   2.826   4.184
 7884SOL    HW224552   1.436   2.809   4.157
 7885SOL     OW24553   0.116   5.689   6.990
 7885SOL    HW124554   0.078   5.671   6.899
 7885SOL    HW224555   0.069   5.632   0.039
 7886SOL     OW24556   4.701   3.825   0.780
 7886SOL    HW124557   4.719   3.900   0.716
 7886SOL    HW224558   4.602   3.814   0.791
 7887SOL     OW24559   4.559   2.560   6.159
 7887SOL    HW124560   4.532   2.514   6.243
 7887SOL    HW224561   4.504   2.525   6.083
 7888SOL     OW24562   4.562   6.034   4.694
 7888SOL    HW124563   4.517   6.099   4.632
 7888SOL    HW224564   4.494   5.991   4.753
 7889SOL     OW24565   6.554   5.165   3.111
 7889SOL    HW124566   6.524   5.075   3.143
 7889SOL    HW224567   6.628   5.198   3.170
 7890SOL     OW24568   1.867   3.382   2.724
 7890SOL    HW124569   1.794   3.360   2.788
 7890SOL    HW224570   1.956   3.364   2.767
 7891SOL     OW24571   0.877   4.451   3.036
 7891SOL    HW124572   0.829   4.366   3.057
 7891SOL    HW224573   0.961   4.456   3.090
 7892SOL     OW24574   2.225   1.924   4.628
 7892SOL    HW124575   2.234   2.013   4.583
 7892SOL    HW224576   2.298   1.863   4.597
 7893SOL     OW24577   5.523   6.583   0.856
 7893SOL    HW124578   5.521   6.553   0.951
 7893SOL    HW224579   5.433   6.619   0.830
 7894SOL     OW24580   2.421   0.356   2.158
 7894SOL    HW124581   2.478   0.296   2.215
 7894SOL    HW224582   2.414   0.445   2.201
 7895SOL     OW24583   0.639   1.139   3.045
 7895SOL    HW124584   0.677   1.226   3.015
 7895SOL    HW224585   0.620   1.143   3.143
 7896SOL     OW24586   3.809   1.666   6.214
 7896SOL    HW124587   3.752   1.618   6.148
 7896SOL    HW224588   3.783   1.763   6.216
 7897SOL     OW24589   3.153   3.201   6.658
 7897SOL    HW124590   3.072   3.142   6.656
 7897SOL    HW224591   3.134   3.285   6.607
 7898SOL     OW24592   5.211   1.219   4.143
 7898SOL    HW124593   5.310   1.206   4.138
 7898SOL    HW224594   5.184   1.240   4.237
 7899SOL     OW24595   4.832   1.008   2.073
 7899SOL    HW124596   4.807   1.065   2.151
 7899SOL    HW224597   4.914   1.045   2.029
 7900SOL     OW24598   1.112   5.804   1.583
 7900SOL    HW124599   1.152   5.872   1.522
 7900SOL    HW224600   1.165   5.799   1.668
 7901SOL     OW24601   5.855   5.042   0.962
 7901SOL    HW124602   5.794   5.115   0.930
 7901SOL    HW224603   5.821   4.954   0.930
 7902SOL     OW24604   5.140   4.847   5.803
 7902SOL    HW124605   5.116   4.943   5.812
 7902SOL    HW224606   5.198   4.834   5.722
 7903SOL     OW24607   0.241   3.289   1.225
 7903SOL    HW124608   0.200   3.289   1.134
 7903SOL    HW224609   0.340   3.273   1.218
 7904SOL     OW24610   5.902   2.266   2.604
 7904SOL    HW124611   5.955   2.316   2.673
 7904SOL    HW224612   5.945   2.178   2.586
 7905SOL     OW24613   1.873   1.465   1.885
 7905SOL    HW124614   1.970   1.444   1.899
 7905SOL    HW224615   1.845   1.536   1.950
 7906SOL     OW24616   0.760   4.384   6.726
 7906SOL    HW124617   0.818   4.405   6.647
 7906SOL    HW224618   0.682   4.328   6.696
 7907SOL     OW24619   6.987   2.934   3.024
 7907SOL    HW124620   6.891   2.914   3.002
 7907SOL    HW224621   0.027   2.898   2.952
 7908SOL     OW24622   0.392   1.688   2.651
 7908SOL    HW124623   0.337   1.732   2.722
 7908SOL    HW224624   0.487   1.681   2.682
 7909SOL     OW24625   4.246   6.707   4.957
 7909SOL    HW124626   4.328   6.667   4.914
 7909SOL    HW224627   4.223   6.655   5.039
 7910SOL     OW24628   6.875   2.563   5.586
 7910SOL    HW124629   6.840   2.564   5.680
 7910SOL    HW224630   6.811   2.516   5.527
 7911SOL     OW24631   0.225   5.380   6.763
 7911SOL    HW124632   0.236   5.421   6.672
 7911SOL    HW224633   0.287   5.424   6.827
 7912SOL     OW24634   6.832   5.229   5.356
 7912SOL    HW124635   6.907   5.261   5.299
 7912SOL    HW224636   6.840   5.269   5.448
 7913SOL     OW24637   1.440   6.278   6.245
 7913SOL    HW124638   1.371   6.220   6.202
 7913SOL    HW224639   1.512   6.222   6.284
 7914SOL     OW24640   6.218   4.557   0.714
 7914SOL    HW124641   6.165   4.630   0.758
 7914SOL    HW224642   6.308   4.593   0.687
 7915SOL     OW24643   2.781   0.977   2.608
 7915SOL    HW124644   2.844   0.909   2.645
 7915SOL    HW224645   2.729   0.937   2.533
 7916SOL     OW24646   4.306   3.922   5.900
 7916SOL    HW124647   4.361   4.005   5.911
 7916SOL    HW224648   4.298   3.899   5.803
 7917SOL     OW24649   4.088   3.787   3.665
 7917SOL    HW124650   4.084   3.800   3.566
 7917SOL    HW224651   4.106   3.690   3.685
 7918SOL     OW24652   6.030   2.023   2.570
 7918SOL    HW124653   6.015   1.957   2.643
 7918SOL    HW224654   6.107   2.083   2.594
 7919SOL     OW24655   5.568   4.118   2.012
 7919SOL    HW124656   5.567   4.178   1.931
 7919SOL    HW224657   5.537   4.027   1.986
 7920SOL     OW24658   0.314   6.647   1.899
 7920SOL    HW124659   0.234   6.673   1.953
 7920SOL    HW224660   0.397   6.668   1.951
 7921SOL     OW24661   2.736   5.740   2.023
 7921SOL    HW124662   2.835   5.742   2.010
 7921SOL    HW224663   2.709   5.821   2.076
 7922SOL     OW24664   0.856   4.618   5.469
 7922SOL    HW124665   0.787   4.576   5.409
 7922SOL    HW224666   0.814   4.692   5.521
 7923SOL     OW24667   1.278   1.917   2.878
 7923SOL    HW124668   1.284   1.818   2.892
 7923SOL    HW224669   1.182   1.944   2.870
 7924SOL     OW24670   2.072   0.749   3.327
 7924SOL    HW124671   2.079   0.801   3.413
 7924SOL    HW224672   2.163   0.738   3.288
 7925SOL     OW24673   0.671   1.287   0.096
 7925SOL    HW124674   0.736   1.218   0.062
 7925SOL    HW224675   0.721   1.364   0.135
 7926SOL     OW24676   3.249   0.432   2.133
 7926SOL    HW124677   3.318   0.461   2.200
 7926SOL    HW224678   3.268   0.337   2.106
 7927SOL     OW24679   4.342   4.652   4.581
 7927SOL    HW124680   4.289   4.582   4.532
 7927SOL    HW224681   4.435   4.618   4.597
 7928SOL     OW24682   0.488   4.279   6.664
 7928SOL    HW124683   0.489   4.252   6.568
 7928SOL    HW224684   0.511   4.201   6.721
 7929SOL     OW24685   3.745   4.150   4.728
 7929SOL    HW124686   3.682   4.074   4.711
 7929SOL    HW224687   3.838   4.122   4.702
 7930SOL     OW24688   4.158   6.818   2.970
 7930SOL    HW124689   4.224   6.744   2.982
 7930SOL    HW224690   4.177   6.890   3.037
 7931SOL     OW24691   2.964   3.665   6.331
 7931SOL    HW124692   2.929   3.757   6.314
 7931SOL    HW224693   3.020   3.637   6.253
 7932SOL     OW24694   3.105   0.353   0.641
 7932SOL    HW124695   3.171   0.420   0.675
 7932SOL    HW224696   3.052   0.394   0.567
 7933SOL     OW24697   1.963   1.450   6.163
 7933SOL    HW124698   2.028   1.412   6.228
 7933SOL    HW224699   2.010   1.512   6.100
 7934SOL     OW24700   4.023   2.449   5.961
 7934SOL    HW124701   4.084   2.508   5.909
 7934SOL    HW224702   4.032   2.355   5.927
 7935SOL     OW24703   4.903   5.822   2.307
 7935SOL    HW124704   4.838   5.896   2.319
 7935SOL    HW224705   4.940   5.825   2.214
 7936SOL     OW24706   4.324   6.319   2.103
 7936SOL    HW124707   4.299   6.226   2.132
 7936SOL    HW224708   4.421   6.334   2.120
 7937SOL     OW24709   6.171   1.771   5.976
 7937SOL    HW124710   6.167   1.730   6.067
 7937SOL    HW224711   6.263   1.807   5.959
 7938SOL     OW24712   6.501   5.156   4.410
 7938SOL    HW124713   6.533   5.093   4.339
 7938SOL    HW224714   6.565   5.232   4.419
 7939SOL     OW24715   0.396   6.513   4.219
 7939SOL    HW124716   0.382   6.433   4.277
 7939SOL    HW224717   0.490   6.512   4.184
 7940SOL     OW24718   1.288   6.033   0.757
 7940SOL    HW124719   1.324   6.008   0.847
 7940SOL    HW224720   1.341   6.109   0.720
 7941SOL     OW24721   0.527   0.796   1.198
 7941SOL    HW124722   0.627   0.805   1.189
 7941SOL    HW224723   0.501   0.700   1.183
 7942SOL     OW24724   1.214   0.829   1.826
 7942SOL    HW124725   1.273   0.908   1.812
 7942SOL    HW224726   1.268   0.751   1.857
 7943SOL     OW24727   6.424   2.143   0.155
 7943SOL    HW124728   6.477   2.225   0.175
 7943SOL    HW224729   6.327   2.159   0.174
 7944SOL     OW24730   6.883   3.829   1.873
 7944SOL    HW124731   6.936   3.764   1.928
 7944SOL    HW224732   6.845   3.900   1.933
 7945SOL     OW24733   5.589   0.701   0.520
 7945SOL    HW124734   5.641   0.682   0.603
 7945SOL    HW224735   5.533   0.783   0.534
 7946SOL     OW24736   2.174   1.677   5.610
 7946SOL    HW124737   2.128   1.718   5.531
 7946SOL    HW224738   2.119   1.691   5.692
 7947SOL     OW24739   4.270   5.573   6.443
 7947SOL    HW124740   4.242   5.503   6.378
 7947SOL    HW224741   4.232   5.661   6.415
 7948SOL     OW24742   0.766   5.201   6.207
 7948SOL    HW124743   0.827   5.276   6.234
 7948SOL    HW224744   0.758   5.199   6.107
 7949SOL     OW24745   6.997   3.923   3.876
 7949SOL    HW124746   6.910   3.881   3.850
 7949SOL    HW224747   6.979   4.013   3.915
 7950SOL     OW24748   3.861   4.907   4.204
 7950SOL    HW124749   3.887   4.861   4.289
 7950SOL    HW224750   3.927   4.980   4.185
 7951SOL     OW24751   2.047   3.605   0.874
 7951SOL    HW124752   2.013   3.688   0.918
 7951SOL    HW224753   2.140   3.586   0.904
 7952SOL     OW24754   5.772   4.792   0.590
 7952SOL    HW124755   5.730   4.883   0.584
 7952SOL    HW224756   5.728   4.740   0.663
 7953SOL     OW24757   1.765   3.602   2.588
 7953SOL    HW124758   1.832   3.548   2.637
 7953SOL    HW224759   1.701   3.643   2.653
 7954SOL     OW24760   5.070   5.093   4.330
 7954SOL    HW124761   5.020   5.069   4.247
 7954SOL    HW224762   5.138   5.164   4.309
 7955SOL     OW24763   2.209   6.295   6.238
 7955SOL    HW124764   2.141   6.226   6.213
 7955SOL    HW224765   2.195   6.377   6.182
 7956SOL     OW24766   6.054   6.416   2.698
 7956SOL    HW124767   6.052   6.491   2.631
 7956SOL    HW224768   6.014   6.334   2.657
 7957SOL     OW24769   1.646   2.537   1.182
 7957SOL    HW124770   1.677   2.583   1.099
 7957SOL    HW224771   1.666   2.595   1.261
 7958SOL     OW24772   2.646   5.860   3.359
 7958SOL    HW124773   2.672   5.879   3.264
 7958SOL    HW224774   2.560   5.906   3.379
 7959SOL     OW24775   5.212   5.354   1.782
 7959SOL    HW124776   5.254   5.266   1.803
 7959SOL    HW224777   5.242   5.423   1.848
 7960SOL     OW24778   1.429   2.820   1.586
 7960SOL    HW124779   1.406   2.915   1.568
 7960SOL    HW224780   1.464   2.811   1.680
 7961SOL     OW24781   0.823   6.146   0.330
 7961SOL    HW124782   0.888   6.071   0.340
 7961SOL    HW224783   0.737   6.111   0.292
 7962SOL     OW24784   1.737   6.530   2.655
 7962SOL    HW124785   1.777   6.622   2.649
 7962SOL    HW224786   1.712   6.499   2.564
 7963SOL     OW24787   0.972   6.546   5.030
 7963SOL    HW124788   0.898   6.613   5.022
 7963SOL    HW224789   0.939   6.466   5.080
 7964SOL     OW24790   6.435   5.641   3.738
 7964SOL    HW124791   6.493   5.721   3.754
 7964SOL    HW224792   6.340   5.666   3.756
 7965SOL     OW24793   4.260   1.827   0.574
 7965SOL    HW124794   4.195   1.833   0.498
 7965SOL    HW224795   4.278   1.730   0.594
 7966SOL     OW24796   0.181   6.961   3.419
 7966SOL    HW124797   0.166   6.867   3.387
 7966SOL    HW224798   0.207   6.960   3.515
 7967SOL     OW24799   3.123   0.415   3.625
 7967SOL    HW124800   3.157   0.508   3.643
 7967SOL    HW224801   3.053   0.392   3.691
 7968SOL     OW24802   2.455   1.073   1.332
 7968SOL    HW124803   2.430   0.980   1.359
 7968SOL    HW224804   2.441   1.083   1.233
 7969SOL     OW24805   3.696   1.335   3.467
 7969SOL    HW124806   3.603   1.299   3.453
 7969SOL    HW224807   3.738   1.291   3.546
 7970SOL     OW24808   0.352   5.043   3.651
 7970SOL    HW124809   0.358   5.015   3.556
 7970SOL    HW224810   0.406   4.981   3.708
 7971SOL     OW24811   3.250   1.827   2.139
 7971SOL    HW124812   3.249   1.913   2.190
 7971SOL    HW224813   3.246   1.847   2.041
 7972SOL     OW24814   5.992   5.625   1.311
 7972SOL    HW124815   6.004   5.704   1.371
 7972SOL    HW224816   6.044   5.548   1.347
 7973SOL     OW24817   5.052   1.841   2.958
 7973SOL    HW124818   5.026   1.845   2.862
 7973SOL    HW224819   4.971   1.834   3.015
 7974SOL     OW24820   5.651   6.128   4.120
 7974SOL    HW124821   5.639   6.145   4.022
 7974SOL    HW224822   5.601   6.197   4.172
 7975SOL     OW24823   1.682   1.440   2.596
 7975SOL    HW124824   1.599   1.405   2.640
 7975SOL    HW224825   1.763   1.404   2.642
 7976SOL     OW24826   1.287   6.906   6.187
 7976SOL    HW124827   1.221   6.954   6.244
 7976SOL    HW224828   1.379   6.938   6.208
 7977SOL     OW24829   5.328   6.303   1.232
 7977SOL    HW124830   5.322   6.312   1.133
 7977SOL    HW224831   5.237   6.312   1.272
 7978SOL     OW24832   3.370   1.618   5.563
 7978SOL    HW124833   3.288   1.666   5.533
 7978SOL    HW224834   3.427   1.595   5.484
 7979SOL     OW24835   4.726   6.422   3.931
 7979SOL    HW124836   4.769   6.386   3.849
 7979SOL    HW224837   4.646   6.367   3.955
 7980SOL     OW24838   2.792   0.622   2.651
 7980SOL    HW124839   2.830   0.661   2.735
 7980SOL    HW224840   2.864   0.572   2.603
 7981SOL     OW24841   0.922   5.867   2.533
 7981SOL    HW124842   0.876   5.951   2.561
 7981SOL    HW224843   1.021   5.882   2.529
 7982SOL     OW24844   6.957   2.206   0.369
 7982SOL    HW124845   6.900   2.287   0.386
 7982SOL    HW224846   0.030   2.234   0.344
 7983SOL     OW24847   5.068   2.471   1.639
 7983SOL    HW124848   5.081   2.561   1.599
 7983SOL    HW224849   5.140   2.409   1.607
 7984SOL     OW24850   6.766   0.750   0.516
 7984SOL    HW124851   6.772   0.845   0.547
 7984SOL    HW224852   6.828   0.737   0.439
 7985SOL     OW24853   1.323   1.203   1.082
 7985SOL    HW124854   1.258   1.142   1.127
 7985SOL    HW224855   1.329   1.289   1.134
 7986SOL     OW24856   4.948   3.655   0.400
 7986SOL    HW124857   4.968   3.644   0.497
 7986SOL    HW224858   5.014   3.717   0.359
 7987SOL     OW24859   0.941   2.823   4.851
 7987SOL    HW124860   0.983   2.858   4.768
 7987SOL    HW224861   0.995   2.746   4.886
 7988SOL     OW24862   2.884   1.363   5.214
 7988SOL    HW124863   2.978   1.396   5.213
 7988SOL    HW224864   2.846   1.375   5.306
 7989SOL     OW24865   3.648   3.512   6.381
 7989SOL    HW124866   3.610   3.494   6.291
 7989SOL    HW224867   3.662   3.425   6.429
 7990SOL     OW24868   1.914   2.816   4.873
 7990SOL    HW124869   1.846   2.889   4.868
 7990SOL    HW224870   1.989   2.844   4.933
 7991SOL     OW24871   2.325   2.424   5.968
 7991SOL    HW124872   2.390   2.412   5.894
 7991SOL    HW224873   2.245   2.475   5.935
 7992SOL     OW24874   2.968   1.616   1.147
 7992SOL    HW124875   2.990   1.708   1.114
 7992SOL    HW224876   2.981   1.550   1.073
 7993SOL     OW24877   2.931   5.650   6.144
 7993SOL    HW124878   2.928   5.747   6.170
 7993SOL    HW224879   2.910   5.641   6.047
 7994SOL     OW24880   5.948   0.992   4.457
 7994SOL    HW124881   5.930   1.035   4.546
 7994SOL    HW224882   5.885   0.915   4.445
 7995SOL     OW24883   4.020   5.419   2.818
 7995SOL    HW124884   4.107   5.447   2.776
 7995SOL    HW224885   3.976   5.351   2.759
 7996SOL     OW24886   4.307   1.332   5.242
 7996SOL    HW124887   4.372   1.404   5.216
 7996SOL    HW224888   4.298   1.330   5.342
 7997SOL     OW24889   5.304   2.544   1.269
 7997SOL    HW124890   5.310   2.489   1.352
 7997SOL    HW224891   5.279   2.486   1.191
 7998SOL     OW24892   6.454   4.578   6.297
 7998SOL    HW124893   6.450   4.480   6.277
 7998SOL    HW224894   6.368   4.621   6.271
 7999SOL     OW24895   2.376   1.804   5.361
 7999SOL    HW124896   2.368   1.705   5.352
 7999SOL    HW224897   2.471   1.831   5.348
 8000SOL     OW24898   5.032   0.535   5.737
 8000SOL    HW124899   5.098   0.509   5.808
 8000SOL    HW224900   5.073   0.605   5.678
 8001SOL     OW24901   2.619   5.350   1.070
 8001SOL    HW124902   2.647   5.346   0.974
 8001SOL    HW224903   2.625   5.445   1.103
 8002SOL     OW24904   4.986   2.363   5.725
 8002SOL    HW124905   4.913   2.348   5.658
 8002SOL    HW224906   5.031   2.277   5.747
 8003SOL     OW24907   4.314   5.480   3.431
 8003SOL    HW124908   4.329   5.465   3.333
 8003SOL    HW224909   4.216   5.484   3.450
 8004SOL     OW24910   1.584   4.149   3.293
 8004SOL    HW124911   1.671   4.101   3.286
 8004SOL    HW224912   1.508   4.086   3.277
 8005SOL     OW24913   2.149   0.486   2.717
 8005SOL    HW124914   2.088   0.520   2.645
 8005SOL    HW224915   2.229   0.544   2.724
 8006SOL     OW24916   4.025   6.308   1.742
 8006SOL    HW124917   3.987   6.300   1.834
 8006SOL    HW224918   4.125   6.308   1.746
 8007SOL     OW24919   0.137   1.053   3.999
 8007SOL    HW124920   0.221   1.105   3.990
 8007SOL    HW224921   0.081   1.063   3.917
 8008SOL     OW24922   6.024   5.361   1.003
 8008SOL    HW124923   5.970   5.321   1.077
 8008SOL    HW224924   6.104   5.406   1.042
 8009SOL     OW24925   7.009   6.687   3.689
 8009SOL    HW124926   6.931   6.695   3.626
 8009SOL    HW224927   7.009   6.765   3.751
 8010SOL     OW24928   1.920   2.366   6.930
 8010SOL    HW124929   2.010   2.375   6.887
 8010SOL    HW224930   1.856   2.430   6.888
 8011SOL     OW24931   2.505   2.993   0.363
 8011SOL    HW124932   2.473   3.023   0.273
 8011SOL    HW224933   2.491   2.895   0.372
 8012SOL     OW24934   2.775   6.573   3.041
 8012SOL    HW124935   2.819   6.527   3.118
 8012SOL    HW224936   2.716   6.508   2.992
 8013SOL     OW24937   6.006   5.515   4.863
 8013SOL    HW124938   6.076   5.483   4.799
 8013SOL    HW224939   5.915   5.492   4.828
 8014SOL     OW24940   2.556   6.760   6.495
 8014SOL    HW124941   2.543   6.701   6.574
 8014SOL    HW224942   2.476   6.820   6.485
 8015SOL     OW24943   1.426   2.228   6.634
 8015SOL    HW124944   1.521   2.225   6.666
 8015SOL    HW224945   1.408   2.151   6.573
 8016SOL     OW24946   4.592   6.033   2.143
 8016SOL    HW124947   4.590   6.133   2.148
 8016SOL    HW224948   4.596   5.996   2.236
 8017SOL     OW24949   6.983   3.536   5.768
 8017SOL    HW124950   0.004   3.446   5.751
 8017SOL    HW224951   6.983   3.589   5.683
 8018SOL     OW24952   5.534   2.975   4.008
 8018SOL    HW124953   5.575   2.894   3.965
 8018SOL    HW224954   5.484   2.947   4.090
 8019SOL     OW24955   2.905   5.152   1.080
 8019SOL    HW124956   2.994   5.111   1.060
 8019SOL    HW224957   2.833   5.091   1.046
 8020SOL     OW24958   5.582   6.816   6.596
 8020SOL    HW124959   5.632   6.868   6.665
 8020SOL    HW224960   5.519   6.753   6.640
 8021SOL     OW24961   6.801   1.023   0.553
 8021SOL    HW124962   6.729   1.090   0.565
 8021SOL    HW224963   6.870   1.034   0.625
 8022SOL     OW24964   4.551   5.148   3.478
 8022SOL    HW124965   4.638   5.099   3.465
 8022SOL    HW224966   4.490   5.092   3.534
 8023SOL     OW24967   6.927   6.126   3.090
 8023SOL    HW124968   6.946   6.209   3.143
 8023SOL    HW224969   6.976   6.049   3.130
 8024SOL     OW24970   4.675   5.442   4.847
 8024SOL    HW124971   4.593   5.499   4.851
 8024SOL    HW224972   4.653   5.356   4.800
 8025SOL     OW24973   3.381   6.109   0.599
 8025SOL    HW124974   3.330   6.195   0.605
 8025SOL    HW224975   3.333   6.038   0.651
 8026SOL     OW24976   2.426   2.353   6.415
 8026SOL    HW124977   2.355   2.417   6.443
 8026SOL    HW224978   2.405   2.262   6.451
 8027SOL     OW24979   4.647   3.388   5.715
 8027SOL    HW124980   4.564   3.444   5.710
 8027SOL    HW224981   4.722   3.435   5.668
 8028SOL     OW24982   5.613   5.096   0.066
 8028SOL    HW124983   5.532   5.058   0.020
 8028SOL    HW224984   5.668   5.146   7.018
 8029SOL     OW24985   2.926   4.593   6.801
 8029SOL    HW124986   2.845   4.573   6.856
 8029SOL    HW224987   3.008   4.586   6.859
 8030SOL     OW24988   6.187   3.292   0.772
 8030SOL    HW124989   6.090   3.311   0.754
 8030SOL    HW224990   6.195   3.229   0.849
 8031SOL     OW24991   3.655   6.618   1.103
 8031SOL    HW124992   3.708   6.551   1.155
 8031SOL    HW224993   3.713   6.659   1.033
 8032SOL     OW24994   4.645   3.909   5.528
 8032SOL    HW124995   4.579   3.983   5.541
 8032SOL    HW224996   4.614   3.849   5.454
 8033SOL     OW24997   5.860   1.987   1.517
 8033SOL    HW124998   5.844   2.040   1.434
 8033SOL    HW224999   5.828   2.039   1.597
 8034SOL     OW25000   6.476   1.953   5.714
 8034SOL    HW125001   6.486   1.912   5.804
 8034SOL    HW225002   6.467   1.881   5.645
 8035SOL     OW25003   5.592   5.785   6.159
 8035SOL    HW125004   5.638   5.865   6.197
 8035SOL    HW225005   5.499   5.778   6.195
 8036SOL     OW25006   1.173   4.697   1.865
 8036SOL    HW125007   1.178   4.781   1.811
 8036SOL    HW225008   1.125   4.715   1.951
 8037SOL     OW25009   2.093   3.244   2.001
 8037SOL    HW125010   2.122   3.337   2.025
 8037SOL    HW225011   2.148   3.211   1.924
 8038SOL     OW25012   5.686   1.688   4.186
 8038SOL    HW125013   5.608   1.743   4.158
 8038SOL    HW225014   5.750   1.744   4.238
 8039SOL     OW25015   2.383   5.993   4.024
 8039SOL    HW125016   2.458   5.957   3.968
 8039SOL    HW225017   2.417   6.068   4.081
 8040SOL     OW25018   5.734   5.937   0.160
 8040SOL    HW125019   5.723   5.972   0.067
 8040SOL    HW225020   5.648   5.945   0.210
 8041SOL     OW25021   3.366   1.880   1.412
 8041SOL    HW125022   3.322   1.969   1.421
 8041SOL    HW225023   3.299   1.813   1.380
 8042SOL     OW25024   2.494   5.119   0.358
 8042SOL    HW125025   2.437   5.162   0.289
 8042SOL    HW225026   2.516   5.025   0.329
 8043SOL     OW25027   2.920   0.651   1.441
 8043SOL    HW125028   2.983   0.574   1.452
 8043SOL    HW225029   2.959   0.717   1.376
 8044SOL     OW25030   3.145   3.343   2.139
 8044SOL    HW125031   3.152   3.351   2.039
 8044SOL    HW225032   3.173   3.429   2.181
 8045SOL     OW25033   6.374   3.002   3.857
 8045SOL    HW125034   6.399   2.905   3.858
 8045SOL    HW225035   6.309   3.021   3.931
 8046SOL     OW25036   0.028   5.291   5.213
 8046SOL    HW125037   0.043   5.271   5.116
 8046SOL    HW225038   0.039   5.389   5.228
 8047SOL     OW25039   2.569   0.104   4.666
 8047SOL    HW125040   2.471   0.093   4.684
 8047SOL    HW225041   2.619   0.103   4.752
 8048SOL     OW25042   6.022   0.692   5.669
 8048SOL    HW125043   5.983   0.732   5.586
 8048SOL    HW225044   6.110   0.649   5.647
 8049SOL     OW25045   1.588   6.969   0.581
 8049SOL    HW125046   1.518   6.905   0.546
 8049SOL    HW225047   1.553   0.043   0.576
 8050SOL     OW25048   0.002   3.318   1.433
 8050SOL    HW125049   0.040   3.384   1.497
 8050SOL    HW225050   0.055   3.319   1.348
 8051SOL     OW25051   2.720   1.426   3.504
 8051SOL    HW125052   2.646   1.465   3.559
 8051SOL    HW225053   2.808   1.448   3.546
 8052SOL     OW25054   3.488   1.781   3.033
 8052SOL    HW125055   3.554   1.798   3.105
 8052SOL    HW225056   3.398   1.763   3.074
 8053SOL     OW25057   4.382   3.461   1.664
 8053SOL    HW125058   4.282   3.474   1.666
 8053SOL    HW225059   4.402   3.367   1.639
 8054SOL     OW25060   4.743   6.518   4.456
 8054SOL    HW125061   4.781   6.476   4.373
 8054SOL    HW225062   4.743   6.617   4.445
 8055SOL     OW25063   0.747   0.136   5.505
 8055SOL    HW125064   0.783   0.084   5.583
 8055SOL    HW225065   0.749   0.080   5.423
 8056SOL     OW25066   4.474   1.378   2.465
 8056SOL    HW125067   4.495   1.444   2.537
 8056SOL    HW225068   4.407   1.312   2.499
 8057SOL     OW25069   3.315   0.165   3.988
 8057SOL    HW125070   3.388   0.233   3.985
 8057SOL    HW225071   3.344   0.088   4.045
 8058SOL     OW25072   2.069   6.667   3.547
 8058SOL    HW125073   2.135   6.734   3.514
 8058SOL    HW225074   2.002   6.648   3.476
 8059SOL     OW25075   2.265   1.307   3.773
 8059SOL    HW125076   2.263   1.249   3.854
 8059SOL    HW225077   2.252   1.402   3.799
 8060SOL     OW25078   0.609   2.820   4.940
 8060SOL    HW125079   0.694   2.768   4.946
 8060SOL    HW225080   0.584   2.854   5.031
 8061SOL     OW25081   6.382   6.464   2.788
 8061SOL    HW125082   6.297   6.483   2.837
 8061SOL    HW225083   6.360   6.425   2.698
 8062SOL     OW25084   1.602   3.716   1.866
 8062SOL    HW125085   1.629   3.779   1.939
 8062SOL    HW225086   1.661   3.636   1.868
 8063SOL     OW25087   2.394   3.045   6.071
 8063SOL    HW125088   2.371   3.119   6.008
 8063SOL    HW225089   2.494   3.038   6.079
 8064SOL     OW25090   6.877   2.479   6.147
 8064SOL    HW125091   6.884   2.425   6.063
 8064SOL    HW225092   6.787   2.464   6.188
 8065SOL     OW25093   4.581   0.034   6.495
 8065SOL    HW125094   4.523   7.004   6.429
 8065SOL    HW225095   4.542   0.125   6.512
 8066SOL     OW25096   2.035   6.783   1.449
 8066SOL    HW125097   2.039   6.871   1.497
 8066SOL    HW225098   1.976   6.720   1.500
 8067SOL     OW25099   4.614   2.558   2.212
 8067SOL    HW125100   4.674   2.480   2.194
 8067SOL    HW225101   4.641   2.603   2.297
 8068SOL     OW25102   6.617   4.900   4.268
 8068SOL    HW125103   6.694   4.846   4.302
 8068SOL    HW225104   6.546   4.838   4.235
 8069SOL     OW25105   1.240   6.432   2.195
 8069SOL    HW125106   1.229   6.467   2.288
 8069SOL    HW225107   1.209   6.337   2.191
 8070SOL     OW25108   3.599   0.459   2.601
 8070SOL    HW125109   3.611   0.370   2.556
 8070SOL    HW225110   3.656   0.527   2.554
 8071SOL     OW25111   4.875   5.638   0.057
 8071SOL    HW125112   4.787   5.683   0.072
 8071SOL    HW225113   4.876   5.594   6.986
 8072SOL     OW25114   4.283   0.651   2.980
 8072SOL    HW125115   4.206   0.589   2.986
 8072SOL    HW225116   4.285   0.695   2.890
 8073SOL     OW25117   4.949   0.637   6.102
 8073SOL    HW125118   4.930   0.707   6.033
 8073SOL    HW225119   5.039   0.597   6.085
 8074SOL     OW25120   2.989   3.967   6.600
 8074SOL    HW125121   2.927   3.899   6.561
 8074SOL    HW225122   3.079   3.959   6.559
 8075SOL     OW25123   5.876   2.656   3.638
 8075SOL    HW125124   5.935   2.696   3.708
 8075SOL    HW225125   5.850   2.726   3.572
 8076SOL     OW25126   4.861   3.095   6.368
 8076SOL    HW125127   4.930   3.107   6.296
 8076SOL    HW225128   4.797   3.172   6.366
 8077SOL     OW25129   0.967   0.048   0.380
 8077SOL    HW125130   1.049   0.104   0.386
 8077SOL    HW225131   0.897   0.083   0.442
 8078SOL     OW25132   5.830   2.824   1.058
 8078SOL    HW125133   5.785   2.871   1.134
 8078SOL    HW225134   5.807   2.727   1.060
 8079SOL     OW25135   1.090   2.542   1.610
 8079SOL    HW125136   1.164   2.569   1.548
 8079SOL    HW225137   1.023   2.488   1.559
 8080SOL     OW25138   3.936   5.001   0.441
 8080SOL    HW125139   3.953   4.935   0.368
 8080SOL    HW225140   4.003   5.075   0.436
 8081SOL     OW25141   5.779   2.367   4.732
 8081SOL    HW125142   5.807   2.368   4.635
 8081SOL    HW225143   5.726   2.449   4.752
 8082SOL     OW25144   5.959   3.555   4.463
 8082SOL    HW125145   6.015   3.482   4.504
 8082SOL    HW225146   6.003   3.643   4.478
 8083SOL     OW25147   6.021   1.933   5.181
 8083SOL    HW125148   5.998   1.847   5.225
 8083SOL    HW225149   5.958   1.950   5.104
 8084SOL     OW25150   6.197   0.042   0.456
 8084SOL    HW125151   6.265   6.991   0.437
 8084SOL    HW225152   6.196   0.061   0.554
 8085SOL     OW25153   5.480   2.458   0.931
 8085SOL    HW125154   5.410   2.502   0.874
 8085SOL    HW225155   5.437   2.420   1.013
 8086SOL     OW25156   2.366   5.762   6.022
 8086SOL    HW125157   2.423   5.844   6.034
 8086SOL    HW225158   2.421   5.688   5.984
 8087SOL     OW25159   2.820   4.168   0.581
 8087SOL    HW125160   2.878   4.237   0.539
 8087SOL    HW225161   2.784   4.203   0.668
 8088SOL     OW25162   4.427   1.119   3.175
 8088SOL    HW125163   4.441   1.034   3.227
 8088SOL    HW225164   4.357   1.103   3.104
 8089SOL     OW25165   6.634   2.870   0.704
 8089SOL    HW125166   6.578   2.878   0.621
 8089SOL    HW225167   6.730   2.862   0.679
 8090SOL     OW25168   4.584   2.184   5.176
 8090SOL    HW125169   4.678   2.181   5.142
 8090SOL    HW225170   4.525   2.226   5.106
 8091SOL     OW25171   1.769   4.042   5.188
 8091SOL    HW125172   1.811   3.980   5.122
 8091SOL    HW225173   1.703   4.101   5.141
 8092SOL     OW25174   6.621   1.680   4.384
 8092SOL    HW125175   6.569   1.605   4.424
 8092SOL    HW225176   6.680   1.720   4.453
 8093SOL     OW25177   5.737   5.306   0.510
 8093SOL    HW125178   5.747   5.334   0.415
 8093SOL    HW225179   5.656   5.348   0.550
 8094SOL     OW25180   0.538   3.841   4.041
 8094SOL    HW125181   0.510   3.840   3.945
 8094SOL    HW225182   0.461   3.815   4.099
 8095SOL     OW25183   6.437   3.383   4.737
 8095SOL    HW125184   6.536   3.400   4.731
 8095SOL    HW225185   6.407   3.332   4.657
 8096SOL     OW25186   4.565   0.114   0.632
 8096SOL    HW125187   4.516   0.189   0.588
 8096SOL    HW225188   4.539   0.107   0.728
 8097SOL     OW25189   4.610   1.462   4.261
 8097SOL    HW125190   4.511   1.470   4.249
 8097SOL    HW225191   4.632   1.455   4.358
 8098SOL     OW25192   2.266   1.439   4.069
 8098SOL    HW125193   2.257   1.456   4.167
 8098SOL    HW225194   2.259   1.525   4.019
 8099SOL     OW25195   3.623   6.537   4.878
 8099SOL    HW125196   3.645   6.582   4.964
 8099SOL    HW225197   3.695   6.555   4.811
 8100SOL     OW25198   6.327   5.824   1.377
 8100SOL    HW125199   6.382   5.804   1.295
 8100SOL    HW225200   6.236   5.854   1.349
 8101SOL     OW25201   0.015   4.827   2.056
 8101SOL    HW125202   7.017   4.917   2.098
 8101SOL    HW225203   6.993   4.824   1.965
 8102SOL     OW25204   6.803   0.528   5.718
 8102SOL    HW125205   6.784   0.439   5.760
 8102SOL    HW225206   6.860   0.582   5.780
 8103SOL     OW25207   2.503   2.412   2.354
 8103SOL    HW125208   2.509   2.498   2.404
 8103SOL    HW225209   2.442   2.349   2.403
 8104SOL     OW25210   2.999   0.196   6.122
 8104SOL    HW125211   2.913   0.245   6.136
 8104SOL    HW225212   3.074   0.247   6.164
 8105SOL     OW25213   1.780   2.852   3.269
 8105SOL    HW125214   1.865   2.816   3.308
 8105SOL    HW225215   1.702   2.806   3.311
 8106SOL     OW25216   0.186   3.795   5.411
 8106SOL    HW125217   0.186   3.834   5.319
 8106SOL    HW225218   0.260   3.835   5.464
 8107SOL     OW25219   1.259   5.533   6.893
 8107SOL    HW125220   1.280   5.544   6.990
 8107SOL    HW225221   1.249   5.623   6.850
 8108SOL     OW25222   2.256   3.173   5.593
 8108SOL    HW125223   2.333   3.135   5.643
 8108SOL    HW225224   2.269   3.157   5.495
 8109SOL     OW25225   0.570   4.956   5.823
 8109SOL    HW125226   0.662   4.931   5.854
 8109SOL    HW225227   0.577   5.032   5.757
 8110SOL     OW25228   1.264   4.991   0.621
 8110SOL    HW125229   1.194   5.059   0.640
 8110SOL    HW225230   1.335   5.031   0.564
 8111SOL     OW25231   3.160   6.172   4.180
 8111SOL    HW125232   3.188   6.083   4.144
 8111SOL    HW225233   3.237   6.214   4.227
 8112SOL     OW25234   4.163   0.857   4.053
 8112SOL    HW125235   4.221   0.925   4.097
 8112SOL    HW225236   4.067   0.880   4.069
 8113SOL     OW25237   3.038   2.723   5.637
 8113SOL    HW125238   2.938   2.732   5.647
 8113SOL    HW225239   3.082   2.806   5.672
 8114SOL     OW25240   2.896   3.351   1.751
 8114SOL    HW125241   2.800   3.374   1.741
 8114SOL    HW225242   2.948   3.391   1.675
 8115SOL     OW25243   3.178   2.994   0.914
 8115SOL    HW125244   3.249   2.978   0.983
 8115SOL    HW225245   3.089   2.993   0.958
 8116SOL     OW25246   5.371   1.222   5.713
 8116SOL    HW125247   5.446   1.206   5.776
 8116SOL    HW225248   5.309   1.143   5.714
 8117SOL     OW25249   3.101   2.330   5.960
 8117SOL    HW125250   3.147   2.333   6.049
 8117SOL    HW225251   3.002   2.336   5.973
 8118SOL     OW25252   1.312   2.112   3.664
 8118SOL    HW125253   1.291   2.125   3.761
 8118SOL    HW225254   1.411   2.114   3.650
 8119SOL     OW25255   1.325   6.765   2.253
 8119SOL    HW125256   1.285   6.857   2.264
 8119SOL    HW225257   1.261   6.698   2.291
 8120SOL     OW25258   4.523   4.388   2.511
 8120SOL    HW125259   4.491   4.477   2.543
 8120SOL    HW225260   4.517   4.384   2.411
 8121SOL     OW25261   6.656   6.031   3.005
 8121SOL    HW125262   6.739   6.064   3.048
 8121SOL    HW225263   6.634   5.940   3.040
 8122SOL     OW25264   6.983   5.705   1.666
 8122SOL    HW125265   0.027   5.646   1.716
 8122SOL    HW225266   6.955   5.780   1.725
 8123SOL     OW25267   1.369   5.217   0.042
 8123SOL    HW125268   1.279   5.204   0.083
 8123SOL    HW225269   1.394   5.135   7.009
 8124SOL     OW25270   1.566   6.239   3.205
 8124SOL    HW125271   1.554   6.231   3.106
 8124SOL    HW225272   1.648   6.294   3.224
 8125SOL     OW25273   5.344   4.937   2.823
 8125SOL    HW125274   5.284   4.857   2.834
 8125SOL    HW225275   5.419   4.931   2.888
 8126SOL     OW25276   6.998   4.658   2.491
 8126SOL    HW125277   6.995   4.568   2.533
 8126SOL    HW225278   6.914   4.674   2.439
 8127SOL     OW25279   4.552   5.200   1.039
 8127SOL    HW125280   4.617   5.152   1.098
 8127SOL    HW225281   4.459   5.173   1.062
 8128SOL     OW25282   3.691   1.806   5.492
 8128SOL    HW125283   3.753   1.730   5.513
 8128SOL    HW225284   3.628   1.818   5.568
 8129SOL     OW25285   4.800   6.135   6.419
 8129SOL    HW125286   4.746   6.121   6.336
 8129SOL    HW225287   4.748   6.191   6.483
 8130SOL     OW25288   0.479   6.902   6.874
 8130SOL    HW125289   0.457   6.886   6.778
 8130SOL    HW225290   0.397   6.888   6.930
 8131SOL     OW25291   2.341   1.475   1.423
 8131SOL    HW125292   2.300   1.540   1.359
 8131SOL    HW225293   2.319   1.382   1.394
 8132SOL     OW25294   5.600   4.700   3.416
 8132SOL    HW125295   5.695   4.719   3.440
 8132SOL    HW225296   5.542   4.777   3.443
 8133SOL     OW25297   0.255   5.756   1.924
 8133SOL    HW125298   0.314   5.830   1.894
 8133SOL    HW225299   0.167   5.793   1.953
 8134SOL     OW25300   2.048   2.486   1.910
 8134SOL    HW125301   2.134   2.442   1.884
 8134SOL    HW225302   2.065   2.581   1.934
 8135SOL     OW25303   3.871   6.572   2.681
 8135SOL    HW125304   3.923   6.575   2.596
 8135SOL    HW225305   3.800   6.643   2.679
 8136SOL     OW25306   2.036   6.161   1.889
 8136SOL    HW125307   2.060   6.155   1.792
 8136SOL    HW225308   1.944   6.197   1.898
 8137SOL     OW25309   3.231   3.429   4.951
 8137SOL    HW125310   3.239   3.443   4.853
 8137SOL    HW225311   3.237   3.331   4.971
 8138SOL     OW25312   4.367   1.410   3.614
 8138SOL    HW125313   4.349   1.335   3.550
 8138SOL    HW225314   4.356   1.498   3.566
 8139SOL     OW25315   1.461   3.169   5.969
 8139SOL    HW125316   1.416   3.201   5.886
 8139SOL    HW225317   1.558   3.194   5.966
 8140SOL     OW25318   4.661   1.571   0.987
 8140SOL    HW125319   4.657   1.514   0.905
 8140SOL    HW225320   4.574   1.618   0.999
 8141SOL     OW25321   6.270   0.810   5.360
 8141SOL    HW125322   6.308   0.803   5.268
 8141SOL    HW225323   6.171   0.793   5.357
 8142SOL     OW25324   3.453   5.480   0.564
 8142SOL    HW125325   3.483   5.394   0.604
 8142SOL    HW225326   3.521   5.513   0.499
 8143SOL     OW25327   6.102   4.530   7.014
 8143SOL    HW125328   6.156   4.614   0.006
 8143SOL    HW225329   6.149   4.469   6.950
 8144SOL     OW25330   1.761   5.266   6.964
 8144SOL    HW125331   1.693   5.340   6.964
 8144SOL    HW225332   1.803   5.260   6.874
 8145SOL     OW25333   5.488   5.786   5.910
 8145SOL    HW125334   5.545   5.812   5.989
 8145SOL    HW225335   5.437   5.703   5.932
 8146SOL     OW25336   6.585   6.493   4.978
 8146SOL    HW125337   6.569   6.544   5.063
 8146SOL    HW225338   6.683   6.489   4.961
 8147SOL     OW25339   2.444   0.466   5.581
 8147SOL    HW125340   2.533   0.444   5.541
 8147SOL    HW225341   2.457   0.526   5.660
 8148SOL     OW25342   5.154   4.840   6.718
 8148SOL    HW125343   5.241   4.792   6.730
 8148SOL    HW225344   5.100   4.794   6.647
 8149SOL     OW25345   1.449   6.698   5.789
 8149SOL    HW125346   1.391   6.756   5.846
 8149SOL    HW225347   1.478   6.749   5.708
 8150SOL     OW25348   0.647   3.939   0.080
 8150SOL    HW125349   0.706   3.968   0.156
 8150SOL    HW225350   0.656   4.004   0.005
 8151SOL     OW25351   5.958   4.676   2.351
 8151SOL    HW125352   5.868   4.632   2.340
 8151SOL    HW225353   5.948   4.775   2.342
 8152SOL     OW25354   5.989   2.254   3.779
 8152SOL    HW125355   5.982   2.159   3.808
 8152SOL    HW225356   5.898   2.289   3.756
 8153SOL     OW25357   0.365   1.506   1.511
 8153SOL    HW125358   0.368   1.605   1.497
 8153SOL    HW225359   0.282   1.468   1.469
 8154SOL     OW25360   1.031   0.640   3.362
 8154SOL    HW125361   1.103   0.642   3.431
 8154SOL    HW225362   0.950   0.688   3.398
 8155SOL     OW25363   1.509   4.658   4.597
 8155SOL    HW125364   1.599   4.637   4.635
 8155SOL    HW225365   1.447   4.686   4.670
 8156SOL     OW25366   1.374   3.984   0.407
 8156SOL    HW125367   1.333   4.037   0.333
 8156SOL    HW225368   1.302   3.948   0.466
 8157SOL     OW25369   6.098   4.817   4.576
 8157SOL    HW125370   6.060   4.908   4.562
 8157SOL    HW225371   6.146   4.813   4.664
 8158SOL     OW25372   5.939   5.036   5.955
 8158SOL    HW125373   5.986   5.121   5.933
 8158SOL    HW225374   5.972   4.963   5.894
 8159SOL     OW25375   2.697   0.069   4.909
 8159SOL    HW125376   2.647   7.002   4.922
 8159SOL    HW225377   2.676   0.132   4.984
 8160SOL     OW25378   5.747   2.489   2.788
 8160SOL    HW125379   5.782   2.500   2.881
 8160SOL    HW225380   5.688   2.408   2.785
 8161SOL     OW25381   6.604   2.655   1.948
 8161SOL    HW125382   6.596   2.556   1.943
 8161SOL    HW225383   6.682   2.685   1.892
 8162SOL     OW25384   0.959   5.947   5.733
 8162SOL    HW125385   0.992   5.996   5.652
 8162SOL    HW225386   0.958   5.849   5.713
 8163SOL     OW25387   3.763   4.616   5.342
 8163SOL    HW125388   3.816   4.585   5.421
 8163SOL    HW225389   3.700   4.544   5.314
 8164SOL     OW25390   5.134   1.829   0.516
 8164SOL    HW125391   5.203   1.900   0.508
 8164SOL    HW225392   5.097   1.807   0.426
 8165SOL     OW25393   0.842   2.144   6.308
 8165SOL    HW125394   0.744   2.161   6.320
 8165SOL    HW225395   0.862   2.126   6.212
 8166SOL     OW25396   2.353   2.275   4.546
 8166SOL    HW125397   2.254   2.263   4.551
 8166SOL    HW225398   2.382   2.339   4.617
 8167SOL     OW25399   1.818   2.175   3.304
 8167SOL    HW125400   1.745   2.187   3.372
 8167SOL    HW225401   1.907   2.180   3.350
 8168SOL     OW25402   1.653   6.228   2.943
 8168SOL    HW125403   1.633   6.326   2.934
 8168SOL    HW225404   1.695   6.195   2.859
 8169SOL     OW25405   4.767   4.190   0.323
 8169SOL    HW125406   4.678   4.217   0.358
 8169SOL    HW225407   4.771   4.208   0.225
 8170SOL     OW25408   0.198   4.270   2.549
 8170SOL    HW125409   0.295   4.289   2.563
 8170SOL    HW225410   0.172   4.187   2.598
 8171SOL     OW25411   2.078   1.841   1.613
 8171SOL    HW125412   2.094   1.848   1.711
 8171SOL    HW225413   1.981   1.856   1.593
 8172SOL     OW25414   1.265   4.225   0.260
 8172SOL    HW125415   1.290   4.321   0.248
 8172SOL    HW225416   1.170   4.211   0.230
 8173SOL     OW25417   5.968   0.336   1.453
 8173SOL    HW125418   5.901   0.337   1.527
 8173SOL    HW225419   6.038   0.267   1.472
 8174SOL     OW25420   2.473   6.670   3.927
 8174SOL    HW125421   2.512   6.759   3.952
 8174SOL    HW225422   2.427   6.679   3.838
 8175SOL     OW25423   0.809   2.221   5.548
 8175SOL    HW125424   0.878   2.178   5.489
 8175SOL    HW225425   0.853   2.292   5.604
 8176SOL     OW25426   2.840   5.138   0.357
 8176SOL    HW125427   2.803   5.102   0.442
 8176SOL    HW225428   2.795   5.225   0.335
 8177SOL     OW25429   3.096   1.252   2.723
 8177SOL    HW125430   3.133   1.177   2.668
 8177SOL    HW225431   3.063   1.324   2.663
 8178SOL     OW25432   2.312   6.238   0.967
 8178SOL    HW125433   2.213   6.234   0.949
 8178SOL    HW225434   2.328   6.246   1.065
 8179SOL     OW25435   6.125   0.010   3.430
 8179SOL    HW125436   6.213   7.019   3.384
 8179SOL    HW225437   6.134   0.074   3.506
 8180SOL     OW25438   4.780   5.100   0.703
 8180SOL    HW125439   4.744   5.164   0.635
 8180SOL    HW225440   4.820   5.151   0.779
 8181SOL     OW25441   5.893   0.525   6.337
 8181SOL    HW125442   5.804   0.562   6.363
 8181SOL    HW225443   5.954   0.599   6.312
 8182SOL     OW25444   3.398   3.442   3.240
 8182SOL    HW125445   3.405   3.421   3.337
 8182SOL    HW225446   3.489   3.456   3.201
 8183SOL     OW25447   6.994   0.167   5.771
 8183SOL    HW125448   0.027   0.249   5.794
 8183SOL    HW225449   6.899   0.192   5.752
 8184SOL     OW25450   0.418   6.178   5.361
 8184SOL    HW125451   0.363   6.241   5.415
 8184SOL    HW225452   0.359   6.126   5.299
 8185SOL     OW25453   0.643   6.187   5.189
 8185SOL    HW125454   0.554   6.183   5.234
 8185SOL    HW225455   0.699   6.111   5.221
 8186SOL     OW25456   1.575   5.746   0.574
 8186SOL    HW125457   1.582   5.692   0.657
 8186SOL    HW225458   1.480   5.775   0.561
 8187SOL     OW25459   1.780   6.296   4.618
 8187SOL    HW125460   1.745   6.376   4.570
 8187SOL    HW225461   1.716   6.270   4.690
 8188SOL     OW25462   1.834   2.844   2.603
 8188SOL    HW125463   1.900   2.797   2.661
 8188SOL    HW225464   1.749   2.792   2.599
 8189SOL     OW25465   6.268   5.041   3.899
 8189SOL    HW125466   6.366   5.043   3.879
 8189SOL    HW225467   6.235   4.947   3.897
 8190SOL     OW25468   6.183   3.766   2.711
 8190SOL    HW125469   6.242   3.750   2.631
 8190SOL    HW225470   6.110   3.830   2.686
 8191SOL     OW25471   4.173   5.418   0.876
 8191SOL    HW125472   4.199   5.392   0.783
 8191SOL    HW225473   4.122   5.342   0.918
 8192SOL     OW25474   0.467   6.097   3.496
 8192SOL    HW125475   0.404   6.052   3.433
 8192SOL    HW225476   0.489   6.188   3.461
 8193SOL     OW25477   0.498   4.693   3.596
 8193SOL    HW125478   0.499   4.594   3.581
 8193SOL    HW225479   0.453   4.737   3.519
 8194SOL     OW25480   5.119   0.315   1.603
 8194SOL    HW125481   5.145   0.295   1.697
 8194SOL    HW225482   5.174   0.390   1.568
 8195SOL     OW25483   6.485   6.670   3.699
 8195SOL    HW125484   6.483   6.764   3.733
 8195SOL    HW225485   6.409   6.655   3.636
 8196SOL     OW25486   5.065   0.365   2.467
 8196SOL    HW125487   5.015   0.295   2.518
 8196SOL    HW225488   5.016   0.453   2.473
 8197SOL     OW25489   4.586   1.776   3.322
 8197SOL    HW125490   4.515   1.724   3.274
 8197SOL    HW225491   4.596   1.866   3.278
 8198SOL     OW25492   1.766   5.636   1.311
 8198SOL    HW125493   1.840   5.572   1.326
 8198SOL    HW225494   1.688   5.588   1.271
 8199SOL     OW25495   5.738   2.246   0.662
 8199SOL    HW125496   5.827   2.204   0.679
 8199SOL    HW225497   5.685   2.188   0.600
 8200SOL     OW25498   5.491   4.200   0.774
 8200SOL    HW125499   5.569   4.262   0.780
 8200SOL    HW225500   5.448   4.208   0.684
 8201SOL     OW25501   5.724   0.187   5.350
 8201SOL    HW125502   5.630   0.152   5.353
 8201SOL    HW225503   5.788   0.110   5.353
 8202SOL     OW25504   1.137   6.185   2.240
 8202SOL    HW125505   1.185   6.123   2.302
 8202SOL    HW225506   1.042   6.193   2.268
 8203SOL     OW25507   1.852   3.441   1.058
 8203SOL    HW125508   1.828   3.449   1.154
 8203SOL    HW225509   1.950   3.458   1.046
 8204SOL     OW25510   1.716   3.393   0.834
 8204SOL    HW125511   1.696   3.469   0.772
 8204SOL    HW225512   1.785   3.422   0.900
 8205SOL     OW25513   0.049   3.615   6.480
 8205SOL    HW125514   0.125   3.624   6.544
 8205SOL    HW225515   7.017   3.702   6.476
 8206SOL     OW25516   3.468   1.072   1.703
 8206SOL    HW125517   3.484   1.165   1.670
 8206SOL    HW225518   3.370   1.058   1.719
 8207SOL     OW25519   4.027   3.890   4.041
 8207SOL    HW125520   4.050   3.892   4.138
 8207SOL    HW225521   4.025   3.795   4.009
 8208SOL     OW25522   2.598   0.133   6.922
 8208SOL    HW125523   2.632   0.108   7.013
 8208SOL    HW225524   2.560   0.052   6.877
 8209SOL     OW25525   5.864   2.331   4.361
 8209SOL    HW125526   5.784   2.378   4.397
 8209SOL    HW225527   5.846   2.302   4.267
 8210SOL     OW25528   2.122   2.856   5.922
 8210SOL    HW125529   2.186   2.928   5.950
 8210SOL    HW225530   2.098   2.869   5.826
 8211SOL     OW25531   4.276   4.440   1.371
 8211SOL    HW125532   4.229   4.372   1.314
 8211SOL    HW225533   4.215   4.517   1.389
 8212SOL     OW25534   2.125   2.473   2.953
 8212SOL    HW125535   2.061   2.485   3.030
 8212SOL    HW225536   2.073   2.463   2.868
 8213SOL     OW25537   6.444   4.338   0.616
 8213SOL    HW125538   6.345   4.338   0.632
 8213SOL    HW225539   6.463   4.359   0.520
 8214SOL     OW25540   5.110   3.660   2.929
 8214SOL    HW125541   5.062   3.605   2.861
 8214SOL    HW225542   5.051   3.734   2.961
 8215SOL     OW25543   3.493   5.188   2.021
 8215SOL    HW125544   3.423   5.228   1.961
 8215SOL    HW225545   3.583   5.223   1.996
 8216SOL     OW25546   5.493   3.698   3.242
 8216SOL    HW125547   5.460   3.642   3.165
 8216SOL    HW225548   5.424   3.767   3.265
 8217SOL     OW25549   2.231   5.713   0.737
 8217SOL    HW125550   2.173   5.772   0.793
 8217SOL    HW225551   2.256   5.761   0.653
 8218SOL     OW25552   5.156   2.160   0.294
 8218SOL    HW125553   5.126   2.143   0.388
 8218SOL    HW225554   5.147   2.257   0.272
 8219SOL     OW25555   5.179   2.023   0.049
 8219SOL    HW125556   5.258   1.965   0.028
 8219SOL    HW225557   5.195   2.072   0.135
 8220SOL     OW25558   4.398   3.834   1.726
 8220SOL    HW125559   4.383   3.742   1.763
 8220SOL    HW225560   4.309   3.876   1.705
 8221SOL     OW25561   5.488   4.344   3.111
 8221SOL    HW125562   5.482   4.436   3.072
 8221SOL    HW225563   5.457   4.278   3.042
 8222SOL     OW25564   6.320   1.278   3.016
 8222SOL    HW125565   6.311   1.345   3.090
 8222SOL    HW225566   6.413   1.242   3.014
 8223SOL     OW25567   0.192   5.024   6.622
 8223SOL    HW125568   0.206   4.925   6.620
 8223SOL    HW225569   0.263   5.069   6.569
 8224SOL     OW25570   0.737   3.866   2.688
 8224SOL    HW125571   0.754   3.853   2.590
 8224SOL    HW225572   0.668   3.801   2.719
 8225SOL     OW25573   4.656   1.224   1.039
 8225SOL    HW125574   4.639   1.308   0.987
 8225SOL    HW225575   4.751   1.223   1.070
 8226SOL     OW25576   3.996   0.287   0.288
 8226SOL    HW125577   4.026   0.251   0.199
 8226SOL    HW225578   3.898   0.275   0.298
 8227SOL     OW25579   6.051   4.111   3.353
 8227SOL    HW125580   6.091   4.114   3.261
 8227SOL    HW225581   6.024   4.017   3.374
 8228SOL     OW25582   6.948   1.758   4.087
 8228SOL    HW125583   6.974   1.816   4.164
 8228SOL    HW225584   6.955   1.810   4.002
 8229SOL     OW25585   5.034   5.664   0.463
 8229SOL    HW125586   5.044   5.696   0.369
 8229SOL    HW225587   5.118   5.683   0.514
 8230SOL     OW25588   5.293   0.040   3.475
 8230SOL    HW125589   5.270   0.047   3.571
 8230SOL    HW225590   5.326   0.129   3.442
 8231SOL     OW25591   3.976   5.757   1.411
 8231SOL    HW125592   3.903   5.817   1.381
 8231SOL    HW225593   4.065   5.795   1.383
 8232SOL     OW25594   2.588   1.982   0.054
 8232SOL    HW125595   2.514   1.921   0.084
 8232SOL    HW225596   2.579   2.070   0.101
 8233SOL     OW25597   0.221   5.326   6.181
 8233SOL    HW125598   0.138   5.309   6.234
 8233SOL    HW225599   0.250   5.421   6.195
 8234SOL     OW25600   2.883   3.195   0.198
 8234SOL    HW125601   2.969   3.242   0.180
 8234SOL    HW225602   2.828   3.193   0.115
 8235SOL     OW25603   4.564   2.405   6.862
 8235SOL    HW125604   4.658   2.395   6.829
 8235SOL    HW225605   4.513   2.462   6.799
 8236SOL     OW25606   6.125   2.893   1.338
 8236SOL    HW125607   6.198   2.828   1.317
 8236SOL    HW225608   6.108   2.952   1.259
 8237SOL     OW25609   3.619   6.521   5.640
 8237SOL    HW125610   3.608   6.437   5.692
 8237SOL    HW225611   3.554   6.589   5.674
 8238SOL     OW25612   1.834   0.792   6.971
 8238SOL    HW125613   1.788   0.771   0.038
 8238SOL    HW225614   1.912   0.730   6.960
 8239SOL     OW25615   5.750   1.187   0.064
 8239SOL    HW125616   5.828   1.145   0.015
 8239SOL    HW225617   5.676   1.204   7.018
 8240SOL     OW25618   4.004   3.322   3.118
 8240SOL    HW125619   4.043   3.365   3.037
 8240SOL    HW225620   3.905   3.333   3.118
 8241SOL     OW25621   4.625   6.369   1.466
 8241SOL    HW125622   4.548   6.325   1.420
 8241SOL    HW225623   4.590   6.423   1.544
 8242SOL     OW25624   0.930   3.954   5.418
 8242SOL    HW125625   1.008   3.938   5.358
 8242SOL    HW225626   0.946   3.912   5.507
 8243SOL     OW25627   0.604   3.277   4.903
 8243SOL    HW125628   0.531   3.224   4.861
 8243SOL    HW225629   0.568   3.328   4.981
 8244SOL     OW25630   2.447   5.296   4.684
 8244SOL    HW125631   2.434   5.390   4.717
 8244SOL    HW225632   2.368   5.240   4.708
 8245SOL     OW25633   4.298   4.058   0.789
 8245SOL    HW125634   4.242   4.024   0.864
 8245SOL    HW225635   4.241   4.070   0.707
 8246SOL     OW25636   4.993   4.077   5.265
 8246SOL    HW125637   4.983   4.137   5.185
 8246SOL    HW225638   4.961   3.986   5.242
 8247SOL     OW25639   1.130   6.489   0.370
 8247SOL    HW125640   1.150   6.394   0.346
 8247SOL    HW225641   1.035   6.496   0.402
 8248SOL     OW25642   0.369   4.722   2.991
 8248SOL    HW125643   0.374   4.634   3.037
 8248SOL    HW225644   0.298   4.719   2.921
 8249SOL     OW25645   0.932   5.474   2.801
 8249SOL    HW125646   0.929   5.480   2.901
 8249SOL    HW225647   0.845   5.504   2.764
 8250SOL     OW25648   3.637   3.800   2.119
 8250SOL    HW125649   3.552   3.823   2.166
 8250SOL    HW225650   3.687   3.885   2.100
 8251SOL     OW25651   6.188   1.295   4.709
 8251SOL    HW125652   6.219   1.318   4.801
 8251SOL    HW225653   6.259   1.243   4.662
 8252SOL     OW25654   1.542   3.592   4.258
 8252SOL    HW125655   1.530   3.661   4.330
 8252SOL    HW225656   1.459   3.586   4.203
 8253SOL     OW25657   2.484   3.072   5.694
 8253SOL    HW125658   2.465   2.974   5.701
 8253SOL    HW225659   2.558   3.087   5.628
 8254SOL     OW25660   4.311   5.979   3.102
 8254SOL    HW125661   4.300   6.073   3.135
 8254SOL    HW225662   4.278   5.915   3.172
 8255SOL     OW25663   3.938   4.834   3.697
 8255SOL    HW125664   3.890   4.872   3.776
 8255SOL    HW225665   3.885   4.851   3.615
 8256SOL     OW25666   5.794   2.746   3.995
 8256SOL    HW125667   5.782   2.654   4.032
 8256SOL    HW225668   5.727   2.761   3.922
 8257SOL     OW25669   6.199   4.933   4.278
 8257SOL    HW125670   6.136   4.943   4.355
 8257SOL    HW225671   6.229   5.023   4.247
 8258SOL     OW25672   5.116   1.639   0.278
 8258SOL    HW125673   5.200   1.590   0.256
 8258SOL    HW225674   5.073   1.672   0.194
 8259SOL     OW25675   4.369   1.240   1.052
 8259SOL    HW125676   4.468   1.233   1.064
 8259SOL    HW225677   4.328   1.281   1.133
 8260SOL     OW25678   3.043   5.737   6.635
 8260SOL    HW125679   3.008   5.777   6.720
 8260SOL    HW225680   3.056   5.809   6.568
 8261SOL     OW25681   5.275   1.410   1.758
 8261SOL    HW125682   5.363   1.377   1.724
 8261SOL    HW225683   5.202   1.384   1.694
 8262SOL     OW25684   0.100   2.308   1.263
 8262SOL    HW125685   0.196   2.304   1.290
 8262SOL    HW225686   0.092   2.357   1.176
 8263SOL     OW25687   5.420   1.662   0.937
 8263SOL    HW125688   5.441   1.573   0.975
 8263SOL    HW225689   5.321   1.677   0.941
 8264SOL     OW25690   1.492   4.327   2.005
 8264SOL    HW125691   1.442   4.378   1.935
 8264SOL    HW225692   1.578   4.374   2.025
 8265SOL     OW25693   1.761   0.894   2.612
 8265SOL    HW125694   1.860   0.907   2.619
 8265SOL    HW225695   1.739   0.797   2.625
 8266SOL     OW25696   2.905   0.556   3.255
 8266SOL    HW125697   2.903   0.643   3.305
 8266SOL    HW225698   2.812   0.526   3.236
 8267SOL     OW25699   0.014   3.807   0.636
 8267SOL    HW125700   6.973   3.742   0.588
 8267SOL    HW225701   6.995   3.826   0.726
 8268SOL     OW25702   3.436   5.584   6.475
 8268SOL    HW125703   3.429   5.684   6.475
 8268SOL    HW225704   3.479   5.553   6.390
 8269SOL     OW25705   6.135   2.251   0.878
 8269SOL    HW125706   6.118   2.331   0.936
 8269SOL    HW225707   6.228   2.256   0.841
 8270SOL     OW25708   2.968   6.583   4.269
 8270SOL    HW125709   2.946   6.589   4.172
 8270SOL    HW225710   3.033   6.655   4.293
 8271SOL     OW25711   6.319   2.417   2.787
 8271SOL    HW125712   6.330   2.443   2.883
 8271SOL    HW225713   6.297   2.498   2.733
 8272SOL     OW25714   3.989   1.181   4.221
 8272SOL    HW125715   3.944   1.169   4.132
 8272SOL    HW225716   3.931   1.142   4.292
 8273SOL     OW25717   2.069   6.494   1.812
 8273SOL    HW125718   2.002   6.461   1.878
 8273SOL    HW225719   2.147   6.432   1.810
 8274SOL     OW25720   5.277   4.119   3.404
 8274SOL    HW125721   5.233   4.173   3.475
 8274SOL    HW225722   5.252   4.155   3.314
 8275SOL     OW25723   5.325   2.265   6.995
 8275SOL    HW125724   5.356   2.307   6.910
 8275SOL    HW225725   5.268   2.186   6.973
 8276SOL     OW25726   0.396   2.033   2.905
 8276SOL    HW125727   0.480   1.996   2.866
 8276SOL    HW225728   0.394   2.016   3.003
 8277SOL     OW25729   0.133   0.991   6.855
 8277SOL    HW125730   0.090   1.054   6.919
 8277SOL    HW225731   0.064   0.950   6.795
 8278SOL     OW25732   1.560   2.382   0.236
 8278SOL    HW125733   1.472   2.427   0.222
 8278SOL    HW225734   1.627   2.450   0.266
 8279SOL     OW25735   0.060   5.974   3.774
 8279SOL    HW125736   0.070   5.879   3.744
 8279SOL    HW225737   0.146   6.023   3.758
 8280SOL     OW25738   3.208   2.160   5.732
 8280SOL    HW125739   3.264   2.105   5.793
 8280SOL    HW225740   3.156   2.227   5.785
 8281SOL     OW25741   4.762   5.603   2.644
 8281SOL    HW125742   4.784   5.699   2.659
 8281SOL    HW225743   4.676   5.580   2.690
 8282SOL     OW25744   5.704   2.585   6.250
 8282SOL    HW125745   5.654   2.594   6.164
 8282SOL    HW225746   5.777   2.653   6.254
 8283SOL     OW25747   2.028   2.209   5.641
 8283SOL    HW125748   1.959   2.249   5.701
 8283SOL    HW225749   2.001   2.115   5.618
 8284SOL     OW25750   6.641   4.097   1.571
 8284SOL    HW125751   6.681   4.180   1.610
 8284SOL    HW225752   6.690   4.017   1.605
 8285SOL     OW25753   4.108   3.385   4.008
 8285SOL    HW125754   4.099   3.337   3.921
 8285SOL    HW225755   4.084   3.482   3.995
 8286SOL     OW25756   0.519   1.910   6.045
 8286SOL    HW125757   0.466   1.964   5.979
 8286SOL    HW225758   0.612   1.947   6.051
 8287SOL     OW25759   1.726   6.547   4.228
 8287SOL    HW125760   1.813   6.513   4.264
 8287SOL    HW225761   1.708   6.505   4.139
 8288SOL     OW25762   3.387   1.608   3.333
 8288SOL    HW125763   3.299   1.561   3.332
 8288SOL    HW225764   3.397   1.661   3.249
 8289SOL     OW25765   6.998   5.706   6.706
 8289SOL    HW125766   7.003   5.693   6.607
 8289SOL    HW225767   6.903   5.695   6.736
 8290SOL     OW25768   6.576   2.193   0.614
 8290SOL    HW125769   6.519   2.127   0.663
 8290SOL    HW225770   6.658   2.147   0.580
 8291SOL     OW25771   4.140   0.490   0.766
 8291SOL    HW125772   4.171   0.396   0.753
 8291SOL    HW225773   4.060   0.491   0.826
 8292SOL     OW25774   2.913   0.524   6.327
 8292SOL    HW125775   2.915   0.624   6.315
 8292SOL    HW225776   2.996   0.485   6.288
 8293SOL     OW25777   5.757   5.462   4.786
 8293SOL    HW125778   5.694   5.385   4.789
 8293SOL    HW225779   5.777   5.485   4.690
 8294SOL     OW25780   5.999   3.096   0.118
 8294SOL    HW125781   6.088   3.125   0.154
 8294SOL    HW225782   5.968   3.015   0.168
 8295SOL     OW25783   4.479   3.652   6.938
 8295SOL    HW125784   4.396   3.669   6.885
 8295SOL    HW225785   4.558   3.684   6.886
 8296SOL     OW25786   1.097   4.907   6.300
 8296SOL    HW125787   1.062   4.992   6.340
 8296SOL    HW225788   1.022   4.855   6.259
 8297SOL     OW25789   1.146   2.738   3.964
 8297SOL    HW125790   1.213   2.770   4.030
 8297SOL    HW225791   1.168   2.644   3.937
 8298SOL     OW25792   5.229   1.557   2.269
 8298SOL    HW125793   5.244   1.623   2.196
 8298SOL    HW225794   5.191   1.473   2.231
 8299SOL     OW25795   6.393   2.280   1.448
 8299SOL    HW125796   6.419   2.244   1.538
 8299SOL    HW225797   6.334   2.359   1.461
 8300SOL     OW25798   0.723   5.149   3.088
 8300SOL    HW125799   0.701   5.238   3.048
 8300SOL    HW225800   0.641   5.092   3.089
 8301SOL     OW25801   2.769   2.523   6.717
 8301SOL    HW125802   2.864   2.492   6.710
 8301SOL    HW225803   2.734   2.545   6.626
 8302SOL     OW25804   6.147   5.793   5.455
 8302SOL    HW125805   6.153   5.853   5.376
 8302SOL    HW225806   6.067   5.734   5.446
 8303SOL     OW25807   0.197   0.295   6.057
 8303SOL    HW125808   0.177   0.214   6.113
 8303SOL    HW225809   0.114   0.324   6.010
 8304SOL     OW25810   0.097   3.196   0.695
 8304SOL    HW125811   0.142   3.163   0.612
 8304SOL    HW225812   0.070   3.291   0.683
 8305SOL     OW25813   3.604   5.146   3.260
 8305SOL    HW125814   3.542   5.165   3.336
 8305SOL    HW225815   3.584   5.056   3.222
 8306SOL     OW25816   1.123   2.896   4.280
 8306SOL    HW125817   1.036   2.861   4.313
 8306SOL    HW225818   1.134   2.991   4.311
 8307SOL     OW25819   3.692   5.450   0.753
 8307SOL    HW125820   3.631   5.403   0.817
 8307SOL    HW225821   3.665   5.546   0.746
 8308SOL     OW25822   3.363   0.543   3.050
 8308SOL    HW125823   3.363   0.612   2.978
 8308SOL    HW225824   3.269   0.517   3.072
 8309SOL     OW25825   5.900   6.825   2.380
 8309SOL    HW125826   5.803   6.826   2.402
 8309SOL    HW225827   5.912   6.848   2.283
 8310SOL     OW25828   6.318   4.095   6.657
 8310SOL    HW125829   6.413   4.068   6.639
 8310SOL    HW225830   6.261   4.069   6.580
 8311SOL     OW25831   6.736   0.829   6.577
 8311SOL    HW125832   6.669   0.863   6.642
 8311SOL    HW225833   6.697   0.829   6.485
 8312SOL     OW25834   5.345   6.593   1.156
 8312SOL    HW125835   5.372   6.497   1.161
 8312SOL    HW225836   5.254   6.600   1.114
 8313SOL     OW25837   3.924   1.060   2.289
 8313SOL    HW125838   3.908   1.080   2.193
 8313SOL    HW225839   3.896   1.138   2.345
 8314SOL     OW25840   0.243   6.072   3.329
 8314SOL    HW125841   0.155   6.030   3.305
 8314SOL    HW225842   0.234   6.172   3.325
 8315SOL     OW25843   4.879   4.783   6.577
 8315SOL    HW125844   4.951   4.740   6.522
 8315SOL    HW225845   4.829   4.848   6.520
 8316SOL     OW25846   3.076   5.940   6.439
 8316SOL    HW125847   3.003   5.910   6.377
 8316SOL    HW225848   3.053   6.030   6.476
 8317SOL     OW25849   2.295   4.248   2.186
 8317SOL    HW125850   2.309   4.154   2.216
 8317SOL    HW225851   2.197   4.266   2.178
 8318SOL     OW25852   3.531   1.107   5.956
 8318SOL    HW125853   3.623   1.127   5.990
 8318SOL    HW225854   3.465   1.168   6.000
 8319SOL     OW25855   3.591   0.660   4.946
 8319SOL    HW125856   3.671   0.654   4.887
 8319SOL    HW225857   3.619   0.688   5.038
 8320SOL     OW25858   4.272   4.881   1.259
 8320SOL    HW125859   4.280   4.853   1.355
 8320SOL    HW225860   4.202   4.825   1.214
 8321SOL     OW25861   0.047   1.022   1.409
 8321SOL    HW125862   7.006   0.951   1.445
 8321SOL    HW225863   0.013   1.053   1.320
 8322SOL     OW25864   5.634   6.608   6.933
 8322SOL    HW125865   5.691   6.687   6.907
 8322SOL    HW225866   5.603   6.562   6.850
 8323SOL     OW25867   1.787   1.031   1.786
 8323SOL    HW125868   1.751   1.115   1.745
 8323SOL    HW225869   1.880   1.048   1.819
 8324SOL     OW25870   6.726   1.450   2.344
 8324SOL    HW125871   6.640   1.408   2.371
 8324SOL    HW225872   6.729   1.544   2.377
 8325SOL     OW25873   3.524   4.127   4.481
 8325SOL    HW125874   3.448   4.142   4.545
 8325SOL    HW225875   3.493   4.145   4.388
 8326SOL     OW25876   3.979   2.835   6.465
 8326SOL    HW125877   3.968   2.743   6.428
 8326SOL    HW225878   3.945   2.902   6.399
 8327SOL     OW25879   5.087   2.139   6.303
 8327SOL    HW125880   5.122   2.121   6.211
 8327SOL    HW225881   4.990   2.164   6.297
 8328SOL     OW25882   2.467   2.625   4.283
 8328SOL    HW125883   2.509   2.540   4.252
 8328SOL    HW225884   2.476   2.695   4.212
 8329SOL     OW25885   0.392   2.390   4.489
 8329SOL    HW125886   0.302   2.348   4.481
 8329SOL    HW225887   0.385   2.474   4.543
 8330SOL     OW25888   2.515   6.699   0.971
 8330SOL    HW125889   2.529   6.793   0.939
 8330SOL    HW225890   2.538   6.693   1.068
 8331SOL     OW25891   3.328   0.023   1.008
 8331SOL    HW125892   3.229   0.011   0.997
 8331SOL    HW225893   3.373   6.953   1.003
 8332SOL     OW25894   4.924   5.976   3.375
 8332SOL    HW125895   4.877   6.063   3.372
 8332SOL    HW225896   4.876   5.909   3.319
 8333SOL     OW25897   1.343   5.131   5.853
 8333SOL    HW125898   1.264   5.150   5.795
 8333SOL    HW225899   1.313   5.081   5.935
 8334SOL     OW25900   6.376   0.280   3.816
 8334SOL    HW125901   6.336   0.214   3.880
 8334SOL    HW225902   6.387   0.368   3.861
 8335SOL     OW25903   6.128   6.621   5.392
 8335SOL    HW125904   6.148   6.716   5.419
 8335SOL    HW225905   6.166   6.559   5.460
 8336SOL     OW25906   0.634   2.199   2.325
 8336SOL    HW125907   0.572   2.122   2.335
 8336SOL    HW225908   0.711   2.174   2.266
 8337SOL     OW25909   0.147   6.085   1.741
 8337SOL    HW125910   0.056   6.044   1.733
 8337SOL    HW225911   0.140   6.173   1.787
 8338SOL     OW25912   2.106   4.704   0.941
 8338SOL    HW125913   2.018   4.729   0.981
 8338SOL    HW225914   2.101   4.611   0.904
 8339SOL     OW25915   6.004   0.650   3.217
 8339SOL    HW125916   5.996   0.749   3.225
 8339SOL    HW225917   6.020   0.610   3.307
 8340SOL     OW25918   4.675   3.391   1.321
 8340SOL    HW125919   4.597   3.328   1.315
 8340SOL    HW225920   4.651   3.467   1.381
 8341SOL     OW25921   2.594   6.987   0.931
 8341SOL    HW125922   2.540   6.989   0.847
 8341SOL    HW225923   2.547   0.020   1.002
 8342SOL     OW25924   4.837   0.112   0.985
 8342SOL    HW125925   4.932   0.115   1.014
 8342SOL    HW225926   4.795   0.202   0.999
 8343SOL     OW25927   1.503   5.265   5.659
 8343SOL    HW125928   1.487   5.279   5.757
 8343SOL    HW225929   1.446   5.189   5.627
 8344SOL     OW25930   3.808   0.092   5.392
 8344SOL    HW125931   3.745   0.025   5.432
 8344SOL    HW225932   3.875   0.045   5.335
 8345SOL     OW25933   5.938   1.561   2.951
 8345SOL    HW125934   5.955   1.465   2.932
 8345SOL    HW225935   6.023   1.606   2.976
 8346SOL     OW25936   3.684   5.333   1.579
 8346SOL    HW125937   3.590   5.329   1.614
 8346SOL    HW225938   3.682   5.330   1.479
 8347SOL     OW25939   3.754   5.316   3.871
 8347SOL    HW125940   3.845   5.310   3.830
 8347SOL    HW225941   3.693   5.251   3.826
 8348SOL     OW25942   1.571   0.628   0.701
 8348SOL    HW125943   1.603   0.621   0.796
 8348SOL    HW225944   1.471   0.631   0.700
 8349SOL     OW25945   6.134   5.324   1.596
 8349SOL    HW125946   6.141   5.420   1.624
 8349SOL    HW225947   6.078   5.273   1.662
 8350SOL     OW25948   6.458   0.351   4.754
 8350SOL    HW125949   6.401   0.301   4.689
 8350SOL    HW225950   6.554   0.326   4.741
 8351SOL     OW25951   2.741   6.578   2.382
 8351SOL    HW125952   2.707   6.611   2.294
 8351SOL    HW225953   2.820   6.519   2.366
 8352SOL     OW25954   6.362   5.762   1.642
 8352SOL    HW125955   6.451   5.789   1.678
 8352SOL    HW225956   6.357   5.785   1.544
 8353SOL     OW25957   0.826   3.906   2.157
 8353SOL    HW125958   0.900   3.905   2.090
 8353SOL    HW225959   0.755   3.841   2.130
 8354SOL     OW25960   2.558   0.509   0.686
 8354SOL    HW125961   2.620   0.574   0.729
 8354SOL    HW225962   2.559   0.522   0.587
 8355SOL     OW25963   3.210   1.441   0.654
 8355SOL    HW125964   3.229   1.527   0.702
 8355SOL    HW225965   3.126   1.450   0.602
 8356SOL     OW25966   2.579   5.536   0.521
 8356SOL    HW125967   2.658   5.560   0.578
 8356SOL    HW225968   2.525   5.465   0.567
 8357SOL     OW25969   4.771   6.233   3.390
 8357SOL    HW125970   4.843   6.300   3.408
 8357SOL    HW225971   4.749   6.185   3.474
 8358SOL     OW25972   3.004   2.213   4.828
 8358SOL    HW125973   2.912   2.248   4.847
 8358SOL    HW225974   3.064   2.232   4.906
 8359SOL     OW25975   4.085   4.867   3.945
 8359SOL    HW125976   4.172   4.821   3.959
 8359SOL    HW225977   4.034   4.821   3.872
 8360SOL     OW25978   4.538   0.550   2.967
 8360SOL    HW125979   4.469   0.619   2.987
 8360SOL    HW225980   4.628   0.593   2.963
 8361SOL     OW25981   1.577   0.478   2.811
 8361SOL    HW125982   1.481   0.452   2.814
 8361SOL    HW225983   1.630   0.422   2.874
 8362SOL     OW25984   2.344   3.164   0.490
 8362SOL    HW125985   2.411   3.095   0.462
 8362SOL    HW225986   2.348   3.177   0.589
 8363SOL     OW25987   0.022   3.643   1.133
 8363SOL    HW125988   0.024   3.721   1.195
 8363SOL    HW225989   6.982   3.572   1.171
 8364SOL     OW25990   6.896   4.736   4.669
 8364SOL    HW125991   6.993   4.762   4.672
 8364SOL    HW225992   6.854   4.752   4.758
 8365SOL     OW25993   1.032   3.698   6.020
 8365SOL    HW125994   1.041   3.790   6.058
 8365SOL    HW225995   1.123   3.663   5.997
 8366SOL     OW25996   2.569   6.756   2.962
 8366SOL    HW125997   2.645   6.692   2.973
 8366SOL    HW225998   2.528   6.775   3.051
 8367SOL     OW25999   5.037   5.767   3.838
 8367SOL    HW126000   5.091   5.742   3.918
 8367SOL    HW226001   4.997   5.685   3.798
 8368SOL     OW26002   3.240   5.554   6.169
 8368SOL    HW126003   3.205   5.648   6.167
 8368SOL    HW226004   3.195   5.501   6.097
 8369SOL     OW26005   2.833   1.361   1.335
 8369SOL    HW126006   2.877   1.441   1.295
 8369SOL    HW226007   2.746   1.388   1.376
 8370SOL     OW26008   1.624   1.716   0.173
 8370SOL    HW126009   1.636   1.741   0.269
 8370SOL    HW226010   1.588   1.623   0.167
 8371SOL     OW26011   2.261   2.793   0.039
 8371SOL    HW126012   2.266   2.720   0.106
 8371SOL    HW226013   2.310   2.873   0.074
 8372SOL     OW26014   6.601   0.646   0.884
 8372SOL    HW126015   6.608   0.561   0.832
 8372SOL    HW226016   6.545   0.630   0.966
 8373SOL     OW26017   1.546   6.446   4.530
 8373SOL    HW126018   1.483   6.467   4.606
 8373SOL    HW226019   1.515   6.362   4.484
 8374SOL     OW26020   6.648   0.718   6.241
 8374SOL    HW126021   6.721   0.766   6.193
 8374SOL    HW226022   6.576   0.782   6.266
 8375SOL     OW26023   4.179   0.766   6.017
 8375SOL    HW126024   4.279   0.762   6.022
 8375SOL    HW226025   4.151   0.846   5.964
 8376SOL     OW26026   4.637   0.451   4.485
 8376SOL    HW126027   4.618   0.388   4.560
 8376SOL    HW226028   4.729   0.435   4.450
 8377SOL     OW26029   5.836   4.975   1.259
 8377SOL    HW126030   5.878   4.887   1.284
 8377SOL    HW226031   5.838   4.985   1.160
 8378SOL     OW26032   5.172   3.489   3.722
 8378SOL    HW126033   5.262   3.499   3.680
 8378SOL    HW226034   5.183   3.459   3.817
 8379SOL     OW26035   4.941   2.639   2.209
 8379SOL    HW126036   4.924   2.608   2.115
 8379SOL    HW226037   4.875   2.711   2.231
 8380SOL     OW26038   5.942   1.997   3.862
 8380SOL    HW126039   5.891   1.913   3.882
 8380SOL    HW226040   6.038   1.974   3.845
 8381SOL     OW26041   2.157   5.440   4.310
 8381SOL    HW126042   2.142   5.343   4.288
 8381SOL    HW226043   2.198   5.486   4.231
 8382SOL     OW26044   1.024   4.086   2.733
 8382SOL    HW126045   0.978   4.009   2.777
 8382SOL    HW226046   1.099   4.051   2.676
 8383SOL     OW26047   3.236   1.165   5.618
 8383SOL    HW126048   3.141   1.139   5.601
 8383SOL    HW226049   3.275   1.204   5.535
 8384SOL     OW26050   0.966   6.803   2.118
 8384SOL    HW126051   0.987   6.884   2.172
 8384SOL    HW226052   1.016   6.806   2.032
 8385SOL     OW26053   4.671   2.546   0.953
 8385SOL    HW126054   4.747   2.600   0.916
 8385SOL    HW226055   4.706   2.471   1.009
 8386SOL     OW26056   0.678   4.089   2.858
 8386SOL    HW126057   0.711   4.009   2.808
 8386SOL    HW226058   0.745   4.162   2.851
 8387SOL     OW26059   0.990   2.028   1.001
 8387SOL    HW126060   1.081   2.023   0.961
 8387SOL    HW226061   0.933   2.091   0.947
 8388SOL     OW26062   1.004   6.631   3.076
 8388SOL    HW126063   1.044   6.542   3.053
 8388SOL    HW226064   0.909   6.619   3.103
 8389SOL     OW26065   5.758   2.793   3.450
 8389SOL    HW126066   5.730   2.724   3.382
 8389SOL    HW226067   5.716   2.881   3.427
 8390SOL     OW26068   5.940   1.519   6.240
 8390SOL    HW126069   5.927   1.488   6.146
 8390SOL    HW226070   5.942   1.619   6.242
 8391SOL     OW26071   6.429   6.917   1.107
 8391SOL    HW126072   6.387   6.971   1.180
 8391SOL    HW226073   6.497   6.855   1.147
 8392SOL     OW26074   3.676   3.116   5.594
 8392SOL    HW126075   3.709   3.090   5.685
 8392SOL    HW226076   3.624   3.040   5.555
 8393SOL     OW26077   5.549   0.087   1.320
 8393SOL    HW126078   5.546   0.056   1.225
 8393SOL    HW226079   5.458   0.114   1.350
 8394SOL     OW26080   5.779   2.703   2.192
 8394SOL    HW126081   5.708   2.636   2.213
 8394SOL    HW226082   5.807   2.750   2.275
 8395SOL     OW26083   2.382   1.491   5.342
 8395SOL    HW126084   2.294   1.464   5.382
 8395SOL    HW226085   2.388   1.455   5.249
 8396SOL     OW26086   5.127   5.492   4.453
 8396SOL    HW126087   5.206   5.433   4.464
 8396SOL    HW226088   5.044   5.441   4.475
 8397SOL     OW26089   6.697   0.133   2.873
 8397SOL    HW126090   6.684   0.063   2.803
 8397SOL    HW226091   6.663   0.097   2.961
 8398SOL     OW26092   5.872   1.993   6.086
 8398SOL    HW126093   5.908   2.086   6.080
 8398SOL    HW226094   5.900   1.942   6.004
 8399SOL     OW26095   0.154   4.592   1.531
 8399SOL    HW126096   0.155   4.498   1.565
 8399SOL    HW226097   0.066   4.610   1.487
 8400SOL     OW26098   1.342   1.338   4.590
 8400SOL    HW126099   1.324   1.267   4.658
 8400SOL    HW226100   1.331   1.299   4.498
 8401SOL     OW26101   2.187   0.591   5.298
 8401SOL    HW126102   2.151   0.662   5.358
 8401SOL    HW226103   2.129   0.582   5.218
 8402SOL     OW26104   3.495   0.655   6.692
 8402SOL    HW126105   3.567   0.677   6.627
 8402SOL    HW226106   3.450   0.739   6.722
 8403SOL     OW26107   5.404   4.885   5.144
 8403SOL    HW126108   5.439   4.823   5.074
 8403SOL    HW226109   5.422   4.980   5.117
 8404SOL     OW26110   1.096   1.333   6.580
 8404SOL    HW126111   1.085   1.353   6.483
 8404SOL    HW226112   1.134   1.413   6.627
 8405SOL     OW26113   4.121   0.045   5.661
 8405SOL    HW126114   4.099   0.046   5.758
 8405SOL    HW226115   4.074   6.988   5.617
 8406SOL     OW26116   5.650   0.421   6.152
 8406SOL    HW126117   5.702   0.361   6.213
 8406SOL    HW226118   5.635   0.374   6.065
 8407SOL     OW26119   4.117   0.227   4.409
 8407SOL    HW126120   4.033   0.256   4.365
 8407SOL    HW226121   4.157   0.303   4.460
 8408SOL     OW26122   4.007   1.578   1.268
 8408SOL    HW126123   4.035   1.509   1.335
 8408SOL    HW226124   4.086   1.608   1.215
 8409SOL     OW26125   4.193   2.202   2.216
 8409SOL    HW126126   4.168   2.208   2.312
 8409SOL    HW226127   4.110   2.208   2.160
 8410SOL     OW26128   0.303   1.898   1.710
 8410SOL    HW126129   0.254   1.848   1.781
 8410SOL    HW226130   0.306   1.843   1.627
 8411SOL     OW26131   0.864   6.570   1.285
 8411SOL    HW126132   0.895   6.545   1.377
 8411SOL    HW226133   0.778   6.621   1.292
 8412SOL     OW26134   2.683   2.425   0.042
 8412SOL    HW126135   2.741   2.344   0.038
 8412SOL    HW226136   2.624   2.428   6.980
 8413SOL     OW26137   3.840   5.246   4.669
 8413SOL    HW126138   3.843   5.260   4.768
 8413SOL    HW226139   3.761   5.294   4.630
 8414SOL     OW26140   1.546   6.995   1.103
 8414SOL    HW126141   1.593   0.049   1.054
 8414SOL    HW226142   1.546   7.016   1.201
 8415SOL     OW26143   3.169   1.672   6.007
 8415SOL    HW126144   3.107   1.711   6.076
 8415SOL    HW226145   3.123   1.597   5.961
 8416SOL     OW26146   0.270   2.307   5.213
 8416SOL    HW126147   0.337   2.307   5.286
 8416SOL    HW226148   0.203   2.234   5.229
 8417SOL     OW26149   1.979   3.556   6.109
 8417SOL    HW126150   1.990   3.504   6.024
 8417SOL    HW226151   1.977   3.654   6.087
 8418SOL     OW26152   0.488   5.919   2.074
 8418SOL    HW126153   0.560   5.976   2.114
 8418SOL    HW226154   0.465   5.954   1.983
 8419SOL     OW26155   3.822   1.794   4.525
 8419SOL    HW126156   3.756   1.790   4.450
 8419SOL    HW226157   3.900   1.851   4.499
 8420SOL     OW26158   3.938   0.826   2.030
 8420SOL    HW126159   3.979   0.754   1.974
 8420SOL    HW226160   3.869   0.875   1.978
 8421SOL     OW26161   4.764   6.941   6.675
 8421SOL    HW126162   4.720   6.999   6.607
 8421SOL    HW226163   4.714   6.946   6.761
 8422SOL     OW26164   5.431   2.723   3.977
 8422SOL    HW126165   5.363   2.669   4.026
 8422SOL    HW226166   5.386   2.774   3.904
 8423SOL     OW26167   6.447   5.534   0.226
 8423SOL    HW126168   6.433   5.556   0.130
 8423SOL    HW226169   6.379   5.582   0.281
 8424SOL     OW26170   3.376   0.500   4.928
 8424SOL    HW126171   3.458   0.558   4.928
 8424SOL    HW226172   3.337   0.497   4.836
 8425SOL     OW26173   3.445   4.142   2.531
 8425SOL    HW126174   3.538   4.104   2.528
 8425SOL    HW226175   3.408   4.130   2.623
 8426SOL     OW26176   4.014   3.037   1.961
 8426SOL    HW126177   4.032   2.978   1.882
 8426SOL    HW226178   4.063   3.124   1.949
 8427SOL     OW26179   4.089   3.671   3.129
 8427SOL    HW126180   4.098   3.574   3.152
 8427SOL    HW226181   4.053   3.680   3.036
 8428SOL     OW26182   6.013   0.218   2.265
 8428SOL    HW126183   6.047   0.125   2.278
 8428SOL    HW226184   6.024   0.245   2.169
 8429SOL     OW26185   2.788   5.755   5.525
 8429SOL    HW126186   2.790   5.656   5.513
 8429SOL    HW226187   2.795   5.799   5.435
 8430SOL     OW26188   5.092   6.841   5.114
 8430SOL    HW126189   5.184   6.807   5.092
 8430SOL    HW226190   5.100   6.915   5.181
 8431SOL     OW26191   1.918   3.307   5.627
 8431SOL    HW126192   2.005   3.344   5.594
 8431SOL    HW226193   1.844   3.371   5.604
 8432SOL     OW26194   6.297   5.135   5.816
 8432SOL    HW126195   6.367   5.169   5.879
 8432SOL    HW226196   6.268   5.044   5.844
 8433SOL     OW26197   5.618   1.982   1.268
 8433SOL    HW126198   5.616   1.898   1.214
 8433SOL    HW226199   5.712   2.005   1.291
 8434SOL     OW26200   2.351   6.009   4.757
 8434SOL    HW126201   2.436   5.991   4.807
 8434SOL    HW226202   2.364   5.986   4.661
 8435SOL     OW26203   5.695   1.840   3.508
 8435SOL    HW126204   5.723   1.857   3.603
 8435SOL    HW226205   5.596   1.844   3.501
 8436SOL     OW26206   2.393   5.898   2.273
 8436SOL    HW126207   2.429   5.807   2.252
 8436SOL    HW226208   2.294   5.896   2.270
 8437SOL     OW26209   0.833   5.668   1.069
 8437SOL    HW126210   0.816   5.659   0.971
 8437SOL    HW226211   0.927   5.640   1.088
 8438SOL     OW26212   0.710   3.977   1.862
 8438SOL    HW126213   0.709   3.897   1.803
 8438SOL    HW226214   0.790   3.973   1.922
 8439SOL     OW26215   6.261   4.557   2.905
 8439SOL    HW126216   6.215   4.537   2.992
 8439SOL    HW226217   6.248   4.480   2.842
 8440SOL     OW26218   1.706   1.938   2.593
 8440SOL    HW126219   1.799   1.968   2.572
 8440SOL    HW226220   1.678   1.868   2.528
 8441SOL     OW26221   0.281   2.356   5.612
 8441SOL    HW126222   0.190   2.317   5.599
 8441SOL    HW226223   0.311   2.339   5.706
 8442SOL     OW26224   3.798   2.201   6.897
 8442SOL    HW126225   3.778   2.297   6.878
 8442SOL    HW226226   3.800   2.186   6.996
 8443SOL     OW26227   1.703   4.413   2.848
 8443SOL    HW126228   1.759   4.331   2.834
 8443SOL    HW226229   1.662   4.410   2.939
 8444SOL     OW26230   5.535   5.255   4.777
 8444SOL    HW126231   5.556   5.160   4.758
 8444SOL    HW226232   5.437   5.265   4.794
 8445SOL     OW26233   4.697   6.482   6.741
 8445SOL    HW126234   4.609   6.497   6.696
 8445SOL    HW226235   4.771   6.507   6.679
 8446SOL     OW26236   0.058   5.572   5.094
 8446SOL    HW126237   0.116   5.612   5.023
 8446SOL    HW226238   6.998   5.529   5.051
 8447SOL     OW26239   3.804   1.156   4.012
 8447SOL    HW126240   3.725   1.179   4.070
 8447SOL    HW226241   3.777   1.087   3.945
 8448SOL     OW26242   3.374   5.949   3.185
 8448SOL    HW126243   3.328   5.882   3.244
 8448SOL    HW226244   3.308   6.019   3.157
 8449SOL     OW26245   1.682   1.725   3.845
 8449SOL    HW126246   1.612   1.796   3.855
 8449SOL    HW226247   1.684   1.669   3.928
 8450SOL     OW26248   6.657   0.463   0.179
 8450SOL    HW126249   6.683   0.543   0.126
 8450SOL    HW226250   6.572   0.424   0.143
 8451SOL     OW26251   4.051   2.625   1.337
 8451SOL    HW126252   3.956   2.597   1.353
 8451SOL    HW226253   4.082   2.589   1.249
 8452SOL     OW26254   4.860   1.390   6.283
 8452SOL    HW126255   4.936   1.337   6.322
 8452SOL    HW226256   4.792   1.407   6.354
 8453SOL     OW26257   6.627   0.365   6.691
 8453SOL    HW126258   6.705   0.314   6.654
 8453SOL    HW226259   6.573   0.305   6.750
 8454SOL     OW26260   6.188   4.641   6.331
 8454SOL    HW126261   6.185   4.646   6.231
 8454SOL    HW226262   6.168   4.548   6.361
 8455SOL     OW26263   6.525   1.172   2.612
 8455SOL    HW126264   6.441   1.224   2.620
 8455SOL    HW226265   6.533   1.109   2.689
 8456SOL     OW26266   0.120   0.319   2.571
 8456SOL    HW126267   0.115   0.224   2.599
 8456SOL    HW226268   0.164   0.326   2.482
 8457SOL     OW26269   6.817   6.731   5.236
 8457SOL    HW126270   6.846   6.823   5.263
 8457SOL    HW226271   6.895   6.679   5.201
 8458SOL     OW26272   1.308   6.509   6.767
 8458SOL    HW126273   1.230   6.564   6.795
 8458SOL    HW226274   1.277   6.417   6.743
 8459SOL     OW26275   1.135   5.999   3.440
 8459SOL    HW126276   1.083   5.938   3.380
 8459SOL    HW226277   1.087   6.086   3.450
 8460SOL     OW26278   4.071   3.786   2.824
 8460SOL    HW126279   4.084   3.700   2.774
 8460SOL    HW226280   4.154   3.841   2.816
 8461SOL     OW26281   6.054   3.566   3.594
 8461SOL    HW126282   5.969   3.600   3.552
 8461SOL    HW226283   6.069   3.471   3.565
 8462SOL     OW26284   2.533   2.683   1.600
 8462SOL    HW126285   2.556   2.587   1.590
 8462SOL    HW226286   2.480   2.713   1.521
 8463SOL     OW26287   6.014   0.574   2.048
 8463SOL    HW126288   5.976   0.639   1.982
 8463SOL    HW226289   6.021   0.484   2.006
 8464SOL     OW26290   6.676   1.430   4.774
 8464SOL    HW126291   6.654   1.464   4.682
 8464SOL    HW226292   6.710   1.506   4.830
 8465SOL     OW26293   1.503   1.929   0.065
 8465SOL    HW126294   1.480   1.942   6.988
 8465SOL    HW226295   1.562   1.848   0.075
 8466SOL     OW26296   0.600   7.011   4.381
 8466SOL    HW126297   0.664   6.935   4.393
 8466SOL    HW226298   0.534   6.988   4.310
 8467SOL     OW26299   4.045   5.094   1.024
 8467SOL    HW126300   4.078   5.040   0.946
 8467SOL    HW226301   3.945   5.096   1.023
 8468SOL     OW26302   3.693   2.100   0.131
 8468SOL    HW126303   3.734   2.148   0.209
 8468SOL    HW226304   3.650   2.016   0.163
 8469SOL     OW26305   3.924   2.093   6.079
 8469SOL    HW126306   3.965   2.107   5.989
 8469SOL    HW226307   3.990   2.118   6.150
 8470SOL     OW26308   1.471   3.028   6.607
 8470SOL    HW126309   1.555   3.003   6.558
 8470SOL    HW226310   1.479   3.002   6.703
 8471SOL     OW26311   3.977   1.884   4.210
 8471SOL    HW126312   3.995   1.937   4.293
 8471SOL    HW226313   4.062   1.839   4.180
 8472SOL     OW26314   1.396   6.517   3.162
 8472SOL    HW126315   1.313   6.501   3.216
 8472SOL    HW226316   1.378   6.495   3.066
 8473SOL     OW26317   6.346   5.657   6.447
 8473SOL    HW126318   6.248   5.679   6.451
 8473SOL    HW226319   6.362   5.590   6.375
 8474SOL     OW26320   3.878   5.273   0.636
 8474SOL    HW126321   3.816   5.348   0.655
 8474SOL    HW226322   3.866   5.201   0.704
 8475SOL     OW26323   4.573   2.262   3.249
 8475SOL    HW126324   4.527   2.350   3.256
 8475SOL    HW226325   4.584   2.237   3.153
 8476SOL     OW26326   4.550   0.417   2.145
 8476SOL    HW126327   4.532   0.350   2.217
 8476SOL    HW226328   4.465   0.437   2.097
 8477SOL     OW26329   2.337   0.039   2.522
 8477SOL    HW126330   2.315   0.135   2.539
 8477SOL    HW226331   2.253   7.007   2.503
 8478SOL     OW26332   1.597   0.674   5.901
 8478SOL    HW126333   1.662   0.703   5.831
 8478SOL    HW226334   1.647   0.653   5.985
 8479SOL     OW26335   5.309   0.868   2.695
 8479SOL    HW126336   5.214   0.857   2.724
 8479SOL    HW226337   5.312   0.889   2.598
 8480SOL     OW26338   1.960   1.532   1.424
 8480SOL    HW126339   1.875   1.571   1.390
 8480SOL    HW226340   2.035   1.597   1.411
 8481SOL     OW26341   4.482   0.069   6.057
 8481SOL    HW126342   4.555   0.052   5.990
 8481SOL    HW226343   4.459   0.166   6.057
 8482SOL     OW26344   0.596   0.670   1.801
 8482SOL    HW126345   0.581   0.768   1.784
 8482SOL    HW226346   0.608   0.655   1.899
 8483SOL     OW26347   5.567   6.561   1.661
 8483SOL    HW126348   5.632   6.516   1.722
 8483SOL    HW226349   5.474   6.543   1.693
 8484SOL     OW26350   6.851   4.195   5.024
 8484SOL    HW126351   6.766   4.153   5.054
 8484SOL    HW226352   6.832   4.279   4.974
 8485SOL     OW26353   2.152   3.308   5.831
 8485SOL    HW126354   2.246   3.305   5.868
 8485SOL    HW226355   2.139   3.232   5.768
 8486SOL     OW26356   4.446   0.878   2.857
 8486SOL    HW126357   4.477   0.951   2.796
 8486SOL    HW226358   4.487   0.791   2.829
 8487SOL     OW26359   4.354   1.356   0.807
 8487SOL    HW126360   4.361   1.319   0.899
 8487SOL    HW226361   4.298   1.295   0.750
 8488SOL     OW26362   5.550   3.861   4.681
 8488SOL    HW126363   5.645   3.888   4.668
 8488SOL    HW226364   5.547   3.772   4.727
 8489SOL     OW26365   3.450   6.481   2.746
 8489SOL    HW126366   3.412   6.454   2.657
 8489SOL    HW226367   3.403   6.562   2.779
 8490SOL     OW26368   3.612   5.473   2.551
 8490SOL    HW126369   3.629   5.386   2.597
 8490SOL    HW226370   3.558   5.457   2.469
 8491SOL     OW26371   0.969   1.225   1.784
 8491SOL    HW126372   1.022   1.279   1.719
 8491SOL    HW226373   1.029   1.193   1.857
 8492SOL     OW26374   5.743   4.380   4.499
 8492SOL    HW126375   5.813   4.374   4.428
 8492SOL    HW226376   5.727   4.476   4.522
 8493SOL     OW26377   3.489   2.661   1.301
 8493SOL    HW126378   3.550   2.660   1.222
 8493SOL    HW226379   3.411   2.601   1.284
 8494SOL     OW26380   3.680   5.829   6.630
 8494SOL    HW126381   3.773   5.835   6.666
 8494SOL    HW226382   3.617   5.806   6.704
 8495SOL     OW26383   0.732   2.457   0.378
 8495SOL    HW126384   0.656   2.510   0.342
 8495SOL    HW226385   0.714   2.435   0.474
 8496SOL     OW26386   0.322   2.019   3.155
 8496SOL    HW126387   0.384   1.995   3.230
 8496SOL    HW226388   0.266   2.097   3.181
 8497SOL     OW26389   5.854   4.569   3.444
 8497SOL    HW126390   5.913   4.496   3.479
 8497SOL    HW226391   5.811   4.539   3.359
 8498SOL     OW26392   6.270   0.812   1.350
 8498SOL    HW126393   6.265   0.717   1.383
 8498SOL    HW226394   6.275   0.874   1.429
 8499SOL     OW26395   0.974   3.830   6.547
 8499SOL    HW126396   0.997   3.732   6.549
 8499SOL    HW226397   1.047   3.882   6.593
 8500SOL     OW26398   3.070   0.521   5.902
 8500SOL    HW126399   3.125   0.466   5.839
 8500SOL    HW226400   2.973   0.507   5.882
 8501SOL     OW26401   3.105   4.288   5.821
 8501SOL    HW126402   3.061   4.340   5.747
 8501SOL    HW226403   3.050   4.207   5.841
 8502SOL     OW26404   1.142   6.818   1.923
 8502SOL    HW126405   1.233   6.777   1.920
 8502SOL    HW226406   1.110   6.833   1.829
 8503SOL     OW26407   3.362   5.803   3.486
 8503SOL    HW126408   3.329   5.722   3.534
 8503SOL    HW226409   3.409   5.863   3.550
 8504SOL     OW26410   1.307   5.580   3.054
 8504SOL    HW126411   1.380   5.645   3.073
 8504SOL    HW226412   1.241   5.580   3.130
 8505SOL     OW26413   4.565   2.585   4.134
 8505SOL    HW126414   4.623   2.654   4.092
 8505SOL    HW226415   4.537   2.616   4.225
 8506SOL     OW26416   1.172   6.289   6.843
 8506SOL    HW126417   1.157   6.228   6.766
 8506SOL    HW226418   1.110   6.265   6.918
 8507SOL     OW26419   1.813   6.968   5.168
 8507SOL    HW126420   1.793   6.931   5.259
 8507SOL    HW226421   1.754   0.029   5.151
 8508SOL     OW26422   0.594   2.928   5.375
 8508SOL    HW126423   0.525   2.995   5.405
 8508SOL    HW226424   0.645   2.966   5.298
 8509SOL     OW26425   6.074   1.552   4.712
 8509SOL    HW126426   6.101   1.582   4.621
 8509SOL    HW226427   6.093   1.454   4.722
 8510SOL     OW26428   5.290   0.169   2.372
 8510SOL    HW126429   5.200   0.164   2.330
 8510SOL    HW226430   5.295   0.250   2.430
 8511SOL     OW26431   6.755   5.540   1.645
 8511SOL    HW126432   6.829   5.607   1.639
 8511SOL    HW226433   6.720   5.536   1.738
 8512SOL     OW26434   3.594   2.898   0.577
 8512SOL    HW126435   3.516   2.930   0.524
 8512SOL    HW226436   3.676   2.948   0.549
 8513SOL     OW26437   1.176   3.265   0.799
 8513SOL    HW126438   1.090   3.302   0.764
 8513SOL    HW226439   1.246   3.337   0.795
 8514SOL     OW26440   2.361   2.686   5.136
 8514SOL    HW126441   2.335   2.783   5.126
 8514SOL    HW226442   2.415   2.674   5.219
 8515SOL     OW26443   3.024   0.236   0.879
 8515SOL    HW126444   2.930   0.220   0.848
 8515SOL    HW226445   3.066   0.307   0.823
 8516SOL     OW26446   5.733   3.127   4.153
 8516SOL    HW126447   5.648   3.096   4.110
 8516SOL    HW226448   5.765   3.057   4.216
 8517SOL     OW26449   1.815   1.842   6.311
 8517SOL    HW126450   1.809   1.940   6.290
 8517SOL    HW226451   1.889   1.827   6.376
 8518SOL     OW26452   4.998   5.201   6.576
 8518SOL    HW126453   4.980   5.294   6.608
 8518SOL    HW226454   5.093   5.177   6.593
 8519SOL     OW26455   0.662   3.328   0.470
 8519SOL    HW126456   0.740   3.389   0.452
 8519SOL    HW226457   0.636   3.334   0.566
 8520SOL     OW26458   3.344   4.016   5.692
 8520SOL    HW126459   3.245   3.999   5.696
 8520SOL    HW226460   3.387   3.981   5.775
 8521SOL     OW26461   1.573   6.760   5.203
 8521SOL    HW126462   1.600   6.706   5.283
 8521SOL    HW226463   1.642   6.750   5.131
 8522SOL     OW26464   1.377   6.553   0.237
 8522SOL    HW126465   1.287   6.546   0.281
 8522SOL    HW226466   1.376   6.501   0.152
 8523SOL     OW26467   3.637   1.836   0.905
 8523SOL    HW126468   3.608   1.930   0.923
 8523SOL    HW226469   3.559   1.774   0.917
 8524SOL     OW26470   2.534   5.881   5.329
 8524SOL    HW126471   2.592   5.963   5.330
 8524SOL    HW226472   2.591   5.799   5.323
 8525SOL     OW26473   6.319   3.318   2.190
 8525SOL    HW126474   6.294   3.356   2.101
 8525SOL    HW226475   6.390   3.249   2.177
 8526SOL     OW26476   0.165   4.412   6.832
 8526SOL    HW126477   0.214   4.491   6.798
 8526SOL    HW226478   0.080   4.441   6.875
 8527SOL     OW26479   2.600   1.233   6.053
 8527SOL    HW126480   2.504   1.247   6.027
 8527SOL    HW226481   2.609   1.238   6.152
 8528SOL     OW26482   5.699   0.868   0.789
 8528SOL    HW126483   5.794   0.844   0.772
 8528SOL    HW226484   5.672   0.835   0.879
 8529SOL     OW26485   0.693   6.224   6.806
 8529SOL    HW126486   0.623   6.188   6.867
 8529SOL    HW226487   0.778   6.237   6.856
 8530SOL     OW26488   3.843   4.026   2.764
 8530SOL    HW126489   3.863   3.943   2.712
 8530SOL    HW226490   3.871   4.106   2.712
 8531SOL     OW26491   6.269   5.440   3.482
 8531SOL    HW126492   6.364   5.427   3.508
 8531SOL    HW226493   6.212   5.373   3.529
 8532SOL     OW26494   3.280   5.636   6.722
 8532SOL    HW126495   3.320   5.651   6.632
 8532SOL    HW226496   3.181   5.652   6.718
 8533SOL     OW26497   2.073   6.637   4.785
 8533SOL    HW126498   2.109   6.654   4.876
 8533SOL    HW226499   2.057   6.540   4.772
 8534SOL     OW26500   1.806   2.173   2.796
 8534SOL    HW126501   1.803   2.200   2.892
 8534SOL    HW226502   1.773   2.079   2.787
 8535SOL     OW26503   5.638   0.470   2.356
 8535SOL    HW126504   5.561   0.474   2.420
 8535SOL    HW226505   5.706   0.539   2.381
 8536SOL     OW26506   1.478   0.912   3.788
 8536SOL    HW126507   1.402   0.932   3.849
 8536SOL    HW226508   1.564   0.936   3.832
 8537SOL     OW26509   6.174   1.521   3.466
 8537SOL    HW126510   6.195   1.510   3.369
 8537SOL    HW226511   6.081   1.556   3.476
 8538SOL     OW26512   0.979   2.380   0.468
 8538SOL    HW126513   0.910   2.387   0.395
 8538SOL    HW226514   1.013   2.470   0.491
 8539SOL     OW26515   5.304   3.128   1.820
 8539SOL    HW126516   5.288   3.202   1.885
 8539SOL    HW226517   5.288   3.040   1.864
 8540SOL     OW26518   4.231   0.654   1.431
 8540SOL    HW126519   4.225   0.590   1.355
 8540SOL    HW226520   4.163   0.629   1.501
 8541SOL     OW26521   1.875   2.753   3.843
 8541SOL    HW126522   1.937   2.792   3.910
 8541SOL    HW226523   1.870   2.654   3.856
 8542SOL     OW26524   3.311   4.700   0.640
 8542SOL    HW126525   3.312   4.797   0.615
 8542SOL    HW226526   3.225   4.659   0.612
 8543SOL     OW26527   3.193   1.703   6.522
 8543SOL    HW126528   3.208   1.788   6.471
 8543SOL    HW226529   3.118   1.718   6.587
 8544SOL     OW26530   6.206   1.795   4.801
 8544SOL    HW126531   6.256   1.857   4.740
 8544SOL    HW226532   6.139   1.743   4.749
 8545SOL     OW26533   4.417   6.434   5.217
 8545SOL    HW126534   4.476   6.463   5.293
 8545SOL    HW226535   4.364   6.513   5.184
 8546SOL     OW26536   4.358   2.608   6.989
 8546SOL    HW126537   4.324   2.515   7.003
 8546SOL    HW226538   4.403   2.615   6.900
 8547SOL     OW26539   1.556   4.765   1.825
 8547SOL    HW126540   1.631   4.773   1.891
 8547SOL    HW226541   1.564   4.678   1.776
 8548SOL     OW26542   6.453   2.337   5.546
 8548SOL    HW126543   6.450   2.245   5.509
 8548SOL    HW226544   6.367   2.384   5.525
 8549SOL     OW26545   5.114   3.379   5.547
 8549SOL    HW126546   5.149   3.379   5.453
 8549SOL    HW226547   5.037   3.442   5.554
 8550SOL     OW26548   1.080   4.218   5.658
 8550SOL    HW126549   1.013   4.281   5.696
 8550SOL    HW226550   1.093   4.141   5.721
 8551SOL     OW26551   2.308   4.214   0.751
 8551SOL    HW126552   2.334   4.293   0.806
 8551SOL    HW226553   2.217   4.229   0.711
 8552SOL     OW26554   3.151   6.642   4.676
 8552SOL    HW126555   3.236   6.598   4.707
 8552SOL    HW226556   3.171   6.700   4.597
 8553SOL     OW26557   6.028   5.292   6.998
 8553SOL    HW126558   6.092   5.225   6.959
 8553SOL    HW226559   6.078   5.354   0.040
 8554SOL     OW26560   5.690   3.620   6.931
 8554SOL    HW126561   5.769   3.624   6.871
 8554SOL    HW226562   5.611   3.585   6.880
 8555SOL     OW26563   1.914   6.807   4.255
 8555SOL    HW126564   1.978   6.769   4.188
 8555SOL    HW226565   1.946   6.787   4.347
 8556SOL     OW26566   6.018   0.046   4.167
 8556SOL    HW126567   6.018   6.966   4.159
 8556SOL    HW226568   5.935   0.076   4.215
 8557SOL     OW26569   0.128   1.324   0.648
 8557SOL    HW126570   0.050   1.330   0.586
 8557SOL    HW226571   0.110   1.255   0.717
 8558SOL     OW26572   1.106   4.769   2.117
 8558SOL    HW126573   1.078   4.863   2.097
 8558SOL    HW226574   1.058   4.736   2.198
 8559SOL     OW26575   0.596   1.708   5.637
 8559SOL    HW126576   0.592   1.649   5.718
 8559SOL    HW226577   0.536   1.788   5.651
 8560SOL     OW26578   6.510   2.217   6.519
 8560SOL    HW126579   6.504   2.118   6.531
 8560SOL    HW226580   6.428   2.260   6.556
 8561SOL     OW26581   4.427   6.428   5.763
 8561SOL    HW126582   4.473   6.347   5.799
 8561SOL    HW226583   4.332   6.405   5.741
 8562SOL     OW26584   3.881   0.354   4.596
 8562SOL    HW126585   3.947   0.426   4.616
 8562SOL    HW226586   3.927   0.279   4.548
 8563SOL     OW26587   2.957   2.671   6.529
 8563SOL    HW126588   2.907   2.751   6.495
 8563SOL    HW226589   3.013   2.698   6.607
 8564SOL     OW26590   0.446   6.383   2.710
 8564SOL    HW126591   0.391   6.376   2.626
 8564SOL    HW226592   0.388   6.368   2.790
 8565SOL     OW26593   3.919   0.553   1.308
 8565SOL    HW126594   3.854   0.530   1.235
 8565SOL    HW226595   3.919   0.651   1.323
 8566SOL     OW26596   1.551   3.962   3.592
 8566SOL    HW126597   1.573   3.872   3.627
 8566SOL    HW226598   1.632   4.020   3.593
 8567SOL     OW26599   5.175   6.028   6.379
 8567SOL    HW126600   5.076   6.031   6.379
 8567SOL    HW226601   5.212   6.118   6.357
 8568SOL     OW26602   5.196   0.495   0.003
 8568SOL    HW126603   5.225   0.452   6.937
 8568SOL    HW226604   5.275   0.533   0.050
 8569SOL     OW26605   3.931   1.082   5.287
 8569SOL    HW126606   3.845   1.132   5.289
 8569SOL    HW226607   3.948   1.039   5.375
 8570SOL     OW26608   0.277   2.952   6.248
 8570SOL    HW126609   0.317   3.041   6.272
 8570SOL    HW226610   0.269   2.896   6.331
 8571SOL     OW26611   0.003   4.696   5.051
 8571SOL    HW126612   6.939   4.737   5.014
 8571SOL    HW226613   6.997   4.620   5.111
 8572SOL     OW26614   2.825   4.917   5.557
 8572SOL    HW126615   2.788   4.882   5.643
 8572SOL    HW226616   2.925   4.907   5.557
 8573SOL     OW26617   3.470   5.823   4.326
 8573SOL    HW126618   3.487   5.746   4.387
 8573SOL    HW226619   3.514   5.905   4.363
 8574SOL     OW26620   0.537   4.128   4.020
 8574SOL    HW126621   0.549   4.041   4.067
 8574SOL    HW226622   0.442   4.138   3.991
 8575SOL     OW26623   2.941   3.486   6.615
 8575SOL    HW126624   2.944   3.560   6.548
 8575SOL    HW226625   2.942   3.398   6.568
 8576SOL     OW26626   2.045   0.322   0.724
 8576SOL    HW126627   2.030   0.392   0.654
 8576SOL    HW226628   1.974   0.252   0.716
 8577SOL     OW26629   6.372   5.640   4.290
 8577SOL    HW126630   6.343   5.727   4.249
 8577SOL    HW226631   6.292   5.587   4.317
 8578SOL     OW26632   4.776   0.574   3.273
 8578SOL    HW126633   4.715   0.495   3.277
 8578SOL    HW226634   4.739   0.642   3.209
 8579SOL     OW26635   0.546   5.041   2.447
 8579SOL    HW126636   0.633   5.016   2.489
 8579SOL    HW226637   0.563   5.092   2.362
 8580SOL     OW26638   2.717   5.027   6.071
 8580SOL    HW126639   2.815   5.004   6.072
 8580SOL    HW226640   2.702   5.106   6.130
 8581SOL     OW26641   3.209   3.015   0.199
 8581SOL    HW126642   3.198   3.110   0.229
 8581SOL    HW226643   3.232   3.014   0.102
 8582SOL     OW26644   4.083   4.739   0.530
 8582SOL    HW126645   4.177   4.766   0.550
 8582SOL    HW226646   4.065   4.751   0.432
 8583SOL     OW26647   5.666   6.488   5.150
 8583SOL    HW126648   5.645   6.433   5.231
 8583SOL    HW226649   5.739   6.553   5.171
 8584SOL     OW26650   0.622   5.579   6.746
 8584SOL    HW126651   0.640   5.481   6.751
 8584SOL    HW226652   0.605   5.605   6.651
 8585SOL     OW26653   1.555   1.977   0.995
 8585SOL    HW126654   1.530   2.003   0.902
 8585SOL    HW226655   1.585   2.058   1.045
 8586SOL     OW26656   4.058   5.224   4.512
 8586SOL    HW126657   3.962   5.237   4.540
 8586SOL    HW226658   4.108   5.182   4.588
 8587SOL     OW26659   6.486   1.733   1.564
 8587SOL    HW126660   6.408   1.736   1.627
 8587SOL    HW226661   6.477   1.654   1.504
 8588SOL     OW26662   3.563   2.360   6.390
 8588SOL    HW126663   3.552   2.430   6.320
 8588SOL    HW226664   3.510   2.387   6.471
 8589SOL     OW26665   2.926   1.652   4.883
 8589SOL    HW126666   2.883   1.740   4.868
 8589SOL    HW226667   2.867   1.595   4.940
 8590SOL     OW26668   5.729   5.101   5.326
 8590SOL    HW126669   5.745   5.199   5.326
 8590SOL    HW226670   5.800   5.055   5.381
 8591SOL     OW26671   0.322   2.645   0.839
 8591SOL    HW126672   0.338   2.701   0.758
 8591SOL    HW226673   0.232   2.668   0.878
 8592SOL     OW26674   6.439   5.931   6.447
 8592SOL    HW126675   6.508   5.964   6.510
 8592SOL    HW226676   6.458   5.835   6.425
 8593SOL     OW26677   0.298   5.983   3.017
 8593SOL    HW126678   0.263   5.997   3.109
 8593SOL    HW226679   0.398   5.978   3.019
 8594SOL     OW26680   3.742   4.062   3.241
 8594SOL    HW126681   3.802   4.026   3.169
 8594SOL    HW226682   3.750   4.005   3.322
 8595SOL     OW26683   1.246   3.271   1.658
 8595SOL    HW126684   1.180   3.248   1.586
 8595SOL    HW226685   1.211   3.240   1.746
 8596SOL     OW26686   6.756   4.150   2.149
 8596SOL    HW126687   6.657   4.163   2.141
 8596SOL    HW226688   6.789   4.199   2.229
 8597SOL     OW26689   2.761   1.992   0.533
 8597SOL    HW126690   2.782   1.900   0.501
 8597SOL    HW226691   2.795   2.003   0.627
 8598SOL     OW26692   5.844   3.413   1.978
 8598SOL    HW126693   5.870   3.415   2.074
 8598SOL    HW226694   5.925   3.393   1.922
 8599SOL     OW26695   0.416   3.126   0.682
 8599SOL    HW126696   0.348   3.145   0.612
 8599SOL    HW226697   0.484   3.200   0.683
 8600SOL     OW26698   6.480   2.550   6.588
 8600SOL    HW126699   6.480   2.598   6.675
 8600SOL    HW226700   6.547   2.475   6.591
 8601SOL     OW26701   0.483   0.403   5.103
 8601SOL    HW126702   0.543   0.323   5.092
 8601SOL    HW226703   0.540   0.485   5.110
 8602SOL     OW26704   1.671   6.471   1.695
 8602SOL    HW126705   1.576   6.450   1.675
 8602SOL    HW226706   1.725   6.386   1.693
 8603SOL     OW26707   4.928   3.398   1.237
 8603SOL    HW126708   4.959   3.304   1.250
 8603SOL    HW226709   4.833   3.407   1.266
 8604SOL     OW26710   5.829   2.480   3.072
 8604SOL    HW126711   5.826   2.576   3.098
 8604SOL    HW226712   5.919   2.442   3.094
 8605SOL     OW26713   3.272   5.591   1.765
 8605SOL    HW126714   3.288   5.502   1.808
 8605SOL    HW226715   3.358   5.625   1.727
 8606SOL     OW26716   3.513   5.591   5.357
 8606SOL    HW126717   3.453   5.655   5.309
 8606SOL    HW226718   3.605   5.599   5.321
 8607SOL     OW26719   3.100   6.258   0.864
 8607SOL    HW126720   3.006   6.244   0.894
 8607SOL    HW226721   3.160   6.194   0.913
 8608SOL     OW26722   5.940   6.850   2.130
 8608SOL    HW126723   5.879   6.916   2.087
 8608SOL    HW226724   6.022   6.839   2.074
 8609SOL     OW26725   4.678   0.590   6.191
 8609SOL    HW126726   4.662   0.502   6.234
 8609SOL    HW226727   4.776   0.604   6.178
 8610SOL     OW26728   0.403   6.861   6.066
 8610SOL    HW126729   0.361   6.813   5.989
 8610SOL    HW226730   0.492   6.897   6.039
 8611SOL     OW26731   1.695   1.745   3.142
 8611SOL    HW126732   1.720   1.666   3.086
 8611SOL    HW226733   1.729   1.828   3.098
 8612SOL     OW26734   5.114   3.372   4.508
 8612SOL    HW126735   5.179   3.444   4.532
 8612SOL    HW226736   5.049   3.408   4.441
 8613SOL     OW26737   1.314   0.851   0.628
 8613SOL    HW126738   1.394   0.890   0.581
 8613SOL    HW226739   1.231   0.891   0.590
 8614SOL     OW26740   1.497   1.759   3.501
 8614SOL    HW126741   1.485   1.792   3.408
 8614SOL    HW226742   1.525   1.834   3.560
 8615SOL     OW26743   4.651   1.924   5.681
 8615SOL    HW126744   4.621   2.019   5.692
 8615SOL    HW226745   4.717   1.918   5.606
 8616SOL     OW26746   0.778   2.798   0.190
 8616SOL    HW126747   0.853   2.734   0.168
 8616SOL    HW226748   0.816   2.879   0.234
 8617SOL     OW26749   5.670   2.260   0.905
 8617SOL    HW126750   5.595   2.326   0.911
 8617SOL    HW226751   5.705   2.259   0.811
 8618SOL     OW26752   4.187   1.293   2.886
 8618SOL    HW126753   4.172   1.383   2.928
 8618SOL    HW226754   4.124   1.227   2.926
 8619SOL     OW26755   3.975   6.324   0.747
 8619SOL    HW126756   3.922   6.283   0.822
 8619SOL    HW226757   3.934   6.411   0.721
 8620SOL     OW26758   6.210   5.965   3.599
 8620SOL    HW126759   6.212   5.898   3.525
 8620SOL    HW226760   6.139   6.034   3.579
 8621SOL     OW26761   5.069   0.810   4.079
 8621SOL    HW126762   5.018   0.879   4.028
 8621SOL    HW226763   5.067   0.833   4.177
 8622SOL     OW26764   4.741   4.921   6.197
 8622SOL    HW126765   4.654   4.938   6.243
 8622SOL    HW226766   4.817   4.953   6.254
 8623SOL     OW26767   6.577   2.332   4.140
 8623SOL    HW126768   6.493   2.344   4.194
 8623SOL    HW226769   6.640   2.272   4.190
 8624SOL     OW26770   6.409   3.332   3.840
 8624SOL    HW126771   6.371   3.421   3.815
 8624SOL    HW226772   6.341   3.261   3.820
 8625SOL     OW26773   3.503   1.607   6.579
 8625SOL    HW126774   3.414   1.608   6.535
 8625SOL    HW226775   3.545   1.698   6.571
 8626SOL     OW26776   2.930   3.310   2.351
 8626SOL    HW126777   3.000   3.313   2.279
 8626SOL    HW226778   2.864   3.238   2.330
 8627SOL     OW26779   2.350   0.557   0.088
 8627SOL    HW126780   2.311   0.547   0.180
 8627SOL    HW226781   2.387   0.470   0.057
 8628SOL     OW26782   6.224   1.462   0.917
 8628SOL    HW126783   6.226   1.392   0.989
 8628SOL    HW226784   6.309   1.515   0.920
 8629SOL     OW26785   1.358   5.643   3.540
 8629SOL    HW126786   1.270   5.610   3.505
 8629SOL    HW226787   1.385   5.588   3.620
 8630SOL     OW26788   5.268   5.149   4.020
 8630SOL    HW126789   5.299   5.204   4.098
 8630SOL    HW226790   5.296   5.194   3.935
 8631SOL     OW26791   4.411   6.351   3.931
 8631SOL    HW126792   4.466   6.275   3.965
 8631SOL    HW226793   4.409   6.349   3.831
 8632SOL     OW26794   3.308   0.278   3.257
 8632SOL    HW126795   3.249   0.358   3.272
 8632SOL    HW226796   3.400   0.309   3.234
 8633SOL     OW26797   6.819   6.610   2.761
 8633SOL    HW126798   6.759   6.537   2.795
 8633SOL    HW226799   6.868   6.578   2.680
 8634SOL     OW26800   6.200   6.006   1.684
 8634SOL    HW126801   6.251   5.923   1.661
 8634SOL    HW226802   6.168   6.000   1.778
 8635SOL     OW26803   6.176   3.385   5.528
 8635SOL    HW126804   6.127   3.355   5.447
 8635SOL    HW226805   6.173   3.485   5.534
 8636SOL     OW26806   5.319   5.032   0.452
 8636SOL    HW126807   5.253   5.027   0.527
 8636SOL    HW226808   5.270   5.054   0.367
 8637SOL     OW26809   1.371   1.048   1.680
 8637SOL    HW126810   1.370   1.007   1.589
 8637SOL    HW226811   1.342   1.144   1.674
 8638SOL     OW26812   5.544   4.689   1.115
 8638SOL    HW126813   5.455   4.715   1.151
 8638SOL    HW226814   5.599   4.649   1.189
 8639SOL     OW26815   6.216   2.383   2.142
 8639SOL    HW126816   6.254   2.462   2.094
 8639SOL    HW226817   6.150   2.415   2.210
 8640SOL     OW26818   4.873   6.211   1.634
 8640SOL    HW126819   4.794   6.185   1.579
 8640SOL    HW226820   4.849   6.286   1.695
 8641SOL     OW26821   4.881   4.481   3.766
 8641SOL    HW126822   4.956   4.530   3.809
 8641SOL    HW226823   4.860   4.524   3.678
 8642SOL     OW26824   4.324   1.793   1.657
 8642SOL    HW126825   4.256   1.813   1.587
 8642SOL    HW226826   4.283   1.736   1.728
 8643SOL     OW26827   4.767   0.411   0.268
 8643SOL    HW126828   4.706   0.489   0.281
 8643SOL    HW226829   4.857   0.443   0.240
 8644SOL     OW26830   6.682   3.155   5.144
 8644SOL    HW126831   6.704   3.102   5.062
 8644SOL    HW226832   6.597   3.122   5.184
 8645SOL     OW26833   6.451   3.729   1.703
 8645SOL    HW126834   6.430   3.731   1.606
 8645SOL    HW226835   6.425   3.816   1.745
 8646SOL     OW26836   4.981   5.952   0.905
 8646SOL    HW126837   4.900   5.940   0.847
 8646SOL    HW226838   4.985   5.879   0.973
 8647SOL     OW26839   4.253   4.668   2.176
 8647SOL    HW126840   4.348   4.657   2.202
 8647SOL    HW226841   4.195   4.668   2.257
 8648SOL     OW26842   6.033   1.308   4.132
 8648SOL    HW126843   5.995   1.380   4.074
 8648SOL    HW226844   6.122   1.280   4.096
 8649SOL     OW26845   6.640   4.672   5.524
 8649SOL    HW126846   6.625   4.577   5.551
 8649SOL    HW226847   6.722   4.707   5.570
 8650SOL     OW26848   0.104   5.303   1.574
 8650SOL    HW126849   0.133   5.220   1.527
 8650SOL    HW226850   0.179   5.369   1.574
 8651SOL     OW26851   3.869   3.173   1.076
 8651SOL    HW126852   3.915   3.216   1.154
 8651SOL    HW226853   3.812   3.098   1.108
 8652SOL     OW26854   1.204   3.116   4.031
 8652SOL    HW126855   1.299   3.094   4.007
 8652SOL    HW226856   1.188   3.092   4.127
 8653SOL     OW26857   5.209   2.703   6.482
 8653SOL    HW126858   5.235   2.785   6.430
 8653SOL    HW226859   5.280   2.634   6.472
 8654SOL     OW26860   1.247   5.267   1.618
 8654SOL    HW126861   1.288   5.227   1.536
 8654SOL    HW226862   1.162   5.219   1.639
 8655SOL     OW26863   6.257   6.660   2.201
 8655SOL    HW126864   6.202   6.608   2.266
 8655SOL    HW226865   6.299   6.739   2.247
 8656SOL     OW26866   6.799   2.047   1.311
 8656SOL    HW126867   6.762   2.140   1.319
 8656SOL    HW226868   6.745   1.995   1.245
 8657SOL     OW26869   2.907   4.573   1.054
 8657SOL    HW126870   2.871   4.631   1.126
 8657SOL    HW226871   2.999   4.604   1.029
 8658SOL     OW26872   0.999   5.371   6.283
 8658SOL    HW126873   1.072   5.434   6.310
 8658SOL    HW226874   0.914   5.400   6.327
 8659SOL     OW26875   4.150   6.938   3.959
 8659SOL    HW126876   4.154   0.019   3.965
 8659SOL    HW226877   4.156   6.898   4.051
 8660SOL     OW26878   5.564   4.510   0.206
 8660SOL    HW126879   5.536   4.415   0.194
 8660SOL    HW226880   5.566   4.557   0.117
 8661SOL     OW26881   6.622   3.284   1.799
 8661SOL    HW126882   6.528   3.309   1.819
 8661SOL    HW226883   6.628   3.249   1.706
 8662SOL     OW26884   0.782   0.221   0.246
 8662SOL    HW126885   0.733   0.147   0.201
 8662SOL    HW226886   0.851   0.183   0.307
 8663SOL     OW26887   2.641   5.612   1.142
 8663SOL    HW126888   2.544   5.631   1.157
 8663SOL    HW226889   2.687   5.601   1.230
 8664SOL     OW26890   4.361   4.932   1.853
 8664SOL    HW126891   4.338   5.014   1.801
 8664SOL    HW226892   4.429   4.878   1.802
 8665SOL     OW26893   4.933   5.700   4.510
 8665SOL    HW126894   4.940   5.680   4.608
 8665SOL    HW226895   4.984   5.632   4.458
 8666SOL     OW26896   6.433   4.610   3.968
 8666SOL    HW126897   6.498   4.669   3.921
 8666SOL    HW226898   6.439   4.625   4.066
 8667SOL     OW26899   5.681   2.692   3.207
 8667SOL    HW126900   5.650   2.610   3.254
 8667SOL    HW226901   5.607   2.726   3.148
 8668SOL     OW26902   3.549   0.742   4.519
 8668SOL    HW126903   3.558   0.794   4.603
 8668SOL    HW226904   3.453   0.742   4.490
 8669SOL     OW26905   4.232   6.991   5.946
 8669SOL    HW126906   4.324   7.013   5.977
 8669SOL    HW226907   4.172   6.980   6.025
 8670SOL     OW26908   4.321   4.592   2.759
 8670SOL    HW126909   4.368   4.568   2.844
 8670SOL    HW226910   4.389   4.614   2.689
 8671SOL     OW26911   6.060   6.027   2.431
 8671SOL    HW126912   6.126   6.061   2.364
 8671SOL    HW226913   6.098   5.947   2.479
 8672SOL     OW26914   3.476   5.030   5.596
 8672SOL    HW126915   3.390   5.002   5.638
 8672SOL    HW226916   3.505   4.960   5.531
 8673SOL     OW26917   4.879   2.339   0.088
 8673SOL    HW126918   4.909   2.378   0.174
 8673SOL    HW226919   4.809   2.398   0.047
 8674SOL     OW26920   0.830   0.150   3.010
 8674SOL    HW126921   0.736   0.141   3.043
 8674SOL    HW226922   0.829   0.189   2.918
 8675SOL     OW26923   2.255   2.377   2.720
 8675SOL    HW126924   2.349   2.411   2.724
 8675SOL    HW226925   2.216   2.398   2.630
 8676SOL     OW26926   4.561   0.860   4.258
 8676SOL    HW126927   4.602   0.790   4.316
 8676SOL    HW226928   4.466   0.874   4.285
 8677SOL     OW26929   1.670   3.844   5.683
 8677SOL    HW126930   1.720   3.862   5.598
 8677SOL    HW226931   1.690   3.751   5.713
 8678SOL     OW26932   1.562   1.019   6.274
 8678SOL    HW126933   1.560   1.112   6.311
 8678SOL    HW226934   1.482   1.006   6.214
 8679SOL     OW26935   6.059   1.720   4.376
 8679SOL    HW126936   6.008   1.786   4.321
 8679SOL    HW226937   6.144   1.695   4.329
 8680SOL     OW26938   0.799   3.549   0.551
 8680SOL    HW126939   0.703   3.575   0.557
 8680SOL    HW226940   0.856   3.626   0.580
 8681SOL     OW26941   4.146   3.725   1.461
 8681SOL    HW126942   4.114   3.716   1.555
 8681SOL    HW226943   4.166   3.635   1.423
 8682SOL     OW26944   1.203   5.757   2.856
 8682SOL    HW126945   1.240   5.692   2.921
 8682SOL    HW226946   1.202   5.716   2.765
 8683SOL     OW26947   4.981   2.658   6.095
 8683SOL    HW126948   5.076   2.660   6.065
 8683SOL    HW226949   4.972   2.594   6.172
 8684SOL     OW26950   6.966   2.693   4.210
 8684SOL    HW126951   6.919   2.720   4.294
 8684SOL    HW226952   6.920   2.735   4.131
 8685SOL     OW26953   0.508   1.262   5.671
 8685SOL    HW126954   0.564   1.266   5.588
 8685SOL    HW226955   0.426   1.317   5.658
 8686SOL     OW26956   6.442   1.824   3.491
 8686SOL    HW126957   6.379   1.769   3.546
 8686SOL    HW226958   6.449   1.915   3.531
 8687SOL     OW26959   4.033   0.676   2.639
 8687SOL    HW126960   3.971   0.685   2.716
 8687SOL    HW226961   3.992   0.719   2.558
 8688SOL     OW26962   1.152   0.223   2.159
 8688SOL    HW126963   1.235   0.181   2.194
 8688SOL    HW226964   1.073   0.188   2.210
 8689SOL     OW26965   5.036   4.641   0.783
 8689SOL    HW126966   5.092   4.720   0.809
 8689SOL    HW226967   5.089   4.581   0.722
 8690SOL     OW26968   1.180   0.676   2.991
 8690SOL    HW126969   1.126   0.620   3.052
 8690SOL    HW226970   1.275   0.679   3.023
 8691SOL     OW26971   5.680   1.852   0.507
 8691SOL    HW126972   5.620   1.789   0.457
 8691SOL    HW226973   5.703   1.813   0.596
 8692SOL     OW26974   1.667   1.294   3.705
 8692SOL    HW126975   1.751   1.250   3.675
 8692SOL    HW226976   1.630   1.350   3.631
 8693SOL     OW26977   5.444   2.366   6.755
 8693SOL    HW126978   5.532   2.406   6.777
 8693SOL    HW226979   5.456   2.268   6.734
 8694SOL     OW26980   3.848   6.787   6.989
 8694SOL    HW126981   3.850   6.811   6.892
 8694SOL    HW226982   3.756   6.803   0.006
 8695SOL     OW26983   4.674   4.071   5.209
 8695SOL    HW126984   4.743   3.998   5.214
 8695SOL    HW226985   4.587   4.037   5.246
 8696SOL     OW26986   1.959   5.362   1.015
 8696SOL    HW126987   1.876   5.389   1.064
 8696SOL    HW226988   2.024   5.321   1.080
 8697SOL     OW26989   4.919   5.034   6.388
 8697SOL    HW126990   4.909   5.112   6.450
 8697SOL    HW226991   5.009   4.992   6.402
 8698SOL     OW26992   6.233   5.978   4.711
 8698SOL    HW126993   6.147   5.986   4.761
 8698SOL    HW226994   6.310   5.986   4.775
 8699SOL     OW26995   1.342   1.808   5.128
 8699SOL    HW126996   1.387   1.888   5.088
 8699SOL    HW226997   1.300   1.755   5.055
 8700SOL     OW26998   2.826   2.337   6.065
 8700SOL    HW126999   2.802   2.405   5.996
 8700SOL    HW227000   2.746   2.313   6.118
 8701SOL     OW27001   1.309   1.441   3.628
 8701SOL    HW127002   1.268   1.498   3.699
 8701SOL    HW227003   1.247   1.366   3.606
 8702SOL     OW27004   5.522   5.831   6.707
 8702SOL    HW127005   5.464   5.761   6.747
 8702SOL    HW227006   5.598   5.788   6.657
 8703SOL     OW27007   1.323   5.450   1.309
 8703SOL    HW127008   1.323   5.550   1.306
 8703SOL    HW227009   1.229   5.417   1.315
 8704SOL     OW27010   0.371   4.270   2.169
 8704SOL    HW127011   0.370   4.298   2.073
 8704SOL    HW227012   0.330   4.180   2.178
 8705SOL     OW27013   4.996   6.727   4.265
 8705SOL    HW127014   5.024   6.818   4.236
 8705SOL    HW227015   4.905   6.732   4.307
 8706SOL     OW27016   5.207   1.733   5.806
 8706SOL    HW127017   5.184   1.775   5.719
 8706SOL    HW227018   5.172   1.639   5.808
 8707SOL     OW27019   4.854   2.187   5.945
 8707SOL    HW127020   4.785   2.240   5.895
 8707SOL    HW227021   4.931   2.247   5.967
 8708SOL     OW27022   3.941   1.810   0.920
 8708SOL    HW127023   4.041   1.807   0.912
 8708SOL    HW227024   3.915   1.843   1.011
 8709SOL     OW27025   6.046   3.194   0.423
 8709SOL    HW127026   6.005   3.273   0.468
 8709SOL    HW227027   6.124   3.225   0.367
 8710SOL     OW27028   6.112   3.269   4.171
 8710SOL    HW127029   6.055   3.267   4.089
 8710SOL    HW227030   6.165   3.354   4.173
 8711SOL     OW27031   0.816   1.533   4.259
 8711SOL    HW127032   0.787   1.593   4.184
 8711SOL    HW227033   0.751   1.541   4.334
 8712SOL     OW27034   3.978   1.099   6.655
 8712SOL    HW127035   4.054   1.133   6.600
 8712SOL    HW227036   3.898   1.086   6.596
 8713SOL     OW27037   6.078   4.744   2.677
 8713SOL    HW127038   6.031   4.680   2.616
 8713SOL    HW227039   6.066   4.715   2.771
 8714SOL     OW27040   1.588   1.581   4.382
 8714SOL    HW127041   1.524   1.655   4.401
 8714SOL    HW227042   1.592   1.518   4.460
 8715SOL     OW27043   6.088   1.107   2.553
 8715SOL    HW127044   6.071   1.205   2.552
 8715SOL    HW227045   6.005   1.059   2.581
 8716SOL     OW27046   0.525   0.937   1.826
 8716SOL    HW127047   0.580   1.002   1.878
 8716SOL    HW227048   0.452   0.901   1.883
 8717SOL     OW27049   4.055   3.693   0.726
 8717SOL    HW127050   4.117   3.638   0.670
 8717SOL    HW227051   4.078   3.679   0.823
 8718SOL     OW27052   0.283   2.705   5.852
 8718SOL    HW127053   0.187   2.676   5.853
 8718SOL    HW227054   0.326   2.675   5.767
 8719SOL     OW27055   6.256   1.024   5.800
 8719SOL    HW127056   6.345   0.988   5.828
 8719SOL    HW227057   6.245   1.014   5.701
 8720SOL     OW27058   4.828   3.238   5.912
 8720SOL    HW127059   4.866   3.211   6.000
 8720SOL    HW227060   4.749   3.298   5.927
 8721SOL     OW27061   6.877   0.920   5.208
 8721SOL    HW127062   6.931   0.901   5.290
 8721SOL    HW227063   6.790   0.962   5.234
 8722SOL     OW27064   3.015   2.925   1.279
 8722SOL    HW127065   2.934   2.908   1.335
 8722SOL    HW227066   3.012   2.867   1.198
 8723SOL     OW27067   0.360   5.382   0.347
 8723SOL    HW127068   0.319   5.305   0.298
 8723SOL    HW227069   0.332   5.468   0.304
 8724SOL     OW27070   5.427   6.195   6.302
 8724SOL    HW127071   5.425   6.177   6.401
 8724SOL    HW227072   5.411   6.293   6.286
 8725SOL     OW27073   2.065   6.054   1.642
 8725SOL    HW127074   2.040   5.963   1.676
 8725SOL    HW227075   2.036   6.063   1.547
 8726SOL     OW27076   6.521   0.401   1.523
 8726SOL    HW127077   6.603   0.376   1.471
 8726SOL    HW227078   6.459   0.322   1.527
 8727SOL     OW27079   6.106   6.568   1.315
 8727SOL    HW127080   6.143   6.629   1.244
 8727SOL    HW227081   6.010   6.591   1.332
 8728SOL     OW27082   1.970   6.301   5.408
 8728SOL    HW127083   1.937   6.239   5.337
 8728SOL    HW227084   1.997   6.388   5.366
 8729SOL     OW27085   5.265   6.145   4.522
 8729SOL    HW127086   5.203   6.099   4.459
 8729SOL    HW227087   5.323   6.209   4.472
 8730SOL     OW27088   6.609   6.047   0.935
 8730SOL    HW127089   6.514   6.036   0.906
 8730SOL    HW227090   6.619   6.136   0.979
 8731SOL     OW27091   0.500   1.673   2.216
 8731SOL    HW127092   0.438   1.725   2.275
 8731SOL    HW227093   0.577   1.639   2.270
 8732SOL     OW27094   6.424   5.760   1.997
 8732SOL    HW127095   6.355   5.794   2.061
 8732SOL    HW227096   6.424   5.817   1.915
 8733SOL     OW27097   6.757   6.994   1.065
 8733SOL    HW127098   6.705   6.947   1.137
 8733SOL    HW227099   6.798   6.926   1.004
 8734SOL     OW27100   0.013   5.901   0.503
 8734SOL    HW127101   7.010   5.824   0.563
 8734SOL    HW227102   0.111   5.902   0.485
 8735SOL     OW27103   7.013   2.739   6.422
 8735SOL    HW127104   0.034   2.688   6.346
 8735SOL    HW227105   6.926   2.779   6.393
 8736SOL     OW27106   6.934   4.778   5.762
 8736SOL    HW127107   6.946   4.686   5.725
 8736SOL    HW227108   7.004   4.795   5.833
 8737SOL     OW27109   3.824   6.293   6.537
 8737SOL    HW127110   3.790   6.217   6.481
 8737SOL    HW227111   3.913   6.268   6.576
 8738SOL     OW27112   0.750   3.769   5.289
 8738SOL    HW127113   0.677   3.731   5.346
 8738SOL    HW227114   0.789   3.850   5.334
 8739SOL     OW27115   1.081   3.587   5.682
 8739SOL    HW127116   1.153   3.617   5.744
 8739SOL    HW227117   1.111   3.505   5.632
 8740SOL     OW27118   1.235   6.520   1.361
 8740SOL    HW127119   1.237   6.435   1.310
 8740SOL    HW227120   1.206   6.595   1.301
 8741SOL     OW27121   1.626   3.833   2.144
 8741SOL    HW127122   1.532   3.799   2.154
 8741SOL    HW227123   1.624   3.926   2.108
 8742SOL     OW27124   4.906   6.360   2.076
 8742SOL    HW127125   4.963   6.406   2.145
 8742SOL    HW227126   4.911   6.261   2.090
 8743SOL     OW27127   2.426   4.871   3.083
 8743SOL    HW127128   2.374   4.821   3.151
 8743SOL    HW227129   2.509   4.909   3.125
 8744SOL     OW27130   3.122   3.239   5.449
 8744SOL    HW127131   3.118   3.245   5.549
 8744SOL    HW227132   3.201   3.290   5.415
 8745SOL     OW27133   6.430   1.315   6.803
 8745SOL    HW127134   6.487   1.291   6.725
 8745SOL    HW227135   6.335   1.328   6.773
 8746SOL     OW27136   5.244   4.052   4.877
 8746SOL    HW127137   5.339   4.085   4.877
 8746SOL    HW227138   5.199   4.079   4.792
 8747SOL     OW27139   1.068   2.276   4.297
 8747SOL    HW127140   0.997   2.270   4.367
 8747SOL    HW227141   1.033   2.326   4.218
 8748SOL     OW27142   2.885   0.045   0.617
 8748SOL    HW127143   2.918   7.006   0.542
 8748SOL    HW227144   2.881   7.009   0.701
 8749SOL     OW27145   3.944   1.749   3.723
 8749SOL    HW127146   3.963   1.657   3.758
 8749SOL    HW227147   4.029   1.802   3.719
 8750SOL     OW27148   1.813   0.892   5.422
 8750SOL    HW127149   1.726   0.843   5.418
 8750SOL    HW227150   1.845   0.896   5.517
 8751SOL     OW27151   2.110   6.785   3.221
 8751SOL    HW127152   2.121   6.883   3.205
 8751SOL    HW227153   2.019   6.766   3.257
 8752SOL     OW27154   2.410   1.650   5.945
 8752SOL    HW127155   2.452   1.560   5.958
 8752SOL    HW227156   2.404   1.697   6.033
 8753SOL     OW27157   6.257   1.356   5.011
 8753SOL    HW127158   6.163   1.388   4.997
 8753SOL    HW227159   6.254   1.260   5.039
 8754SOL     OW27160   2.224   1.121   5.279
 8754SOL    HW127161   2.285   1.107   5.356
 8754SOL    HW227162   2.244   1.056   5.207
 8755SOL     OW27163   2.200   2.178   0.911
 8755SOL    HW127164   2.172   2.120   0.988
 8755SOL    HW227165   2.231   2.266   0.946
 8756SOL     OW27166   1.920   4.013   4.370
 8756SOL    HW127167   1.972   3.981   4.450
 8756SOL    HW227168   1.938   4.110   4.355
 8757SOL     OW27169   3.611   6.081   4.044
 8757SOL    HW127170   3.606   5.986   4.075
 8757SOL    HW227171   3.527   6.105   3.996
 8758SOL     OW27172   5.023   6.506   2.267
 8758SOL    HW127173   4.934   6.550   2.276
 8758SOL    HW227174   5.059   6.483   2.358
 8759SOL     OW27175   5.223   0.965   5.722
 8759SOL    HW127176   5.216   0.962   5.821
 8759SOL    HW227177   5.132   0.964   5.682
 8760SOL     OW27178   1.854   3.202   3.767
 8760SOL    HW127179   1.929   3.269   3.761
 8760SOL    HW227180   1.815   3.189   3.676
 8761SOL     OW27181   5.365   5.938   1.598
 8761SOL    HW127182   5.334   5.843   1.599
 8761SOL    HW227183   5.406   5.959   1.508
 8762SOL     OW27184   0.971   4.306   0.448
 8762SOL    HW127185   0.989   4.278   0.354
 8762SOL    HW227186   1.023   4.247   0.510
 8763SOL     OW27187   0.021   6.032   6.620
 8763SOL    HW127188   6.998   6.065   6.705
 8763SOL    HW227189   0.017   5.932   6.619
 8764SOL     OW27190   3.823   2.246   5.624
 8764SOL    HW127191   3.843   2.176   5.556
 8764SOL    HW227192   3.739   2.223   5.672
 8765SOL     OW27193   6.806   0.277   4.986
 8765SOL    HW127194   6.768   0.240   5.071
 8765SOL    HW227195   6.758   0.361   4.962
 8766SOL     OW27196   2.057   4.770   2.290
 8766SOL    HW127197   2.116   4.755   2.369
 8766SOL    HW227198   1.964   4.787   2.321
 8767SOL     OW27199   5.215   1.434   5.837
 8767SOL    HW127200   5.164   1.424   5.923
 8767SOL    HW227201   5.265   1.350   5.817
 8768SOL     OW27202   0.924   3.608   6.930
 8768SOL    HW127203   1.012   3.568   6.904
 8768SOL    HW227204   0.868   3.540   6.977
 8769SOL     OW27205   1.742   1.141   5.997
 8769SOL    HW127206   1.821   1.108   6.048
 8769SOL    HW227207   1.664   1.080   6.011
 8770SOL     OW27208   5.619   1.261   3.400
 8770SOL    HW127209   5.605   1.352   3.361
 8770SOL    HW227210   5.717   1.244   3.411
 8771SOL     OW27211   2.519   2.621   5.355
 8771SOL    HW127212   2.586   2.695   5.355
 8771SOL    HW227213   2.567   2.533   5.351
 8772SOL     OW27214   6.012   6.493   6.707
 8772SOL    HW127215   6.103   6.465   6.737
 8772SOL    HW227216   6.010   6.503   6.608
 8773SOL     OW27217   2.913   1.707   2.949
 8773SOL    HW127218   2.963   1.622   2.932
 8773SOL    HW227219   2.860   1.731   2.868
 8774SOL     OW27220   1.492   0.481   0.466
 8774SOL    HW127221   1.543   0.542   0.527
 8774SOL    HW227222   1.418   0.532   0.422
 8775SOL     OW27223   6.324   6.299   3.893
 8775SOL    HW127224   6.295   6.220   3.947
 8775SOL    HW227225   6.314   6.382   3.948
 8776SOL     OW27226   3.328   3.636   4.784
 8776SOL    HW127227   3.425   3.657   4.777
 8776SOL    HW227228   3.298   3.649   4.879
 8777SOL     OW27229   6.383   5.623   2.588
 8777SOL    HW127230   6.391   5.604   2.686
 8777SOL    HW227231   6.459   5.582   2.540
 8778SOL     OW27232   1.340   2.789   2.989
 8778SOL    HW127233   1.373   2.729   2.916
 8778SOL    HW227234   1.265   2.745   3.037
 8779SOL     OW27235   1.497   4.683   0.705
 8779SOL    HW127236   1.562   4.724   0.641
 8779SOL    HW227237   1.404   4.700   0.675
 8780SOL     OW27238   2.037   5.783   4.377
 8780SOL    HW127239   2.054   5.829   4.290
 8780SOL    HW227240   1.970   5.711   4.364
 8781SOL     OW27241   0.960   2.221   2.620
 8781SOL    HW127242   0.908   2.282   2.681
 8781SOL    HW227243   1.049   2.263   2.600
 8782SOL     OW27244   5.221   1.425   3.517
 8782SOL    HW127245   5.220   1.498   3.586
 8782SOL    HW227246   5.165   1.453   3.439
 8783SOL     OW27247   6.288   2.744   5.702
 8783SOL    HW127248   6.382   2.778   5.698
 8783SOL    HW227249   6.226   2.811   5.661
 8784SOL     OW27250   5.742   4.478   5.810
 8784SOL    HW127251   5.673   4.523   5.867
 8784SOL    HW227252   5.822   4.536   5.802
 8785SOL     OW27253   5.143   4.311   5.995
 8785SOL    HW127254   5.122   4.397   5.947
 8785SOL    HW227255   5.133   4.325   6.093
 8786SOL     OW27256   1.616   6.461   0.658
 8786SOL    HW127257   1.703   6.505   0.638
 8786SOL    HW227258   1.633   6.368   0.692
 8787SOL     OW27259   0.998   2.610   0.119
 8787SOL    HW127260   0.931   2.537   0.135
 8787SOL    HW227261   1.035   2.601   0.026
 8788SOL     OW27262   1.424   1.935   5.402
 8788SOL    HW127263   1.522   1.920   5.389
 8788SOL    HW227264   1.392   2.006   5.339
 8789SOL     OW27265   0.767   0.769   0.252
 8789SOL    HW127266   0.685   0.730   0.295
 8789SOL    HW227267   0.770   0.867   0.269
 8790SOL     OW27268   4.047   1.884   6.901
 8790SOL    HW127269   3.994   1.829   6.966
 8790SOL    HW227270   4.123   1.928   6.949
 8791SOL     OW27271   4.913   5.967   5.550
 8791SOL    HW127272   4.993   5.936   5.499
 8791SOL    HW227273   4.889   6.059   5.521
 8792SOL     OW27274   5.632   6.628   2.692
 8792SOL    HW127275   5.692   6.706   2.711
 8792SOL    HW227276   5.685   6.544   2.702
 8793SOL     OW27277   1.107   4.474   3.514
 8793SOL    HW127278   1.142   4.397   3.462
 8793SOL    HW227279   1.013   4.494   3.485
 8794SOL     OW27280   2.727   5.722   2.756
 8794SOL    HW127281   2.705   5.630   2.725
 8794SOL    HW227282   2.657   5.786   2.724
 8795SOL     OW27283   2.541   5.913   5.001
 8795SOL    HW127284   2.575   5.821   5.014
 8795SOL    HW227285   2.472   5.934   5.071
 8796SOL     OW27286   5.489   2.453   5.434
 8796SOL    HW127287   5.458   2.402   5.354
 8796SOL    HW227288   5.412   2.467   5.496
 8797SOL     OW27289   0.769   5.986   6.647
 8797SOL    HW127290   0.726   6.062   6.696
 8797SOL    HW227291   0.744   5.990   6.551
 8798SOL     OW27292   3.349   3.315   5.361
 8798SOL    HW127293   3.384   3.287   5.271
 8798SOL    HW227294   3.419   3.368   5.409
 8799SOL     OW27295   3.103   0.469   3.110
 8799SOL    HW127296   3.036   0.509   3.172
 8799SOL    HW227297   3.059   0.448   3.022
 8800SOL     OW27298   4.432   4.496   0.541
 8800SOL    HW127299   4.396   4.436   0.613
 8800SOL    HW227300   4.408   4.591   0.561
 8801SOL     OW27301   3.034   6.515   5.818
 8801SOL    HW127302   2.988   6.477   5.898
 8801SOL    HW227303   3.025   6.453   5.740
 8802SOL     OW27304   2.372   6.110   1.796
 8802SOL    HW127305   2.345   6.156   1.880
 8802SOL    HW227306   2.328   6.020   1.791
 8803SOL     OW27307   4.034   6.169   1.457
 8803SOL    HW127308   4.103   6.097   1.454
 8803SOL    HW227309   4.054   6.232   1.532
 8804SOL     OW27310   2.725   1.157   1.217
 8804SOL    HW127311   2.764   1.225   1.279
 8804SOL    HW227312   2.648   1.111   1.261
 8805SOL     OW27313   0.303   0.562   3.260
 8805SOL    HW127314   0.345   0.511   3.335
 8805SOL    HW227315   0.257   0.498   3.198
 8806SOL     OW27316   1.676   5.244   0.410
 8806SOL    HW127317   1.754   5.262   0.471
 8806SOL    HW227318   1.706   5.186   0.334
 8807SOL     OW27319   2.185   5.516   6.568
 8807SOL    HW127320   2.170   5.486   6.474
 8807SOL    HW227321   2.259   5.463   6.609
 8808SOL     OW27322   5.804   1.870   0.953
 8808SOL    HW127323   5.711   1.900   0.934
 8808SOL    HW227324   5.865   1.950   0.949
 8809SOL     OW27325   6.025   4.458   0.249
 8809SOL    HW127326   5.945   4.514   0.271
 8809SOL    HW227327   6.049   4.470   0.152
 8810SOL     OW27328   5.225   1.613   4.097
 8810SOL    HW127329   5.298   1.558   4.056
 8810SOL    HW227330   5.162   1.553   4.146
 8811SOL     OW27331   1.583   0.981   3.362
 8811SOL    HW127332   1.657   0.968   3.296
 8811SOL    HW227333   1.561   1.078   3.369
 8812SOL     OW27334   2.393   1.282   0.278
 8812SOL    HW127335   2.359   1.293   0.372
 8812SOL    HW227336   2.328   1.229   0.224
 8813SOL     OW27337   1.329   5.708   1.321
 8813SOL    HW127338   1.304   5.803   1.300
 8813SOL    HW227339   1.386   5.707   1.403
 8814SOL     OW27340   5.440   6.726   6.191
 8814SOL    HW127341   5.348   6.709   6.156
 8814SOL    HW227342   5.495   6.643   6.183
 8815SOL     OW27343   6.176   5.791   3.218
 8815SOL    HW127344   6.173   5.771   3.316
 8815SOL    HW227345   6.102   5.854   3.195
 8816SOL     OW27346   0.621   5.399   1.988
 8816SOL    HW127347   0.721   5.399   1.986
 8816SOL    HW227348   0.586   5.490   1.967
 8817SOL     OW27349   2.161   4.022   5.342
 8817SOL    HW127350   2.233   4.036   5.274
 8817SOL    HW227351   2.139   3.924   5.346
 8818SOL     OW27352   6.703   4.387   4.847
 8818SOL    HW127353   6.648   4.417   4.769
 8818SOL    HW227354   6.669   4.432   4.930
 8819SOL     OW27355   6.713   0.150   3.811
 8819SOL    HW127356   6.670   0.218   3.870
 8819SOL    HW227357   6.812   0.158   3.818
 8820SOL     OW27358   0.576   2.578   3.194
 8820SOL    HW127359   0.504   2.509   3.185
 8820SOL    HW227360   0.539   2.668   3.170
 8821SOL     OW27361   1.510   0.027   6.298
 8821SOL    HW127362   1.551   0.116   6.279
 8821SOL    HW227363   1.485   0.022   6.395
 8822SOL     OW27364   0.969   2.378   3.542
 8822SOL    HW127365   1.012   2.350   3.628
 8822SOL    HW227366   0.978   2.477   3.532
 8823SOL     OW27367   1.970   4.835   1.889
 8823SOL    HW127368   1.892   4.807   1.945
 8823SOL    HW227369   2.007   4.756   1.840
 8824SOL     OW27370   4.358   4.340   0.753
 8824SOL    HW127371   4.263   4.365   0.732
 8824SOL    HW227372   4.362   4.244   0.779
 8825SOL     OW27373   2.241   2.696   0.857
 8825SOL    HW127374   2.153   2.729   0.824
 8825SOL    HW227375   2.252   2.721   0.953
 8826SOL     OW27376   5.773   0.583   0.702
 8826SOL    HW127377   5.819   0.669   0.726
 8826SOL    HW227378   5.841   0.512   0.688
 8827SOL     OW27379   6.701   1.730   3.114
 8827SOL    HW127380   6.667   1.672   3.041
 8827SOL    HW227381   6.628   1.745   3.181
 8828SOL     OW27382   1.537   6.194   3.714
 8828SOL    HW127383   1.511   6.155   3.626
 8828SOL    HW227384   1.455   6.224   3.763
 8829SOL     OW27385   1.619   0.935   1.390
 8829SOL    HW127386   1.559   1.014   1.396
 8829SOL    HW227387   1.568   0.853   1.416
 8830SOL     OW27388   1.269   1.248   0.159
 8830SOL    HW127389   1.362   1.227   0.188
 8830SOL    HW227390   1.249   1.201   0.073
 8831SOL     OW27391   0.065   1.235   1.864
 8831SOL    HW127392   0.012   1.306   1.912
 8831SOL    HW227393   0.050   1.244   1.766
 8832SOL     OW27394   6.703   0.948   2.248
 8832SOL    HW127395   6.688   0.945   2.347
 8832SOL    HW227396   6.675   0.861   2.207
 8833SOL     OW27397   1.153   5.034   2.638
 8833SOL    HW127398   1.129   5.130   2.655
 8833SOL    HW227399   1.092   4.997   2.568
 8834SOL     OW27400   6.193   4.180   3.863
 8834SOL    HW127401   6.167   4.212   3.772
 8834SOL    HW227402   6.183   4.255   3.929
 8835SOL     OW27403   0.343   0.764   0.154
 8835SOL    HW127404   0.375   0.672   0.179
 8835SOL    HW227405   0.406   0.832   0.190
 8836SOL     OW27406   4.774   2.136   2.216
 8836SOL    HW127407   4.695   2.076   2.232
 8836SOL    HW227408   4.855   2.098   2.260
 8837SOL     OW27409   0.311   2.356   1.913
 8837SOL    HW127410   0.248   2.314   1.848
 8837SOL    HW227411   0.359   2.284   1.964
 8838SOL     OW27412   1.480   6.264   4.109
 8838SOL    HW127413   1.504   6.359   4.088
 8838SOL    HW227414   1.562   6.207   4.102
 8839SOL     OW27415   5.318   6.218   3.976
 8839SOL    HW127416   5.313   6.277   4.057
 8839SOL    HW227417   5.313   6.122   4.004
 8840SOL     OW27418   4.292   0.537   2.098
 8840SOL    HW127419   4.234   0.513   2.021
 8840SOL    HW227420   4.311   0.636   2.097
 8841SOL     OW27421   2.907   6.988   4.348
 8841SOL    HW127422   2.931   6.992   4.251
 8841SOL    HW227423   2.817   0.010   4.361
 8842SOL     OW27424   1.337   2.504   1.849
 8842SOL    HW127425   1.245   2.487   1.884
 8842SOL    HW227426   1.350   2.602   1.837
 8843SOL     OW27427   0.180   3.165   4.235
 8843SOL    HW127428   0.224   3.198   4.152
 8843SOL    HW227429   0.242   3.102   4.283
 8844SOL     OW27430   5.973   1.782   6.250
 8844SOL    HW127431   6.034   1.850   6.291
 8844SOL    HW227432   5.898   1.829   6.202
 8845SOL     OW27433   5.222   2.912   0.148
 8845SOL    HW127434   5.273   2.843   0.096
 8845SOL    HW227435   5.129   2.880   0.163
 8846SOL     OW27436   3.243   4.888   3.508
 8846SOL    HW127437   3.241   4.901   3.607
 8846SOL    HW227438   3.156   4.918   3.469
 8847SOL     OW27439   1.014   1.108   3.013
 8847SOL    HW127440   0.948   1.145   2.946
 8847SOL    HW227441   0.990   1.143   3.104
 8848SOL     OW27442   0.951   1.084   3.288
 8848SOL    HW127443   1.050   1.076   3.287
 8848SOL    HW227444   0.911   1.004   3.334
 8849SOL     OW27445   2.896   6.705   1.675
 8849SOL    HW127446   2.824   6.774   1.671
 8849SOL    HW227447   2.968   6.734   1.737
 8850SOL     OW27448   3.184   2.596   6.905
 8850SOL    HW127449   3.160   2.691   6.887
 8850SOL    HW227450   3.103   2.538   6.896
 8851SOL     OW27451   1.818   3.633   2.190
 8851SOL    HW127452   1.763   3.715   2.172
 8851SOL    HW227453   1.914   3.659   2.200
 8852SOL     OW27454   0.319   1.991   4.756
 8852SOL    HW127455   0.398   2.046   4.729
 8852SOL    HW227456   0.239   2.019   4.703
 8853SOL     OW27457   4.527   0.475   1.603
 8853SOL    HW127458   4.560   0.477   1.697
 8853SOL    HW227459   4.427   0.475   1.603
 8854SOL     OW27460   0.449   2.892   4.738
 8854SOL    HW127461   0.489   2.853   4.821
 8854SOL    HW227462   0.425   2.818   4.675
 8855SOL     OW27463   5.253   4.593   1.325
 8855SOL    HW127464   5.284   4.553   1.411
 8855SOL    HW227465   5.226   4.520   1.262
 8856SOL     OW27466   6.121   0.650   6.239
 8856SOL    HW127467   6.165   0.577   6.187
 8856SOL    HW227468   6.070   0.709   6.177
 8857SOL     OW27469   6.733   1.826   6.497
 8857SOL    HW127470   6.693   1.882   6.569
 8857SOL    HW227471   6.802   1.765   6.536
 8858SOL     OW27472   6.426   5.632   4.659
 8858SOL    HW127473   6.431   5.695   4.737
 8858SOL    HW227474   6.519   5.606   4.631
 8859SOL     OW27475   0.752   5.825   2.816
 8859SOL    HW127476   0.776   5.903   2.759
 8859SOL    HW227477   0.818   5.817   2.891
 8860SOL     OW27478   6.597   2.926   2.359
 8860SOL    HW127479   6.634   2.935   2.451
 8860SOL    HW227480   6.669   2.894   2.297
 8861SOL     OW27481   3.341   2.657   1.760
 8861SOL    HW127482   3.386   2.747   1.764
 8861SOL    HW227483   3.243   2.668   1.779
 8862SOL     OW27484   4.326   4.753   4.818
 8862SOL    HW127485   4.312   4.675   4.880
 8862SOL    HW227486   4.331   4.719   4.724
 8863SOL     OW27487   1.043   4.134   2.156
 8863SOL    HW127488   1.039   4.211   2.220
 8863SOL    HW227489   0.951   4.099   2.140
 8864SOL     OW27490   6.471   1.732   5.172
 8864SOL    HW127491   6.382   1.758   5.135
 8864SOL    HW227492   6.541   1.797   5.141
 8865SOL     OW27493   3.226   1.678   0.765
 8865SOL    HW127494   3.148   1.714   0.715
 8865SOL    HW227495   3.310   1.695   0.712
 8866SOL     OW27496   5.743   7.012   2.066
 8866SOL    HW127497   5.712   0.046   2.145
 8866SOL    HW227498   5.695   0.024   1.984
 8867SOL     OW27499   6.030   2.952   2.874
 8867SOL    HW127500   5.980   2.991   2.952
 8867SOL    HW227501   5.971   2.950   2.794
 8868SOL     OW27502   0.014   3.027   3.600
 8868SOL    HW127503   6.938   3.028   3.631
 8868SOL    HW227504   0.046   2.933   3.594
 8869SOL     OW27505   4.831   0.086   3.578
 8869SOL    HW127506   4.839   0.063   3.675
 8869SOL    HW227507   4.786   0.175   3.569
 8870SOL     OW27508   1.001   0.931   1.701
 8870SOL    HW127509   1.077   0.870   1.723
 8870SOL    HW227510   1.013   1.018   1.748
 8871SOL     OW27511   6.990   6.888   1.416
 8871SOL    HW127512   6.992   6.919   1.512
 8871SOL    HW227513   0.064   6.885   1.380
 8872SOL     OW27514   0.011   4.259   3.706
 8872SOL    HW127515   0.036   4.199   3.630
 8872SOL    HW227516   6.940   4.300   3.688
 8873SOL     OW27517   2.109   1.176   3.157
 8873SOL    HW127518   2.045   1.250   3.178
 8873SOL    HW227519   2.202   1.214   3.148
 8874SOL     OW27520   2.944   6.072   0.665
 8874SOL    HW127521   2.957   6.050   0.569
 8874SOL    HW227522   2.994   6.154   0.689
 8875SOL     OW27523   6.099   3.409   4.661
 8875SOL    HW127524   6.027   3.346   4.689
 8875SOL    HW227525   6.165   3.361   4.603
 8876SOL     OW27526   4.152   1.201   0.717
 8876SOL    HW127527   4.148   1.112   0.763
 8876SOL    HW227528   4.060   1.240   0.712
 8877SOL     OW27529   0.840   4.695   1.065
 8877SOL    HW127530   0.832   4.633   1.143
 8877SOL    HW227531   0.799   4.783   1.088
 8878SOL     OW27532   5.072   3.348   1.833
 8878SOL    HW127533   5.163   3.345   1.875
 8878SOL    HW227534   5.022   3.264   1.854
 8879SOL     OW27535   6.800   4.353   3.616
 8879SOL    HW127536   6.716   4.363   3.669
 8879SOL    HW227537   6.786   4.286   3.543
 8880SOL     OW27538   4.145   2.147   3.206
 8880SOL    HW127539   4.153   2.157   3.107
 8880SOL    HW227540   4.235   2.122   3.244
 8881SOL     OW27541   3.499   4.986   2.367
 8881SOL    HW127542   3.482   4.921   2.293
 8881SOL    HW227543   3.439   5.066   2.356
 8882SOL     OW27544   4.035   0.932   0.375
 8882SOL    HW127545   3.976   0.901   0.300
 8882SOL    HW227546   4.120   0.880   0.374
 8883SOL     OW27547   7.011   6.328   2.727
 8883SOL    HW127548   7.019   6.390   2.805
 8883SOL    HW227549   6.992   6.236   2.760
 8884SOL     OW27550   4.010   2.773   5.815
 8884SOL    HW127551   3.963   2.714   5.749
 8884SOL    HW227552   4.094   2.810   5.774
 8885SOL     OW27553   5.571   5.196   0.839
 8885SOL    HW127554   5.591   5.140   0.759
 8885SOL    HW227555   5.489   5.251   0.822
 8886SOL     OW27556   4.752   6.584   0.177
 8886SOL    HW127557   4.840   6.567   0.134
 8886SOL    HW227558   4.679   6.557   0.114
 8887SOL     OW27559   3.703   0.283   1.667
 8887SOL    HW127560   3.669   0.234   1.586
 8887SOL    HW227561   3.756   0.363   1.638
 8888SOL     OW27562   3.504   2.130   2.361
 8888SOL    HW127563   3.517   2.223   2.324
 8888SOL    HW227564   3.438   2.082   2.304
 8889SOL     OW27565   1.256   4.966   0.133
 8889SOL    HW127566   1.348   4.994   0.163
 8889SOL    HW227567   1.204   4.936   0.213
 8890SOL     OW27568   1.531   6.005   0.036
 8890SOL    HW127569   1.509   6.071   0.108
 8890SOL    HW227570   1.524   6.049   6.965
 8891SOL     OW27571   6.460   3.590   5.260
 8891SOL    HW127572   6.396   3.523   5.223
 8891SOL    HW227573   6.488   3.563   5.352
 8892SOL     OW27574   2.646   5.139   4.588
 8892SOL    HW127575   2.660   5.080   4.508
 8892SOL    HW227576   2.555   5.179   4.584
 8893SOL     OW27577   0.513   4.589   5.521
 8893SOL    HW127578   0.462   4.594   5.435
 8893SOL    HW227579   0.550   4.680   5.543
 8894SOL     OW27580   5.024   2.271   1.915
 8894SOL    HW127581   5.113   2.318   1.920
 8894SOL    HW227582   5.006   2.244   1.821
 8895SOL     OW27583   6.436   3.679   1.023
 8895SOL    HW127584   6.498   3.739   1.074
 8895SOL    HW227585   6.391   3.731   0.951
 8896SOL     OW27586   1.114   1.215   3.557
 8896SOL    HW127587   1.150   1.167   3.478
 8896SOL    HW227588   1.079   1.149   3.624
 8897SOL     OW27589   1.856   5.278   4.475
 8897SOL    HW127590   1.936   5.222   4.454
 8897SOL    HW227591   1.773   5.221   4.473
 8898SOL     OW27592   5.578   4.268   2.235
 8898SOL    HW127593   5.590   4.217   2.150
 8898SOL    HW227594   5.495   4.237   2.281
 8899SOL     OW27595   1.944   3.797   2.481
 8899SOL    HW127596   1.889   3.715   2.495
 8899SOL    HW227597   2.024   3.775   2.425
 8900SOL     OW27598   4.139   1.863   4.696
 8900SOL    HW127599   4.059   1.821   4.738
 8900SOL    HW227600   4.110   1.938   4.636
 8901SOL     OW27601   1.608   5.461   5.029
 8901SOL    HW127602   1.682   5.526   5.019
 8901SOL    HW227603   1.568   5.441   4.939
 8902SOL     OW27604   0.698   4.905   6.795
 8902SOL    HW127605   0.734   4.961   6.870
 8902SOL    HW227606   0.631   4.959   6.744
 8903SOL     OW27607   1.004   0.582   4.928
 8903SOL    HW127608   1.044   0.506   4.876
 8903SOL    HW227609   1.077   0.640   4.963
 8904SOL     OW27610   0.652   0.888   3.320
 8904SOL    HW127611   0.679   0.847   3.233
 8904SOL    HW227612   0.556   0.869   3.337
 8905SOL     OW27613   1.767   4.251   1.572
 8905SOL    HW127614   1.758   4.288   1.664
 8905SOL    HW227615   1.791   4.154   1.577
 8906SOL     OW27616   6.255   0.484   6.869
 8906SOL    HW127617   6.168   0.483   6.819
 8906SOL    HW227618   6.237   0.488   6.967
 8907SOL     OW27619   3.023   3.238   5.143
 8907SOL    HW127620   3.104   3.210   5.195
 8907SOL    HW227621   2.944   3.185   5.174
 8908SOL     OW27622   1.549   4.985   6.129
 8908SOL    HW127623   1.451   4.986   6.107
 8908SOL    HW227624   1.599   5.038   6.060
 8909SOL     OW27625   2.164   5.816   2.008
 8909SOL    HW127626   2.200   5.743   2.066
 8909SOL    HW227627   2.223   5.828   1.928
 8910SOL     OW27628   1.087   1.021   3.787
 8910SOL    HW127629   1.162   1.023   3.853
 8910SOL    HW227630   1.085   0.932   3.742
 8911SOL     OW27631   5.354   2.833   4.633
 8911SOL    HW127632   5.355   2.912   4.571
 8911SOL    HW227633   5.272   2.778   4.615
 8912SOL     OW27634   3.505   2.894   3.615
 8912SOL    HW127635   3.540   2.984   3.641
 8912SOL    HW227636   3.544   2.824   3.675
 8913SOL     OW27637   5.274   5.761   1.235
 8913SOL    HW127638   5.355   5.738   1.288
 8913SOL    HW227639   5.281   5.721   1.143
 8914SOL     OW27640   4.902   5.656   5.378
 8914SOL    HW127641   4.899   5.755   5.393
 8914SOL    HW227642   4.827   5.612   5.429
 8915SOL     OW27643   2.090   0.888   3.569
 8915SOL    HW127644   2.143   0.963   3.530
 8915SOL    HW227645   2.059   0.912   3.661
 8916SOL     OW27646   5.793   1.167   2.382
 8916SOL    HW127647   5.793   1.098   2.454
 8916SOL    HW227648   5.699   1.200   2.367
 8917SOL     OW27649   5.366   2.002   0.491
 8917SOL    HW127650   5.380   1.986   0.393
 8917SOL    HW227651   5.438   2.062   0.526
 8918SOL     OW27652   1.045   3.332   2.157
 8918SOL    HW127653   0.948   3.346   2.134
 8918SOL    HW227654   1.060   3.355   2.253
 8919SOL     OW27655   6.502   2.688   2.488
 8919SOL    HW127656   6.468   2.762   2.430
 8919SOL    HW227657   6.565   2.631   2.436
 8920SOL     OW27658   1.244   1.721   0.302
 8920SOL    HW127659   1.250   1.702   0.400
 8920SOL    HW227660   1.308   1.795   0.279
 8921SOL     OW27661   0.970   3.060   1.337
 8921SOL    HW127662   1.062   3.076   1.302
 8921SOL    HW227663   0.906   3.057   1.261
 8922SOL     OW27664   2.994   4.965   3.412
 8922SOL    HW127665   2.900   4.938   3.432
 8922SOL    HW227666   3.007   5.061   3.436
 8923SOL     OW27667   2.535   1.162   3.321
 8923SOL    HW127668   2.633   1.179   3.311
 8923SOL    HW227669   2.520   1.077   3.372
 8924SOL     OW27670   5.930   5.024   4.398
 8924SOL    HW127671   5.951   5.108   4.348
 8924SOL    HW227672   5.873   5.045   4.478
 8925SOL     OW27673   0.374   6.837   3.727
 8925SOL    HW127674   0.452   6.823   3.787
 8925SOL    HW227675   0.402   6.825   3.632
 8926SOL     OW27676   5.957   1.596   0.051
 8926SOL    HW127677   5.871   1.560   0.017
 8926SOL    HW227678   5.993   1.536   0.123
 8927SOL     OW27679   1.235   0.945   6.373
 8927SOL    HW127680   1.195   0.854   6.359
 8927SOL    HW227681   1.285   0.973   6.291
 8928SOL     OW27682   1.679   0.042   5.704
 8928SOL    HW127683   1.761   7.009   5.727
 8928SOL    HW227684   1.701   0.140   5.702
 8929SOL     OW27685   0.175   1.670   3.510
 8929SOL    HW127686   0.198   1.661   3.413
 8929SOL    HW227687   0.080   1.641   3.524
 8930SOL     OW27688   2.132   5.212   3.517
 8930SOL    HW127689   2.108   5.144   3.448
 8930SOL    HW227690   2.140   5.302   3.473
 8931SOL     OW27691   4.368   3.399   0.338
 8931SOL    HW127692   4.422   3.462   0.281
 8931SOL    HW227693   4.283   3.377   0.291
 8932SOL     OW27694   0.874   3.865   3.499
 8932SOL    HW127695   0.916   3.899   3.415
 8932SOL    HW227696   0.851   3.768   3.487
 8933SOL     OW27697   4.736   1.928   6.563
 8933SOL    HW127698   4.647   1.886   6.578
 8933SOL    HW227699   4.763   1.915   6.467
 8934SOL     OW27700   2.400   5.775   2.944
 8934SOL    HW127701   2.479   5.793   3.003
 8934SOL    HW227702   2.414   5.819   2.855
 8935SOL     OW27703   6.829   5.254   0.141
 8935SOL    HW127704   6.891   5.244   0.220
 8935SOL    HW227705   6.774   5.337   0.153
 8936SOL     OW27706   3.853   2.792   1.033
 8936SOL    HW127707   3.836   2.849   1.113
 8936SOL    HW227708   3.952   2.783   1.020
 8937SOL     OW27709   0.830   0.521   6.107
 8937SOL    HW127710   0.837   0.595   6.175
 8937SOL    HW227711   0.865   0.554   6.019
 8938SOL     OW27712   4.621   6.122   1.684
 8938SOL    HW127713   4.709   6.107   1.730
 8938SOL    HW227714   4.565   6.039   1.692
 8939SOL     OW27715   5.757   2.112   4.821
 8939SOL    HW127716   5.778   2.193   4.767
 8939SOL    HW227717   5.680   2.132   4.882
 8940SOL     OW27718   5.971   7.001   2.578
 8940SOL    HW127719   5.982   0.081   2.569
 8940SOL    HW227720   5.969   6.959   2.487
 8941SOL     OW27721   4.085   1.534   6.911
 8941SOL    HW127722   4.022   1.599   6.952
 8941SOL    HW227723   4.036   1.451   6.885
 8942SOL     OW27724   1.126   2.070   5.157
 8942SOL    HW127725   1.192   2.098   5.226
 8942SOL    HW227726   1.169   2.072   5.067
 8943SOL     OW27727   5.232   3.675   0.784
 8943SOL    HW127728   5.298   3.600   0.790
 8943SOL    HW227729   5.261   3.750   0.844
 8944SOL     OW27730   4.235   5.856   1.338
 8944SOL    HW127731   4.274   5.905   1.416
 8944SOL    HW227732   4.308   5.808   1.289
 8945SOL     OW27733   2.141   1.211   4.009
 8945SOL    HW127734   2.190   1.292   4.039
 8945SOL    HW227735   2.043   1.232   4.000
 8946SOL     OW27736   4.338   0.455   4.396
 8946SOL    HW127737   4.283   0.520   4.448
 8946SOL    HW227738   4.428   0.444   4.439
 8947SOL     OW27739   3.932   4.125   5.073
 8947SOL    HW127740   3.944   4.200   5.138
 8947SOL    HW227741   3.840   4.129   5.034
 8948SOL     OW27742   5.825   5.272   3.089
 8948SOL    HW127743   5.878   5.311   3.165
 8948SOL    HW227744   5.879   5.201   3.044
 8949SOL     OW27745   1.718   5.144   5.749
 8949SOL    HW127746   1.736   5.192   5.835
 8949SOL    HW227747   1.636   5.183   5.706
 8950SOL     OW27748   4.854   2.625   4.720
 8950SOL    HW127749   4.881   2.685   4.795
 8950SOL    HW227750   4.786   2.671   4.664
 8951SOL     OW27751   2.759   2.275   5.585
 8951SOL    HW127752   2.765   2.187   5.631
 8951SOL    HW227753   2.833   2.334   5.618
 8952SOL     OW27754   6.345   6.635   3.262
 8952SOL    HW127755   6.416   6.574   3.296
 8952SOL    HW227756   6.269   6.580   3.226
 8953SOL     OW27757   1.762   5.298   5.978
 8953SOL    HW127758   1.784   5.272   6.072
 8953SOL    HW227759   1.753   5.397   5.972
 8954SOL     OW27760   2.371   6.285   5.547
 8954SOL    HW127761   2.335   6.369   5.505
 8954SOL    HW227762   2.308   6.210   5.528
 8955SOL     OW27763   6.476   3.768   4.633
 8955SOL    HW127764   6.575   3.773   4.621
 8955SOL    HW227765   6.431   3.817   4.558
 8956SOL     OW27766   1.245   0.630   4.632
 8956SOL    HW127767   1.269   0.639   4.728
 8956SOL    HW227768   1.147   0.647   4.620
 8957SOL     OW27769   2.865   6.071   1.730
 8957SOL    HW127770   2.935   6.100   1.795
 8957SOL    HW227771   2.901   6.079   1.637
 8958SOL     OW27772   2.622   0.037   4.398
 8958SOL    HW127773   2.546   0.008   4.340
 8958SOL    HW227774   2.588   0.063   4.488
 8959SOL     OW27775   3.638   5.477   0.326
 8959SOL    HW127776   3.718   5.426   0.294
 8959SOL    HW227777   3.661   5.574   0.333
 8960SOL     OW27778   3.946   6.001   0.879
 8960SOL    HW127779   3.881   6.076   0.888
 8960SOL    HW227780   3.954   5.953   0.966
 8961SOL     OW27781   0.953   2.927   3.991
 8961SOL    HW127782   1.005   3.012   3.982
 8961SOL    HW227783   1.012   2.849   3.968
 8962SOL     OW27784   4.750   0.662   3.523
 8962SOL    HW127785   4.828   0.723   3.536
 8962SOL    HW227786   4.765   0.606   3.441
 8963SOL     OW27787   0.278   1.037   3.654
 8963SOL    HW127788   0.301   1.134   3.664
 8963SOL    HW227789   0.329   0.984   3.721
 8964SOL     OW27790   6.856   3.148   2.828
 8964SOL    HW127791   6.811   3.128   2.741
 8964SOL    HW227792   6.829   3.079   2.895
 8965SOL     OW27793   1.765   5.026   1.604
 8965SOL    HW127794   1.680   4.998   1.559
 8965SOL    HW227795   1.838   4.963   1.580
 8966SOL     OW27796   3.790   2.174   5.168
 8966SOL    HW127797   3.871   2.163   5.112
 8966SOL    HW227798   3.711   2.135   5.121
 8967SOL     OW27799   5.067   6.399   0.734
 8967SOL    HW127800   5.016   6.348   0.803
 8967SOL    HW227801   5.155   6.354   0.718
 8968SOL     OW27802   5.206   4.305   3.174
 8968SOL    HW127803   5.305   4.318   3.160
 8968SOL    HW227804   5.169   4.249   3.100
 8969SOL     OW27805   6.625   0.345   4.455
 8969SOL    HW127806   6.542   0.392   4.425
 8969SOL    HW227807   6.683   0.410   4.504
 8970SOL     OW27808   2.963   2.210   1.485
 8970SOL    HW127809   2.976   2.276   1.559
 8970SOL    HW227810   2.867   2.211   1.457
 8971SOL     OW27811   4.032   6.362   2.692
 8971SOL    HW127812   3.955   6.426   2.690
 8971SOL    HW227813   3.999   6.270   2.715
 8972SOL     OW27814   5.099   0.361   4.806
 8972SOL    HW127815   5.096   0.268   4.843
 8972SOL    HW227816   5.174   0.368   4.741
 8973SOL     OW27817   1.915   5.085   6.140
 8973SOL    HW127818   1.974   5.161   6.114
 8973SOL    HW227819   1.888   5.034   6.059
 8974SOL     OW27820   0.735   2.920   3.831
 8974SOL    HW127821   0.682   2.837   3.846
 8974SOL    HW227822   0.822   2.914   3.880
 8975SOL     OW27823   3.839   0.859   5.962
 8975SOL    HW127824   3.917   0.827   5.909
 8975SOL    HW227825   3.860   0.853   6.060
 8976SOL     OW27826   1.558   5.293   4.102
 8976SOL    HW127827   1.632   5.234   4.135
 8976SOL    HW227828   1.494   5.312   4.176
 8977SOL     OW27829   5.578   1.315   6.556
 8977SOL    HW127830   5.637   1.381   6.603
 8977SOL    HW227831   5.631   1.232   6.535
 8978SOL     OW27832   5.945   4.736   1.308
 8978SOL    HW127833   5.977   4.659   1.253
 8978SOL    HW227834   6.007   4.750   1.385
 8979SOL     OW27835   1.168   4.293   5.065
 8979SOL    HW127836   1.121   4.336   4.988
 8979SOL    HW227837   1.117   4.311   5.149
 8980SOL     OW27838   4.035   3.219   4.836
 8980SOL    HW127839   3.949   3.211   4.886
 8980SOL    HW227840   4.028   3.170   4.749
 8981SOL     OW27841   2.947   1.746   5.157
 8981SOL    HW127842   2.975   1.818   5.093
 8981SOL    HW227843   2.950   1.782   5.251
 8982SOL     OW27844   3.535   4.304   0.654
 8982SOL    HW127845   3.439   4.304   0.682
 8982SOL    HW227846   3.588   4.250   0.718
 8983SOL     OW27847   4.841   4.734   1.177
 8983SOL    HW127848   4.808   4.712   1.086
 8983SOL    HW227849   4.851   4.650   1.230
 8984SOL     OW27850   1.501   6.464   3.611
 8984SOL    HW127851   1.407   6.477   3.643
 8984SOL    HW227852   1.513   6.370   3.579
 8985SOL     OW27853   3.138   3.525   5.894
 8985SOL    HW127854   3.127   3.527   5.794
 8985SOL    HW227855   3.155   3.430   5.923
 8986SOL     OW27856   3.151   6.599   2.421
 8986SOL    HW127857   3.141   6.614   2.323
 8986SOL    HW227858   3.197   6.512   2.437
 8987SOL     OW27859   5.473   6.583   1.949
 8987SOL    HW127860   5.517   6.667   1.981
 8987SOL    HW227861   5.374   6.588   1.967
 8988SOL     OW27862   0.736   4.655   4.833
 8988SOL    HW127863   0.744   4.738   4.778
 8988SOL    HW227864   0.781   4.579   4.785
 8989SOL     OW27865   2.596   2.721   6.797
 8989SOL    HW127866   2.552   2.681   6.878
 8989SOL    HW227867   2.681   2.670   6.778
 8990SOL     OW27868   6.716   5.295   3.288
 8990SOL    HW127869   6.698   5.280   3.385
 8990SOL    HW227870   6.801   5.348   3.278
 8991SOL     OW27871   1.359   2.193   5.252
 8991SOL    HW127872   1.426   2.194   5.178
 8991SOL    HW227873   1.369   2.276   5.307
 8992SOL     OW27874   6.897   2.457   1.350
 8992SOL    HW127875   6.990   2.419   1.347
 8992SOL    HW227876   6.836   2.401   1.294
 8993SOL     OW27877   3.798   2.197   0.878
 8993SOL    HW127878   3.702   2.172   0.895
 8993SOL    HW227879   3.811   2.217   0.781
 8994SOL     OW27880   1.699   5.581   2.428
 8994SOL    HW127881   1.643   5.498   2.423
 8994SOL    HW227882   1.796   5.556   2.432
 8995SOL     OW27883   0.505   0.189   1.398
 8995SOL    HW127884   0.553   0.107   1.429
 8995SOL    HW227885   0.448   0.224   1.472
 8996SOL     OW27886   4.008   6.572   5.817
 8996SOL    HW127887   4.089   6.629   5.834
 8996SOL    HW227888   3.931   6.631   5.794
 8997SOL     OW27889   6.114   0.329   4.837
 8997SOL    HW127890   6.136   0.232   4.842
 8997SOL    HW227891   6.014   0.340   4.839
 8998SOL     OW27892   6.821   3.837   4.178
 8998SOL    HW127893   6.919   3.833   4.157
 8998SOL    HW227894   6.778   3.751   4.149
 8999SOL     OW27895   4.168   6.574   6.089
 8999SOL    HW127896   4.255   6.530   6.064
 8999SOL    HW227897   4.149   6.648   6.026
 9000SOL     OW27898   1.448   4.074   1.470
 9000SOL    HW127899   1.423   4.098   1.564
 9000SOL    HW227900   1.426   4.151   1.410
 9001SOL     OW27901   1.064   5.565   1.126
 9001SOL    HW127902   1.134   5.503   1.090
 9001SOL    HW227903   1.107   5.632   1.187
 9002SOL     OW27904   0.240   4.866   6.118
 9002SOL    HW127905   0.286   4.797   6.174
 9002SOL    HW227906   0.288   4.954   6.127
 9003SOL     OW27907   5.526   0.224   0.792
 9003SOL    HW127908   5.528   0.323   0.800
 9003SOL    HW227909   5.566   0.196   0.705
 9004SOL     OW27910   5.738   4.772   1.505
 9004SOL    HW127911   5.708   4.867   1.493
 9004SOL    HW227912   5.817   4.755   1.445
 9005SOL     OW27913   5.418   0.598   5.464
 9005SOL    HW127914   5.468   0.590   5.377
 9005SOL    HW227915   5.459   0.671   5.519
 9006SOL     OW27916   4.050   5.589   0.389
 9006SOL    HW127917   4.030   5.575   0.486
 9006SOL    HW227918   4.015   5.678   0.360
 9007SOL     OW27919   1.462   0.995   2.821
 9007SOL    HW127920   1.495   1.026   2.732
 9007SOL    HW227921   1.530   1.016   2.891
 9008SOL     OW27922   0.018   5.820   2.050
 9008SOL    HW127923   0.042   5.909   2.088
 9008SOL    HW227924   7.008   5.759   2.123
 9009SOL     OW27925   3.538   6.741   1.972
 9009SOL    HW127926   3.499   6.740   1.880
 9009SOL    HW227927   3.637   6.750   1.966
 9010SOL     OW27928   1.716   5.778   4.729
 9010SOL    HW127929   1.711   5.726   4.814
 9010SOL    HW227930   1.625   5.815   4.707
 9011SOL     OW27931   2.105   2.054   2.226
 9011SOL    HW127932   2.177   2.071   2.159
 9011SOL    HW227933   2.119   1.964   2.267
 9012SOL     OW27934   2.375   6.004   6.737
 9012SOL    HW127935   2.319   6.078   6.775
 9012SOL    HW227936   2.335   5.916   6.762
 9013SOL     OW27937   1.855   0.165   4.587
 9013SOL    HW127938   1.786   0.103   4.624
 9013SOL    HW227939   1.892   0.128   4.502
 9014SOL     OW27940   5.521   3.189   3.789
 9014SOL    HW127941   5.533   3.153   3.696
 9014SOL    HW227942   5.515   3.114   3.854
 9015SOL     OW27943   4.530   0.372   6.338
 9015SOL    HW127944   4.446   0.374   6.283
 9015SOL    HW227945   4.506   0.366   6.435
 9016SOL     OW27946   4.537   5.434   5.734
 9016SOL    HW127947   4.631   5.402   5.747
 9016SOL    HW227948   4.521   5.513   5.792
 9017SOL     OW27949   3.619   6.894   5.480
 9017SOL    HW127950   3.536   6.949   5.474
 9017SOL    HW227951   3.621   6.829   5.404
 9018SOL     OW27952   3.560   4.638   0.486
 9018SOL    HW127953   3.473   4.618   0.531
 9018SOL    HW227954   3.629   4.572   0.515
 9019SOL     OW27955   0.579   3.372   3.579
 9019SOL    HW127956   0.570   3.467   3.550
 9019SOL    HW227957   0.668   3.359   3.622
 9020SOL     OW27958   5.128   4.589   3.049
 9020SOL    HW127959   5.037   4.582   3.090
 9020SOL    HW227960   5.176   4.501   3.059
 9021SOL     OW27961   0.373   1.231   3.958
 9021SOL    HW127962   0.377   1.322   3.999
 9021SOL    HW227963   0.422   1.232   3.871
 9022SOL     OW27964   3.940   3.862   6.363
 9022SOL    HW127965   3.982   3.940   6.316
 9022SOL    HW227966   4.011   3.798   6.392
 9023SOL     OW27967   6.829   4.804   0.347
 9023SOL    HW127968   6.912   4.847   0.382
 9023SOL    HW227969   6.785   4.864   0.281
 9024SOL     OW27970   2.169   5.384   6.339
 9024SOL    HW127971   2.141   5.365   6.244
 9024SOL    HW227972   2.239   5.318   6.367
 9025SOL     OW27973   0.878   5.977   1.517
 9025SOL    HW127974   0.785   5.945   1.497
 9025SOL    HW227975   0.942   5.901   1.505
 9026SOL     OW27976   5.402   1.357   0.645
 9026SOL    HW127977   5.338   1.433   0.656
 9026SOL    HW227978   5.407   1.306   0.731
 9027SOL     OW27979   0.988   4.103   3.636
 9027SOL    HW127980   1.071   4.090   3.691
 9027SOL    HW227981   0.932   4.020   3.640
 9028SOL     OW27982   3.320   4.608   6.555
 9028SOL    HW127983   3.392   4.567   6.610
 9028SOL    HW227984   3.305   4.703   6.583
 9029SOL     OW27985   4.439   6.762   4.221
 9029SOL    HW127986   4.466   6.858   4.209
 9029SOL    HW227987   4.487   6.706   4.154
 9030SOL     OW27988   3.261   2.099   2.199
 9030SOL    HW127989   3.309   2.103   2.111
 9030SOL    HW227990   3.162   2.106   2.182
 9031SOL     OW27991   4.792   6.876   4.747
 9031SOL    HW127992   4.711   6.828   4.781
 9031SOL    HW227993   4.777   6.903   4.652
 9032SOL     OW27994   5.326   2.361   1.515
 9032SOL    HW127995   5.253   2.295   1.536
 9032SOL    HW227996   5.415   2.320   1.533
 9033SOL     OW27997   0.895   6.523   2.803
 9033SOL    HW127998   0.972   6.574   2.840
 9033SOL    HW227999   0.907   6.425   2.823
 9034SOL     OW28000   4.743   6.789   4.344
 9034SOL    HW128001   4.680   6.816   4.271
 9034SOL    HW228002   4.731   6.850   4.422
 9035SOL     OW28003   2.850   5.497   6.356
 9035SOL    HW128004   2.867   5.412   6.308
 9035SOL    HW228005   2.889   5.573   6.305
 9036SOL     OW28006   1.048   4.586   5.242
 9036SOL    HW128007   1.001   4.528   5.175
 9036SOL    HW228008   0.986   4.608   5.317
 9037SOL     OW28009   0.026   0.858   2.318
 9037SOL    HW128010   6.952   0.884   2.342
 9037SOL    HW228011   0.078   0.838   2.401
 9038SOL     OW28012   3.949   3.639   5.766
 9038SOL    HW128013   4.009   3.561   5.784
 9038SOL    HW228014   3.959   3.667   5.671
 9039SOL     OW28015   4.405   6.484   6.616
 9039SOL    HW128016   4.309   6.507   6.603
 9039SOL    HW228017   4.412   6.392   6.656
 9040SOL     OW28018   1.715   2.214   1.749
 9040SOL    HW128019   1.802   2.189   1.793
 9040SOL    HW228020   1.658   2.263   1.815
 9041SOL     OW28021   6.042   2.070   3.051
 9041SOL    HW128022   5.998   2.105   3.134
 9041SOL    HW228023   5.972   2.045   2.985
 9042SOL     OW28024   4.507   5.587   0.465
 9042SOL    HW128025   4.603   5.562   0.451
 9042SOL    HW228026   4.481   5.656   0.397
 9043SOL     OW28027   2.758   2.598   1.299
 9043SOL    HW128028   2.668   2.593   1.254
 9043SOL    HW228029   2.755   2.545   1.384
 9044SOL     OW28030   0.958   0.734   0.455
 9044SOL    HW128031   0.991   0.823   0.486
 9044SOL    HW228032   0.894   0.746   0.379
 9045SOL     OW28033   4.240   0.959   3.645
 9045SOL    HW128034   4.318   0.943   3.705
 9045SOL    HW228035   4.235   0.886   3.577
 9046SOL     OW28036   3.453   2.986   1.953
 9046SOL    HW128037   3.553   2.990   1.952
 9046SOL    HW228038   3.422   2.912   1.893
 9047SOL     OW28039   1.204   4.520   6.185
 9047SOL    HW128040   1.152   4.578   6.122
 9047SOL    HW228041   1.244   4.443   6.135
 9048SOL     OW28042   7.014   1.449   5.740
 9048SOL    HW128043   6.958   1.379   5.784
 9048SOL    HW228044   6.959   1.498   5.672
 9049SOL     OW28045   2.296   6.535   5.488
 9049SOL    HW128046   2.213   6.554   5.436
 9049SOL    HW228047   2.337   6.620   5.518
 9050SOL     OW28048   0.608   4.468   0.578
 9050SOL    HW128049   0.597   4.540   0.647
 9050SOL    HW228050   0.662   4.502   0.502
 9051SOL     OW28051   2.079   1.028   1.904
 9051SOL    HW128052   2.139   1.037   1.984
 9051SOL    HW228053   2.063   0.931   1.885
 9052SOL     OW28054   1.899   3.396   6.306
 9052SOL    HW128055   1.931   3.446   6.226
 9052SOL    HW228056   1.879   3.460   6.380
 9053SOL     OW28057   1.041   0.677   6.682
 9053SOL    HW128058   0.991   0.756   6.716
 9053SOL    HW228059   1.133   0.705   6.655
 9054SOL     OW28060   1.584   5.587   2.837
 9054SOL    HW128061   1.548   5.506   2.790
 9054SOL    HW228062   1.644   5.558   2.912
 9055SOL     OW28063   0.490   2.882   5.708
 9055SOL    HW128064   0.413   2.856   5.766
 9055SOL    HW228065   0.553   2.805   5.698
 9056SOL     OW28066   6.112   2.402   3.964
 9056SOL    HW128067   6.077   2.372   3.875
 9056SOL    HW228068   6.036   2.413   4.028
 9057SOL     OW28069   4.500   2.066   3.932
 9057SOL    HW128070   4.435   2.127   3.978
 9057SOL    HW228071   4.593   2.086   3.965
 9058SOL     OW28072   2.590   0.289   5.926
 9058SOL    HW128073   2.613   0.288   5.829
 9058SOL    HW228074   2.491   0.288   5.937
 9059SOL     OW28075   1.098   2.084   3.257
 9059SOL    HW128076   1.022   2.075   3.322
 9059SOL    HW228077   1.111   1.997   3.209
 9060SOL     OW28078   4.827   3.361   5.246
 9060SOL    HW128079   4.765   3.427   5.203
 9060SOL    HW228080   4.916   3.405   5.261
 9061SOL     OW28081   2.010   5.041   3.054
 9061SOL    HW128082   2.108   5.058   3.038
 9061SOL    HW228083   1.966   5.127   3.080
 9062SOL     OW28084   1.819   6.227   1.673
 9062SOL    HW128085   1.801   6.207   1.770
 9062SOL    HW228086   1.892   6.167   1.640
 9063SOL     OW28087   3.016   1.861   2.465
 9063SOL    HW128088   2.992   1.849   2.369
 9063SOL    HW228089   3.053   1.953   2.480
 9064SOL     OW28090   5.221   4.141   6.991
 9064SOL    HW128091   5.187   4.049   7.010
 9064SOL    HW228092   5.189   4.204   0.043
 9065SOL     OW28093   3.094   0.827   1.174
 9065SOL    HW128094   3.046   0.745   1.141
 9065SOL    HW228095   3.185   0.831   1.133
 9066SOL     OW28096   4.986   6.607   0.026
 9066SOL    HW128097   4.980   6.676   6.973
 9066SOL    HW228098   5.026   6.648   0.108
 9067SOL     OW28099   1.395   0.317   1.601
 9067SOL    HW128100   1.407   0.221   1.628
 9067SOL    HW228101   1.406   0.326   1.503
 9068SOL     OW28102   1.793   6.066   6.645
 9068SOL    HW128103   1.856   6.039   6.718
 9068SOL    HW228104   1.699   6.062   6.678
 9069SOL     OW28105   1.440   2.285   6.244
 9069SOL    HW128106   1.397   2.327   6.323
 9069SOL    HW228107   1.459   2.354   6.175
 9070SOL     OW28108   1.099   4.681   4.027
 9070SOL    HW128109   1.195   4.706   4.016
 9070SOL    HW228110   1.066   4.639   3.942
 9071SOL     OW28111   4.945   5.938   0.067
 9071SOL    HW128112   4.970   5.898   6.998
 9071SOL    HW228113   4.967   5.875   0.141
 9072SOL     OW28114   4.961   4.528   0.371
 9072SOL    HW128115   4.985   4.624   0.387
 9072SOL    HW228116   4.953   4.481   0.459
 9073SOL     OW28117   2.267   0.623   1.007
 9073SOL    HW128118   2.266   0.677   1.091
 9073SOL    HW228119   2.175   0.618   0.969
 9074SOL     OW28120   0.297   0.636   2.106
 9074SOL    HW128121   0.202   0.660   2.124
 9074SOL    HW228122   0.330   0.688   2.027
 9075SOL     OW28123   0.033   0.288   1.618
 9075SOL    HW128124   7.008   0.212   1.570
 9075SOL    HW228125   0.085   0.343   1.552
 9076SOL     OW28126   1.097   1.923   4.853
 9076SOL    HW128127   1.179   1.979   4.863
 9076SOL    HW228128   1.118   1.844   4.795
 9077SOL     OW28129   5.792   6.456   1.986
 9077SOL    HW128130   5.703   6.412   1.972
 9077SOL    HW228131   5.779   6.541   2.037
 9078SOL     OW28132   4.562   2.932   5.665
 9078SOL    HW128133   4.541   3.023   5.700
 9078SOL    HW228134   4.583   2.938   5.567
 9079SOL     OW28135   3.485   0.522   5.388
 9079SOL    HW128136   3.525   0.448   5.333
 9079SOL    HW228137   3.397   0.548   5.350
 9080SOL     OW28138   4.702   1.435   6.771
 9080SOL    HW128139   4.789   1.428   6.820
 9080SOL    HW228140   4.641   1.495   6.822
 9081SOL     OW28141   5.452   6.850   3.278
 9081SOL    HW128142   5.394   6.884   3.352
 9081SOL    HW228143   5.543   6.830   3.314
 9082SOL     OW28144   2.634   0.412   2.345
 9082SOL    HW128145   2.731   0.435   2.338
 9082SOL    HW228146   2.579   0.480   2.297
 9083SOL     OW28147   4.572   4.574   3.889
 9083SOL    HW128148   4.644   4.626   3.934
 9083SOL    HW228149   4.595   4.477   3.892
 9084SOL     OW28150   4.080   3.593   2.637
 9084SOL    HW128151   4.092   3.645   2.552
 9084SOL    HW228152   4.086   3.495   2.616
 9085SOL     OW28153   0.780   3.100   0.694
 9085SOL    HW128154   0.809   3.004   0.694
 9085SOL    HW228155   0.685   3.107   0.664
 9086SOL     OW28156   6.718   3.526   6.836
 9086SOL    HW128157   6.724   3.532   6.737
 9086SOL    HW228158   6.793   3.577   6.878
 9087SOL     OW28159   5.209   3.241   2.545
 9087SOL    HW128160   5.124   3.230   2.492
 9087SOL    HW228161   5.287   3.234   2.483
 9088SOL     OW28162   5.704   5.637   1.586
 9088SOL    HW128163   5.625   5.578   1.603
 9088SOL    HW228164   5.672   5.731   1.569
 9089SOL     OW28165   4.252   0.933   5.430
 9089SOL    HW128166   4.210   1.017   5.466
 9089SOL    HW228167   4.198   0.901   5.352
 9090SOL     OW28168   6.080   1.899   3.432
 9090SOL    HW128169   6.148   1.880   3.503
 9090SOL    HW228170   6.073   1.998   3.420
 9091SOL     OW28171   3.955   2.792   6.083
 9091SOL    HW128172   4.032   2.731   6.102
 9091SOL    HW228173   3.939   2.797   5.985
 9092SOL     OW28174   7.012   3.272   6.072
 9092SOL    HW128175   0.063   3.320   6.020
 9092SOL    HW228176   0.020   3.177   6.084
 9093SOL     OW28177   1.745   6.603   5.037
 9093SOL    HW128178   1.832   6.636   5.002
 9093SOL    HW228179   1.761   6.531   5.104
 9094SOL     OW28180   1.600   3.658   0.756
 9094SOL    HW128181   1.501   3.667   0.769
 9094SOL    HW228182   1.625   3.698   0.667
 9095SOL     OW28183   0.100   6.745   6.500
 9095SOL    HW128184   0.021   6.689   6.475
 9095SOL    HW228185   0.165   6.691   6.553
 9096SOL     OW28186   6.000   5.379   3.717
 9096SOL    HW128187   5.982   5.381   3.815
 9096SOL    HW228188   6.029   5.286   3.690
 9097SOL     OW28189   1.561   2.736   6.095
 9097SOL    HW128190   1.523   2.762   6.184
 9097SOL    HW228191   1.508   2.781   6.023
 9098SOL     OW28192   2.165   4.630   4.260
 9098SOL    HW128193   2.144   4.539   4.295
 9098SOL    HW228194   2.131   4.638   4.167
 9099SOL     OW28195   2.477   1.700   6.969
 9099SOL    HW128196   2.425   1.734   0.029
 9099SOL    HW228197   2.542   1.631   6.999
 9100SOL     OW28198   1.663   4.905   4.049
 9100SOL    HW128199   1.738   4.850   4.011
 9100SOL    HW228200   1.642   4.872   4.141
 9101SOL     OW28201   0.262   2.138   0.560
 9101SOL    HW128202   0.250   2.187   0.474
 9101SOL    HW228203   0.207   2.181   0.631
 9102SOL     OW28204   4.096   1.111   3.254
 9102SOL    HW128205   4.096   1.012   3.265
 9102SOL    HW228206   4.046   1.136   3.171
 9103SOL     OW28207   6.280   0.573   1.477
 9103SOL    HW128208   6.240   0.568   1.569
 9103SOL    HW228209   6.347   0.499   1.466
 9104SOL     OW28210   6.263   2.040   6.144
 9104SOL    HW128211   6.168   2.023   6.169
 9104SOL    HW228212   6.274   2.136   6.119
 9105SOL     OW28213   2.879   0.928   6.678
 9105SOL    HW128214   2.804   0.932   6.612
 9105SOL    HW228215   2.917   0.835   6.679
 9106SOL     OW28216   2.290   3.112   6.445
 9106SOL    HW128217   2.281   3.026   6.395
 9106SOL    HW228218   2.256   3.101   6.538
 9107SOL     OW28219   3.597   0.918   0.824
 9107SOL    HW128220   3.618   0.861   0.903
 9107SOL    HW228221   3.680   0.967   0.796
 9108SOL     OW28222   6.645   5.861   5.920
 9108SOL    HW128223   6.735   5.887   5.954
 9108SOL    HW228224   6.574   5.896   5.981
 9109SOL     OW28225   5.430   4.231   2.703
 9109SOL    HW128226   5.527   4.219   2.682
 9109SOL    HW228227   5.387   4.285   2.630
 9110SOL     OW28228   1.060   6.867   2.676
 9110SOL    HW128229   1.079   6.963   2.657
 9110SOL    HW228230   1.144   6.823   2.710
 9111SOL     OW28231   3.914   2.669   5.549
 9111SOL    HW128232   3.943   2.725   5.471
 9111SOL    HW228233   3.817   2.646   5.539
 9112SOL     OW28234   0.683   5.151   2.195
 9112SOL    HW128235   0.781   5.153   2.176
 9112SOL    HW228236   0.632   5.159   2.110
 9113SOL     OW28237   6.390   0.495   4.398
 9113SOL    HW128238   6.339   0.465   4.479
 9113SOL    HW228239   6.358   0.447   4.317
 9114SOL     OW28240   1.165   0.690   6.324
 9114SOL    HW128241   1.120   0.604   6.299
 9114SOL    HW228242   1.220   0.677   6.406
 9115SOL     OW28243   5.223   3.965   5.171
 9115SOL    HW128244   5.141   4.002   5.214
 9115SOL    HW228245   5.240   4.012   5.085
 9116SOL     OW28246   0.887   6.308   3.822
 9116SOL    HW128247   0.891   6.215   3.783
 9116SOL    HW228248   0.792   6.340   3.819
 9117SOL     OW28249   1.735   6.941   0.182
 9117SOL    HW128250   1.818   6.896   0.150
 9117SOL    HW228251   1.749   6.975   0.275
 9118SOL     OW28252   6.601   4.481   1.447
 9118SOL    HW128253   6.501   4.487   1.441
 9118SOL    HW228254   6.642   4.529   1.370
 9119SOL     OW28255   3.667   0.937   1.129
 9119SOL    HW128256   3.694   1.032   1.116
 9119SOL    HW228257   3.740   0.889   1.179
 9120SOL     OW28258   6.631   4.081   4.495
 9120SOL    HW128259   6.702   4.150   4.489
 9120SOL    HW228260   6.601   4.073   4.590
 9121SOL     OW28261   4.115   0.522   4.200
 9121SOL    HW128262   4.118   0.622   4.191
 9121SOL    HW228263   4.187   0.493   4.263
 9122SOL     OW28264   0.246   1.990   2.081
 9122SOL    HW128265   0.266   2.084   2.057
 9122SOL    HW228266   0.215   1.940   2.000
 9123SOL     OW28267   0.644   6.319   4.643
 9123SOL    HW128268   0.601   6.240   4.599
 9123SOL    HW228269   0.644   6.307   4.742
 9124SOL     OW28270   4.059   5.568   0.671
 9124SOL    HW128271   4.149   5.600   0.644
 9124SOL    HW228272   4.066   5.514   0.755
 9125SOL     OW28273   5.337   6.713   1.499
 9125SOL    HW128274   5.356   6.678   1.591
 9125SOL    HW228275   5.251   6.674   1.466
 9126SOL     OW28276   4.135   4.923   0.841
 9126SOL    HW128277   4.095   4.885   0.758
 9126SOL    HW228278   4.213   4.868   0.869
 9127SOL     OW28279   6.513   4.476   5.019
 9127SOL    HW128280   6.512   4.576   5.024
 9127SOL    HW228281   6.427   4.443   4.979
 9128SOL     OW28282   5.644   4.019   6.344
 9128SOL    HW128283   5.656   3.973   6.432
 9128SOL    HW228284   5.616   3.953   6.275
 9129SOL     OW28285   6.797   3.072   0.813
 9129SOL    HW128286   6.868   3.043   0.750
 9129SOL    HW228287   6.710   3.029   0.789
 9130SOL     OW28288   3.156   3.243   5.716
 9130SOL    HW128289   3.124   3.256   5.810
 9130SOL    HW228290   3.256   3.237   5.716
 9131SOL     OW28291   6.041   2.668   0.693
 9131SOL    HW128292   6.108   2.614   0.642
 9131SOL    HW228293   5.995   2.731   0.632
 9132SOL     OW28294   1.309   4.123   3.596
 9132SOL    HW128295   1.274   4.113   3.689
 9132SOL    HW228296   1.370   4.047   3.574
 9133SOL     OW28297   5.107   0.143   0.890
 9133SOL    HW128298   5.053   0.134   0.806
 9133SOL    HW228299   5.178   0.072   0.892
 9134SOL     OW28300   4.673   4.668   6.714
 9134SOL    HW128301   4.748   4.710   6.662
 9134SOL    HW228302   4.593   4.658   6.654
 9135SOL     OW28303   6.549   5.370   2.425
 9135SOL    HW128304   6.521   5.350   2.331
 9135SOL    HW228305   6.538   5.287   2.481
 9136SOL     OW28306   0.789   5.128   6.958
 9136SOL    HW128307   0.888   5.113   6.953
 9136SOL    HW228308   0.764   5.154   0.032
 9137SOL     OW28309   5.615   5.380   6.115
 9137SOL    HW128310   5.630   5.365   6.213
 9137SOL    HW228311   5.673   5.455   6.083
 9138SOL     OW28312   1.559   4.360   6.730
 9138SOL    HW128313   1.581   4.457   6.721
 9138SOL    HW228314   1.584   4.328   6.821
 9139SOL     OW28315   0.116   0.272   1.205
 9139SOL    HW128316   0.018   0.258   1.215
 9139SOL    HW228317   0.136   0.306   1.113
 9140SOL     OW28318   1.666   4.410   2.430
 9140SOL    HW128319   1.585   4.466   2.413
 9140SOL    HW228320   1.669   4.335   2.364
 9141SOL     OW28321   0.359   5.834   4.741
 9141SOL    HW128322   0.430   5.893   4.778
 9141SOL    HW228323   0.337   5.862   4.648
 9142SOL     OW28324   1.360   4.703   3.899
 9142SOL    HW128325   1.385   4.630   3.835
 9142SOL    HW228326   1.422   4.781   3.888
 9143SOL     OW28327   5.876   3.572   2.633
 9143SOL    HW128328   5.865   3.479   2.669
 9143SOL    HW228329   5.814   3.585   2.555
 9144SOL     OW28330   2.572   4.451   5.532
 9144SOL    HW128331   2.537   4.379   5.471
 9144SOL    HW228332   2.579   4.537   5.482
 9145SOL     OW28333   2.606   6.397   6.422
 9145SOL    HW128334   2.671   6.359   6.488
 9145SOL    HW228335   2.531   6.441   6.470
 9146SOL     OW28336   6.378   1.954   4.620
 9146SOL    HW128337   6.295   1.989   4.575
 9146SOL    HW228338   6.451   2.021   4.611
 9147SOL     OW28339   4.267   0.556   6.283
 9147SOL    HW128340   4.281   0.642   6.233
 9147SOL    HW228341   4.336   0.548   6.355
 9148SOL     OW28342   4.205   5.635   2.403
 9148SOL    HW128343   4.113   5.606   2.431
 9148SOL    HW228344   4.258   5.555   2.376
 9149SOL     OW28345   0.250   4.331   1.526
 9149SOL    HW128346   0.257   4.232   1.519
 9149SOL    HW228347   0.246   4.371   1.435
 9150SOL     OW28348   3.165   3.906   6.831
 9150SOL    HW128349   3.169   3.810   6.861
 9150SOL    HW228350   3.089   3.918   6.767
 9151SOL     OW28351   2.210   3.138   4.012
 9151SOL    HW128352   2.154   3.056   4.021
 9151SOL    HW228353   2.287   3.133   4.076
 9152SOL     OW28354   1.771   5.113   2.069
 9152SOL    HW128355   1.842   5.105   1.999
 9152SOL    HW228356   1.776   5.205   2.110
 9153SOL     OW28357   0.255   3.806   0.339
 9153SOL    HW128358   0.165   3.829   0.302
 9153SOL    HW228359   0.318   3.883   0.323
 9154SOL     OW28360   4.341   5.478   3.130
 9154SOL    HW128361   4.340   5.559   3.071
 9154SOL    HW228362   4.248   5.454   3.155
 9155SOL     OW28363   1.082   6.214   2.600
 9155SOL    HW128364   1.034   6.163   2.671
 9155SOL    HW228365   1.037   6.302   2.586
 9156SOL     OW28366   6.868   4.230   5.622
 9156SOL    HW128367   6.931   4.307   5.610
 9156SOL    HW228368   6.826   4.208   5.534
 9157SOL     OW28369   1.897   4.332   5.092
 9157SOL    HW128370   1.969   4.262   5.089
 9157SOL    HW228371   1.905   4.393   5.014
 9158SOL     OW28372   6.900   3.154   4.529
 9158SOL    HW128373   6.851   3.133   4.444
 9158SOL    HW228374   6.968   3.225   4.511
 9159SOL     OW28375   2.090   0.860   3.922
 9159SOL    HW128376   2.021   0.915   3.874
 9159SOL    HW228377   2.047   0.776   3.956
 9160SOL     OW28378   0.545   3.529   6.278
 9160SOL    HW128379   0.584   3.451   6.230
 9160SOL    HW228380   0.572   3.614   6.234
 9161SOL     OW28381   5.482   2.854   2.789
 9161SOL    HW128382   5.392   2.859   2.746
 9161SOL    HW228383   5.549   2.825   2.722
 9162SOL     OW28384   4.443   1.835   2.197
 9162SOL    HW128385   4.422   1.905   2.128
 9162SOL    HW228386   4.491   1.759   2.154
 9163SOL     OW28387   1.855   3.431   3.397
 9163SOL    HW128388   1.830   3.445   3.301
 9163SOL    HW228389   1.949   3.461   3.412
 9164SOL     OW28390   3.210   0.083   0.641
 9164SOL    HW128391   3.161   0.162   0.605
 9164SOL    HW228392   3.183   0.067   0.736
 9165SOL     OW28393   5.572   0.998   6.706
 9165SOL    HW128394   5.589   0.899   6.712
 9165SOL    HW228395   5.535   1.020   6.616
 9166SOL     OW28396   4.278   6.275   1.716
 9166SOL    HW128397   4.300   6.213   1.641
 9166SOL    HW228398   4.356   6.279   1.779
 9167SOL     OW28399   1.168   1.884   4.477
 9167SOL    HW128400   1.105   1.880   4.399
 9167SOL    HW228401   1.144   1.814   4.543
 9168SOL     OW28402   6.315   6.087   4.969
 9168SOL    HW128403   6.302   6.000   5.017
 9168SOL    HW228404   6.240   6.149   4.992
 9169SOL     OW28405   6.237   5.828   6.877
 9169SOL    HW128406   6.189   5.849   6.962
 9169SOL    HW228407   6.224   5.902   6.811
 9170SOL     OW28408   2.325   0.918   5.724
 9170SOL    HW128409   2.318   0.836   5.667
 9170SOL    HW228410   2.333   0.999   5.665
 9171SOL     OW28411   4.191   5.451   0.205
 9171SOL    HW128412   4.125   5.400   0.150
 9171SOL    HW228413   4.144   5.494   0.282
 9172SOL     OW28414   4.740   1.220   6.110
 9172SOL    HW128415   4.691   1.257   6.031
 9172SOL    HW228416   4.776   1.295   6.166
 9173SOL     OW28417   5.994   4.425   5.235
 9173SOL    HW128418   5.919   4.404   5.298
 9173SOL    HW228419   6.071   4.462   5.286
 9174SOL     OW28420   5.964   4.230   6.908
 9174SOL    HW128421   5.899   4.300   6.879
 9174SOL    HW228422   6.056   4.254   6.875
 9175SOL     OW28423   2.169   1.256   1.739
 9175SOL    HW128424   2.089   1.272   1.681
 9175SOL    HW228425   2.158   1.169   1.788
 9176SOL     OW28426   1.594   0.823   2.330
 9176SOL    HW128427   1.547   0.783   2.409
 9176SOL    HW228428   1.662   0.889   2.361
 9177SOL     OW28429   0.565   5.887   3.317
 9177SOL    HW128430   0.485   5.838   3.349
 9177SOL    HW228431   0.563   5.981   3.351
 9178SOL     OW28432   1.377   3.405   0.631
 9178SOL    HW128433   1.414   3.363   0.548
 9178SOL    HW228434   1.423   3.492   0.648
 9179SOL     OW28435   4.088   5.012   2.994
 9179SOL    HW128436   4.164   5.076   3.002
 9179SOL    HW228437   4.115   4.925   3.036
 9180SOL     OW28438   0.369   0.840   4.913
 9180SOL    HW128439   0.280   0.838   4.867
 9180SOL    HW228440   0.420   0.920   4.882
 9181SOL     OW28441   2.669   2.040   3.296
 9181SOL    HW128442   2.639   2.079   3.209
 9181SOL    HW228443   2.730   2.104   3.342
 9182SOL     OW28444   6.533   1.968   2.697
 9182SOL    HW128445   6.606   1.998   2.636
 9182SOL    HW228446   6.446   1.971   2.648
 9183SOL     OW28447   2.763   1.673   5.637
 9183SOL    HW128448   2.664   1.677   5.626
 9183SOL    HW228449   2.808   1.721   5.561
 9184SOL     OW28450   2.694   5.060   1.601
 9184SOL    HW128451   2.699   4.993   1.527
 9184SOL    HW228452   2.771   5.046   1.664
 9185SOL     OW28453   1.113   0.992   5.275
 9185SOL    HW128454   1.195   0.963   5.326
 9185SOL    HW228455   1.128   1.082   5.236
 9186SOL     OW28456   5.570   6.921   6.012
 9186SOL    HW128457   5.529   6.858   6.078
 9186SOL    HW228458   5.664   6.942   6.040
 9187SOL     OW28459   4.949   3.011   1.166
 9187SOL    HW128460   4.894   2.932   1.139
 9187SOL    HW228461   4.895   3.070   1.227
 9188SOL     OW28462   1.195   0.540   2.332
 9188SOL    HW128463   1.116   0.480   2.345
 9188SOL    HW228464   1.166   0.623   2.284
 9189SOL     OW28465   2.884   1.054   6.153
 9189SOL    HW128466   2.918   0.971   6.198
 9189SOL    HW228467   2.842   1.030   6.066
 9190SOL     OW28468   3.942   0.933   5.539
 9190SOL    HW128469   3.997   1.006   5.579
 9190SOL    HW228470   3.853   0.930   5.584
 9191SOL     OW28471   5.781   0.309   1.203
 9191SOL    HW128472   5.758   0.216   1.232
 9191SOL    HW228473   5.861   0.340   1.253
 9192SOL     OW28474   5.064   4.627   4.453
 9192SOL    HW128475   5.069   4.528   4.459
 9192SOL    HW228476   5.054   4.654   4.357
 9193SOL     OW28477   4.035   3.327   2.568
 9193SOL    HW128478   4.069   3.236   2.590
 9193SOL    HW228479   3.989   3.325   2.480
 9194SOL     OW28480   3.195   4.901   3.159
 9194SOL    HW128481   3.191   4.886   3.061
 9194SOL    HW228482   3.104   4.921   3.194
 9195SOL     OW28483   0.847   3.330   3.729
 9195SOL    HW128484   0.904   3.283   3.663
 9195SOL    HW228485   0.828   3.270   3.806
 9196SOL     OW28486   5.438   5.671   3.093
 9196SOL    HW128487   5.458   5.683   2.996
 9196SOL    HW228488   5.498   5.600   3.130
 9197SOL     OW28489   4.449   2.431   0.213
 9197SOL    HW128490   4.525   2.405   0.153
 9197SOL    HW228491   4.411   2.519   0.182
 9198SOL     OW28492   6.240   3.142   5.168
 9198SOL    HW128493   6.162   3.196   5.199
 9198SOL    HW228494   6.310   3.203   5.130
 9199SOL     OW28495   0.761   3.565   6.678
 9199SOL    HW128496   0.780   3.548   6.581
 9199SOL    HW228497   0.847   3.583   6.726
 9200SOL     OW28498   4.522   6.326   1.824
 9200SOL    HW128499   4.580   6.266   1.769
 9200SOL    HW228500   4.526   6.297   1.920
 9201SOL     OW28501   0.229   2.968   2.398
 9201SOL    HW128502   0.198   2.949   2.305
 9201SOL    HW228503   0.312   3.025   2.394
 9202SOL     OW28504   1.752   6.089   3.834
 9202SOL    HW128505   1.762   6.126   3.926
 9202SOL    HW228506   1.676   6.134   3.787
 9203SOL     OW28507   5.310   1.916   0.740
 9203SOL    HW128508   5.213   1.895   0.747
 9203SOL    HW228509   5.332   1.945   0.647
 9204SOL     OW28510   4.846   4.435   2.417
 9204SOL    HW128511   4.873   4.427   2.321
 9204SOL    HW228512   4.749   4.414   2.427
 9205SOL     OW28513   4.278   2.332   1.399
 9205SOL    HW128514   4.262   2.340   1.497
 9205SOL    HW228515   4.191   2.320   1.352
 9206SOL     OW28516   0.091   6.257   5.262
 9206SOL    HW128517   0.164   6.293   5.203
 9206SOL    HW228518   0.061   6.168   5.227
 9207SOL     OW28519   5.167   6.690   0.238
 9207SOL    HW128520   5.161   6.787   0.212
 9207SOL    HW228521   5.171   6.683   0.337
 9208SOL     OW28522   5.344   4.557   1.605
 9208SOL    HW128523   5.436   4.560   1.643
 9208SOL    HW228524   5.286   4.624   1.653
 9209SOL     OW28525   4.904   0.433   4.418
 9209SOL    HW128526   4.908   0.506   4.350
 9209SOL    HW228527   4.939   0.348   4.377
 9210SOL     OW28528   1.200   0.038   0.018
 9210SOL    HW128529   1.259   0.043   0.099
 9210SOL    HW228530   1.106   0.021   0.046
 9211SOL     OW28531   5.272   1.571   6.156
 9211SOL    HW128532   5.238   1.619   6.237
 9211SOL    HW228533   5.194   1.541   6.100
 9212SOL     OW28534   6.137   3.514   6.322
 9212SOL    HW128535   6.215   3.469   6.278
 9212SOL    HW228536   6.077   3.552   6.251
 9213SOL     OW28537   0.015   5.619   2.536
 9213SOL    HW128538   0.069   5.571   2.605
 9213SOL    HW228539   6.956   5.562   2.508
 9214SOL     OW28540   2.223   1.435   6.310
 9214SOL    HW128541   2.167   1.359   6.343
 9214SOL    HW228542   2.263   1.411   6.221
 9215SOL     OW28543   0.118   4.088   3.499
 9215SOL    HW128544   0.146   4.003   3.454
 9215SOL    HW228545   0.083   4.152   3.431
 9216SOL     OW28546   2.132   6.929   3.927
 9216SOL    HW128547   2.135   7.013   3.980
 9216SOL    HW228548   2.216   6.920   3.872
 9217SOL     OW28549   3.411   2.363   0.251
 9217SOL    HW128550   3.444   2.440   0.306
 9217SOL    HW228551   3.332   2.393   0.198
 9218SOL     OW28552   4.512   6.035   5.716
 9218SOL    HW128553   4.434   6.001   5.768
 9218SOL    HW228554   4.585   5.967   5.716
 9219SOL     OW28555   3.731   2.668   6.383
 9219SOL    HW128556   3.709   2.753   6.334
 9219SOL    HW228557   3.826   2.644   6.365
 9220SOL     OW28558   0.663   6.902   3.691
 9220SOL    HW128559   0.680   6.951   3.777
 9220SOL    HW228560   0.602   6.957   3.633
 9221SOL     OW28561   2.787   1.617   2.155
 9221SOL    HW128562   2.777   1.545   2.224
 9221SOL    HW228563   2.801   1.576   2.065
 9222SOL     OW28564   2.189   5.748   3.345
 9222SOL    HW128565   2.108   5.697   3.317
 9222SOL    HW228566   2.270   5.691   3.333
 9223SOL     OW28567   6.140   2.312   4.673
 9223SOL    HW128568   6.123   2.403   4.710
 9223SOL    HW228569   6.158   2.247   4.747
 9224SOL     OW28570   1.785   5.318   2.684
 9224SOL    HW128571   1.689   5.300   2.661
 9224SOL    HW228572   1.790   5.370   2.769
 9225SOL     OW28573   0.629   5.162   5.646
 9225SOL    HW128574   0.690   5.229   5.689
 9225SOL    HW228575   0.559   5.211   5.593
 9226SOL     OW28576   0.890   6.931   4.791
 9226SOL    HW128577   0.814   6.992   4.768
 9226SOL    HW228578   0.878   6.844   4.744
 9227SOL     OW28579   3.811   3.617   0.347
 9227SOL    HW128580   3.794   3.633   0.250
 9227SOL    HW228581   3.909   3.629   0.365
 9228SOL     OW28582   3.855   3.366   5.175
 9228SOL    HW128583   3.788   3.311   5.126
 9228SOL    HW228584   3.860   3.335   5.270
 9229SOL     OW28585   0.406   5.039   0.658
 9229SOL    HW128586   0.337   5.003   0.720
 9229SOL    HW228587   0.460   4.964   0.620
 9230SOL     OW28588   3.497   0.197   6.296
 9230SOL    HW128589   3.506   0.253   6.379
 9230SOL    HW228590   3.401   0.194   6.268
 9231SOL     OW28591   5.854   6.719   1.287
 9231SOL    HW128592   5.773   6.713   1.345
 9231SOL    HW228593   5.828   6.705   1.191
 9232SOL     OW28594   1.006   5.302   1.910
 9232SOL    HW128595   1.000   5.243   1.830
 9232SOL    HW228596   1.100   5.337   1.919
 9233SOL     OW28597   1.197   0.294   5.742
 9233SOL    HW128598   1.185   0.361   5.815
 9233SOL    HW228599   1.141   0.319   5.663
 9234SOL     OW28600   3.475   3.857   6.383
 9234SOL    HW128601   3.525   3.930   6.337
 9234SOL    HW228602   3.522   3.833   6.468
 9235SOL     OW28603   2.460   2.346   3.180
 9235SOL    HW128604   2.425   2.439   3.186
 9235SOL    HW228605   2.421   2.301   3.099
 9236SOL     OW28606   2.287   3.899   6.591
 9236SOL    HW128607   2.304   3.937   6.682
 9236SOL    HW228608   2.189   3.903   6.571
 9237SOL     OW28609   6.766   5.348   3.849
 9237SOL    HW128610   6.861   5.380   3.859
 9237SOL    HW228611   6.734   5.312   3.936
 9238SOL     OW28612   1.426   2.440   5.337
 9238SOL    HW128613   1.453   2.396   5.422
 9238SOL    HW228614   1.492   2.511   5.313
 9239SOL     OW28615   1.660   6.140   6.335
 9239SOL    HW128616   1.713   6.140   6.251
 9239SOL    HW228617   1.723   6.140   6.414
 9240SOL     OW28618   3.730   1.745   5.152
 9240SOL    HW128619   3.683   1.830   5.132
 9240SOL    HW228620   3.685   1.670   5.102
 9241SOL     OW28621   5.652   6.021   6.916
 9241SOL    HW128622   5.576   5.990   6.859
 9241SOL    HW228623   5.668   6.118   6.901
 9242SOL     OW28624   2.664   2.705   0.098
 9242SOL    HW128625   2.678   2.608   0.080
 9242SOL    HW228626   2.628   2.716   0.191
 9243SOL     OW28627   2.256   0.526   0.397
 9243SOL    HW128628   2.309   0.459   0.450
 9243SOL    HW228629   2.183   0.479   0.348
 9244SOL     OW28630   2.877   6.540   6.726
 9244SOL    HW128631   2.809   6.505   6.790
 9244SOL    HW228632   2.912   6.628   6.760
 9245SOL     OW28633   0.725   4.505   2.734
 9245SOL    HW128634   0.626   4.492   2.741
 9245SOL    HW228635   0.767   4.420   2.702
 9246SOL     OW28636   5.189   0.274   0.202
 9246SOL    HW128637   5.221   0.354   0.151
 9246SOL    HW228638   5.257   0.249   0.271
 9247SOL     OW28639   3.310   6.709   2.844
 9247SOL    HW128640   3.279   6.765   2.767
 9247SOL    HW228641   3.381   6.759   2.894
 9248SOL     OW28642   2.861   0.358   7.013
 9248SOL    HW128643   2.955   0.390   0.003
 9248SOL    HW228644   2.802   0.407   0.059
 9249SOL     OW28645   3.799   0.795   0.519
 9249SOL    HW128646   3.859   0.722   0.489
 9249SOL    HW228647   3.849   0.856   0.581
 9250SOL     OW28648   0.311   3.733   2.621
 9250SOL    HW128649   0.287   3.651   2.568
 9250SOL    HW228650   0.353   3.800   2.560
 9251SOL     OW28651   4.181   2.060   1.431
 9251SOL    HW128652   4.217   2.123   1.500
 9251SOL    HW228653   4.129   2.110   1.362
 9252SOL     OW28654   5.567   1.898   4.759
 9252SOL    HW128655   5.654   1.947   4.758
 9252SOL    HW228656   5.577   1.816   4.816
 9253SOL     OW28657   2.278   4.840   3.545
 9253SOL    HW128658   2.257   4.937   3.555
 9253SOL    HW228659   2.356   4.829   3.483
 9254SOL     OW28660   6.863   6.234   2.339
 9254SOL    HW128661   6.893   6.209   2.247
 9254SOL    HW228662   6.911   6.177   2.406
 9255SOL     OW28663   6.729   3.342   1.330
 9255SOL    HW128664   6.699   3.311   1.240
 9255SOL    HW228665   6.827   3.363   1.328
 9256SOL     OW28666   2.731   6.372   1.222
 9256SOL    HW128667   2.680   6.310   1.282
 9256SOL    HW228668   2.740   6.331   1.131
 9257SOL     OW28669   6.519   6.229   4.810
 9257SOL    HW128670   6.535   6.315   4.858
 9257SOL    HW228671   6.444   6.179   4.854
 9258SOL     OW28672   5.399   4.638   2.786
 9258SOL    HW128673   5.429   4.636   2.882
 9258SOL    HW228674   5.303   4.665   2.782
 9259SOL     OW28675   0.805   2.392   6.699
 9259SOL    HW128676   0.873   2.417   6.630
 9259SOL    HW228677   0.719   2.440   6.680
 9260SOL     OW28678   5.086   4.453   4.997
 9260SOL    HW128679   5.063   4.357   5.008
 9260SOL    HW228680   5.166   4.462   4.937
 9261SOL     OW28681   1.609   3.337   1.345
 9261SOL    HW128682   1.692   3.314   1.396
 9261SOL    HW228683   1.547   3.390   1.403
 9262SOL     OW28684   0.539   6.462   6.086
 9262SOL    HW128685   0.633   6.429   6.080
 9262SOL    HW228686   0.483   6.397   6.137
 9263SOL     OW28687   2.517   4.580   3.121
 9263SOL    HW128688   2.603   4.621   3.089
 9263SOL    HW228689   2.485   4.514   3.053
 9264SOL     OW28690   5.004   3.692   5.838
 9264SOL    HW128691   4.933   3.719   5.903
 9264SOL    HW228692   5.073   3.764   5.832
 9265SOL     OW28693   4.832   6.988   2.356
 9265SOL    HW128694   4.845   0.047   2.417
 9265SOL    HW228695   4.881   6.909   2.392
 9266SOL     OW28696   0.549   4.674   1.631
 9266SOL    HW128697   0.504   4.623   1.558
 9266SOL    HW228698   0.509   4.648   1.719
 9267SOL     OW28699   0.062   1.416   3.765
 9267SOL    HW128700   7.017   1.458   3.829
 9267SOL    HW228701   0.133   1.482   3.740
 9268SOL     OW28702   0.601   1.187   1.203
 9268SOL    HW128703   0.626   1.256   1.135
 9268SOL    HW228704   0.586   1.230   1.292
 9269SOL     OW28705   3.311   6.867   0.602
 9269SOL    HW128706   3.278   6.807   0.675
 9269SOL    HW228707   3.276   6.959   0.615
 9270SOL     OW28708   2.471   1.157   4.913
 9270SOL    HW128709   2.485   1.123   4.820
 9270SOL    HW228710   2.487   1.083   4.978
 9271SOL     OW28711   1.673   4.603   5.864
 9271SOL    HW128712   1.714   4.525   5.817
 9271SOL    HW228713   1.578   4.614   5.834
 9272SOL     OW28714   6.792   6.588   5.492
 9272SOL    HW128715   6.778   6.639   5.407
 9272SOL    HW228716   6.868   6.524   5.479
 9273SOL     OW28717   6.451   3.636   3.485
 9273SOL    HW128718   6.530   3.696   3.497
 9273SOL    HW228719   6.476   3.543   3.513
 9274SOL     OW28720   6.676   3.396   0.250
 9274SOL    HW128721   6.755   3.416   0.191
 9274SOL    HW228722   6.635   3.310   0.222
 9275SOL     OW28723   4.957   1.911   0.322
 9275SOL    HW128724   5.005   1.967   0.254
 9275SOL    HW228725   4.955   1.959   0.410
 9276SOL     OW28726   1.742   3.778   0.246
 9276SOL    HW128727   1.776   3.688   0.220
 9276SOL    HW228728   1.643   3.781   0.236
 9277SOL     OW28729   3.562   5.793   2.424
 9277SOL    HW128730   3.543   5.847   2.506
 9277SOL    HW228731   3.486   5.731   2.406
 9278SOL     OW28732   1.087   0.364   5.472
 9278SOL    HW128733   1.091   0.291   5.403
 9278SOL    HW228734   0.996   0.366   5.513
 9279SOL     OW28735   3.592   5.890   1.726
 9279SOL    HW128736   3.521   5.882   1.656
 9279SOL    HW228737   3.604   5.987   1.749
 9280SOL     OW28738   1.167   4.770   1.186
 9280SOL    HW128739   1.264   4.744   1.180
 9280SOL    HW228740   1.130   4.781   1.094
 9281SOL     OW28741   1.239   5.531   0.687
 9281SOL    HW128742   1.252   5.518   0.785
 9281SOL    HW228743   1.276   5.619   0.659
 9282SOL     OW28744   1.902   0.232   4.852
 9282SOL    HW128745   1.856   0.215   4.765
 9282SOL    HW228746   1.966   0.157   4.871
 9283SOL     OW28747   5.108   5.415   6.751
 9283SOL    HW128748   5.145   5.500   6.713
 9283SOL    HW228749   5.127   5.411   6.849
 9284SOL     OW28750   4.301   6.240   1.081
 9284SOL    HW128751   4.280   6.171   1.012
 9284SOL    HW228752   4.342   6.320   1.037
 9285SOL     OW28753   0.026   5.910   3.226
 9285SOL    HW128754   7.008   5.946   3.312
 9285SOL    HW228755   6.996   5.827   3.201
 9286SOL     OW28756   5.053   6.392   1.505
 9286SOL    HW128757   4.999   6.331   1.564
 9286SOL    HW228758   5.059   6.352   1.413
 9287SOL     OW28759   4.544   4.264   0.470
 9287SOL    HW128760   4.459   4.230   0.509
 9287SOL    HW228761   4.536   4.363   0.454
 9288SOL     OW28762   3.804   1.134   2.679
 9288SOL    HW128763   3.759   1.048   2.704
 9288SOL    HW228764   3.894   1.115   2.640
 9289SOL     OW28765   4.363   6.054   2.474
 9289SOL    HW128766   4.320   6.011   2.553
 9289SOL    HW228767   4.329   6.147   2.464
 9290SOL     OW28768   4.973   1.356   3.673
 9290SOL    HW128769   5.058   1.323   3.714
 9290SOL    HW228770   4.955   1.306   3.588
 9291SOL     OW28771   0.678   4.268   5.625
 9291SOL    HW128772   0.683   4.363   5.594
 9291SOL    HW228773   0.752   4.215   5.584
 9292SOL     OW28774   1.636   2.116   6.820
 9292SOL    HW128775   1.551   2.064   6.814
 9292SOL    HW228776   1.634   2.175   6.901
 9293SOL     OW28777   4.703   0.978   5.168
 9293SOL    HW128778   4.686   1.073   5.143
 9293SOL    HW228779   4.709   0.971   5.268
 9294SOL     OW28780   5.182   6.126   5.648
 9294SOL    HW128781   5.246   6.054   5.619
 9294SOL    HW228782   5.170   6.122   5.747
 9295SOL     OW28783   6.548   0.507   2.873
 9295SOL    HW128784   6.640   0.495   2.835
 9295SOL    HW228785   6.487   0.542   2.802
 9296SOL     OW28786   1.715   3.718   5.278
 9296SOL    HW128787   1.647   3.752   5.212
 9296SOL    HW228788   1.728   3.786   5.350
 9297SOL     OW28789   6.755   5.301   2.051
 9297SOL    HW128790   6.846   5.328   2.083
 9297SOL    HW228791   6.751   5.308   1.952
 9298SOL     OW28792   0.314   4.474   6.128
 9298SOL    HW128793   0.223   4.450   6.161
 9298SOL    HW228794   0.344   4.560   6.170
 9299SOL     OW28795   2.975   2.164   3.899
 9299SOL    HW128796   3.051   2.144   3.838
 9299SOL    HW228797   2.920   2.239   3.861
 9300SOL     OW28798   2.603   5.673   5.905
 9300SOL    HW128799   2.624   5.597   5.844
 9300SOL    HW228800   2.655   5.754   5.876
 9301SOL     OW28801   0.295   3.483   4.198
 9301SOL    HW128802   0.392   3.484   4.221
 9301SOL    HW228803   0.279   3.422   4.121
 9302SOL     OW28804   3.301   5.283   3.835
 9302SOL    HW128805   3.339   5.270   3.927
 9302SOL    HW228806   3.229   5.352   3.839
 9303SOL     OW28807   2.402   4.610   0.127
 9303SOL    HW128808   2.352   4.589   0.043
 9303SOL    HW228809   2.464   4.535   0.149
 9304SOL     OW28810   5.851   5.949   5.859
 9304SOL    HW128811   5.916   6.005   5.807
 9304SOL    HW228812   5.759   5.963   5.823
 9305SOL     OW28813   1.703   1.560   1.279
 9305SOL    HW128814   1.749   1.477   1.248
 9305SOL    HW228815   1.630   1.583   1.215
 9306SOL     OW28816   6.755   6.375   4.620
 9306SOL    HW128817   6.701   6.319   4.557
 9306SOL    HW228818   6.851   6.346   4.615
 9307SOL     OW28819   2.110   4.186   1.016
 9307SOL    HW128820   2.046   4.223   1.084
 9307SOL    HW228821   2.202   4.218   1.038
 9308SOL     OW28822   2.454   3.664   1.252
 9308SOL    HW128823   2.390   3.641   1.179
 9308SOL    HW228824   2.518   3.733   1.219
 9309SOL     OW28825   4.066   5.419   5.663
 9309SOL    HW128826   3.982   5.408   5.716
 9309SOL    HW228827   4.136   5.355   5.695
 9310SOL     OW28828   0.056   6.302   6.243
 9310SOL    HW128829   6.994   6.328   6.190
 9310SOL    HW228830   0.113   6.383   6.257
 9311SOL     OW28831   5.773   4.619   0.364
 9311SOL    HW128832   5.765   4.684   0.440
 9311SOL    HW228833   5.686   4.570   0.353
 9312SOL     OW28834   5.899   3.324   4.037
 9312SOL    HW128835   5.861   3.258   4.102
 9312SOL    HW228836   5.850   3.317   3.949
 9313SOL     OW28837   0.282   0.539   1.779
 9313SOL    HW128838   0.382   0.542   1.788
 9313SOL    HW228839   0.253   0.603   1.708
 9314SOL     OW28840   5.306   4.789   1.161
 9314SOL    HW128841   5.227   4.812   1.103
 9314SOL    HW228842   5.278   4.722   1.230
 9315SOL     OW28843   5.967   5.488   5.738
 9315SOL    HW128844   5.903   5.515   5.666
 9315SOL    HW228845   6.018   5.568   5.769
 9316SOL     OW28846   5.282   6.273   0.641
 9316SOL    HW128847   5.252   6.178   0.633
 9316SOL    HW228848   5.292   6.313   0.549
 9317SOL     OW28849   2.720   6.105   3.088
 9317SOL    HW128850   2.799   6.147   3.044
 9317SOL    HW228851   2.638   6.159   3.067
 9318SOL     OW28852   3.293   6.946   3.610
 9318SOL    HW128853   3.386   6.913   3.594
 9318SOL    HW228854   3.282   0.017   3.568
 9319SOL     OW28855   3.561   2.058   0.567
 9319SOL    HW128856   3.513   2.145   0.572
 9319SOL    HW228857   3.545   2.016   0.478
 9320SOL     OW28858   6.408   6.861   0.433
 9320SOL    HW128859   6.485   6.856   0.497
 9320SOL    HW228860   6.437   6.829   0.343
 9321SOL     OW28861   0.960   2.453   4.094
 9321SOL    HW128862   0.970   2.515   4.172
 9321SOL    HW228863   0.865   2.455   4.062
 9322SOL     OW28864   5.394   3.033   0.316
 9322SOL    HW128865   5.310   2.979   0.315
 9322SOL    HW228866   5.429   3.041   0.222
 9323SOL     OW28867   0.797   2.195   4.983
 9323SOL    HW128868   0.732   2.178   5.057
 9323SOL    HW228869   0.866   2.124   4.982
 9324SOL     OW28870   0.736   4.380   1.035
 9324SOL    HW128871   0.678   4.419   0.964
 9324SOL    HW228872   0.684   4.312   1.087
 9325SOL     OW28873   1.113   4.440   3.187
 9325SOL    HW128874   1.140   4.367   3.248
 9325SOL    HW228875   1.187   4.507   3.180
 9326SOL     OW28876   4.808   4.803   1.427
 9326SOL    HW128877   4.755   4.727   1.467
 9326SOL    HW228878   4.791   4.807   1.329
 9327SOL     OW28879   2.382   1.632   3.204
 9327SOL    HW128880   2.451   1.560   3.192
 9327SOL    HW228881   2.300   1.607   3.154
 9328SOL     OW28882   1.227   6.828   3.240
 9328SOL    HW128883   1.221   6.756   3.171
 9328SOL    HW228884   1.135   6.850   3.272
 9329SOL     OW28885   1.915   4.843   6.285
 9329SOL    HW128886   1.853   4.788   6.229
 9329SOL    HW228887   1.907   4.939   6.258
 9330SOL     OW28888   0.310   6.600   0.932
 9330SOL    HW128889   0.262   6.658   0.998
 9330SOL    HW228890   0.260   6.599   0.845
 9331SOL     OW28891   1.891   4.843   4.815
 9331SOL    HW128892   1.978   4.829   4.861
 9331SOL    HW228893   1.900   4.915   4.747
 9332SOL     OW28894   6.343   5.117   0.262
 9332SOL    HW128895   6.314   5.022   0.272
 9332SOL    HW228896   6.307   5.171   0.338
 9333SOL     OW28897   1.675   5.021   0.681
 9333SOL    HW128898   1.704   5.001   0.774
 9333SOL    HW228899   1.707   5.112   0.655
 9334SOL     OW28900   7.006   5.220   0.328
 9334SOL    HW128901   0.068   5.163   0.343
 9334SOL    HW228902   7.014   5.304   0.382
 9335SOL     OW28903   0.235   3.542   0.986
 9335SOL    HW128904   0.154   3.569   1.039
 9335SOL    HW228905   0.316   3.588   1.024
 9336SOL     OW28906   4.255   6.005   5.182
 9336SOL    HW128907   4.260   5.976   5.277
 9336SOL    HW228908   4.233   6.102   5.177
 9337SOL     OW28909   3.232   1.474   4.618
 9337SOL    HW128910   3.231   1.571   4.645
 9337SOL    HW228911   3.169   1.461   4.541
 9338SOL     OW28912   4.745   6.631   0.829
 9338SOL    HW128913   4.774   6.724   0.851
 9338SOL    HW228914   4.821   6.568   0.844
 9339SOL     OW28915   0.088   3.463   5.015
 9339SOL    HW128916   7.009   3.485   5.012
 9339SOL    HW228917   0.131   3.494   4.930
 9340SOL     OW28918   2.339   4.664   2.100
 9340SOL    HW128919   2.357   4.625   2.010
 9340SOL    HW228920   2.291   4.751   2.090
 9341SOL     OW28921   5.842   5.526   0.632
 9341SOL    HW128922   5.819   5.524   0.729
 9341SOL    HW228923   5.838   5.434   0.594
 9342SOL     OW28924   2.713   0.256   5.138
 9342SOL    HW128925   2.801   0.291   5.107
 9342SOL    HW228926   2.658   0.331   5.175
 9343SOL     OW28927   5.358   3.663   1.586
 9343SOL    HW128928   5.288   3.643   1.655
 9343SOL    HW228929   5.429   3.721   1.626
 9344SOL     OW28930   5.835   0.258   4.814
 9344SOL    HW128931   5.816   0.252   4.912
 9344SOL    HW228932   5.847   0.166   4.778
 9345SOL     OW28933   0.052   4.650   6.284
 9345SOL    HW128934   0.013   4.660   6.192
 9345SOL    HW228935   0.026   4.728   6.340
 9346SOL     OW28936   4.875   0.307   2.130
 9346SOL    HW128937   4.922   0.244   2.191
 9346SOL    HW228938   4.799   0.260   2.085
 9347SOL     OW28939   4.793   6.715   1.924
 9347SOL    HW128940   4.725   6.723   1.997
 9347SOL    HW228941   4.850   6.797   1.923
 9348SOL     OW28942   2.136   5.048   1.794
 9348SOL    HW128943   2.107   5.120   1.858
 9348SOL    HW228944   2.098   4.960   1.823
 9349SOL     OW28945   6.488   5.769   1.155
 9349SOL    HW128946   6.512   5.691   1.213
 9349SOL    HW228947   6.531   5.758   1.066
 9350SOL     OW28948   6.410   0.256   6.846
 9350SOL    HW128949   6.327   0.311   6.837
 9350SOL    HW228950   6.388   0.160   6.834
 9351SOL     OW28951   4.895   3.865   6.413
 9351SOL    HW128952   4.862   3.898   6.501
 9351SOL    HW228953   4.817   3.842   6.355
 9352SOL     OW28954   2.269   2.289   0.489
 9352SOL    HW128955   2.175   2.321   0.506
 9352SOL    HW228956   2.308   2.341   0.413
 9353SOL     OW28957   1.143   3.091   2.216
 9353SOL    HW128958   1.118   3.173   2.165
 9353SOL    HW228959   1.242   3.091   2.231
 9354SOL     OW28960   5.305   2.257   2.620
 9354SOL    HW128961   5.300   2.318   2.540
 9354SOL    HW228962   5.340   2.168   2.592
 9355SOL     OW28963   0.109   1.592   2.090
 9355SOL    HW128964   0.095   1.494   2.084
 9355SOL    HW228965   0.083   1.625   2.181
 9356SOL     OW28966   4.714   2.669   2.429
 9356SOL    HW128967   4.804   2.627   2.424
 9356SOL    HW228968   4.698   2.704   2.521
 9357SOL     OW28969   2.487   5.099   6.636
 9357SOL    HW128970   2.478   5.022   6.573
 9357SOL    HW228971   2.533   5.069   6.719
 9358SOL     OW28972   5.117   3.698   2.034
 9358SOL    HW128973   5.107   3.656   2.124
 9358SOL    HW228974   5.027   3.725   1.999
 9359SOL     OW28975   4.463   5.472   6.248
 9359SOL    HW128976   4.448   5.563   6.286
 9359SOL    HW228977   4.449   5.474   6.149
 9360SOL     OW28978   1.299   1.354   5.007
 9360SOL    HW128979   1.306   1.271   4.952
 9360SOL    HW228980   1.225   1.344   5.073
 9361SOL     OW28981   1.981   1.320   2.672
 9361SOL    HW128982   1.985   1.287   2.578
 9361SOL    HW228983   2.027   1.408   2.679
 9362SOL     OW28984   1.684   1.091   3.043
 9362SOL    HW128985   1.602   1.148   3.050
 9362SOL    HW228986   1.750   1.136   2.983
 9363SOL     OW28987   1.410   6.538   2.004
 9363SOL    HW128988   1.337   6.500   2.061
 9363SOL    HW228989   1.494   6.485   2.019
 9364SOL     OW28990   5.396   4.220   1.266
 9364SOL    HW128991   5.300   4.213   1.293
 9364SOL    HW228992   5.410   4.177   1.177
 9365SOL     OW28993   1.862   1.217   3.540
 9365SOL    HW128994   1.846   1.152   3.465
 9365SOL    HW228995   1.956   1.251   3.535
 9366SOL     OW28996   3.189   1.842   1.884
 9366SOL    HW128997   3.134   1.925   1.891
 9366SOL    HW228998   3.130   1.766   1.855
 9367SOL     OW28999   5.597   6.822   3.531
 9367SOL    HW129000   5.683   6.868   3.507
 9367SOL    HW229001   5.558   6.865   3.613
 9368SOL     OW29002   5.198   2.983   0.694
 9368SOL    HW129003   5.247   3.068   0.677
 9368SOL    HW229004   5.160   2.983   0.786
 9369SOL     OW29005   0.272   1.425   5.378
 9369SOL    HW129006   0.354   1.479   5.360
 9369SOL    HW229007   0.252   1.367   5.299
 9370SOL     OW29008   5.559   5.450   2.763
 9370SOL    HW129009   5.476   5.488   2.804
 9370SOL    HW229010   5.560   5.472   2.665
 9371SOL     OW29011   1.373   6.598   0.589
 9371SOL    HW129012   1.458   6.550   0.608
 9371SOL    HW229013   1.373   6.686   0.637
 9372SOL     OW29014   5.531   5.325   0.235
 9372SOL    HW129015   5.556   5.390   0.307
 9372SOL    HW229016   5.567   5.234   0.259
 9373SOL     OW29017   5.222   2.582   4.090
 9373SOL    HW129018   5.129   2.607   4.118
 9373SOL    HW229019   5.243   2.490   4.123
 9374SOL     OW29020   5.184   4.243   6.752
 9374SOL    HW129021   5.251   4.192   6.699
 9374SOL    HW229022   5.193   4.219   6.849
 9375SOL     OW29023   6.583   0.683   4.403
 9375SOL    HW129024   6.508   0.617   4.400
 9375SOL    HW229025   6.602   0.708   4.498
 9376SOL     OW29026   2.267   3.172   1.784
 9376SOL    HW129027   2.310   3.147   1.697
 9376SOL    HW229028   2.291   3.267   1.806
 9377SOL     OW29029   6.243   4.903   3.313
 9377SOL    HW129030   6.241   4.934   3.217
 9377SOL    HW229031   6.219   4.980   3.372
 9378SOL     OW29032   3.795   6.208   0.954
 9378SOL    HW129033   3.702   6.183   0.980
 9378SOL    HW229034   3.855   6.201   1.034
 9379SOL     OW29035   5.428   5.242   5.342
 9379SOL    HW129036   5.340   5.279   5.370
 9379SOL    HW229037   5.451   5.275   5.250
 9380SOL     OW29038   6.083   5.758   5.735
 9380SOL    HW129039   6.030   5.839   5.761
 9380SOL    HW229040   6.130   5.774   5.649
 9381SOL     OW29041   1.432   0.625   0.035
 9381SOL    HW129042   1.493   0.563   0.085
 9381SOL    HW229043   1.485   0.677   6.987
 9382SOL     OW29044   5.323   1.558   3.021
 9382SOL    HW129045   5.403   1.551   2.961
 9382SOL    HW229046   5.260   1.483   3.000
 9383SOL     OW29047   6.644   5.241   6.112
 9383SOL    HW129048   6.582   5.185   6.167
 9383SOL    HW229049   6.590   5.303   6.055
 9384SOL     OW29050   4.121   6.683   3.302
 9384SOL    HW129051   4.037   6.735   3.284
 9384SOL    HW229052   4.098   6.589   3.323
 9385SOL     OW29053   3.754   0.622   4.073
 9385SOL    HW129054   3.681   0.616   4.141
 9385SOL    HW229055   3.826   0.682   4.107
 9386SOL     OW29056   3.979   0.240   5.553
 9386SOL    HW129057   3.905   0.207   5.494
 9386SOL    HW229058   4.028   0.162   5.592
 9387SOL     OW29059   4.748   5.516   0.362
 9387SOL    HW129060   4.745   5.489   0.266
 9387SOL    HW229061   4.837   5.555   0.383
 9388SOL     OW29062   6.713   0.080   1.913
 9388SOL    HW129063   6.639   0.020   1.942
 9388SOL    HW229064   6.749   0.050   1.825
 9389SOL     OW29065   2.968   1.068   0.579
 9389SOL    HW129066   3.047   1.062   0.640
 9389SOL    HW229067   2.890   1.107   0.628
 9390SOL     OW29068   3.470   5.459   1.211
 9390SOL    HW129069   3.466   5.552   1.175
 9390SOL    HW229070   3.382   5.436   1.253
 9391SOL     OW29071   6.266   1.388   4.417
 9391SOL    HW129072   6.195   1.319   4.406
 9391SOL    HW229073   6.250   1.463   4.353
 9392SOL     OW29074   0.847   6.460   4.511
 9392SOL    HW129075   0.880   6.398   4.440
 9392SOL    HW229076   0.767   6.420   4.556
 9393SOL     OW29077   3.951   1.760   5.321
 9393SOL    HW129078   3.883   1.739   5.251
 9393SOL    HW229079   3.912   1.826   5.386
 9394SOL     OW29080   6.292   2.163   1.959
 9394SOL    HW129081   6.253   2.223   2.028
 9394SOL    HW229082   6.289   2.068   1.992
 9395SOL     OW29083   2.256   2.715   6.494
 9395SOL    HW129084   2.257   2.734   6.593
 9395SOL    HW229085   2.275   2.800   6.445
 9396SOL     OW29086   0.225   1.027   6.168
 9396SOL    HW129087   0.235   0.929   6.187
 9396SOL    HW229088   0.178   1.039   6.080
 9397SOL     OW29089   2.033   2.110   0.702
 9397SOL    HW129090   1.988   2.043   0.761
 9397SOL    HW229091   2.095   2.167   0.756
 9398SOL     OW29092   2.510   1.712   1.648
 9398SOL    HW129093   2.449   1.634   1.635
 9398SOL    HW229094   2.485   1.761   1.731
 9399SOL     OW29095   0.068   0.410   5.811
 9399SOL    HW129096   0.168   0.408   5.815
 9399SOL    HW229097   0.039   0.481   5.747
 9400SOL     OW29098   3.768   1.743   3.519
 9400SOL    HW129099   3.694   1.682   3.549
 9400SOL    HW229100   3.847   1.729   3.578
 9401SOL     OW29101   4.769   6.890   3.803
 9401SOL    HW129102   4.809   6.978   3.829
 9401SOL    HW229103   4.822   6.816   3.843
 9402SOL     OW29104   2.722   5.329   6.706
 9402SOL    HW129105   2.640   5.379   6.678
 9402SOL    HW229106   2.803   5.383   6.682
 9403SOL     OW29107   5.668   0.307   4.277
 9403SOL    HW129108   5.673   0.209   4.296
 9403SOL    HW229109   5.703   0.324   4.185
 9404SOL     OW29110   1.504   3.892   5.958
 9404SOL    HW129111   1.459   3.882   5.870
 9404SOL    HW229112   1.599   3.922   5.945
 9405SOL     OW29113   0.771   0.599   1.340
 9405SOL    HW129114   0.710   0.613   1.418
 9405SOL    HW229115   0.828   0.680   1.327
 9406SOL     OW29116   6.710   1.088   5.340
 9406SOL    HW129117   6.620   1.105   5.299
 9406SOL    HW229118   6.698   1.046   5.430
 9407SOL     OW29119   3.746   5.735   2.986
 9407SOL    HW129120   3.743   5.699   2.892
 9407SOL    HW229121   3.657   5.721   3.029
 9408SOL     OW29122   3.863   1.967   6.740
 9408SOL    HW129123   3.839   2.047   6.795
 9408SOL    HW229124   3.950   1.930   6.772
 9409SOL     OW29125   6.009   3.781   3.366
 9409SOL    HW129126   5.984   3.767   3.271
 9409SOL    HW229127   5.927   3.777   3.424
 9410SOL     OW29128   4.412   6.672   1.444
 9410SOL    HW129129   4.453   6.616   1.515
 9410SOL    HW229130   4.465   6.663   1.360
 9411SOL     OW29131   4.881   5.505   1.742
 9411SOL    HW129132   4.926   5.445   1.807
 9411SOL    HW229133   4.822   5.569   1.791
 9412SOL     OW29134   6.253   2.895   3.204
 9412SOL    HW129135   6.274   2.886   3.107
 9412SOL    HW229136   6.333   2.868   3.258
 9413SOL     OW29137   3.756   5.202   3.492
 9413SOL    HW129138   3.699   5.172   3.415
 9413SOL    HW229139   3.741   5.142   3.570
 9414SOL     OW29140   1.953   0.252   2.489
 9414SOL    HW129141   1.947   0.158   2.455
 9414SOL    HW229142   1.889   0.264   2.566
 9415SOL     OW29143   1.975   1.251   2.400
 9415SOL    HW129144   1.964   1.226   2.304
 9415SOL    HW229145   2.066   1.290   2.414
 9416SOL     OW29146   1.513   2.794   1.850
 9416SOL    HW129147   1.581   2.736   1.894
 9416SOL    HW229148   1.544   2.889   1.850
 9417SOL     OW29149   1.649   0.134   5.052
 9417SOL    HW129150   1.584   0.208   5.041
 9417SOL    HW229151   1.708   0.128   4.972
 9418SOL     OW29152   4.670   4.017   0.988
 9418SOL    HW129153   4.679   3.946   0.917
 9418SOL    HW229154   4.682   3.976   1.078
 9419SOL     OW29155   2.646   5.403   4.255
 9419SOL    HW129156   2.580   5.448   4.315
 9419SOL    HW229157   2.609   5.315   4.225
 9420SOL     OW29158   1.796   0.505   3.961
 9420SOL    HW129159   1.733   0.433   3.993
 9420SOL    HW229160   1.743   0.588   3.940
 9421SOL     OW29161   1.772   5.189   4.776
 9421SOL    HW129162   1.698   5.165   4.712
 9421SOL    HW229163   1.822   5.268   4.742
 9422SOL     OW29164   4.165   0.926   2.751
 9422SOL    HW129165   4.104   0.940   2.829
 9422SOL    HW229166   4.254   0.894   2.783
 9423SOL     OW29167   4.925   0.564   4.702
 9423SOL    HW129168   5.003   0.530   4.755
 9423SOL    HW229169   4.927   0.523   4.610
 9424SOL     OW29170   3.396   6.175   3.899
 9424SOL    HW129171   3.344   6.093   3.874
 9424SOL    HW229172   3.332   6.248   3.925
 9425SOL     OW29173   0.877   5.536   3.097
 9425SOL    HW129174   0.778   5.537   3.089
 9425SOL    HW229175   0.904   5.475   3.172
 9426SOL     OW29176   3.565   5.692   0.747
 9426SOL    HW129177   3.504   5.647   0.682
 9426SOL    HW229178   3.583   5.785   0.717
 9427SOL     OW29179   3.441   4.999   3.920
 9427SOL    HW129180   3.350   5.004   3.879
 9427SOL    HW229181   3.503   5.061   3.873
 9428SOL     OW29182   4.820   6.341   2.427
 9428SOL    HW129183   4.747   6.318   2.491
 9428SOL    HW229184   4.807   6.435   2.393
 9429SOL     OW29185   0.502   3.548   3.007
 9429SOL    HW129186   0.515   3.487   2.929
 9429SOL    HW229187   0.574   3.533   3.074
 9430SOL     OW29188   5.948   0.072   1.808
 9430SOL    HW129189   5.936   6.992   1.800
 9430SOL    HW229190   5.888   0.118   1.743
 9431SOL     OW29191   6.561   4.138   6.991
 9431SOL    HW129192   6.477   4.115   0.022
 9431SOL    HW229193   6.568   4.238   6.983
 9432SOL     OW29194   6.380   6.973   4.045
 9432SOL    HW129195   6.358   7.018   4.132
 9432SOL    HW229196   6.381   6.874   4.058
 9433SOL     OW29197   2.307   5.547   4.080
 9433SOL    HW129198   2.268   5.467   4.033
 9433SOL    HW229199   2.393   5.573   4.037
 9434SOL     OW29200   5.632   4.444   3.339
 9434SOL    HW129201   5.600   4.535   3.365
 9434SOL    HW229202   5.566   4.402   3.277
 9435SOL     OW29203   2.234   2.255   4.901
 9435SOL    HW129204   2.308   2.316   4.930
 9435SOL    HW229205   2.166   2.307   4.849
 9436SOL     OW29206   3.160   1.726   5.456
 9436SOL    HW129207   3.162   1.823   5.480
 9436SOL    HW229208   3.175   1.716   5.357
 9437SOL     OW29209   0.425   5.566   4.289
 9437SOL    HW129210   0.511   5.584   4.336
 9437SOL    HW229211   0.410   5.638   4.220
 9438SOL     OW29212   0.875   6.571   2.260
 9438SOL    HW129213   0.915   6.642   2.203
 9438SOL    HW229214   0.808   6.520   2.207
 9439SOL     OW29215   1.305   3.661   0.726
 9439SOL    HW129216   1.258   3.602   0.791
 9439SOL    HW229217   1.244   3.734   0.696
 9440SOL     OW29218   3.720   5.615   4.717
 9440SOL    HW129219   3.624   5.621   4.745
 9440SOL    HW229220   3.763   5.704   4.729
 9441SOL     OW29221   1.571   5.672   5.293
 9441SOL    HW129222   1.514   5.638   5.368
 9441SOL    HW229223   1.660   5.626   5.296
 9442SOL     OW29224   1.015   3.705   0.957
 9442SOL    HW129225   1.005   3.606   0.970
 9442SOL    HW229226   0.968   3.753   1.030
 9443SOL     OW29227   1.229   3.119   1.274
 9443SOL    HW129228   1.247   3.209   1.315
 9443SOL    HW229229   1.303   3.097   1.210
 9444SOL     OW29230   1.404   4.496   5.799
 9444SOL    HW129231   1.422   4.412   5.850
 9444SOL    HW229232   1.370   4.474   5.707
 9445SOL     OW29233   6.234   3.188   1.628
 9445SOL    HW129234   6.319   3.160   1.584
 9445SOL    HW229235   6.156   3.152   1.577
 9446SOL     OW29236   5.453   3.928   0.222
 9446SOL    HW129237   5.544   3.937   0.182
 9446SOL    HW229238   5.411   3.843   0.191
 9447SOL     OW29239   5.612   1.845   2.206
 9447SOL    HW129240   5.609   1.746   2.203
 9447SOL    HW229241   5.700   1.875   2.243
 9448SOL     OW29242   6.128   6.080   0.184
 9448SOL    HW129243   6.226   6.078   0.162
 9448SOL    HW229244   6.111   6.018   0.260
 9449SOL     OW29245   6.043   5.201   5.405
 9449SOL    HW129246   6.099   5.155   5.473
 9449SOL    HW229247   6.082   5.290   5.383
 9450SOL     OW29248   2.813   6.095   3.841
 9450SOL    HW129249   2.729   6.042   3.848
 9450SOL    HW229250   2.846   6.118   3.933
 9451SOL     OW29251   4.382   3.460   5.635
 9451SOL    HW129252   4.398   3.528   5.707
 9451SOL    HW229253   4.404   3.499   5.546
 9452SOL     OW29254   2.974   3.717   0.747
 9452SOL    HW129255   3.010   3.714   0.840
 9452SOL    HW229256   3.048   3.743   0.684
 9453SOL     OW29257   3.202   5.481   1.326
 9453SOL    HW129258   3.148   5.463   1.244
 9453SOL    HW229259   3.165   5.427   1.402
 9454SOL     OW29260   2.198   2.033   5.356
 9454SOL    HW129261   2.258   1.960   5.323
 9454SOL    HW229262   2.139   1.998   5.429
 9455SOL     OW29263   1.979   1.897   2.835
 9455SOL    HW129264   2.027   1.922   2.919
 9455SOL    HW229265   2.012   1.952   2.759
 9456SOL     OW29266   1.216   3.018   0.714
 9456SOL    HW129267   1.248   2.966   0.793
 9456SOL    HW229268   1.195   3.112   0.742
 9457SOL     OW29269   6.495   3.386   6.914
 9457SOL    HW129270   6.459   3.325   6.844
 9457SOL    HW229271   6.574   3.436   6.879
 9458SOL     OW29272   0.988   6.256   4.654
 9458SOL    HW129273   0.946   6.198   4.585
 9458SOL    HW229274   0.924   6.328   4.681
 9459SOL     OW29275   4.469   5.893   1.772
 9459SOL    HW129276   4.424   5.847   1.848
 9459SOL    HW229277   4.456   5.841   1.688
 9460SOL     OW29278   1.300   3.263   5.740
 9460SOL    HW129279   1.345   3.352   5.729
 9460SOL    HW229280   1.307   3.212   5.654
 9461SOL     OW29281   1.672   0.301   2.997
 9461SOL    HW129282   1.638   0.241   3.069
 9461SOL    HW229283   1.750   0.354   3.031
 9462SOL     OW29284   0.481   2.800   3.047
 9462SOL    HW129285   0.427   2.881   3.024
 9462SOL    HW229286   0.473   2.733   2.973
 9463SOL     OW29287   6.198   1.941   6.854
 9463SOL    HW129288   6.189   1.924   6.756
 9463SOL    HW229289   6.115   1.911   6.900
 9464SOL     OW29290   4.206   6.669   5.464
 9464SOL    HW129291   4.158   6.737   5.519
 9464SOL    HW229292   4.174   6.577   5.490
 9465SOL     OW29293   5.205   6.301   4.247
 9465SOL    HW129294   5.137   6.270   4.314
 9465SOL    HW229295   5.183   6.394   4.217
 9466SOL     OW29296   3.430   1.531   0.194
 9466SOL    HW129297   3.501   1.478   0.149
 9466SOL    HW229298   3.351   1.473   0.212
 9467SOL     OW29299   1.734   3.219   2.257
 9467SOL    HW129300   1.731   3.306   2.306
 9467SOL    HW229301   1.676   3.153   2.303
 9468SOL     OW29302   0.860   2.444   6.108
 9468SOL    HW129303   0.791   2.384   6.148
 9468SOL    HW229304   0.823   2.488   6.026
 9469SOL     OW29305   6.993   4.430   2.611
 9469SOL    HW129306   6.922   4.385   2.557
 9469SOL    HW229307   0.061   4.383   2.600
 9470SOL     OW29308   6.771   3.618   1.445
 9470SOL    HW129309   6.739   3.665   1.364
 9470SOL    HW229310   6.702   3.552   1.476
 9471SOL     OW29311   0.538   2.525   6.021
 9471SOL    HW129312   0.508   2.615   6.053
 9471SOL    HW229313   0.499   2.454   6.079
 9472SOL     OW29314   6.694   2.208   5.236
 9472SOL    HW129315   6.618   2.151   5.205
 9472SOL    HW229316   6.764   2.212   5.164
 9473SOL     OW29317   3.172   5.823   5.034
 9473SOL    HW129318   3.144   5.729   5.055
 9473SOL    HW229319   3.167   5.878   5.117
 9474SOL     OW29320   3.140   5.203   3.563
 9474SOL    HW129321   3.100   5.276   3.619
 9474SOL    HW229322   3.136   5.117   3.613
 9475SOL     OW29323   1.755   3.229   1.740
 9475SOL    HW129324   1.834   3.171   1.718
 9475SOL    HW229325   1.751   3.244   1.839
 9476SOL     OW29326   2.925   3.594   5.375
 9476SOL    HW129327   2.887   3.503   5.359
 9476SOL    HW229328   2.958   3.632   5.289
 9477SOL     OW29329   0.682   1.949   0.842
 9477SOL    HW129330   0.608   2.015   0.848
 9477SOL    HW229331   0.743   1.975   0.766
 9478SOL     OW29332   5.430   3.991   5.371
 9478SOL    HW129333   5.360   3.973   5.301
 9478SOL    HW229334   5.391   3.972   5.461
 9479SOL     OW29335   5.519   5.636   5.036
 9479SOL    HW129336   5.434   5.688   5.045
 9479SOL    HW229337   5.524   5.595   4.945
 9480SOL     OW29338   5.938   3.895   6.519
 9480SOL    HW129339   5.845   3.869   6.546
 9480SOL    HW229340   6.000   3.819   6.539
 9481SOL     OW29341   6.362   3.269   2.770
 9481SOL    HW129342   6.285   3.206   2.765
 9481SOL    HW229343   6.434   3.239   2.707
 9482SOL     OW29344   4.445   0.240   2.330
 9482SOL    HW129345   4.349   0.268   2.326
 9482SOL    HW229346   4.474   0.237   2.425
 9483SOL     OW29347   1.489   1.728   0.748
 9483SOL    HW129348   1.500   1.712   0.846
 9483SOL    HW229349   1.564   1.785   0.714
 9484SOL     OW29350   6.288   0.792   3.152
 9484SOL    HW129351   6.212   0.735   3.122
 9484SOL    HW229352   6.341   0.743   3.221
 9485SOL     OW29353   1.127   0.194   2.553
 9485SOL    HW129354   1.218   0.231   2.537
 9485SOL    HW229355   1.116   0.170   2.650
 9486SOL     OW29356   2.837   6.409   1.966
 9486SOL    HW129357   2.775   6.340   2.003
 9486SOL    HW229358   2.802   6.442   1.878
 9487SOL     OW29359   3.207   3.473   4.290
 9487SOL    HW129360   3.217   3.481   4.389
 9487SOL    HW229361   3.115   3.501   4.263
 9488SOL     OW29362   1.087   1.373   1.432
 9488SOL    HW129363   1.169   1.420   1.463
 9488SOL    HW229364   1.012   1.439   1.422
 9489SOL     OW29365   2.666   4.328   0.741
 9489SOL    HW129366   2.755   4.367   0.764
 9489SOL    HW229367   2.654   4.329   0.642
 9490SOL     OW29368   4.953   1.555   0.019
 9490SOL    HW129369   4.866   1.541   0.066
 9490SOL    HW229370   4.998   1.467   0.006
 9491SOL     OW29371   6.457   5.431   5.968
 9491SOL    HW129372   6.412   5.439   5.879
 9491SOL    HW229373   6.544   5.481   5.966
 9492SOL     OW29374   2.573   4.506   1.400
 9492SOL    HW129375   2.650   4.534   1.458
 9492SOL    HW229376   2.608   4.460   1.318
 9493SOL     OW29377   5.350   5.978   2.491
 9493SOL    HW129378   5.313   6.037   2.563
 9493SOL    HW229379   5.364   6.032   2.408
 9494SOL     OW29380   3.160   3.251   6.005
 9494SOL    HW129381   3.254   3.220   6.016
 9494SOL    HW229382   3.115   3.254   6.095
 9495SOL     OW29383   5.330   2.350   4.224
 9495SOL    HW129384   5.341   2.355   4.323
 9495SOL    HW229385   5.328   2.255   4.195
 9496SOL     OW29386   6.310   4.116   0.100
 9496SOL    HW129387   6.288   4.170   0.019
 9496SOL    HW229388   6.230   4.061   0.126
 9497SOL     OW29389   0.670   5.759   6.023
 9497SOL    HW129390   0.588   5.711   5.993
 9497SOL    HW229391   0.682   5.842   5.967
 9498SOL     OW29392   3.983   0.229   6.907
 9498SOL    HW129393   3.999   0.152   6.845
 9498SOL    HW229394   4.027   0.211   6.995
 9499SOL     OW29395   4.252   4.248   6.084
 9499SOL    HW129396   4.323   4.239   6.014
 9499SOL    HW229397   4.189   4.321   6.059
 9500SOL     OW29398   5.391   5.667   1.504
 9500SOL    HW129399   5.294   5.670   1.526
 9500SOL    HW229400   5.417   5.574   1.480
 9501SOL     OW29401   3.331   2.155   4.687
 9501SOL    HW129402   3.324   2.107   4.600
 9501SOL    HW229403   3.296   2.248   4.677
 9502SOL     OW29404   3.443   3.245   5.750
 9502SOL    HW129405   3.465   3.213   5.658
 9502SOL    HW229406   3.454   3.344   5.755
 9503SOL     OW29407   1.385   6.766   1.840
 9503SOL    HW129408   1.411   6.715   1.923
 9503SOL    HW229409   1.443   6.847   1.831
 9504SOL     OW29410   0.586   3.086   0.328
 9504SOL    HW129411   0.664   3.065   0.269
 9504SOL    HW229412   0.611   3.160   0.391
 9505SOL     OW29413   4.811   2.976   3.142
 9505SOL    HW129414   4.903   2.962   3.107
 9505SOL    HW229415   4.809   3.056   3.202
 9506SOL     OW29416   0.024   1.879   0.961
 9506SOL    HW129417   6.948   1.854   0.939
 9506SOL    HW229418   0.025   1.929   1.047
 9507SOL     OW29419   1.155   2.118   4.630
 9507SOL    HW129420   1.162   2.025   4.593
 9507SOL    HW229421   1.064   2.131   4.669
 9508SOL     OW29422   4.635   1.622   6.190
 9508SOL    HW129423   4.733   1.643   6.186
 9508SOL    HW229424   4.621   1.524   6.180
 9509SOL     OW29425   3.145   0.435   6.211
 9509SOL    HW129426   3.228   0.478   6.247
 9509SOL    HW229427   3.149   0.434   6.111
 9510SOL     OW29428   6.652   4.597   2.769
 9510SOL    HW129429   6.555   4.620   2.781
 9510SOL    HW229430   6.659   4.511   2.720
 9511SOL     OW29431   2.285   1.186   1.493
 9511SOL    HW129432   2.283   1.143   1.583
 9511SOL    HW229433   2.345   1.135   1.433
 9512SOL     OW29434   1.287   3.378   4.724
 9512SOL    HW129435   1.320   3.400   4.816
 9512SOL    HW229436   1.232   3.295   4.728
 9513SOL     OW29437   2.237   4.123   4.361
 9513SOL    HW129438   2.234   4.062   4.281
 9513SOL    HW229439   2.224   4.069   4.444
 9514SOL     OW29440   2.832   3.024   5.888
 9514SOL    HW129441   2.850   2.933   5.928
 9514SOL    HW229442   2.869   3.027   5.795
 9515SOL     OW29443   2.067   5.315   6.078
 9515SOL    HW129444   2.160   5.293   6.045
 9515SOL    HW229445   2.025   5.381   6.016
 9516SOL     OW29446   5.184   4.546   5.344
 9516SOL    HW129447   5.130   4.467   5.372
 9516SOL    HW229448   5.275   4.516   5.315
 9517SOL     OW29449   1.247   5.366   2.214
 9517SOL    HW129450   1.245   5.332   2.120
 9517SOL    HW229451   1.246   5.466   2.213
 9518SOL     OW29452   0.861   2.934   5.503
 9518SOL    HW129453   0.763   2.932   5.486
 9518SOL    HW229454   0.879   2.907   5.598
 9519SOL     OW29455   3.408   2.894   3.059
 9519SOL    HW129456   3.507   2.907   3.053
 9519SOL    HW229457   3.362   2.983   3.056
 9520SOL     OW29458   5.348   0.792   6.339
 9520SOL    HW129459   5.356   0.714   6.277
 9520SOL    HW229460   5.292   0.766   6.418
 9521SOL     OW29461   3.792   1.209   1.420
 9521SOL    HW129462   3.728   1.132   1.419
 9521SOL    HW229463   3.741   1.295   1.423
 9522SOL     OW29464   3.731   6.495   1.639
 9522SOL    HW129465   3.799   6.446   1.585
 9522SOL    HW229466   3.767   6.585   1.664
 9523SOL     OW29467   2.692   4.931   4.404
 9523SOL    HW129468   2.659   4.899   4.315
 9523SOL    HW229469   2.759   4.867   4.440
 9524SOL     OW29470   2.229   4.414   0.338
 9524SOL    HW129471   2.302   4.349   0.361
 9524SOL    HW229472   2.210   4.410   0.240
 9525SOL     OW29473   2.090   3.321   6.504
 9525SOL    HW129474   2.164   3.259   6.480
 9525SOL    HW229475   2.019   3.316   6.434
 9526SOL     OW29476   5.446   5.467   6.580
 9526SOL    HW129477   5.418   5.386   6.529
 9526SOL    HW229478   5.546   5.467   6.590
 9527SOL     OW29479   3.989   7.013   4.639
 9527SOL    HW129480   4.062   6.972   4.694
 9527SOL    HW229481   3.902   6.972   4.663
 9528SOL     OW29482   5.035   2.615   0.663
 9528SOL    HW129483   5.129   2.580   0.670
 9528SOL    HW229484   5.026   2.669   0.579
 9529SOL     OW29485   5.567   1.064   1.792
 9529SOL    HW129486   5.566   0.994   1.721
 9529SOL    HW229487   5.547   1.153   1.752
 9530SOL     OW29488   1.304   5.907   3.620
 9530SOL    HW129489   1.321   5.819   3.575
 9530SOL    HW229490   1.232   5.955   3.571
 9531SOL     OW29491   3.275   5.351   1.956
 9531SOL    HW129492   3.195   5.301   1.990
 9531SOL    HW229493   3.306   5.415   2.026
 9532SOL     OW29494   6.851   4.926   3.751
 9532SOL    HW129495   6.908   4.874   3.687
 9532SOL    HW229496   6.866   5.024   3.738
 9533SOL     OW29497   1.313   4.157   2.990
 9533SOL    HW129498   1.231   4.204   2.959
 9533SOL    HW229499   1.289   4.065   3.023
 9534SOL     OW29500   4.400   5.464   4.273
 9534SOL    HW129501   4.306   5.460   4.307
 9534SOL    HW229502   4.460   5.499   4.344
 9535SOL     OW29503   6.952   1.348   4.674
 9535SOL    HW129504   6.936   1.376   4.579
 9535SOL    HW229505   6.917   1.255   4.687
 9536SOL     OW29506   3.448   3.996   5.367
 9536SOL    HW129507   3.543   4.012   5.339
 9536SOL    HW229508   3.441   4.006   5.466
 9537SOL     OW29509   6.553   0.985   3.809
 9537SOL    HW129510   6.638   1.007   3.856
 9537SOL    HW229511   6.475   1.020   3.861
 9538SOL     OW29512   5.575   0.447   4.513
 9538SOL    HW129513   5.608   0.417   4.424
 9538SOL    HW229514   5.538   0.369   4.563
 9539SOL     OW29515   3.621   4.109   2.928
 9539SOL    HW129516   3.667   4.141   3.011
 9539SOL    HW229517   3.689   4.083   2.860
 9540SOL     OW29518   4.181   4.823   3.564
 9540SOL    HW129519   4.191   4.868   3.475
 9540SOL    HW229520   4.094   4.849   3.605
 9541SOL     OW29521   1.658   5.902   5.474
 9541SOL    HW129522   1.572   5.925   5.519
 9541SOL    HW229523   1.640   5.843   5.395
 9542SOL     OW29524   6.320   4.177   3.026
 9542SOL    HW129525   6.310   4.192   2.927
 9542SOL    HW229526   6.240   4.126   3.059
 9543SOL     OW29527   2.473   0.596   5.900
 9543SOL    HW129528   2.421   0.512   5.889
 9543SOL    HW229529   2.511   0.600   5.992
 9544SOL     OW29530   6.240   3.778   4.779
 9544SOL    HW129531   6.236   3.680   4.802
 9544SOL    HW229532   6.329   3.797   4.736
 9545SOL     OW29533   6.772   4.491   2.036
 9545SOL    HW129534   6.747   4.490   1.939
 9545SOL    HW229535   6.837   4.418   2.054
 9546SOL     OW29536   2.762   2.860   1.391
 9546SOL    HW129537   2.752   2.766   1.359
 9546SOL    HW229538   2.759   2.863   1.491
 9547SOL     OW29539   4.677   0.326   3.626
 9547SOL    HW129540   4.607   0.302   3.693
 9547SOL    HW229541   4.647   0.406   3.573
 9548SOL     OW29542   0.755   4.984   6.359
 9548SOL    HW129543   0.819   4.972   6.434
 9548SOL    HW229544   0.773   5.072   6.314
 9549SOL     OW29545   4.088   1.803   1.479
 9549SOL    HW129546   4.118   1.897   1.466
 9549SOL    HW229547   4.005   1.786   1.426
 9550SOL     OW29548   5.837   3.180   1.674
 9550SOL    HW129549   5.788   3.100   1.707
 9550SOL    HW229550   5.910   3.151   1.612
 9551SOL     OW29551   5.951   2.986   6.395
 9551SOL    HW129552   5.945   3.084   6.416
 9551SOL    HW229553   5.994   2.937   6.471
 9552SOL     OW29554   2.874   2.008   0.808
 9552SOL    HW129555   2.796   2.019   0.870
 9552SOL    HW229556   2.926   2.093   0.804
 9553SOL     OW29557   5.714   1.439   6.985
 9553SOL    HW129558   5.717   1.363   0.031
 9553SOL    HW229559   5.754   1.410   6.898
 9554SOL     OW29560   3.008   0.786   4.074
 9554SOL    HW129561   2.948   0.859   4.107
 9554SOL    HW229562   2.970   0.747   3.990
 9555SOL     OW29563   0.173   6.579   3.492
 9555SOL    HW129564   0.108   6.617   3.559
 9555SOL    HW229565   0.143   6.601   3.400
 9556SOL     OW29566   2.392   4.537   6.588
 9556SOL    HW129567   2.461   4.605   6.613
 9556SOL    HW229568   2.307   4.584   6.564
 9557SOL     OW29569   5.949   0.781   0.779
 9557SOL    HW129570   6.038   0.742   0.755
 9557SOL    HW229571   5.961   0.842   0.858
 9558SOL     OW29572   5.046   6.372   6.162
 9558SOL    HW129573   5.132   6.410   6.194
 9558SOL    HW229574   5.064   6.299   6.096
 9559SOL     OW29575   2.316   4.540   6.885
 9559SOL    HW129576   2.222   4.575   6.892
 9559SOL    HW229577   2.336   4.519   6.789
 9560SOL     OW29578   2.844   0.254   2.673
 9560SOL    HW129579   2.819   0.200   2.754
 9560SOL    HW229580   2.813   0.348   2.685
 9561SOL     OW29581   0.616   0.449   0.325
 9561SOL    HW129582   0.535   0.426   0.379
 9561SOL    HW229583   0.672   0.368   0.313
 9562SOL     OW29584   2.268   6.065   2.996
 9562SOL    HW129585   2.208   6.060   3.075
 9562SOL    HW229586   2.299   5.973   2.971
 9563SOL     OW29587   1.061   5.785   6.401
 9563SOL    HW129588   1.033   5.822   6.312
 9563SOL    HW229589   1.104   5.696   6.388
 9564SOL     OW29590   1.803   1.159   0.847
 9564SOL    HW129591   1.783   1.135   0.752
 9564SOL    HW229592   1.727   1.132   0.905
 9565SOL     OW29593   2.675   1.529   4.261
 9565SOL    HW129594   2.587   1.575   4.252
 9565SOL    HW229595   2.725   1.568   4.338
 9566SOL     OW29596   2.928   0.507   0.470
 9566SOL    HW129597   2.985   0.582   0.502
 9566SOL    HW229598   2.972   0.462   0.393
 9567SOL     OW29599   6.869   4.206   0.822
 9567SOL    HW129600   6.891   4.109   0.818
 9567SOL    HW229601   6.837   4.229   0.914
 9568SOL     OW29602   4.172   1.578   6.668
 9568SOL    HW129603   4.169   1.561   6.767
 9568SOL    HW229604   4.151   1.674   6.650
 9569SOL     OW29605   5.706   0.217   2.278
 9569SOL    HW129606   5.671   0.308   2.301
 9569SOL    HW229607   5.803   0.224   2.255
 9570SOL     OW29608   0.485   3.492   1.542
 9570SOL    HW129609   0.545   3.412   1.531
 9570SOL    HW229610   0.493   3.527   1.635
 9571SOL     OW29611   1.714   1.249   0.056
 9571SOL    HW129612   1.678   1.320   7.014
 9571SOL    HW229613   1.734   1.166   0.003
 9572SOL     OW29614   2.366   4.551   4.718
 9572SOL    HW129615   2.331   4.499   4.796
 9572SOL    HW229616   2.317   4.522   4.635
 9573SOL     OW29617   6.589   0.264   4.097
 9573SOL    HW129618   6.490   0.271   4.088
 9573SOL    HW229619   6.612   0.199   4.169
 9574SOL     OW29620   4.200   3.102   0.417
 9574SOL    HW129621   4.181   3.026   0.480
 9574SOL    HW229622   4.282   3.150   0.447
 9575SOL     OW29623   5.388   0.058   1.995
 9575SOL    HW129624   5.379   0.151   2.029
 9575SOL    HW229625   5.457   0.056   1.922
 9576SOL     OW29626   0.627   0.643   6.974
 9576SOL    HW129627   0.720   0.623   7.003
 9576SOL    HW229628   0.605   0.739   6.993
 9577SOL     OW29629   6.100   5.423   2.892
 9577SOL    HW129630   6.062   5.443   2.801
 9577SOL    HW229631   6.078   5.329   2.917
 9578SOL     OW29632   1.696   3.462   2.358
 9578SOL    HW129633   1.692   3.513   2.444
 9578SOL    HW229634   1.725   3.522   2.284
 9579SOL     OW29635   5.748   5.836   2.350
 9579SOL    HW129636   5.671   5.897   2.332
 9579SOL    HW229637   5.766   5.779   2.270
 9580SOL     OW29638   4.678   4.276   3.405
 9580SOL    HW129639   4.765   4.231   3.423
 9580SOL    HW229640   4.643   4.316   3.490
 9581SOL     OW29641   5.689   1.841   6.860
 9581SOL    HW129642   5.634   1.921   6.839
 9581SOL    HW229643   5.635   1.775   6.911
 9582SOL     OW29644   5.356   6.383   4.803
 9582SOL    HW129645   5.340   6.357   4.898
 9582SOL    HW229646   5.285   6.447   4.773
 9583SOL     OW29647   3.492   4.955   1.720
 9583SOL    HW129648   3.511   4.871   1.770
 9583SOL    HW229649   3.566   5.020   1.734
 9584SOL     OW29650   2.505   4.891   3.983
 9584SOL    HW129651   2.489   4.845   4.070
 9584SOL    HW229652   2.585   4.851   3.938
 9585SOL     OW29653   4.524   6.177   0.906
 9585SOL    HW129654   4.441   6.128   0.881
 9585SOL    HW229655   4.508   6.275   0.902
 9586SOL     OW29656   3.443   5.719   2.721
 9586SOL    HW129657   3.526   5.769   2.744
 9586SOL    HW229658   3.465   5.644   2.658
 9587SOL     OW29659   3.487   6.273   0.832
 9587SOL    HW129660   3.554   6.245   0.763
 9587SOL    HW229661   3.471   6.197   0.895
 9588SOL     OW29662   6.391   5.603   6.956
 9588SOL    HW129663   6.412   5.553   6.872
 9588SOL    HW229664   6.343   5.688   6.933
 9589SOL     OW29665   1.965   2.586   6.649
 9589SOL    HW129666   1.899   2.584   6.724
 9589SOL    HW229667   1.951   2.668   6.594
 9590SOL     OW29668   6.533   0.309   0.677
 9590SOL    HW129669   6.562   0.244   0.747
 9590SOL    HW229670   6.610   0.367   0.651
 9591SOL     OW29671   5.048   1.068   0.611
 9591SOL    HW129672   4.980   1.047   0.540
 9591SOL    HW229673   5.128   1.110   0.569
 9592SOL     OW29674   2.207   6.476   6.025
 9592SOL    HW129675   2.207   6.569   5.989
 9592SOL    HW229676   2.284   6.425   5.984
 9593SOL     OW29677   1.727   2.208   3.592
 9593SOL    HW129678   1.726   2.281   3.524
 9593SOL    HW229679   1.788   2.233   3.667
 9594SOL     OW29680   6.761   6.349   3.489
 9594SOL    HW129681   6.712   6.295   3.421
 9594SOL    HW229682   6.860   6.343   3.471
 9595SOL     OW29683   0.384   3.293   3.357
 9595SOL    HW129684   0.470   3.269   3.313
 9595SOL    HW229685   0.402   3.352   3.436
 9596SOL     OW29686   1.111   6.679   0.839
 9596SOL    HW129687   1.026   6.627   0.845
 9596SOL    HW229688   1.109   6.753   0.907
 9597SOL     OW29689   1.136   3.551   1.667
 9597SOL    HW129690   1.183   3.605   1.737
 9597SOL    HW229691   1.182   3.463   1.657
 9598SOL     OW29692   2.239   4.057   4.066
 9598SOL    HW129693   2.307   4.128   4.052
 9598SOL    HW229694   2.152   4.098   4.093
 9599SOL     OW29695   4.031   6.731   4.406
 9599SOL    HW129696   3.979   6.759   4.487
 9599SOL    HW229697   4.096   6.659   4.431
 9600SOL     OW29698   3.706   1.472   1.482
 9600SOL    HW129699   3.644   1.542   1.446
 9600SOL    HW229700   3.791   1.514   1.512
 9601SOL     OW29701   1.118   3.430   0.488
 9601SOL    HW129702   1.190   3.419   0.556
 9601SOL    HW229703   1.110   3.527   0.463
 9602SOL     OW29704   4.055   4.791   5.245
 9602SOL    HW129705   4.096   4.840   5.168
 9602SOL    HW229706   3.965   4.830   5.266
 9603SOL     OW29707   4.997   6.710   5.720
 9603SOL    HW129708   5.081   6.692   5.670
 9603SOL    HW229709   5.014   6.779   5.790
 9604SOL     OW29710   5.194   6.888   0.511
 9604SOL    HW129711   5.176   6.959   0.443
 9604SOL    HW229712   5.285   6.901   0.550
 9605SOL     OW29713   5.874   5.835   1.713
 9605SOL    HW129714   5.809   5.759   1.704
 9605SOL    HW229715   5.837   5.916   1.667
 9606SOL     OW29716   1.459   1.010   6.973
 9606SOL    HW129717   1.510   0.929   6.946
 9606SOL    HW229718   1.361   0.994   6.961
 9607SOL     OW29719   2.188   2.167   5.989
 9607SOL    HW129720   2.112   2.209   6.038
 9607SOL    HW229721   2.271   2.220   6.004
 9608SOL     OW29722   5.826   2.948   4.330
 9608SOL    HW129723   5.882   2.884   4.278
 9608SOL    HW229724   5.885   3.016   4.373
 9609SOL     OW29725   4.343   2.632   6.450
 9609SOL    HW129726   4.347   2.727   6.418
 9609SOL    HW229727   4.249   2.608   6.473
 9610SOL     OW29728   0.735   4.866   2.781
 9610SOL    HW129729   0.734   4.954   2.733
 9610SOL    HW229730   0.706   4.880   2.876
 9611SOL     OW29731   2.132   0.749   0.549
 9611SOL    HW129732   2.177   0.688   0.484
 9611SOL    HW229733   2.187   0.756   0.632
 9612SOL     OW29734   0.400   2.479   4.029
 9612SOL    HW129735   0.391   2.459   3.931
 9612SOL    HW229736   0.321   2.532   4.060
 9613SOL     OW29737   5.949   5.402   3.323
 9613SOL    HW129738   5.887   5.432   3.396
 9613SOL    HW229739   5.971   5.480   3.264
 9614SOL     OW29740   4.646   2.331   3.639
 9614SOL    HW129741   4.623   2.362   3.732
 9614SOL    HW229742   4.745   2.327   3.629
 9615SOL     OW29743   1.897   4.370   1.145
 9615SOL    HW129744   1.938   4.402   1.230
 9615SOL    HW229745   1.799   4.359   1.157
 9616SOL     OW29746   4.065   3.463   6.744
 9616SOL    HW129747   4.010   3.518   6.680
 9616SOL    HW229748   4.015   3.380   6.768
 9617SOL     OW29749   1.885   2.824   3.015
 9617SOL    HW129750   1.914   2.903   2.963
 9617SOL    HW229751   1.836   2.854   3.097
 9618SOL     OW29752   2.332   1.748   1.040
 9618SOL    HW129753   2.281   1.820   1.087
 9618SOL    HW229754   2.284   1.661   1.051
 9619SOL     OW29755   2.346   0.572   6.567
 9619SOL    HW129756   2.425   0.617   6.608
 9619SOL    HW229757   2.285   0.641   6.528
 9620SOL     OW29758   5.802   1.369   5.308
 9620SOL    HW129759   5.847   1.358   5.397
 9620SOL    HW229760   5.784   1.466   5.291
 9621SOL     OW29761   1.617   3.698   3.039
 9621SOL    HW129762   1.566   3.717   2.955
 9621SOL    HW229763   1.652   3.604   3.036
 9622SOL     OW29764   5.502   0.040   1.018
 9622SOL    HW129765   5.420   0.004   0.974
 9622SOL    HW229766   5.535   0.119   0.968
 9623SOL     OW29767   2.405   3.832   6.349
 9623SOL    HW129768   2.389   3.834   6.448
 9623SOL    HW229769   2.334   3.886   6.303
 9624SOL     OW29770   6.419   2.973   4.262
 9624SOL    HW129771   6.454   3.064   4.284
 9624SOL    HW229772   6.414   2.919   4.346
 9625SOL     OW29773   5.754   5.711   1.163
 9625SOL    HW129774   5.686   5.638   1.153
 9625SOL    HW229775   5.830   5.680   1.219
 9626SOL     OW29776   3.434   6.615   0.217
 9626SOL    HW129777   3.436   6.700   0.270
 9626SOL    HW229778   3.453   6.537   0.277
 9627SOL     OW29779   1.636   6.873   6.887
 9627SOL    HW129780   1.633   6.804   6.959
 9627SOL    HW229781   1.574   6.847   6.813
 9628SOL     OW29782   3.025   6.931   2.555
 9628SOL    HW129783   3.098   6.862   2.551
 9628SOL    HW229784   2.943   6.889   2.595
 9629SOL     OW29785   2.367   0.307   1.152
 9629SOL    HW129786   2.432   0.346   1.087
 9629SOL    HW229787   2.300   0.251   1.104
 9630SOL     OW29788   6.597   1.726   6.286
 9630SOL    HW129789   6.673   1.739   6.349
 9630SOL    HW229790   6.630   1.736   6.192
 9631SOL     OW29791   6.129   6.357   0.093
 9631SOL    HW129792   6.138   6.267   0.135
 9631SOL    HW229793   6.032   6.381   0.086
 9632SOL     OW29794   0.581   5.690   2.005
 9632SOL    HW129795   0.551   5.783   2.025
 9632SOL    HW229796   0.620   5.686   1.912
 9633SOL     OW29797   0.060   5.095   5.983
 9633SOL    HW129798   0.052   5.007   6.030
 9633SOL    HW229799   0.154   5.106   5.950
 9634SOL     OW29800   0.933   5.879   6.148
 9634SOL    HW129801   0.877   5.870   6.065
 9634SOL    HW229802   0.930   5.974   6.180
 9635SOL     OW29803   0.271   5.804   5.399
 9635SOL    HW129804   0.256   5.846   5.489
 9635SOL    HW229805   0.279   5.876   5.330
 9636SOL     OW29806   4.276   1.145   0.221
 9636SOL    HW129807   4.252   1.181   0.310
 9636SOL    HW229808   4.198   1.153   0.159
 9637SOL     OW29809   1.963   1.076   7.018
 9637SOL    HW129810   1.973   1.162   0.048
 9637SOL    HW229811   1.923   1.008   0.061
 9638SOL     OW29812   6.765   2.261   6.593
 9638SOL    HW129813   6.688   2.221   6.544
 9638SOL    HW229814   6.831   2.298   6.527
 9639SOL     OW29815   4.140   0.808   2.317
 9639SOL    HW129816   4.139   0.711   2.293
 9639SOL    HW229817   4.049   0.836   2.348
 9640SOL     OW29818   1.643   2.077   2.323
 9640SOL    HW129819   1.644   2.109   2.417
 9640SOL    HW229820   1.641   1.977   2.321
 9641SOL     OW29821   5.842   5.500   6.850
 9641SOL    HW129822   5.855   5.420   6.909
 9641SOL    HW229823   5.768   5.556   6.886
 9642SOL     OW29824   3.721   0.590   3.572
 9642SOL    HW129825   3.795   0.656   3.560
 9642SOL    HW229826   3.655   0.626   3.637
 9643SOL     OW29827   4.111   4.715   2.654
 9643SOL    HW129828   4.181   4.660   2.700
 9643SOL    HW229829   4.056   4.763   2.723
 9644SOL     OW29830   3.123   1.758   0.137
 9644SOL    HW129831   3.214   1.784   0.105
 9644SOL    HW229832   3.068   1.841   0.154
 9645SOL     OW29833   3.069   5.570   5.049
 9645SOL    HW129834   2.998   5.547   4.982
 9645SOL    HW229835   3.117   5.487   5.076
 9646SOL     OW29836   4.063   5.094   4.225
 9646SOL    HW129837   4.160   5.109   4.247
 9646SOL    HW229838   4.006   5.144   4.289
 9647SOL     OW29839   6.290   2.863   6.266
 9647SOL    HW129840   6.375   2.813   6.281
 9647SOL    HW229841   6.232   2.812   6.203
 9648SOL     OW29842   4.122   3.956   0.979
 9648SOL    HW129843   4.027   3.988   0.973
 9648SOL    HW229844   4.123   3.856   0.979
 9649SOL     OW29845   2.371   5.180   1.725
 9649SOL    HW129846   2.318   5.095   1.728
 9649SOL    HW229847   2.356   5.232   1.810
 9650SOL     OW29848   0.605   6.643   0.835
 9650SOL    HW129849   0.523   6.611   0.882
 9650SOL    HW229850   0.644   6.721   0.884
 9651SOL     OW29851   0.541   1.760   6.337
 9651SOL    HW129852   0.511   1.757   6.433
 9651SOL    HW229853   0.469   1.725   6.278
 9652SOL     OW29854   0.577   4.877   1.966
 9652SOL    HW129855   0.550   4.932   1.887
 9652SOL    HW229856   0.549   4.924   2.050
 9653SOL     OW29857   6.394   6.491   4.066
 9653SOL    HW129858   6.300   6.516   4.093
 9653SOL    HW229859   6.456   6.510   4.142
 9654SOL     OW29860   2.248   3.026   2.987
 9654SOL    HW129861   2.194   3.085   2.928
 9654SOL    HW229862   2.289   2.953   2.932
 9655SOL     OW29863   6.298   1.631   6.552
 9655SOL    HW129864   6.217   1.626   6.611
 9655SOL    HW229865   6.380   1.636   6.609
 9656SOL     OW29866   2.936   1.344   3.121
 9656SOL    HW129867   2.874   1.368   3.047
 9656SOL    HW229868   3.007   1.282   3.086
 9657SOL     OW29869   0.093   6.747   4.845
 9657SOL    HW129870   0.104   6.763   4.747
 9657SOL    HW229871   0.030   6.815   4.883
 9658SOL     OW29872   5.544   1.951   3.119
 9658SOL    HW129873   5.630   1.940   3.169
 9658SOL    HW229874   5.477   1.886   3.155
 9659SOL     OW29875   1.090   5.137   6.884
 9659SOL    HW129876   1.110   5.147   6.982
 9659SOL    HW229877   1.142   5.205   6.833
 9660SOL     OW29878   1.004   5.345   0.455
 9660SOL    HW129879   1.004   5.329   0.357
 9660SOL    HW229880   0.948   5.425   0.476
 9661SOL     OW29881   4.199   0.154   1.126
 9661SOL    HW129882   4.154   0.240   1.145
 9661SOL    HW229883   4.199   0.096   1.208
 9662SOL     OW29884   5.163   1.332   4.398
 9662SOL    HW129885   5.113   1.409   4.360
 9662SOL    HW229886   5.138   1.319   4.494
 9663SOL     OW29887   2.489   6.253   3.074
 9663SOL    HW129888   2.476   6.303   3.159
 9663SOL    HW229889   2.408   6.196   3.056
 9664SOL     OW29890   2.338   5.843   1.779
 9664SOL    HW129891   2.407   5.782   1.818
 9664SOL    HW229892   2.311   5.809   1.689
 9665SOL     OW29893   5.051   4.280   4.143
 9665SOL    HW129894   5.046   4.380   4.152
 9665SOL    HW229895   4.963   4.240   4.169
 9666SOL     OW29896   5.255   4.842   4.866
 9666SOL    HW129897   5.238   4.781   4.944
 9666SOL    HW229898   5.242   4.790   4.781
 9667SOL     OW29899   3.280   3.006   3.543
 9667SOL    HW129900   3.369   2.964   3.558
 9667SOL    HW229901   3.248   2.984   3.450
 9668SOL     OW29902   0.878   1.054   5.403
 9668SOL    HW129903   0.942   1.015   5.337
 9668SOL    HW229904   0.919   1.053   5.494
 9669SOL     OW29905   1.606   6.362   6.866
 9669SOL    HW129906   1.591   6.434   6.799
 9669SOL    HW229907   1.695   6.375   6.910
 9670SOL     OW29908   5.736   4.695   6.459
 9670SOL    HW129909   5.818   4.662   6.505
 9670SOL    HW229910   5.708   4.628   6.390
 9671SOL     OW29911   6.972   0.619   6.787
 9671SOL    HW129912   6.891   0.664   6.750
 9671SOL    HW229913   6.945   0.537   6.838
 9672SOL     OW29914   1.580   6.280   5.010
 9672SOL    HW129915   1.504   6.330   5.052
 9672SOL    HW229916   1.667   6.312   5.049
 9673SOL     OW29917   2.297   2.897   6.279
 9673SOL    HW129918   2.338   2.950   6.206
 9673SOL    HW229919   2.274   2.805   6.245
 9674SOL     OW29920   2.711   6.911   2.413
 9674SOL    HW129921   2.738   6.815   2.420
 9674SOL    HW229922   2.750   6.950   2.330
 9675SOL     OW29923   0.353   2.366   2.593
 9675SOL    HW129924   0.354   2.312   2.677
 9675SOL    HW229925   0.447   2.381   2.562
 9676SOL     OW29926   0.161   2.660   4.495
 9676SOL    HW129927   0.222   2.617   4.561
 9676SOL    HW229928   0.204   2.743   4.459
 9677SOL     OW29929   1.681   3.400   5.559
 9677SOL    HW129930   1.670   3.301   5.567
 9677SOL    HW229931   1.650   3.430   5.469
 9678SOL     OW29932   3.521   3.179   3.252
 9678SOL    HW129933   3.533   3.271   3.288
 9678SOL    HW229934   3.452   3.180   3.179
 9679SOL     OW29935   0.545   3.722   0.920
 9679SOL    HW129936   0.585   3.634   0.944
 9679SOL    HW229937   0.484   3.753   0.993
 9680SOL     OW29938   4.792   4.796   3.332
 9680SOL    HW129939   4.864   4.855   3.296
 9680SOL    HW229940   4.703   4.827   3.299
 9681SOL     OW29941   0.997   0.437   4.363
 9681SOL    HW129942   1.096   0.435   4.372
 9681SOL    HW229943   0.959   0.347   4.386
 9682SOL     OW29944   0.156   4.935   3.061
 9682SOL    HW129945   0.160   4.965   2.966
 9682SOL    HW229946   0.238   4.883   3.083
 9683SOL     OW29947   5.240   6.607   6.051
 9683SOL    HW129948   5.156   6.657   6.068
 9683SOL    HW229949   5.280   6.637   5.964
 9684SOL     OW29950   0.846   4.572   3.474
 9684SOL    HW129951   0.807   4.624   3.550
 9684SOL    HW229952   0.890   4.635   3.410
 9685SOL     OW29953   2.181   2.028   6.687
 9685SOL    HW129954   2.155   1.931   6.692
 9685SOL    HW229955   2.105   2.085   6.716
 9686SOL     OW29956   5.298   2.063   1.785
 9686SOL    HW129957   5.356   2.023   1.857
 9686SOL    HW229958   5.305   2.163   1.789
 9687SOL     OW29959   3.912   1.509   4.600
 9687SOL    HW129960   4.001   1.525   4.641
 9687SOL    HW229961   3.870   1.596   4.574
 9688SOL     OW29962   6.433   1.909   3.976
 9688SOL    HW129963   6.525   1.933   3.947
 9688SOL    HW229964   6.406   1.964   4.055
 9689SOL     OW29965   2.301   5.661   5.728
 9689SOL    HW129966   2.316   5.581   5.671
 9689SOL    HW229967   2.206   5.664   5.759
 9690SOL     OW29968   5.965   3.433   0.538
 9690SOL    HW129969   6.012   3.465   0.456
 9690SOL    HW229970   5.952   3.509   0.602
 9691SOL     OW29971   1.368   4.409   0.762
 9691SOL    HW129972   1.435   4.378   0.693
 9691SOL    HW229973   1.371   4.509   0.768
 9692SOL     OW29974   3.286   5.890   0.757
 9692SOL    HW129975   3.200   5.840   0.769
 9692SOL    HW229976   3.363   5.827   0.768
 9693SOL     OW29977   6.040   5.805   1.499
 9693SOL    HW129978   5.980   5.796   1.579
 9693SOL    HW229979   6.050   5.902   1.477
 9694SOL     OW29980   1.463   2.103   0.759
 9694SOL    HW129981   1.520   2.106   0.677
 9694SOL    HW229982   1.463   2.193   0.803
 9695SOL     OW29983   0.043   4.518   0.440
 9695SOL    HW129984   0.029   4.562   0.351
 9695SOL    HW229985   0.131   4.545   0.477
 9696SOL     OW29986   3.793   4.478   0.535
 9696SOL    HW129987   3.771   4.384   0.508
 9696SOL    HW229988   3.816   4.480   0.632
 9697SOL     OW29989   0.435   5.939   5.957
 9697SOL    HW129990   0.442   6.028   5.914
 9697SOL    HW229991   0.349   5.895   5.931
 9698SOL     OW29992   4.489   1.531   5.161
 9698SOL    HW129993   4.461   1.614   5.208
 9698SOL    HW229994   4.585   1.513   5.179
 9699SOL     OW29995   2.165   2.415   6.756
 9699SOL    HW129996   2.211   2.370   6.679
 9699SOL    HW229997   2.103   2.485   6.721
 9700SOL     OW29998   3.793   3.935   3.487
 9700SOL    HW129999   3.883   3.897   3.467
 9700SOL    HW230000   3.730   3.862   3.513
 9701SOL     OW30001   4.615   4.606   4.662
 9701SOL    HW130002   4.630   4.558   4.748
 9701SOL    HW230003   4.628   4.704   4.676
 9702SOL     OW30004   5.332   0.486   0.484
 9702SOL    HW130005   5.410   0.543   0.511
 9702SOL    HW230006   5.326   0.406   0.544
 9703SOL     OW30007   2.591   5.919   3.876
 9703SOL    HW130008   2.654   5.858   3.924
 9703SOL    HW230009   2.559   5.875   3.792
 9704SOL     OW30010   2.495   1.522   3.677
 9704SOL    HW130011   2.528   1.602   3.728
 9704SOL    HW230012   2.498   1.442   3.736
 9705SOL     OW30013   3.575   3.918   0.789
 9705SOL    HW130014   3.585   3.933   0.887
 9705SOL    HW230015   3.481   3.888   0.769
 9706SOL     OW30016   6.729   2.651   3.738
 9706SOL    HW130017   6.797   2.711   3.781
 9706SOL    HW230018   6.715   2.570   3.795
 9707SOL     OW30019   2.494   4.844   2.771
 9707SOL    HW130020   2.490   4.845   2.871
 9707SOL    HW230021   2.549   4.767   2.740
 9708SOL     OW30022   1.652   1.801   2.356
 9708SOL    HW130023   1.736   1.749   2.370
 9708SOL    HW230024   1.573   1.744   2.377
 9709SOL     OW30025   1.681   5.480   3.141
 9709SOL    HW130026   1.711   5.557   3.197
 9709SOL    HW230027   1.601   5.437   3.185
 9710SOL     OW30028   0.542   0.345   4.090
 9710SOL    HW130029   0.631   0.378   4.060
 9710SOL    HW230030   0.548   0.312   4.184
 9711SOL     OW30031   1.916   2.818   6.443
 9711SOL    HW130032   1.843   2.885   6.429
 9711SOL    HW230033   1.955   2.792   6.354
 9712SOL     OW30034   4.878   3.648   4.589
 9712SOL    HW130035   4.855   3.587   4.513
 9712SOL    HW230036   4.934   3.598   4.655
 9713SOL     OW30037   6.790   5.165   2.477
 9713SOL    HW130038   6.775   5.243   2.538
 9713SOL    HW230039   6.888   5.153   2.461
 9714SOL     OW30040   2.050   2.149   2.688
 9714SOL    HW130041   1.967   2.152   2.743
 9714SOL    HW230042   2.095   2.239   2.691
 9715SOL     OW30043   6.363   5.488   5.715
 9715SOL    HW130044   6.428   5.471   5.640
 9715SOL    HW230045   6.278   5.526   5.678
 9716SOL     OW30046   3.796   1.279   5.944
 9716SOL    HW130047   3.800   1.234   5.854
 9716SOL    HW230048   3.888   1.310   5.969
 9717SOL     OW30049   5.528   5.857   3.279
 9717SOL    HW130050   5.615   5.904   3.260
 9717SOL    HW230051   5.497   5.809   3.197
 9718SOL     OW30052   4.765   2.975   1.663
 9718SOL    HW130053   4.689   2.989   1.727
 9718SOL    HW230054   4.730   2.932   1.579
 9719SOL     OW30055   0.377   1.283   0.731
 9719SOL    HW130056   0.435   1.228   0.671
 9719SOL    HW230057   0.298   1.317   0.679
 9720SOL     OW30058   0.786   0.224   0.581
 9720SOL    HW130059   0.778   0.321   0.558
 9720SOL    HW230060   0.802   0.214   0.679
 9721SOL     OW30061   6.965   2.717   3.424
 9721SOL    HW130062   7.014   2.773   3.357
 9721SOL    HW230063   6.963   2.622   3.393
 9722SOL     OW30064   6.871   0.142   4.766
 9722SOL    HW130065   6.789   0.140   4.709
 9722SOL    HW230066   6.850   0.187   4.853
 9723SOL     OW30067   6.803   1.003   3.907
 9723SOL    HW130068   6.878   1.066   3.889
 9723SOL    HW230069   6.803   0.978   4.004
 9724SOL     OW30070   3.805   2.482   1.351
 9724SOL    HW130071   3.767   2.419   1.419
 9724SOL    HW230072   3.745   2.486   1.272
 9725SOL     OW30073   4.154   3.403   5.818
 9725SOL    HW130074   4.100   3.330   5.777
 9725SOL    HW230075   4.230   3.426   5.758
 9726SOL     OW30076   5.825   5.906   4.126
 9726SOL    HW130077   5.881   5.904   4.209
 9726SOL    HW230078   5.754   5.976   4.136
 9727SOL     OW30079   1.773   0.287   0.125
 9727SOL    HW130080   1.799   0.332   0.040
 9727SOL    HW230081   1.704   0.217   0.106
 9728SOL     OW30082   3.538   6.068   6.527
 9728SOL    HW130083   3.587   6.001   6.582
 9728SOL    HW230084   3.468   6.113   6.583
 9729SOL     OW30085   3.080   5.193   2.070
 9729SOL    HW130086   2.984   5.167   2.078
 9729SOL    HW230087   3.137   5.132   2.125
 9730SOL     OW30088   5.716   3.396   3.047
 9730SOL    HW130089   5.687   3.437   3.134
 9730SOL    HW230090   5.669   3.441   2.972
 9731SOL     OW30091   5.327   5.265   1.141
 9731SOL    HW130092   5.427   5.269   1.150
 9731SOL    HW230093   5.293   5.184   1.189
 9732SOL     OW30094   5.511   6.284   4.286
 9732SOL    HW130095   5.416   6.310   4.270
 9732SOL    HW230096   5.541   6.321   4.374
 9733SOL     OW30097   5.366   4.611   5.767
 9733SOL    HW130098   5.305   4.599   5.846
 9733SOL    HW230099   5.311   4.636   5.687
 9734SOL     OW30100   5.906   1.825   5.859
 9734SOL    HW130101   5.893   1.897   5.790
 9734SOL    HW230102   6.000   1.828   5.893
 9735SOL     OW30103   3.344   4.512   0.845
 9735SOL    HW130104   3.346   4.428   0.791
 9735SOL    HW230105   3.346   4.591   0.783
 9736SOL     OW30106   3.467   1.828   1.833
 9736SOL    HW130107   3.371   1.846   1.851
 9736SOL    HW230108   3.523   1.885   1.893
 9737SOL     OW30109   4.232   2.326   4.590
 9737SOL    HW130110   4.226   2.257   4.518
 9737SOL    HW230111   4.223   2.282   4.679
 9738SOL     OW30112   2.708   1.036   2.130
 9738SOL    HW130113   2.685   0.968   2.060
 9738SOL    HW230114   2.739   1.120   2.085
 9739SOL     OW30115   5.989   4.447   1.635
 9739SOL    HW130116   5.901   4.414   1.601
 9739SOL    HW230117   5.986   4.452   1.735
 9740SOL     OW30118   6.426   3.663   2.860
 9740SOL    HW130119   6.497   3.688   2.794
 9740SOL    HW230120   6.347   3.723   2.848
 9741SOL     OW30121   4.135   1.315   2.044
 9741SOL    HW130122   4.054   1.374   2.043
 9741SOL    HW230123   4.109   1.223   2.073
 9742SOL     OW30124   4.394   1.676   3.598
 9742SOL    HW130125   4.494   1.671   3.604
 9742SOL    HW230126   4.368   1.732   3.519
 9743SOL     OW30127   1.249   1.575   5.548
 9743SOL    HW130128   1.242   1.661   5.498
 9743SOL    HW230129   1.335   1.529   5.523
 9744SOL     OW30130   2.399   0.506   1.902
 9744SOL    HW130131   2.492   0.505   1.865
 9744SOL    HW230132   2.383   0.424   1.956
 9745SOL     OW30133   0.534   0.656   4.834
 9745SOL    HW130134   0.477   0.737   4.844
 9745SOL    HW230135   0.627   0.676   4.866
 9746SOL     OW30136   6.767   0.756   3.799
 9746SOL    HW130137   6.678   0.711   3.810
 9746SOL    HW230138   6.758   0.854   3.817
 9747SOL     OW30139   0.377   0.382   6.525
 9747SOL    HW130140   0.360   0.298   6.577
 9747SOL    HW230141   0.369   0.461   6.586
 9748SOL     OW30142   1.037   4.379   4.391
 9748SOL    HW130143   0.972   4.322   4.341
 9748SOL    HW230144   0.988   4.454   4.435
 9749SOL     OW30145   0.533   5.042   3.984
 9749SOL    HW130146   0.625   5.068   4.012
 9749SOL    HW230147   0.537   4.980   3.906
 9750SOL     OW30148   3.104   5.294   2.341
 9750SOL    HW130149   3.193   5.263   2.307
 9750SOL    HW230150   3.103   5.290   2.441
 9751SOL     OW30151   1.476   2.662   0.837
 9751SOL    HW130152   1.494   2.685   0.741
 9751SOL    HW230153   1.562   2.635   0.881
 9752SOL     OW30154   4.344   0.808   5.651
 9752SOL    HW130155   4.334   0.886   5.713
 9752SOL    HW230156   4.285   0.822   5.571
 9753SOL     OW30157   0.069   6.540   6.884
 9753SOL    HW130158   0.138   6.523   6.954
 9753SOL    HW230159   0.040   6.453   6.843
 9754SOL     OW30160   0.094   2.999   6.031
 9754SOL    HW130161   0.156   2.969   6.104
 9754SOL    HW230162   0.147   3.047   5.961
 9755SOL     OW30163   3.447   5.557   5.668
 9755SOL    HW130164   3.466   5.459   5.658
 9755SOL    HW230165   3.394   5.588   5.589
 9756SOL     OW30166   5.185   2.713   5.578
 9756SOL    HW130167   5.116   2.786   5.584
 9756SOL    HW230168   5.257   2.741   5.514
 9757SOL     OW30169   6.715   0.787   3.444
 9757SOL    HW130170   6.686   0.801   3.349
 9757SOL    HW230171   6.637   0.798   3.505
 9758SOL     OW30172   3.388   0.363   0.337
 9758SOL    HW130173   3.442   0.432   0.384
 9758SOL    HW230174   3.407   0.366   0.239
 9759SOL     OW30175   3.361   5.872   1.551
 9759SOL    HW130176   3.278   5.878   1.606
 9759SOL    HW230177   3.352   5.798   1.484
 9760SOL     OW30178   5.593   4.638   5.944
 9760SOL    HW130179   5.528   4.639   5.868
 9760SOL    HW230180   5.628   4.731   5.959
 9761SOL     OW30181   5.352   5.227   2.767
 9761SOL    HW130182   5.447   5.252   2.748
 9761SOL    HW230183   5.347   5.128   2.784
 9762SOL     OW30184   3.362   0.763   2.872
 9762SOL    HW130185   3.322   0.793   2.785
 9762SOL    HW230186   3.360   0.838   2.937
 9763SOL     OW30187   1.774   1.685   2.032
 9763SOL    HW130188   1.740   1.770   1.990
 9763SOL    HW230189   1.703   1.615   2.028
 9764SOL     OW30190   1.032   2.690   2.699
 9764SOL    HW130191   0.998   2.771   2.748
 9764SOL    HW230192   1.131   2.686   2.707
 9765SOL     OW30193   0.123   0.594   5.611
 9765SOL    HW130194   0.054   0.653   5.568
 9765SOL    HW230195   0.194   0.574   5.544
 9766SOL     OW30196   2.138   0.522   3.017
 9766SOL    HW130197   2.119   0.547   2.922
 9766SOL    HW230198   2.234   0.495   3.026
 9767SOL     OW30199   5.075   0.365   5.485
 9767SOL    HW130200   5.068   0.416   5.571
 9767SOL    HW230201   5.066   0.267   5.504
 9768SOL     OW30202   4.692   2.506   4.416
 9768SOL    HW130203   4.595   2.485   4.426
 9768SOL    HW230204   4.711   2.594   4.458
 9769SOL     OW30205   0.466   1.890   1.141
 9769SOL    HW130206   0.543   1.836   1.109
 9769SOL    HW230207   0.499   1.980   1.171
 9770SOL     OW30208   0.597   3.068   5.890
 9770SOL    HW130209   0.554   3.015   5.817
 9770SOL    HW230210   0.530   3.130   5.931
 9771SOL     OW30211   3.018   5.397   3.704
 9771SOL    HW130212   3.049   5.389   3.798
 9771SOL    HW230213   2.939   5.458   3.699
 9772SOL     OW30214   5.985   6.865   0.675
 9772SOL    HW130215   5.901   6.816   0.697
 9772SOL    HW230216   6.032   6.818   0.600
 9773SOL     OW30217   4.747   5.129   3.773
 9773SOL    HW130218   4.696   5.047   3.798
 9773SOL    HW230219   4.739   5.145   3.675
 9774SOL     OW30220   6.860   4.814   4.371
 9774SOL    HW130221   6.945   4.813   4.318
 9774SOL    HW230222   6.882   4.813   4.468
 9775SOL     OW30223   3.038   2.037   4.625
 9775SOL    HW130224   3.039   2.112   4.690
 9775SOL    HW230225   2.944   2.004   4.613
 9776SOL     OW30226   0.369   4.605   4.086
 9776SOL    HW130227   0.439   4.539   4.057
 9776SOL    HW230228   0.299   4.612   4.014
 9777SOL     OW30229   4.860   5.779   6.180
 9777SOL    HW130230   4.948   5.768   6.134
 9777SOL    HW230231   4.797   5.828   6.120
 9778SOL     OW30232   3.941   0.627   4.486
 9778SOL    HW130233   3.881   0.655   4.561
 9778SOL    HW230234   3.910   0.539   4.450
 9779SOL     OW30235   2.941   2.007   6.687
 9779SOL    HW130236   2.936   1.968   6.595
 9779SOL    HW230237   2.991   2.094   6.684
 9780SOL     OW30238   2.905   4.422   0.813
 9780SOL    HW130239   2.900   4.444   0.911
 9780SOL    HW230240   2.998   4.437   0.780
 9781SOL     OW30241   1.164   6.612   4.478
 9781SOL    HW130242   1.219   6.541   4.435
 9781SOL    HW230243   1.083   6.570   4.519
 9782SOL     OW30244   5.857   0.333   0.487
 9782SOL    HW130245   5.871   0.407   0.422
 9782SOL    HW230246   5.934   0.329   0.551
 9783SOL     OW30247   6.197   0.364   3.193
 9783SOL    HW130248   6.230   0.439   3.136
 9783SOL    HW230249   6.192   0.394   3.289
 9784SOL     OW30250   5.913   0.441   4.596
 9784SOL    HW130251   5.878   0.364   4.649
 9784SOL    HW230252   5.848   0.518   4.601
 9785SOL     OW30253   0.744   2.921   1.422
 9785SOL    HW130254   0.829   2.960   1.388
 9785SOL    HW230255   0.750   2.910   1.521
 9786SOL     OW30256   2.389   6.627   4.768
 9786SOL    HW130257   2.400   6.551   4.703
 9786SOL    HW230258   2.398   6.714   4.719
 9787SOL     OW30259   5.791   4.335   1.127
 9787SOL    HW130260   5.764   4.357   1.033
 9787SOL    HW230261   5.845   4.411   1.164
 9788SOL     OW30262   6.773   0.867   5.907
 9788SOL    HW130263   6.853   0.815   5.879
 9788SOL    HW230264   6.788   0.964   5.888
 9789SOL     OW30265   1.760   4.609   4.696
 9789SOL    HW130266   1.771   4.597   4.597
 9789SOL    HW230267   1.806   4.693   4.725
 9790SOL     OW30268   0.076   1.302   3.524
 9790SOL    HW130269   0.036   1.212   3.542
 9790SOL    HW230270   0.081   1.354   3.610
 9791SOL     OW30271   1.301   2.636   1.428
 9791SOL    HW130272   1.357   2.703   1.478
 9791SOL    HW230273   1.345   2.547   1.431
 9792SOL     OW30274   3.369   5.600   2.098
 9792SOL    HW130275   3.460   5.566   2.074
 9792SOL    HW230276   3.344   5.675   2.037
 9793SOL     OW30277   5.314   6.143   2.244
 9793SOL    HW130278   5.217   6.122   2.229
 9793SOL    HW230279   5.334   6.236   2.215
 9794SOL     OW30280   3.536   3.078   6.445
 9794SOL    HW130281   3.486   3.097   6.530
 9794SOL    HW230282   3.473   3.044   6.376
 9795SOL     OW30283   2.120   5.365   3.059
 9795SOL    HW130284   2.171   5.436   3.010
 9795SOL    HW230285   2.132   5.277   3.014
 9796SOL     OW30286   3.661   5.031   0.484
 9796SOL    HW130287   3.623   4.948   0.443
 9796SOL    HW230288   3.757   5.040   0.457
 9797SOL     OW30289   5.258   3.463   5.328
 9797SOL    HW130290   5.337   3.471   5.389
 9797SOL    HW230291   5.274   3.517   5.245
 9798SOL     OW30292   2.516   1.735   1.940
 9798SOL    HW130293   2.509   1.811   2.004
 9798SOL    HW230294   2.576   1.665   1.977
 9799SOL     OW30295   3.402   3.860   2.634
 9799SOL    HW130296   3.449   3.778   2.667
 9799SOL    HW230297   3.381   3.920   2.711
 9800SOL     OW30298   3.861   5.348   0.362
 9800SOL    HW130299   3.864   5.315   0.457
 9800SOL    HW230300   3.943   5.403   0.344
 9801SOL     OW30301   5.209   5.036   1.306
 9801SOL    HW130302   5.227   4.938   1.296
 9801SOL    HW230303   5.113   5.050   1.330
 9802SOL     OW30304   0.886   5.623   1.717
 9802SOL    HW130305   0.904   5.649   1.811
 9802SOL    HW230306   0.947   5.672   1.655
 9803SOL     OW30307   5.135   0.250   6.433
 9803SOL    HW130308   5.111   0.157   6.460
 9803SOL    HW230309   5.138   0.256   6.333
 9804SOL     OW30310   4.748   5.448   4.207
 9804SOL    HW130311   4.673   5.514   4.206
 9804SOL    HW230312   4.724   5.369   4.150
 9805SOL     OW30313   3.647   3.886   1.077
 9805SOL    HW130314   3.652   3.797   1.033
 9805SOL    HW230315   3.662   3.875   1.176
 9806SOL     OW30316   6.715   1.715   2.391
 9806SOL    HW130317   6.783   1.776   2.349
 9806SOL    HW230318   6.638   1.703   2.329
 9807SOL     OW30319   2.109   3.368   1.397
 9807SOL    HW130320   2.153   3.412   1.475
 9807SOL    HW230321   2.074   3.438   1.335
 9808SOL     OW30322   2.081   1.821   4.173
 9808SOL    HW130323   2.033   1.909   4.166
 9808SOL    HW230324   2.079   1.789   4.267
 9809SOL     OW30325   0.605   0.949   4.457
 9809SOL    HW130326   0.634   0.855   4.441
 9809SOL    HW230327   0.597   0.997   4.370
 9810SOL     OW30328   4.136   1.592   2.566
 9810SOL    HW130329   4.050   1.556   2.602
 9810SOL    HW230330   4.176   1.526   2.503
 9811SOL     OW30331   0.930   0.535   3.130
 9811SOL    HW130332   0.901   0.445   3.163
 9811SOL    HW230333   0.962   0.589   3.208
 9812SOL     OW30334   5.760   3.221   5.728
 9812SOL    HW130335   5.840   3.234   5.786
 9812SOL    HW230336   5.706   3.305   5.726
 9813SOL     OW30337   6.484   4.200   0.278
 9813SOL    HW130338   6.569   4.159   0.244
 9813SOL    HW230339   6.406   4.149   0.242
 9814SOL     OW30340   6.449   1.167   6.082
 9814SOL    HW130341   6.513   1.200   6.151
 9814SOL    HW230342   6.488   1.088   6.034
 9815SOL     OW30343   6.891   4.369   2.327
 9815SOL    HW130344   6.982   4.343   2.296
 9815SOL    HW230345   6.876   4.467   2.310
 9816SOL     OW30346   6.135   1.518   5.587
 9816SOL    HW130347   6.156   1.474   5.674
 9816SOL    HW230348   6.036   1.534   5.580
 9817SOL     OW30349   2.385   0.938   0.515
 9817SOL    HW130350   2.342   0.923   0.605
 9817SOL    HW230351   2.482   0.913   0.521
 9818SOL     OW30352   0.333   6.981   2.082
 9818SOL    HW130353   0.301   7.001   1.990
 9818SOL    HW230354   0.260   6.936   2.134
 9819SOL     OW30355   6.427   1.870   4.358
 9819SOL    HW130356   6.509   1.813   4.358
 9819SOL    HW230357   6.400   1.891   4.452
 9820SOL     OW30358   3.777   1.192   6.503
 9820SOL    HW130359   3.821   1.270   6.457
 9820SOL    HW230360   3.678   1.205   6.503
 9821SOL     OW30361   4.703   3.274   0.135
 9821SOL    HW130362   4.773   3.285   0.064
 9821SOL    HW230363   4.673   3.365   0.165
 9822SOL     OW30364   3.536   4.897   4.192
 9822SOL    HW130365   3.634   4.879   4.198
 9822SOL    HW230366   3.514   4.930   4.100
 9823SOL     OW30367   4.369   6.806   3.336
 9823SOL    HW130368   4.290   6.744   3.333
 9823SOL    HW230369   4.345   6.887   3.390
 9824SOL     OW30370   1.171   5.729   5.292
 9824SOL    HW130371   1.118   5.746   5.209
 9824SOL    HW230372   1.224   5.645   5.282
 9825SOL     OW30373   1.009   6.093   5.188
 9825SOL    HW130374   1.085   6.151   5.219
 9825SOL    HW230375   1.036   6.045   5.105
 9826SOL     OW30376   1.753   5.831   6.420
 9826SOL    HW130377   1.794   5.865   6.505
 9826SOL    HW230378   1.716   5.739   6.436
 9827SOL     OW30379   1.806   4.694   1.303
 9827SOL    HW130380   1.766   4.611   1.343
 9827SOL    HW230381   1.848   4.749   1.375
 9828SOL     OW30382   4.729   2.323   4.094
 9828SOL    HW130383   4.730   2.245   4.156
 9828SOL    HW230384   4.699   2.405   4.144
 9829SOL     OW30385   5.250   5.106   5.618
 9829SOL    HW130386   5.341   5.075   5.593
 9829SOL    HW230387   5.202   5.138   5.536
 9830SOL     OW30388   6.470   1.225   3.428
 9830SOL    HW130389   6.425   1.148   3.383
 9830SOL    HW230390   6.565   1.201   3.449
 9831SOL     OW30391   0.198   5.179   1.933
 9831SOL    HW130392   0.152   5.254   1.980
 9831SOL    HW230393   0.132   5.132   1.874
 9832SOL     OW30394   4.981   6.438   4.985
 9832SOL    HW130395   4.893   6.458   4.942
 9832SOL    HW230396   5.055   6.475   4.929
 9833SOL     OW30397   4.034   3.484   4.776
 9833SOL    HW130398   4.035   3.401   4.830
 9833SOL    HW230399   4.061   3.463   4.682
 9834SOL     OW30400   3.042   5.831   5.908
 9834SOL    HW130401   3.060   5.739   5.874
 9834SOL    HW230402   3.102   5.849   5.987
 9835SOL     OW30403   3.713   3.360   3.928
 9835SOL    HW130404   3.784   3.290   3.936
 9835SOL    HW230405   3.677   3.382   4.019
 9836SOL     OW30406   6.389   3.250   5.429
 9836SOL    HW130407   6.326   3.307   5.481
 9836SOL    HW230408   6.355   3.237   5.336
 9837SOL     OW30409   6.950   0.670   3.506
 9837SOL    HW130410   6.979   0.656   3.601
 9837SOL    HW230411   6.861   0.716   3.506
 9838SOL     OW30412   0.476   5.433   0.885
 9838SOL    HW130413   0.383   5.409   0.913
 9838SOL    HW230414   0.541   5.400   0.954
 9839SOL     OW30415   4.402   6.365   3.394
 9839SOL    HW130416   4.432   6.444   3.448
 9839SOL    HW230417   4.462   6.287   3.412
 9840SOL     OW30418   6.589   1.900   6.715
 9840SOL    HW130419   6.515   1.913   6.649
 9840SOL    HW230420   6.551   1.884   6.806
 9841SOL     OW30421   0.010   6.187   2.121
 9841SOL    HW130422   0.055   6.267   2.081
 9841SOL    HW230423   6.953   6.159   2.063
 9842SOL     OW30424   3.831   0.490   0.488
 9842SOL    HW130425   3.869   0.446   0.406
 9842SOL    HW230426   3.813   0.420   0.558
 9843SOL     OW30427   0.339   0.172   0.589
 9843SOL    HW130428   0.427   0.125   0.597
 9843SOL    HW230429   0.336   0.225   0.504
 9844SOL     OW30430   5.083   0.655   5.110
 9844SOL    HW130431   5.008   0.667   5.045
 9844SOL    HW230432   5.151   0.727   5.095
 9845SOL     OW30433   1.111   3.675   2.005
 9845SOL    HW130434   1.192   3.670   1.947
 9845SOL    HW230435   1.139   3.687   2.101
 9846SOL     OW30436   5.401   1.987   2.563
 9846SOL    HW130437   5.495   1.952   2.566
 9846SOL    HW230438   5.354   1.951   2.482
 9847SOL     OW30439   3.734   4.177   6.788
 9847SOL    HW130440   3.761   4.267   6.821
 9847SOL    HW230441   3.635   4.175   6.773
 9848SOL     OW30442   2.884   4.201   5.615
 9848SOL    HW130443   2.826   4.242   5.686
 9848SOL    HW230444   2.956   4.265   5.590
 9849SOL     OW30445   1.799   2.319   3.048
 9849SOL    HW130446   1.823   2.259   3.124
 9849SOL    HW230447   1.815   2.414   3.075
 9850SOL     OW30448   1.346   0.242   4.591
 9850SOL    HW130449   1.412   0.282   4.655
 9850SOL    HW230450   1.283   0.182   4.642
 9851SOL     OW30451   3.404   5.231   3.450
 9851SOL    HW130452   3.307   5.239   3.472
 9851SOL    HW230453   3.452   5.314   3.479
 9852SOL     OW30454   2.208   6.605   0.183
 9852SOL    HW130455   2.198   6.702   0.204
 9852SOL    HW230456   2.206   6.592   0.084
 9853SOL     OW30457   0.517   4.176   3.669
 9853SOL    HW130458   0.496   4.183   3.571
 9853SOL    HW230459   0.437   4.207   3.721
 9854SOL     OW30460   6.389   3.222   6.732
 9854SOL    HW130461   6.319   3.239   6.662
 9854SOL    HW230462   6.450   3.150   6.700
 9855SOL     OW30463   1.298   5.844   0.078
 9855SOL    HW130464   1.367   5.890   0.134
 9855SOL    HW230465   1.326   5.750   0.061
 9856SOL     OW30466   5.296   3.879   3.274
 9856SOL    HW130467   5.291   3.952   3.343
 9856SOL    HW230468   5.223   3.813   3.291
 9857SOL     OW30469   5.207   0.502   6.013
 9857SOL    HW130470   5.215   0.416   5.963
 9857SOL    HW230471   5.248   0.492   6.103
 9858SOL     OW30472   6.814   5.479   2.428
 9858SOL    HW130473   6.871   5.415   2.375
 9858SOL    HW230474   6.723   5.439   2.440
 9859SOL     OW30475   1.011   5.247   2.282
 9859SOL    HW130476   0.939   5.309   2.313
 9859SOL    HW230477   1.093   5.299   2.260
 9860SOL     OW30478   1.812   3.359   4.003
 9860SOL    HW130479   1.795   3.315   3.914
 9860SOL    HW230480   1.747   3.324   4.070
 9861SOL     OW30481   3.286   1.969   4.029
 9861SOL    HW130482   3.335   2.050   3.995
 9861SOL    HW230483   3.315   1.889   3.976
 9862SOL     OW30484   1.965   2.932   6.689
 9862SOL    HW130485   1.883   2.979   6.723
 9862SOL    HW230486   1.948   2.899   6.597
 9863SOL     OW30487   4.100   6.469   2.076
 9863SOL    HW130488   4.179   6.408   2.081
 9863SOL    HW230489   4.100   6.516   1.988
 9864SOL     OW30490   2.970   6.196   5.358
 9864SOL    HW130491   3.017   6.236   5.280
 9864SOL    HW230492   3.036   6.143   5.413
 9865SOL     OW30493   2.480   6.235   6.197
 9865SOL    HW130494   2.383   6.242   6.221
 9865SOL    HW230495   2.535   6.281   6.267
 9866SOL     OW30496   6.974   5.432   6.359
 9866SOL    HW130497   6.948   5.379   6.278
 9866SOL    HW230498   6.892   5.459   6.409
 9867SOL     OW30499   4.843   1.155   2.643
 9867SOL    HW130500   4.931   1.112   2.621
 9867SOL    HW230501   4.825   1.229   2.579
 9868SOL     OW30502   2.271   4.465   3.211
 9868SOL    HW130503   2.220   4.436   3.130
 9868SOL    HW230504   2.349   4.521   3.183
 9869SOL     OW30505   6.155   2.609   3.003
 9869SOL    HW130506   6.093   2.663   3.060
 9869SOL    HW230507   6.184   2.528   3.054
 9870SOL     OW30508   1.921   2.537   3.135
 9870SOL    HW130509   1.895   2.627   3.101
 9870SOL    HW230510   1.953   2.544   3.229
 9871SOL     OW30511   5.777   5.904   3.167
 9871SOL    HW130512   5.772   5.830   3.100
 9871SOL    HW230513   5.861   5.956   3.152
 9872SOL     OW30514   1.200   6.462   5.455
 9872SOL    HW130515   1.226   6.480   5.550
 9872SOL    HW230516   1.234   6.535   5.396
 9873SOL     OW30517   0.291   0.631   5.136
 9873SOL    HW130518   0.327   0.709   5.084
 9873SOL    HW230519   0.343   0.549   5.112
 9874SOL     OW30520   0.204   1.947   3.532
 9874SOL    HW130521   0.198   1.847   3.524
 9874SOL    HW230522   0.112   1.985   3.537
 9875SOL     OW30523   6.280   6.049   0.743
 9875SOL    HW130524   6.284   6.146   0.719
 9875SOL    HW230525   6.285   6.039   0.843
 9876SOL     OW30526   0.212   0.050   3.739
 9876SOL    HW130527   0.279   6.995   3.730
 9876SOL    HW230528   0.238   0.126   3.679
 9877SOL     OW30529   1.656   5.913   5.158
 9877SOL    HW130530   1.653   5.815   5.179
 9877SOL    HW230531   1.675   5.926   5.060
 9878SOL     OW30532   4.359   3.043   6.947
 9878SOL    HW130533   4.454   3.064   6.969
 9878SOL    HW230534   4.309   3.023   0.012
 9879SOL     OW30535   5.584   5.972   4.414
 9879SOL    HW130536   5.553   6.033   4.487
 9879SOL    HW230537   5.650   6.019   4.357
 9880SOL     OW30538   3.767   1.194   1.123
 9880SOL    HW130539   3.682   1.223   1.165
 9880SOL    HW230540   3.844   1.237   1.170
 9881SOL     OW30541   6.555   0.058   3.146
 9881SOL    HW130542   6.490   0.021   3.213
 9881SOL    HW230543   6.510   0.127   3.090
 9882SOL     OW30544   3.299   3.205   4.484
 9882SOL    HW130545   3.359   3.171   4.557
 9882SOL    HW230546   3.251   3.287   4.516
 9883SOL     OW30547   1.764   5.833   2.823
 9883SOL    HW130548   1.719   5.772   2.757
 9883SOL    HW230549   1.812   5.778   2.891
 9884SOL     OW30550   3.338   2.531   5.353
 9884SOL    HW130551   3.393   2.474   5.414
 9884SOL    HW230552   3.271   2.474   5.306
 9885SOL     OW30553   5.253   2.296   5.156
 9885SOL    HW130554   5.154   2.293   5.161
 9885SOL    HW230555   5.291   2.235   5.226
 9886SOL     OW30556   3.070   6.243   1.276
 9886SOL    HW130557   2.992   6.264   1.217
 9886SOL    HW230558   3.153   6.283   1.237
 9887SOL     OW30559   4.126   0.982   6.853
 9887SOL    HW130560   4.080   1.044   6.789
 9887SOL    HW230561   4.060   0.951   6.921
 9888SOL     OW30562   6.595   6.495   3.869
 9888SOL    HW130563   6.565   6.569   3.809
 9888SOL    HW230564   6.536   6.493   3.950
 9889SOL     OW30565   6.222   5.849   2.172
 9889SOL    HW130566   6.220   5.796   2.256
 9889SOL    HW230567   6.266   5.938   2.189
 9890SOL     OW30568   1.849   3.204   2.959
 9890SOL    HW130569   1.874   3.207   3.056
 9890SOL    HW230570   1.930   3.181   2.905
 9891SOL     OW30571   4.216   6.578   1.857
 9891SOL    HW130572   4.282   6.531   1.800
 9891SOL    HW230573   4.179   6.657   1.808
 9892SOL     OW30574   1.839   6.028   3.135
 9892SOL    HW130575   1.882   6.009   3.047
 9892SOL    HW230576   1.777   6.106   3.126
 9893SOL     OW30577   5.465   4.443   5.331
 9893SOL    HW130578   5.494   4.370   5.393
 9893SOL    HW230579   5.545   4.480   5.283
 9894SOL     OW30580   4.279   3.824   6.153
 9894SOL    HW130581   4.208   3.878   6.197
 9894SOL    HW230582   4.268   3.830   6.053
 9895SOL     OW30583   5.103   1.797   6.051
 9895SOL    HW130584   5.078   1.762   5.961
 9895SOL    HW230585   5.202   1.799   6.060
 9896SOL     OW30586   3.888   4.206   0.697
 9896SOL    HW130587   3.848   4.180   0.609
 9896SOL    HW230588   3.911   4.123   0.748
 9897SOL     OW30589   1.078   1.476   2.434
 9897SOL    HW130590   1.079   1.576   2.440
 9897SOL    HW230591   0.988   1.445   2.406
 9898SOL     OW30592   0.476   4.927   0.140
 9898SOL    HW130593   0.388   4.974   0.139
 9898SOL    HW230594   0.533   4.964   0.213
 9899SOL     OW30595   4.072   5.353   1.917
 9899SOL    HW130596   4.044   5.428   1.977
 9899SOL    HW230597   4.007   5.345   1.841
 9900SOL     OW30598   2.174   5.177   3.775
 9900SOL    HW130599   2.221   5.094   3.804
 9900SOL    HW230600   2.177   5.185   3.675
 9901SOL     OW30601   3.102   1.485   5.559
 9901SOL    HW130602   3.111   1.581   5.535
 9901SOL    HW230603   3.104   1.475   5.658
 9902SOL     OW30604   3.852   4.090   0.443
 9902SOL    HW130605   3.875   3.997   0.470
 9902SOL    HW230606   3.921   4.124   0.379
 9903SOL     OW30607   3.021   1.109   1.163
 9903SOL    HW130608   3.036   1.012   1.182
 9903SOL    HW230609   2.925   1.131   1.177
 9904SOL     OW30610   6.534   6.256   2.236
 9904SOL    HW130611   6.524   6.356   2.228
 9904SOL    HW230612   6.631   6.233   2.245
 9905SOL     OW30613   2.396   0.006   6.321
 9905SOL    HW130614   2.372   7.005   6.416
 9905SOL    HW230615   2.466   0.077   6.319
 9906SOL     OW30616   3.355   4.296   5.981
 9906SOL    HW130617   3.269   4.305   5.929
 9906SOL    HW230618   3.392   4.204   5.968
 9907SOL     OW30619   0.782   6.728   2.659
 9907SOL    HW130620   0.872   6.771   2.661
 9907SOL    HW230621   0.788   6.636   2.699
 9908SOL     OW30622   6.923   2.828   4.930
 9908SOL    HW130623   6.955   2.766   5.002
 9908SOL    HW230624   7.001   2.875   4.889
 9909SOL     OW30625   2.583   6.423   2.879
 9909SOL    HW130626   2.546   6.354   2.941
 9909SOL    HW230627   2.520   6.501   2.874
 9910SOL     OW30628   0.645   5.611   0.551
 9910SOL    HW130629   0.546   5.613   0.536
 9910SOL    HW230630   0.685   5.535   0.501
 9911SOL     OW30631   3.770   4.889   2.431
 9911SOL    HW130632   3.812   4.922   2.515
 9911SOL    HW230633   3.676   4.921   2.424
 9912SOL     OW30634   5.770   6.538   0.265
 9912SOL    HW130635   5.844   6.568   0.325
 9912SOL    HW230636   5.713   6.616   0.240
 9913SOL     OW30637   5.141   2.083   3.089
 9913SOL    HW130638   5.126   1.989   3.058
 9913SOL    HW230639   5.159   2.142   3.010
 9914SOL     OW30640   2.028   5.165   4.013
 9914SOL    HW130641   2.060   5.188   3.921
 9914SOL    HW230642   2.032   5.066   4.026
 9915SOL     OW30643   6.365   4.695   4.232
 9915SOL    HW130644   6.328   4.786   4.249
 9915SOL    HW230645   6.290   4.629   4.233
 9916SOL     OW30646   1.991   3.619   0.626
 9916SOL    HW130647   2.051   3.550   0.587
 9916SOL    HW230648   2.009   3.628   0.724
 9917SOL     OW30649   2.157   3.356   4.403
 9917SOL    HW130650   2.191   3.382   4.313
 9917SOL    HW230651   2.065   3.316   4.394
 9918SOL     OW30652   1.940   1.293   4.626
 9918SOL    HW130653   1.923   1.218   4.689
 9918SOL    HW230654   1.942   1.258   4.532
 9919SOL     OW30655   1.057   5.416   1.358
 9919SOL    HW130656   1.022   5.457   1.274
 9919SOL    HW230657   1.066   5.487   1.428
 9920SOL     OW30658   3.560   0.360   3.191
 9920SOL    HW130659   3.606   0.442   3.224
 9920SOL    HW230660   3.511   0.380   3.106
 9921SOL     OW30661   4.685   0.781   2.494
 9921SOL    HW130662   4.691   0.717   2.418
 9921SOL    HW230663   4.624   0.857   2.470
 9922SOL     OW30664   5.586   2.862   2.071
 9922SOL    HW130665   5.664   2.812   2.109
 9922SOL    HW230666   5.558   2.819   1.985
 9923SOL     OW30667   6.400   0.311   6.415
 9923SOL    HW130668   6.393   0.393   6.472
 9923SOL    HW230669   6.399   0.230   6.473
 9924SOL     OW30670   5.168   1.055   3.776
 9924SOL    HW130671   5.078   1.024   3.806
 9924SOL    HW230672   5.198   1.131   3.834
 9925SOL     OW30673   4.051   2.127   5.000
 9925SOL    HW130674   4.076   2.216   5.038
 9925SOL    HW230675   4.033   2.137   4.902
 9926SOL     OW30676   2.134   1.418   5.530
 9926SOL    HW130677   2.171   1.503   5.569
 9926SOL    HW230678   2.050   1.438   5.480
 9927SOL     OW30679   1.250   3.714   3.474
 9927SOL    HW130680   1.278   3.636   3.416
 9927SOL    HW230681   1.279   3.799   3.430
 9928SOL     OW30682   0.026   2.599   1.997
 9928SOL    HW130683   0.006   2.541   2.076
 9928SOL    HW230684   0.122   2.587   1.971
 9929SOL     OW30685   1.205   5.117   5.272
 9929SOL    HW130686   1.184   5.215   5.272
 9929SOL    HW230687   1.156   5.071   5.346
 9930SOL     OW30688   6.707   5.061   6.465
 9930SOL    HW130689   6.746   5.149   6.494
 9930SOL    HW230690   6.636   5.033   6.530
 9931SOL     OW30691   2.100   4.394   0.077
 9931SOL    HW130692   2.162   4.365   0.005
 9931SOL    HW230693   2.006   4.392   0.044
 9932SOL     OW30694   2.091   2.214   1.486
 9932SOL    HW130695   2.147   2.135   1.462
 9932SOL    HW230696   2.073   2.213   1.585
 9933SOL     OW30697   0.937   1.541   3.297
 9933SOL    HW130698   1.026   1.524   3.339
 9933SOL    HW230699   0.949   1.600   3.217
 9934SOL     OW30700   4.880   0.815   5.926
 9934SOL    HW130701   4.789   0.838   5.962
 9934SOL    HW230702   4.916   0.892   5.874
 9935SOL     OW30703   2.633   3.132   0.668
 9935SOL    HW130704   2.621   3.071   0.589
 9935SOL    HW230705   2.650   3.225   0.635
 9936SOL     OW30706   5.029   6.405   6.861
 9936SOL    HW130707   5.018   6.470   6.936
 9936SOL    HW230708   4.979   6.436   6.781
 9937SOL     OW30709   1.497   6.671   4.330
 9937SOL    HW130710   1.576   6.625   4.289
 9937SOL    HW230711   1.458   6.613   4.401
 9938SOL     OW30712   6.937   1.625   3.136
 9938SOL    HW130713   6.852   1.678   3.131
 9938SOL    HW230714   6.942   1.564   3.057
 9939SOL     OW30715   2.830   3.912   1.345
 9939SOL    HW130716   2.889   3.982   1.303
 9939SOL    HW230717   2.884   3.861   1.412
 9940SOL     OW30718   0.432   0.994   2.947
 9940SOL    HW130719   0.487   1.047   3.011
 9940SOL    HW230720   0.458   1.018   2.853
 9941SOL     OW30721   6.158   3.027   0.631
 9941SOL    HW130722   6.114   3.076   0.556
 9941SOL    HW230723   6.099   3.030   0.712
 9942SOL     OW30724   5.989   5.439   2.651
 9942SOL    HW130725   5.931   5.367   2.612
 9942SOL    HW230726   5.954   5.528   2.622
 9943SOL     OW30727   1.134   4.677   5.580
 9943SOL    HW130728   1.206   4.611   5.557
 9943SOL    HW230729   1.047   4.647   5.540
 9944SOL     OW30730   2.677   5.787   6.830
 9944SOL    HW130731   2.655   5.834   6.745
 9944SOL    HW230732   2.775   5.797   6.848
 9945SOL     OW30733   6.423   3.144   5.805
 9945SOL    HW130734   6.350   3.076   5.799
 9945SOL    HW230735   6.415   3.193   5.892
 9946SOL     OW30736   5.627   2.372   1.875
 9946SOL    HW130737   5.605   2.314   1.797
 9946SOL    HW230738   5.565   2.353   1.951
 9947SOL     OW30739   0.563   0.475   3.035
 9947SOL    HW130740   0.592   0.429   2.950
 9947SOL    HW230741   0.518   0.562   3.012
 9948SOL     OW30742   5.810   0.689   5.470
 9948SOL    HW130743   5.746   0.650   5.403
 9948SOL    HW230744   5.792   0.649   5.560
 9949SOL     OW30745   6.322   3.156   3.112
 9949SOL    HW130746   6.332   3.058   3.095
 9949SOL    HW230747   6.248   3.192   3.055
 9950SOL     OW30748   4.578   5.230   6.222
 9950SOL    HW130749   4.668   5.246   6.181
 9950SOL    HW230750   4.538   5.318   6.249
 9951SOL     OW30751   0.176   2.093   2.748
 9951SOL    HW130752   0.191   2.186   2.780
 9951SOL    HW230753   0.255   2.036   2.773
 9952SOL     OW30754   1.536   4.753   1.327
 9952SOL    HW130755   1.626   4.720   1.298
 9952SOL    HW230756   1.465   4.712   1.270
 9953SOL     OW30757   5.830   4.714   4.681
 9953SOL    HW130758   5.928   4.714   4.659
 9953SOL    HW230759   5.777   4.691   4.600
 9954SOL     OW30760   4.609   1.419   1.455
 9954SOL    HW130761   4.646   1.328   1.437
 9954SOL    HW230762   4.633   1.480   1.380
 9955SOL     OW30763   6.197   5.002   1.280
 9955SOL    HW130764   6.172   4.977   1.186
 9955SOL    HW230765   6.156   5.090   1.303
 9956SOL     OW30766   1.452   3.910   3.357
 9956SOL    HW130767   1.505   3.827   3.341
 9956SOL    HW230768   1.483   3.954   3.441
 9957SOL     OW30769   5.594   6.737   0.186
 9957SOL    HW130770   5.516   6.798   0.198
 9957SOL    HW230771   5.591   6.698   0.094
 9958SOL     OW30772   6.382   6.108   5.832
 9958SOL    HW130773   6.415   6.119   5.738
 9958SOL    HW230774   6.410   6.186   5.887
 9959SOL     OW30775   5.781   5.208   6.925
 9959SOL    HW130776   5.784   5.235   6.828
 9959SOL    HW230777   5.875   5.203   6.960
 9960SOL     OW30778   0.101   0.122   6.293
 9960SOL    HW130779   0.137   0.081   6.377
 9960SOL    HW230780   0.002   0.111   6.291
 9961SOL     OW30781   3.475   0.144   0.512
 9961SOL    HW130782   3.452   0.218   0.448
 9961SOL    HW230783   3.398   0.129   0.574
 9962SOL     OW30784   3.689   0.315   1.392
 9962SOL    HW130785   3.740   0.401   1.399
 9962SOL    HW230786   3.632   0.316   1.311
 9963SOL     OW30787   1.287   0.484   6.792
 9963SOL    HW130788   1.222   0.436   6.851
 9963SOL    HW230789   1.380   0.454   6.812
 9964SOL     OW30790   4.429   5.500   5.488
 9964SOL    HW130791   4.466   5.460   5.404
 9964SOL    HW230792   4.464   5.449   5.567
 9965SOL     OW30793   2.040   4.765   4.473
 9965SOL    HW130794   2.095   4.806   4.546
 9965SOL    HW230795   2.101   4.729   4.402
 9966SOL     OW30796   2.622   5.307   1.895
 9966SOL    HW130797   2.659   5.397   1.873
 9966SOL    HW230798   2.538   5.317   1.949
 9967SOL     OW30799   0.115   0.755   2.581
 9967SOL    HW130800   0.191   0.703   2.620
 9967SOL    HW230801   0.036   0.695   2.569
 9968SOL     OW30802   4.852   6.148   0.302
 9968SOL    HW130803   4.942   6.153   0.345
 9968SOL    HW230804   4.796   6.225   0.334
 9969SOL     OW30805   0.190   6.096   2.756
 9969SOL    HW130806   0.282   6.058   2.762
 9969SOL    HW230807   0.193   6.195   2.763
 9970SOL     OW30808   7.011   3.179   1.865
 9970SOL    HW130809   0.059   3.111   1.837
 9970SOL    HW230810   6.992   3.241   1.789
 9971SOL     OW30811   6.797   5.286   5.625
 9971SOL    HW130812   6.733   5.348   5.580
 9971SOL    HW230813   6.753   5.243   5.703
 9972SOL     OW30814   2.772   4.505   5.976
 9972SOL    HW130815   2.761   4.421   5.922
 9972SOL    HW230816   2.868   4.531   5.977
 9973SOL     OW30817   2.870   2.134   3.007
 9973SOL    HW130818   2.840   2.223   3.040
 9973SOL    HW230819   2.863   2.130   2.908
 9974SOL     OW30820   0.721   3.015   3.009
 9974SOL    HW130821   0.777   3.018   3.092
 9974SOL    HW230822   0.662   2.935   3.012
 9975SOL     OW30823   1.266   4.051   7.018
 9975SOL    HW130824   1.190   4.101   6.976
 9975SOL    HW230825   1.303   4.104   0.075
 9976SOL     OW30826   4.106   6.259   5.208
 9976SOL    HW130827   4.128   6.330   5.276
 9976SOL    HW230828   4.014   6.275   5.172
 9977SOL     OW30829   4.451   0.303   5.509
 9977SOL    HW130830   4.443   0.221   5.566
 9977SOL    HW230831   4.366   0.315   5.457
 9978SOL     OW30832   6.479   2.904   0.481
 9978SOL    HW130833   6.500   2.998   0.456
 9978SOL    HW230834   6.382   2.886   0.467
 9979SOL     OW30835   3.705   4.148   3.824
 9979SOL    HW130836   3.764   4.077   3.864
 9979SOL    HW230837   3.742   4.178   3.737
 9980SOL     OW30838   0.314   6.977   0.183
 9980SOL    HW130839   0.303   6.969   0.084
 9980SOL    HW230840   0.336   0.053   0.206
 9981SOL     OW30841   6.013   1.430   0.325
 9981SOL    HW130842   5.952   1.362   0.366
 9981SOL    HW230843   5.983   1.521   0.352
 9982SOL     OW30844   2.559   2.135   4.695
 9982SOL    HW130845   2.642   2.103   4.648
 9982SOL    HW230846   2.506   2.192   4.632
 9983SOL     OW30847   0.137   2.842   2.151
 9983SOL    HW130848   0.091   2.766   2.106
 9983SOL    HW230849   0.214   2.873   2.095
 9984SOL     OW30850   0.772   4.584   0.818
 9984SOL    HW130851   0.804   4.578   0.912
 9984SOL    HW230852   0.839   4.543   0.757
 9985SOL     OW30853   4.914   4.276   6.639
 9985SOL    HW130854   5.001   4.259   6.685
 9985SOL    HW230855   4.911   4.222   6.554
 9986SOL     OW30856   5.408   4.756   6.761
 9986SOL    HW130857   5.439   4.796   6.847
 9986SOL    HW230858   5.428   4.658   6.761
 9987SOL     OW30859   4.580   2.371   0.768
 9987SOL    HW130860   4.604   2.289   0.821
 9987SOL    HW230861   4.601   2.453   0.822
 9988SOL     OW30862   5.779   6.580   3.467
 9988SOL    HW130863   5.813   6.574   3.373
 9988SOL    HW230864   5.691   6.627   3.467
 9989SOL     OW30865   5.687   5.918   1.378
 9989SOL    HW130866   5.721   5.868   1.299
 9989SOL    HW230867   5.604   5.967   1.353
 9990SOL     OW30868   0.456   5.960   2.732
 9990SOL    HW130869   0.533   5.949   2.795
 9990SOL    HW230870   0.430   5.870   2.695
 9991SOL     OW30871   1.746   3.943   1.816
 9991SOL    HW130872   1.839   3.921   1.843
 9991SOL    HW230873   1.701   3.861   1.781
 9992SOL     OW30874   2.170   4.682   6.523
 9992SOL    HW130875   2.106   4.727   6.460
 9992SOL    HW230876   2.179   4.738   6.606
 9993SOL     OW30877   3.762   0.203   4.809
 9993SOL    HW130878   3.786   0.257   4.728
 9993SOL    HW230879   3.666   0.177   4.804
 9994SOL     OW30880   5.918   5.133   4.848
 9994SOL    HW130881   5.854   5.138   4.925
 9994SOL    HW230882   6.004   5.177   4.874
 9995SOL     OW30883   4.436   1.426   6.344
 9995SOL    HW130884   4.428   1.476   6.431
 9995SOL    HW230885   4.348   1.384   6.322
 9996SOL     OW30886   2.491   4.942   0.731
 9996SOL    HW130887   2.437   4.984   0.804
 9996SOL    HW230888   2.520   4.850   0.759
 9997SOL     OW30889   6.779   1.008   2.948
 9997SOL    HW130890   6.826   0.964   3.024
 9997SOL    HW230891   6.846   1.037   2.879
 9998SOL     OW30892   5.276   3.494   2.730
 9998SOL    HW130893   5.225   3.448   2.658
 9998SOL    HW230894   5.251   3.591   2.732
 9999SOL     OW30895   0.652   6.882   5.151
 9999SOL    HW130896   0.746   6.870   5.119
 9999SOL    HW230897   0.589   6.846   5.082
10000SOL     OW30898   4.392   2.563   0.976
10000SOL    HW130899   4.389   2.577   1.075
10000SOL    HW230900   4.485   2.575   0.943
10001SOL     OW30901   4.123   6.780   1.698
10001SOL    HW130902   4.111   6.791   1.599
10001SOL    HW230903   4.146   6.869   1.738
10002SOL     OW30904   1.989   6.435   2.481
10002SOL    HW130905   1.992   6.408   2.385
10002SOL    HW230906   2.049   6.376   2.535
10003SOL     OW30907   1.200   0.831   2.153
10003SOL    HW130908   1.296   0.802   2.147
10003SOL    HW230909   1.142   0.762   2.109
10004SOL     OW30910   6.791   3.116   3.694
10004SOL    HW130911   6.727   3.080   3.761
10004SOL    HW230912   6.824   3.206   3.724
10005SOL     OW30913   2.292   5.561   2.633
10005SOL    HW130914   2.376   5.523   2.595
10005SOL    HW230915   2.222   5.567   2.561
10006SOL     OW30916   5.430   1.969   6.026
10006SOL    HW130917   5.457   1.961   5.931
10006SOL    HW230918   5.481   2.043   6.070
10007SOL     OW30919   1.601   5.374   3.813
10007SOL    HW130920   1.564   5.298   3.760
10007SOL    HW230921   1.573   5.365   3.908
10008SOL     OW30922   4.541   1.029   5.417
10008SOL    HW130923   4.514   0.935   5.397
10008SOL    HW230924   4.473   1.092   5.379
10009SOL     OW30925   1.005   5.121   1.684
10009SOL    HW130926   1.040   5.029   1.666
10009SOL    HW230927   0.906   5.123   1.667
10010SOL     OW30928   2.012   4.450   0.896
10010SOL    HW130929   1.956   4.446   0.979
10010SOL    HW230930   2.096   4.398   0.910
10011SOL     OW30931   3.278   3.576   0.221
10011SOL    HW130932   3.295   3.563   0.319
10011SOL    HW230933   3.357   3.622   0.180
10012SOL     OW30934   5.582   2.292   3.501
10012SOL    HW130935   5.606   2.280   3.405
10012SOL    HW230936   5.537   2.208   3.535
10013SOL     OW30937   0.878   6.353   5.226
10013SOL    HW130938   0.897   6.258   5.203
10013SOL    HW230939   0.779   6.367   5.227
10014SOL     OW30940   1.122   0.755   3.730
10014SOL    HW130941   1.028   0.724   3.712
10014SOL    HW230942   1.171   0.683   3.779
10015SOL     OW30943   4.615   6.984   6.898
10015SOL    HW130944   4.620   0.057   6.936
10015SOL    HW230945   4.581   6.921   6.968
10016SOL     OW30946   2.768   1.073   4.542
10016SOL    HW130947   2.868   1.080   4.547
10016SOL    HW230948   2.743   0.982   4.511
10017SOL     OW30949   3.136   1.511   2.911
10017SOL    HW130950   3.090   1.494   2.824
10017SOL    HW230951   3.151   1.423   2.957
10018SOL     OW30952   6.988   4.898   5.333
10018SOL    HW130953   0.053   4.890   5.278
10018SOL    HW230954   6.983   4.991   5.370
10019SOL     OW30955   6.753   2.047   2.518
10019SOL    HW130956   6.729   2.061   2.422
10019SOL    HW230957   6.848   2.016   2.524
10020SOL     OW30958   6.423   0.947   2.335
10020SOL    HW130959   6.445   1.001   2.254
10020SOL    HW230960   6.328   0.963   2.361
10021SOL     OW30961   1.215   3.385   1.384
10021SOL    HW130962   1.205   3.475   1.344
10021SOL    HW230963   1.154   3.376   1.463
10022SOL     OW30964   1.464   6.385   5.987
10022SOL    HW130965   1.419   6.320   5.926
10022SOL    HW230966   1.455   6.354   6.082
10023SOL     OW30967   0.616   1.484   5.990
10023SOL    HW130968   0.527   1.500   5.947
10023SOL    HW230969   0.608   1.412   6.058
10024SOL     OW30970   2.111   4.461   3.452
10024SOL    HW130971   2.102   4.400   3.374
10024SOL    HW230972   2.177   4.424   3.517
10025SOL     OW30973   0.746   2.650   1.326
10025SOL    HW130974   0.767   2.745   1.350
10025SOL    HW230975   0.825   2.592   1.345
10026SOL     OW30976   6.511   1.063   4.930
10026SOL    HW130977   6.524   1.098   5.024
10026SOL    HW230978   6.529   0.965   4.928
10027SOL     OW30979   3.698   0.842   5.280
10027SOL    HW130980   3.788   0.864   5.317
10027SOL    HW230981   3.634   0.827   5.355
10028SOL     OW30982   3.978   0.157   2.284
10028SOL    HW130983   3.922   0.112   2.215
10028SOL    HW230984   4.028   0.088   2.336
10029SOL     OW30985   6.821   4.700   3.919
10029SOL    HW130986   6.850   4.707   4.014
10029SOL    HW230987   6.829   4.791   3.876
10030SOL     OW30988   2.183   0.091   4.471
10030SOL    HW130989   2.208   0.086   4.568
10030SOL    HW230990   2.120   0.167   4.457
10031SOL     OW30991   2.200   6.279   3.589
10031SOL    HW130992   2.259   6.221   3.645
10031SOL    HW230993   2.184   6.366   3.636
10032SOL     OW30994   3.091   5.715   3.917
10032SOL    HW130995   3.175   5.712   3.970
10032SOL    HW230996   3.101   5.781   3.842
10033SOL     OW30997   2.578   1.344   5.098
10033SOL    HW130998   2.525   1.271   5.055
10033SOL    HW230999   2.629   1.394   5.028
10034SOL     OW31000   2.230   1.018   2.161
10034SOL    HW131001   2.276   0.961   2.093
10034SOL    HW231002   2.223   0.969   2.247
10035SOL     OW31003   6.923   2.863   2.554
10035SOL    HW131004   6.838   2.827   2.592
10035SOL    HW231005   6.974   2.789   2.510
10036SOL     OW31006   0.622   0.932   6.870
10036SOL    HW131007   0.599   0.877   6.790
10036SOL    HW231008   0.717   0.961   6.864
10037SOL     OW31009   6.019   0.001   5.854
10037SOL    HW131010   6.032   0.091   5.811
10037SOL    HW231011   5.944   0.006   5.920
10038SOL     OW31012   5.347   6.658   6.684
10038SOL    HW131013   5.339   6.687   6.780
10038SOL    HW231014   5.302   6.725   6.625
10039SOL     OW31015   7.001   5.432   2.038
10039SOL    HW131016   0.025   5.460   1.953
10039SOL    HW231017   6.988   5.512   2.097
10040SOL     OW31018   2.532   0.173   0.332
10040SOL    HW131019   2.549   0.265   0.366
10040SOL    HW231020   2.566   0.106   0.399
10041SOL     OW31021   5.698   5.037   5.052
10041SOL    HW131022   5.726   5.049   5.147
10041SOL    HW231023   5.717   4.943   5.024
10042SOL     OW31024   6.813   0.578   5.429
10042SOL    HW131025   6.796   0.572   5.527
10042SOL    HW231026   6.900   0.532   5.408
10043SOL     OW31027   0.358   0.637   2.703
10043SOL    HW131028   0.388   0.655   2.797
10043SOL    HW231029   0.428   0.669   2.639
10044SOL     OW31030   2.872   2.165   0.011
10044SOL    HW131031   2.825   2.092   6.979
10044SOL    HW231032   2.970   2.146   0.014
10045SOL     OW31033   3.925   6.529   4.120
10045SOL    HW131034   3.947   6.572   4.207
10045SOL    HW231035   4.010   6.511   4.070
10046SOL     OW31036   6.977   2.150   1.977
10046SOL    HW131037   6.941   2.095   1.902
10046SOL    HW231038   0.031   2.210   1.943
10047SOL     OW31039   1.044   2.321   3.072
10047SOL    HW131040   1.061   2.282   3.162
10047SOL    HW231041   1.035   2.421   3.080
10048SOL     OW31042   3.801   2.575   1.763
10048SOL    HW131043   3.767   2.661   1.801
10048SOL    HW231044   3.739   2.501   1.789
10049SOL     OW31045   1.788   6.032   4.472
10049SOL    HW131046   1.886   6.011   4.467
10049SOL    HW231047   1.775   6.119   4.519
10050SOL     OW31048   5.838   1.587   4.886
10050SOL    HW131049   5.914   1.568   4.824
10050SOL    HW231050   5.873   1.603   4.978
10051SOL     OW31051   6.434   2.416   0.449
10051SOL    HW131052   6.485   2.496   0.479
10051SOL    HW231053   6.445   2.342   0.515
10052SOL     OW31054   1.738   5.009   0.934
10052SOL    HW131055   1.781   4.928   0.974
10052SOL    HW231056   1.657   5.033   0.988
10053SOL     OW31057   2.964   6.529   3.497
10053SOL    HW131058   2.948   6.488   3.587
10053SOL    HW231059   3.038   6.596   3.504
10054SOL     OW31060   4.389   5.685   3.640
10054SOL    HW131061   4.378   5.614   3.570
10054SOL    HW231062   4.484   5.686   3.671
10055SOL     OW31063   5.847   2.634   6.943
10055SOL    HW131064   5.919   2.638   7.012
10055SOL    HW231065   5.841   2.723   6.897
10056SOL     OW31066   5.766   4.409   2.406
10056SOL    HW131067   5.724   4.372   2.323
10056SOL    HW231068   5.695   4.454   2.461
10057SOL     OW31069   2.483   2.302   3.456
10057SOL    HW131070   2.562   2.347   3.495
10057SOL    HW231071   2.482   2.315   3.357
10058SOL     OW31072   0.865   5.015   3.533
10058SOL    HW131073   0.816   5.057   3.610
10058SOL    HW231074   0.952   4.978   3.566
10059SOL     OW31075   5.310   0.398   1.381
10059SOL    HW131076   5.357   0.436   1.460
10059SOL    HW231077   5.242   0.464   1.348
10060SOL     OW31078   2.334   2.361   2.164
10060SOL    HW131079   2.403   2.383   2.233
10060SOL    HW231080   2.243   2.366   2.204
10061SOL     OW31081   6.236   1.818   5.075
10061SOL    HW131082   6.233   1.832   4.976
10061SOL    HW231083   6.178   1.886   5.119
10062SOL     OW31084   5.457   5.799   2.846
10062SOL    HW131085   5.444   5.884   2.895
10062SOL    HW231086   5.379   5.782   2.787
10063SOL     OW31087   0.660   2.792   2.631
10063SOL    HW131088   0.653   2.811   2.533
10063SOL    HW231089   0.601   2.854   2.682
10064SOL     OW31090   5.415   5.792   5.308
10064SOL    HW131091   5.332   5.751   5.270
10064SOL    HW231092   5.482   5.720   5.326
10065SOL     OW31093   0.763   6.811   2.962
10065SOL    HW131094   0.834   6.741   2.953
10065SOL    HW231095   0.710   6.816   2.877
10066SOL     OW31096   0.440   0.308   3.405
10066SOL    HW131097   0.516   0.370   3.419
10066SOL    HW231098   0.426   0.294   3.307
10067SOL     OW31099   5.084   6.663   3.519
10067SOL    HW131100   5.071   6.759   3.493
10067SOL    HW231101   5.170   6.654   3.569
10068SOL     OW31102   5.057   3.984   5.730
10068SOL    HW131103   5.038   4.024   5.820
10068SOL    HW231104   4.974   3.985   5.674
10069SOL     OW31105   4.939   0.994   3.891
10069SOL    HW131106   4.854   0.946   3.913
10069SOL    HW231107   4.923   1.093   3.898
10070SOL     OW31108   1.217   6.863   4.607
10070SOL    HW131109   1.203   6.793   4.537
10070SOL    HW231110   1.243   6.820   4.693
10071SOL     OW31111   4.917   4.852   5.108
10071SOL    HW131112   4.931   4.951   5.109
10071SOL    HW231113   5.006   4.806   5.100
10072SOL     OW31114   1.349   6.678   4.099
10072SOL    HW131115   1.304   6.768   4.103
10072SOL    HW231116   1.398   6.662   4.184
10073SOL     OW31117   6.761   5.810   6.441
10073SOL    HW131118   6.715   5.753   6.509
10073SOL    HW231119   6.733   5.782   6.350
10074SOL     OW31120   2.698   6.996   5.671
10074SOL    HW131121   2.616   6.985   5.616
10074SOL    HW231122   2.757   6.916   5.658
10075SOL     OW31123   1.439   2.254   3.885
10075SOL    HW131124   1.366   2.320   3.906
10075SOL    HW231125   1.442   2.184   3.956
10076SOL     OW31126   5.891   0.262   3.775
10076SOL    HW131127   5.848   0.315   3.848
10076SOL    HW231128   5.865   0.301   3.686
10077SOL     OW31129   2.625   1.524   0.119
10077SOL    HW131130   2.721   1.497   0.125
10077SOL    HW231131   2.575   1.486   0.197
10078SOL     OW31132   5.715   6.057   5.469
10078SOL    HW131133   5.663   6.048   5.554
10078SOL    HW231134   5.812   6.049   5.489
10079SOL     OW31135   7.003   2.636   5.863
10079SOL    HW131136   6.947   2.703   5.911
10079SOL    HW231137   6.945   2.585   5.799
10080SOL     OW31138   1.267   2.706   5.626
10080SOL    HW131139   1.265   2.609   5.605
10080SOL    HW231140   1.238   2.758   5.545
10081SOL     OW31141   0.556   1.186   0.531
10081SOL    HW131142   0.645   1.204   0.488
10081SOL    HW231143   0.489   1.163   0.461
10082SOL     OW31144   0.075   0.380   0.645
10082SOL    HW131145   0.142   0.315   0.681
10082SOL    HW231146   0.027   0.339   0.567
10083SOL     OW31147   5.309   1.624   4.571
10083SOL    HW131148   5.349   1.612   4.480
10083SOL    HW231149   5.265   1.539   4.599
10084SOL     OW31150   2.400   1.128   6.752
10084SOL    HW131151   2.478   1.087   6.705
10084SOL    HW231152   2.432   1.184   6.828
10085SOL     OW31153   0.815   5.330   2.541
10085SOL    HW131154   0.869   5.414   2.552
10085SOL    HW231155   0.724   5.353   2.507
10086SOL     OW31156   6.861   3.481   2.227
10086SOL    HW131157   6.793   3.416   2.192
10086SOL    HW231158   6.909   3.440   2.304
10087SOL     OW31159   1.574   0.026   3.859
10087SOL    HW131160   1.531   7.015   3.773
10087SOL    HW231161   1.568   6.971   3.926
10088SOL     OW31162   6.710   0.613   5.103
10088SOL    HW131163   6.660   0.529   5.080
10088SOL    HW231164   6.676   0.649   5.190
10089SOL     OW31165   2.115   2.496   2.515
10089SOL    HW131166   2.037   2.481   2.576
10089SOL    HW231167   2.087   2.480   2.421
10090SOL     OW31168   6.676   4.991   2.085
10090SOL    HW131169   6.743   5.056   2.120
10090SOL    HW231170   6.649   4.929   2.158
10091SOL     OW31171   0.735   2.022   3.629
10091SOL    HW131172   0.668   2.088   3.594
10091SOL    HW231173   0.687   1.940   3.660
10092SOL     OW31174   1.708   2.856   5.134
10092SOL    HW131175   1.792   2.804   5.150
10092SOL    HW231176   1.715   2.902   5.045
10093SOL     OW31177   0.279   5.874   6.245
10093SOL    HW131178   0.252   5.917   6.332
10093SOL    HW231179   0.255   5.935   6.170
10094SOL     OW31180   1.617   1.477   2.083
10094SOL    HW131181   1.517   1.480   2.082
10094SOL    HW231182   1.648   1.400   2.028
10095SOL     OW31183   0.424   1.539   5.812
10095SOL    HW131184   0.354   1.478   5.775
10095SOL    HW231185   0.397   1.634   5.797
10096SOL     OW31186   0.248   5.502   2.316
10096SOL    HW131187   0.259   5.602   2.321
10096SOL    HW231188   0.280   5.461   2.401
10097SOL     OW31189   1.500   2.480   6.047
10097SOL    HW131190   1.546   2.457   5.962
10097SOL    HW231191   1.536   2.566   6.083
10098SOL     OW31192   3.435   5.190   6.645
10098SOL    HW131193   3.475   5.137   6.570
10098SOL    HW231194   3.382   5.266   6.607
10099SOL     OW31195   6.834   5.033   4.760
10099SOL    HW131196   6.870   5.048   4.668
10099SOL    HW231197   6.894   5.078   4.826
10100SOL     OW31198   5.463   0.807   5.632
10100SOL    HW131199   5.389   0.872   5.650
10100SOL    HW231200   5.495   0.768   5.718
10101SOL     OW31201   6.847   4.747   2.709
10101SOL    HW131202   6.766   4.691   2.729
10101SOL    HW231203   6.902   4.701   2.639
10102SOL     OW31204   3.886   0.227   3.983
10102SOL    HW131205   3.936   0.215   4.069
10102SOL    HW231206   3.859   0.137   3.948
10103SOL     OW31207   1.451   1.990   0.345
10103SOL    HW131208   1.534   1.964   0.394
10103SOL    HW231209   1.462   1.970   0.248
10104SOL     OW31210   1.550   6.072   5.845
10104SOL    HW131211   1.472   6.071   5.908
10104SOL    HW231212   1.518   6.087   5.752
10105SOL     OW31213   3.257   0.745   0.238
10105SOL    HW131214   3.193   0.781   0.170
10105SOL    HW231215   3.288   0.655   0.209
10106SOL     OW31216   5.229   5.377   1.499
10106SOL    HW131217   5.196   5.387   1.593
10106SOL    HW231218   5.300   5.307   1.496
10107SOL     OW31219   5.720   0.884   5.739
10107SOL    HW131220   5.639   0.888   5.681
10107SOL    HW231221   5.740   0.788   5.761
10108SOL     OW31222   5.910   6.245   6.704
10108SOL    HW131223   5.969   6.325   6.711
10108SOL    HW231224   5.831   6.257   6.765
10109SOL     OW31225   4.409   5.889   3.387
10109SOL    HW131226   4.374   5.825   3.455
10109SOL    HW231227   4.431   5.976   3.432
10110SOL     OW31228   3.386   1.308   5.416
10110SOL    HW131229   3.450   1.384   5.400
10110SOL    HW231230   3.420   1.226   5.370
10111SOL     OW31231   0.101   2.867   2.800
10111SOL    HW131232   0.060   2.945   2.752
10111SOL    HW231233   0.175   2.829   2.744
10112SOL     OW31234   4.042   3.527   6.050
10112SOL    HW131235   4.048   3.625   6.031
10112SOL    HW231236   4.082   3.477   5.973
10113SOL     OW31237   4.245   6.678   0.505
10113SOL    HW131238   4.250   6.594   0.558
10113SOL    HW231239   4.337   6.716   0.492
10114SOL     OW31240   4.179   1.543   1.498
10114SOL    HW131241   4.265   1.520   1.544
10114SOL    HW231242   4.169   1.642   1.494
10115SOL     OW31243   1.310   1.810   4.130
10115SOL    HW131244   1.226   1.769   4.094
10115SOL    HW231245   1.321   1.785   4.226
10116SOL     OW31246   0.598   0.669   0.747
10116SOL    HW131247   0.691   0.634   0.764
10116SOL    HW231248   0.532   0.598   0.769
10117SOL     OW31249   4.754   0.698   5.467
10117SOL    HW131250   4.671   0.735   5.425
10117SOL    HW231251   4.808   0.650   5.398
10118SOL     OW31252   6.062   4.938   2.258
10118SOL    HW131253   6.149   4.892   2.271
10118SOL    HW231254   6.072   5.035   2.281
10119SOL     OW31255   2.303   0.356   5.909
10119SOL    HW131256   2.246   0.331   5.987
10119SOL    HW231257   2.267   0.313   5.826
10120SOL     OW31258   5.738   3.354   3.799
10120SOL    HW131259   5.737   3.372   3.701
10120SOL    HW231260   5.666   3.288   3.821
10121SOL     OW31261   5.625   5.083   3.816
10121SOL    HW131262   5.664   5.081   3.908
10121SOL    HW231263   5.587   4.993   3.794
10122SOL     OW31264   5.184   3.167   6.761
10122SOL    HW131265   5.187   3.245   6.824
10122SOL    HW231266   5.095   3.122   6.768
10123SOL     OW31267   6.951   6.668   0.309
10123SOL    HW131268   0.022   6.706   0.286
10123SOL    HW231269   6.962   6.574   0.342
10124SOL     OW31270   3.033   4.365   1.168
10124SOL    HW131271   3.074   4.400   1.252
10124SOL    HW231272   2.957   4.423   1.141
10125SOL     OW31273   2.008   0.617   0.891
10125SOL    HW131274   1.986   0.548   0.960
10125SOL    HW231275   1.985   0.582   0.800
10126SOL     OW31276   5.270   5.096   6.566
10126SOL    HW131277   5.253   5.067   6.472
10126SOL    HW231278   5.311   5.020   6.617
10127SOL     OW31279   3.522   4.871   5.369
10127SOL    HW131280   3.539   4.965   5.340
10127SOL    HW231281   3.568   4.808   5.306
10128SOL     OW31282   0.243   2.126   1.579
10128SOL    HW131283   0.270   2.043   1.627
10128SOL    HW231284   0.181   2.103   1.504
10129SOL     OW31285   4.990   2.766   3.423
10129SOL    HW131286   5.026   2.705   3.353
10129SOL    HW231287   5.038   2.853   3.419
10130SOL     OW31288   6.137   6.016   1.267
10130SOL    HW131289   6.078   6.092   1.241
10130SOL    HW231290   6.210   6.049   1.327
10131SOL     OW31291   0.036   0.166   0.170
10131SOL    HW131292   0.111   0.208   0.120
10131SOL    HW231293   0.068   0.082   0.214
10132SOL     OW31294   2.113   6.956   2.701
10132SOL    HW131295   2.197   6.902   2.710
10132SOL    HW231296   2.128   0.028   2.739
10133SOL     OW31297   5.795   5.031   2.313
10133SOL    HW131298   5.731   5.057   2.241
10133SOL    HW231299   5.884   5.010   2.272
10134SOL     OW31300   0.241   1.563   1.775
10134SOL    HW131301   0.305   1.552   1.699
10134SOL    HW231302   0.289   1.548   1.862
10135SOL     OW31303   2.917   6.035   3.278
10135SOL    HW131304   2.893   6.005   3.371
10135SOL    HW231305   2.847   6.098   3.245
10136SOL     OW31306   6.671   6.761   2.088
10136SOL    HW131307   6.734   6.818   2.141
10136SOL    HW231308   6.611   6.819   2.033
10137SOL     OW31309   5.673   5.210   4.296
10137SOL    HW131310   5.619   5.157   4.362
10137SOL    HW231311   5.612   5.267   4.241
10138SOL     OW31312   5.259   2.442   6.246
10138SOL    HW131313   5.325   2.451   6.320
10138SOL    HW231314   5.168   2.427   6.284
10139SOL     OW31315   3.841   3.059   3.350
10139SOL    HW131316   3.751   3.018   3.339
10139SOL    HW231317   3.878   3.085   3.261
10140SOL     OW31318   0.775   5.371   4.418
10140SOL    HW131319   0.859   5.425   4.407
10140SOL    HW231320   0.799   5.276   4.434
10141SOL     OW31321   2.398   0.813   3.864
10141SOL    HW131322   2.474   0.777   3.920
10141SOL    HW231323   2.340   0.871   3.921
10142SOL     OW31324   5.022   6.099   4.049
10142SOL    HW131325   5.093   6.108   4.118
10142SOL    HW231326   5.044   6.155   3.969
10143SOL     OW31327   4.800   5.877   1.641
10143SOL    HW131328   4.888   5.920   1.620
10143SOL    HW231329   4.745   5.872   1.557
10144SOL     OW31330   2.812   4.722   3.148
10144SOL    HW131331   2.776   4.813   3.167
10144SOL    HW231332   2.851   4.684   3.232
10145SOL     OW31333   3.106   0.012   5.882
10145SOL    HW131334   3.095   0.060   5.794
10145SOL    HW231335   3.046   0.055   5.950
10146SOL     OW31336   5.330   4.900   4.109
10146SOL    HW131337   5.306   4.990   4.072
10146SOL    HW231338   5.307   4.830   4.042
10147SOL     OW31339   4.654   5.786   4.589
10147SOL    HW131340   4.745   5.782   4.629
10147SOL    HW231341   4.615   5.877   4.603
10148SOL     OW31342   6.138   4.836   0.021
10148SOL    HW131343   6.051   4.852   0.068
10148SOL    HW231344   6.213   4.844   0.087
10149SOL     OW31345   4.016   3.647   1.018
10149SOL    HW131346   4.024   3.552   0.989
10149SOL    HW231347   3.970   3.651   1.107
10150SOL     OW31348   5.460   4.074   1.038
10150SOL    HW131349   5.462   4.107   0.944
10150SOL    HW231350   5.540   4.016   1.054
10151SOL     OW31351   1.336   5.851   5.504
10151SOL    HW131352   1.279   5.791   5.449
10151SOL    HW231353   1.360   5.805   5.590
10152SOL     OW31354   0.203   5.583   3.890
10152SOL    HW131355   0.146   5.616   3.815
10152SOL    HW231356   0.239   5.492   3.866
10153SOL     OW31357   5.528   6.265   3.825
10153SOL    HW131358   5.455   6.234   3.886
10153SOL    HW231359   5.547   6.362   3.842
10154SOL     OW31360   6.647   5.980   5.648
10154SOL    HW131361   6.596   6.064   5.633
10154SOL    HW231362   6.630   5.947   5.742
10155SOL     OW31363   3.682   1.514   6.042
10155SOL    HW131364   3.728   1.439   5.994
10155SOL    HW231365   3.584   1.510   6.022
10156SOL     OW31366   5.528   0.019   2.342
10156SOL    HW131367   5.436   0.060   2.337
10156SOL    HW231368   5.595   0.086   2.311
10157SOL     OW31369   4.579   0.887   4.643
10157SOL    HW131370   4.615   0.809   4.695
10157SOL    HW231371   4.551   0.959   4.706
10158SOL     OW31372   4.502   3.478   6.033
10158SOL    HW131373   4.471   3.409   6.099
10158SOL    HW231374   4.598   3.498   6.048
10159SOL     OW31375   1.505   1.268   6.380
10159SOL    HW131376   1.551   1.357   6.383
10159SOL    HW231377   1.435   1.270   6.309
10160SOL     OW31378   0.944   5.934   3.224
10160SOL    HW131379   0.878   5.862   3.242
10160SOL    HW231380   0.988   5.919   3.135
10161SOL     OW31381   1.825   6.077   5.865
10161SOL    HW131382   1.736   6.082   5.820
10161SOL    HW231383   1.815   6.104   5.961
10162SOL     OW31384   3.440   2.499   6.890
10162SOL    HW131385   3.462   2.424   6.952
10162SOL    HW231386   3.342   2.520   6.896
10163SOL     OW31387   0.108   2.894   5.468
10163SOL    HW131388   0.012   2.869   5.459
10163SOL    HW231389   0.160   2.816   5.504
10164SOL     OW31390   0.982   2.389   5.199
10164SOL    HW131391   1.069   2.377   5.151
10164SOL    HW231392   0.926   2.308   5.186
10165SOL     OW31393   6.975   2.012   3.234
10165SOL    HW131394   7.015   1.995   3.144
10165SOL    HW231395   6.879   1.985   3.234
10166SOL     OW31396   0.686   1.144   1.957
10166SOL    HW131397   0.681   1.188   1.867
10166SOL    HW231398   0.652   1.208   2.026
10167SOL     OW31399   4.967   0.523   1.005
10167SOL    HW131400   5.034   0.464   0.959
10167SOL    HW231401   4.934   0.477   1.088
10168SOL     OW31402   6.667   4.561   4.582
10168SOL    HW131403   6.692   4.650   4.620
10168SOL    HW231404   6.750   4.510   4.559
10169SOL     OW31405   6.395   4.276   4.484
10169SOL    HW131406   6.479   4.230   4.456
10169SOL    HW231407   6.401   4.300   4.581
10170SOL     OW31408   1.284   3.758   4.885
10170SOL    HW131409   1.257   3.849   4.855
10170SOL    HW231410   1.236   3.735   4.970
10171SOL     OW31411   5.984   2.978   5.754
10171SOL    HW131412   6.023   3.070   5.760
10171SOL    HW231413   5.899   2.975   5.806
10172SOL     OW31414   4.659   1.133   4.217
10172SOL    HW131415   4.640   1.041   4.251
10172SOL    HW231416   4.758   1.145   4.206
10173SOL     OW31417   2.284   2.245   2.977
10173SOL    HW131418   2.222   2.322   2.991
10173SOL    HW231419   2.285   2.221   2.879
10174SOL     OW31420   5.833   4.396   0.582
10174SOL    HW131421   5.910   4.378   0.521
10174SOL    HW231422   5.771   4.463   0.541
10175SOL     OW31423   6.335   2.427   6.357
10175SOL    HW131424   6.237   2.437   6.377
10175SOL    HW231425   6.387   2.433   6.443
10176SOL     OW31426   2.083   3.648   0.234
10176SOL    HW131427   1.998   3.595   0.237
10176SOL    HW231428   2.084   3.713   0.310
10177SOL     OW31429   1.957   0.354   5.806
10177SOL    HW131430   2.031   0.303   5.761
10177SOL    HW231431   1.939   0.315   5.896
10178SOL     OW31432   5.628   3.000   5.417
10178SOL    HW131433   5.551   3.048   5.374
10178SOL    HW231434   5.594   2.947   5.495
10179SOL     OW31435   0.443   3.197   6.283
10179SOL    HW131436   0.405   3.275   6.333
10179SOL    HW231437   0.523   3.162   6.332
10180SOL     OW31438   2.510   6.641   6.010
10180SOL    HW131439   2.610   6.644   6.017
10180SOL    HW231440   2.472   6.728   6.041
10181SOL     OW31441   5.664   3.408   1.632
10181SOL    HW131442   5.718   3.491   1.641
10181SOL    HW231443   5.724   3.328   1.637
10182SOL     OW31444   4.529   1.566   0.401
10182SOL    HW131445   4.461   1.554   0.329
10182SOL    HW231446   4.606   1.504   0.386
10183SOL     OW31447   1.877   1.360   6.561
10183SOL    HW131448   1.811   1.359   6.486
10183SOL    HW231449   1.875   1.450   6.606
10184SOL     OW31450   4.744   0.463   6.761
10184SOL    HW131451   4.795   0.541   6.726
10184SOL    HW231452   4.654   0.493   6.793
10185SOL     OW31453   4.756   1.180   0.143
10185SOL    HW131454   4.759   1.118   0.065
10185SOL    HW231455   4.807   1.263   0.120
10186SOL     OW31456   4.615   2.232   2.978
10186SOL    HW131457   4.692   2.282   2.941
10186SOL    HW231458   4.592   2.155   2.918
10187SOL     OW31459   0.689   2.223   1.847
10187SOL    HW131460   0.769   2.254   1.898
10187SOL    HW231461   0.606   2.250   1.895
10188SOL     OW31462   3.861   4.455   0.830
10188SOL    HW131463   3.942   4.446   0.887
10188SOL    HW231464   3.788   4.396   0.864
10189SOL     OW31465   1.272   6.473   5.719
10189SOL    HW131466   1.353   6.529   5.741
10189SOL    HW231467   1.244   6.423   5.801
10190SOL     OW31468   4.727   2.561   0.060
10190SOL    HW131469   4.730   2.588   6.983
10190SOL    HW231470   4.664   2.620   0.110
10191SOL     OW31471   6.806   4.687   6.470
10191SOL    HW131472   6.798   4.759   6.401
10191SOL    HW231473   6.718   4.672   6.514
10192SOL     OW31474   3.693   1.456   0.440
10192SOL    HW131475   3.771   1.489   0.388
10192SOL    HW231476   3.683   1.357   0.426
10193SOL     OW31477   4.116   4.397   0.628
10193SOL    HW131478   4.095   4.473   0.566
10193SOL    HW231479   4.035   4.374   0.683
10194SOL     OW31480   5.038   2.960   5.265
10194SOL    HW131481   5.024   2.927   5.358
10194SOL    HW231482   5.095   3.042   5.266
10195SOL     OW31483   6.109   4.049   1.669
10195SOL    HW131484   6.019   4.040   1.711
10195SOL    HW231485   6.104   4.110   1.591
10196SOL     OW31486   0.393   1.428   4.795
10196SOL    HW131487   0.428   1.368   4.723
10196SOL    HW231488   0.464   1.440   4.865
10197SOL     OW31489   5.594   0.453   6.692
10197SOL    HW131490   5.638   0.407   6.769
10197SOL    HW231491   5.520   0.395   6.657
10198SOL     OW31492   4.558   6.963   3.170
10198SOL    HW131493   4.634   6.960   3.234
10198SOL    HW231494   4.479   6.916   3.210
10199SOL     OW31495   0.669   2.178   5.211
10199SOL    HW131496   0.653   2.087   5.250
10199SOL    HW231497   0.611   2.245   5.258
10200SOL     OW31498   5.224   1.851   1.596
10200SOL    HW131499   5.260   1.913   1.665
10200SOL    HW231500   5.124   1.858   1.592
10201SOL     OW31501   0.955   3.800   0.426
10201SOL    HW131502   0.960   3.810   0.525
10201SOL    HW231503   1.034   3.748   0.393
10202SOL     OW31504   4.879   0.617   4.199
10202SOL    HW131505   4.945   0.661   4.138
10202SOL    HW231506   4.808   0.684   4.224
10203SOL     OW31507   6.925   2.739   4.517
10203SOL    HW131508   7.018   2.701   4.519
10203SOL    HW231509   6.905   2.784   4.604
10204SOL     OW31510   5.705   4.971   6.466
10204SOL    HW131511   5.720   4.875   6.445
10204SOL    HW231512   5.784   5.025   6.434
10205SOL     OW31513   0.923   1.094   6.326
10205SOL    HW131514   0.958   1.038   6.401
10205SOL    HW231515   0.908   1.187   6.358
10206SOL     OW31516   1.582   0.944   4.848
10206SOL    HW131517   1.600   0.859   4.799
10206SOL    HW231518   1.575   0.927   4.946
10207SOL     OW31519   2.435   2.314   5.093
10207SOL    HW131520   2.477   2.224   5.084
10207SOL    HW231521   2.369   2.313   5.168
10208SOL     OW31522   6.984   6.397   5.444
10208SOL    HW131523   0.004   6.352   5.364
10208SOL    HW231524   7.011   6.348   5.526
10209SOL     OW31525   0.141   6.842   6.229
10209SOL    HW131526   0.150   6.864   6.326
10209SOL    HW231527   0.226   6.866   6.181
10210SOL     OW31528   3.409   0.421   1.757
10210SOL    HW131529   3.477   0.353   1.729
10210SOL    HW231530   3.456   0.505   1.783
10211SOL     OW31531   5.368   5.535   5.985
10211SOL    HW131532   5.310   5.557   6.063
10211SOL    HW231533   5.375   5.435   5.976
10212SOL     OW31534   0.654   0.514   6.506
10212SOL    HW131535   0.581   0.496   6.573
10212SOL    HW231536   0.651   0.443   6.435
10213SOL     OW31537   6.729   2.447   0.924
10213SOL    HW131538   6.729   2.352   0.956
10213SOL    HW231539   6.677   2.503   0.988
10214SOL     OW31540   1.302   2.476   0.193
10214SOL    HW131541   1.273   2.407   0.258
10214SOL    HW231542   1.228   2.542   0.178
10215SOL     OW31543   3.050   3.655   2.141
10215SOL    HW131544   2.972   3.613   2.096
10215SOL    HW231545   3.053   3.625   2.237
10216SOL     OW31546   0.643   6.337   1.851
10216SOL    HW131547   0.654   6.401   1.775
10216SOL    HW231548   0.671   6.245   1.822
10217SOL     OW31549   3.589   1.578   4.926
10217SOL    HW131550   3.511   1.567   4.987
10217SOL    HW231551   3.596   1.674   4.898
10218SOL     OW31552   0.829   3.385   2.685
10218SOL    HW131553   0.737   3.380   2.647
10218SOL    HW231554   0.873   3.296   2.678
10219SOL     OW31555   6.850   5.782   2.957
10219SOL    HW131556   6.836   5.733   3.044
10219SOL    HW231557   6.948   5.797   2.943
10220SOL     OW31558   3.466   3.365   0.373
10220SOL    HW131559   3.507   3.358   0.464
10220SOL    HW231560   3.477   3.278   0.325
10221SOL     OW31561   0.903   5.537   3.808
10221SOL    HW131562   0.981   5.475   3.815
10221SOL    HW231563   0.839   5.518   3.882
10222SOL     OW31564   3.384   3.865   3.438
10222SOL    HW131565   3.340   3.786   3.481
10222SOL    HW231566   3.355   3.948   3.484
10223SOL     OW31567   2.327   6.524   0.852
10223SOL    HW131568   2.329   6.467   0.934
10223SOL    HW231569   2.381   6.606   0.867
10224SOL     OW31570   6.534   4.046   2.900
10224SOL    HW131571   6.468   4.111   2.939
10224SOL    HW231572   6.537   4.058   2.800
10225SOL     OW31573   2.005   3.533   5.844
10225SOL    HW131574   2.069   3.596   5.800
10225SOL    HW231575   2.037   3.439   5.831
10226SOL     OW31576   5.184   4.296   0.226
10226SOL    HW131577   5.116   4.252   0.285
10226SOL    HW231578   5.151   4.387   0.199
10227SOL     OW31579   5.773   3.789   1.198
10227SOL    HW131580   5.861   3.755   1.167
10227SOL    HW231581   5.787   3.863   1.264
10228SOL     OW31582   5.164   0.605   0.703
10228SOL    HW131583   5.069   0.638   0.711
10228SOL    HW231584   5.176   0.561   0.614
10229SOL     OW31585   0.418   2.566   5.015
10229SOL    HW131586   0.491   2.633   5.010
10229SOL    HW231587   0.457   2.475   5.031
10230SOL     OW31588   6.566   6.038   1.291
10230SOL    HW131589   6.634   6.016   1.362
10230SOL    HW231590   6.541   5.955   1.242
10231SOL     OW31591   0.551   4.276   2.562
10231SOL    HW131592   0.603   4.204   2.516
10231SOL    HW231593   0.528   4.247   2.655
10232SOL     OW31594   4.901   4.494   2.757
10232SOL    HW131595   4.971   4.441   2.805
10232SOL    HW231596   4.944   4.555   2.690
10233SOL     OW31597   2.312   4.277   5.290
10233SOL    HW131598   2.337   4.215   5.215
10233SOL    HW231599   2.329   4.233   5.378
10234SOL     OW31600   1.043   1.169   2.290
10234SOL    HW131601   0.983   1.113   2.233
10234SOL    HW231602   1.112   1.112   2.332
10235SOL     OW31603   1.273   1.068   3.043
10235SOL    HW131604   1.310   1.027   2.959
10235SOL    HW231605   1.174   1.073   3.037
10236SOL     OW31606   1.445   6.903   2.539
10236SOL    HW131607   1.405   6.864   2.456
10236SOL    HW231608   1.405   6.859   2.620
10237SOL     OW31609   0.531   3.397   4.402
10237SOL    HW131610   0.446   3.404   4.455
10237SOL    HW231611   0.599   3.460   4.439
10238SOL     OW31612   2.654   6.854   1.663
10238SOL    HW131613   2.611   6.812   1.583
10238SOL    HW231614   2.635   6.952   1.663
10239SOL     OW31615   0.538   1.773   4.895
10239SOL    HW131616   0.464   1.838   4.912
10239SOL    HW231617   0.505   1.680   4.909
10240SOL     OW31618   2.017   6.189   0.930
10240SOL    HW131619   1.957   6.204   0.851
10240SOL    HW231620   2.016   6.269   0.989
10241SOL     OW31621   4.241   3.459   1.387
10241SOL    HW131622   4.248   3.419   1.295
10241SOL    HW231623   4.327   3.447   1.436
10242SOL     OW31624   6.778   3.072   0.417
10242SOL    HW131625   6.814   3.023   0.496
10242SOL    HW231626   6.678   3.062   0.415
10243SOL     OW31627   3.115   6.320   1.947
10243SOL    HW131628   3.016   6.326   1.956
10243SOL    HW231629   3.145   6.379   1.871
10244SOL     OW31630   2.975   5.258   1.829
10244SOL    HW131631   2.936   5.174   1.790
10244SOL    HW231632   3.022   5.236   1.914
10245SOL     OW31633   5.339   4.611   0.908
10245SOL    HW131634   5.260   4.566   0.950
10245SOL    HW231635   5.414   4.615   0.974
10246SOL     OW31636   3.359   3.263   4.201
10246SOL    HW131637   3.356   3.282   4.103
10246SOL    HW231638   3.295   3.324   4.249
10247SOL     OW31639   0.943   3.020   4.541
10247SOL    HW131640   0.871   3.002   4.609
10247SOL    HW231641   0.952   3.119   4.528
10248SOL     OW31642   0.611   1.028   5.312
10248SOL    HW131643   0.701   1.006   5.350
10248SOL    HW231644   0.541   1.007   5.380
10249SOL     OW31645   2.448   5.056   6.062
10249SOL    HW131646   2.416   5.025   5.972
10249SOL    HW231647   2.547   5.045   6.068
10250SOL     OW31648   3.247   2.332   0.692
10250SOL    HW131649   3.152   2.315   0.666
10250SOL    HW231650   3.250   2.404   0.762
10251SOL     OW31651   1.528   0.669   4.451
10251SOL    HW131652   1.565   0.652   4.359
10251SOL    HW231653   1.476   0.755   4.450
10252SOL     OW31654   4.429   4.700   5.735
10252SOL    HW131655   4.371   4.652   5.668
10252SOL    HW231656   4.475   4.776   5.689
10253SOL     OW31657   3.724   6.114   6.352
10253SOL    HW131658   3.648   6.088   6.412
10253SOL    HW231659   3.718   6.061   6.267
10254SOL     OW31660   6.563   1.390   5.658
10254SOL    HW131661   6.553   1.477   5.706
10254SOL    HW231662   6.475   1.365   5.617
10255SOL     OW31663   3.952   4.405   1.621
10255SOL    HW131664   4.026   4.340   1.601
10255SOL    HW231665   3.883   4.360   1.677
10256SOL     OW31666   3.778   1.273   4.611
10256SOL    HW131667   3.683   1.292   4.586
10256SOL    HW231668   3.833   1.355   4.594
10257SOL     OW31669   3.902   5.910   3.075
10257SOL    HW131670   3.981   5.852   3.096
10257SOL    HW231671   3.830   5.855   3.033
10258SOL     OW31672   2.721   1.511   2.581
10258SOL    HW131673   2.663   1.439   2.620
10258SOL    HW231674   2.719   1.590   2.641
10259SOL     OW31675   1.755   3.997   4.102
10259SOL    HW131676   1.676   3.940   4.084
10259SOL    HW231677   1.826   3.943   4.148
10260SOL     OW31678   0.199   0.086   2.973
10260SOL    HW131679   0.140   0.065   2.895
10260SOL    HW231680   0.279   0.027   2.971
10261SOL     OW31681   0.285   4.278   0.634
10261SOL    HW131682   0.194   4.254   0.667
10261SOL    HW231683   0.280   4.361   0.579
10262SOL     OW31684   3.676   0.882   6.651
10262SOL    HW131685   3.614   0.942   6.601
10262SOL    HW231686   3.706   0.807   6.591
10263SOL     OW31687   5.842   0.779   2.824
10263SOL    HW131688   5.893   0.716   2.883
10263SOL    HW231689   5.785   0.838   2.881
10264SOL     OW31690   6.657   0.333   6.314
10264SOL    HW131691   6.654   0.234   6.332
10264SOL    HW231692   6.578   0.377   6.356
10265SOL     OW31693   1.694   1.759   1.681
10265SOL    HW131694   1.752   1.827   1.636
10265SOL    HW231695   1.698   1.771   1.780
10266SOL     OW31696   2.578   3.420   1.771
10266SOL    HW131697   2.587   3.496   1.706
10266SOL    HW231698   2.491   3.427   1.818
10267SOL     OW31699   6.250   0.274   0.331
10267SOL    HW131700   6.246   0.183   0.373
10267SOL    HW231701   6.274   0.342   0.400
10268SOL     OW31702   3.543   5.953   2.204
10268SOL    HW131703   3.559   5.901   2.288
10268SOL    HW231704   3.605   6.031   2.201
10269SOL     OW31705   1.994   1.716   0.810
10269SOL    HW131706   2.086   1.724   0.774
10269SOL    HW231707   1.960   1.623   0.797
10270SOL     OW31708   2.460   0.242   3.455
10270SOL    HW131709   2.411   0.318   3.498
10270SOL    HW231710   2.409   0.157   3.471
10271SOL     OW31711   2.186   1.290   6.676
10271SOL    HW131712   2.096   1.247   6.676
10271SOL    HW231713   2.256   1.222   6.696
10272SOL     OW31714   6.240   0.160   4.274
10272SOL    HW131715   6.178   0.105   4.218
10272SOL    HW231716   6.250   0.251   4.233
10273SOL     OW31717   2.056   5.439   3.731
10273SOL    HW131718   2.118   5.459   3.655
10273SOL    HW231719   2.063   5.342   3.756
10274SOL     OW31720   0.660   4.239   4.722
10274SOL    HW131721   0.662   4.174   4.646
10274SOL    HW231722   0.570   4.238   4.765
10275SOL     OW31723   6.415   1.085   2.103
10275SOL    HW131724   6.348   1.158   2.092
10275SOL    HW231725   6.470   1.078   2.020
10276SOL     OW31726   2.894   5.788   5.266
10276SOL    HW131727   2.853   5.704   5.230
10276SOL    HW231728   2.988   5.797   5.231
10277SOL     OW31729   1.299   6.008   3.872
10277SOL    HW131730   1.293   5.981   3.776
10277SOL    HW231731   1.390   5.985   3.908
10278SOL     OW31732   6.369   0.156   4.563
10278SOL    HW131733   6.326   0.081   4.612
10278SOL    HW231734   6.299   0.211   4.518
10279SOL     OW31735   1.292   5.612   3.857
10279SOL    HW131736   1.364   5.665   3.814
10279SOL    HW231737   1.311   5.604   3.955
10280SOL     OW31738   6.433   4.675   0.510
10280SOL    HW131739   6.431   4.684   0.411
10280SOL    HW231740   6.387   4.754   0.551
10281SOL     OW31741   6.601   1.218   2.995
10281SOL    HW131742   6.661   1.249   3.068
10281SOL    HW231743   6.648   1.149   2.940
10282SOL     OW31744   5.086   3.295   3.531
10282SOL    HW131745   5.138   3.359   3.588
10282SOL    HW231746   5.022   3.345   3.473
10283SOL     OW31747   0.491   2.561   1.375
10283SOL    HW131748   0.588   2.583   1.373
10283SOL    HW231749   0.453   2.567   1.283
10284SOL     OW31750   0.271   4.079   4.007
10284SOL    HW131751   0.184   4.125   4.023
10284SOL    HW231752   0.270   4.036   3.916
10285SOL     OW31753   6.536   6.780   6.132
10285SOL    HW131754   6.589   6.744   6.209
10285SOL    HW231755   6.487   6.705   6.087
10286SOL     OW31756   2.703   1.427   2.969
10286SOL    HW131757   2.659   1.492   2.907
10286SOL    HW231758   2.690   1.456   3.064
10287SOL     OW31759   1.478   5.408   2.595
10287SOL    HW131760   1.476   5.346   2.673
10287SOL    HW231761   1.508   5.359   2.514
10288SOL     OW31762   3.497   5.704   4.859
10288SOL    HW131763   3.460   5.787   4.817
10288SOL    HW231764   3.574   5.728   4.918
10289SOL     OW31765   3.765   6.308   0.242
10289SOL    HW131766   3.749   6.330   0.145
10289SOL    HW231767   3.853   6.346   0.270
10290SOL     OW31768   3.137   3.393   1.879
10290SOL    HW131769   3.056   3.398   1.821
10290SOL    HW231770   3.171   3.485   1.898
10291SOL     OW31771   2.306   1.815   2.418
10291SOL    HW131772   2.389   1.798   2.365
10291SOL    HW231773   2.243   1.737   2.408
10292SOL     OW31774   6.890   6.787   6.209
10292SOL    HW131775   6.988   6.791   6.192
10292SOL    HW231776   6.853   6.879   6.216
10293SOL     OW31777   1.181   3.944   5.266
10293SOL    HW131778   1.272   3.984   5.274
10293SOL    HW231779   1.159   3.929   5.169
10294SOL     OW31780   3.176   0.636   2.504
10294SOL    HW131781   3.250   0.574   2.526
10294SOL    HW231782   3.089   0.587   2.508
10295SOL     OW31783   1.059   1.585   6.926
10295SOL    HW131784   1.039   1.602   0.003
10295SOL    HW231785   1.158   1.595   6.911
10296SOL     OW31786   6.311   2.129   5.843
10296SOL    HW131787   6.256   2.077   5.909
10296SOL    HW231788   6.367   2.066   5.790
10297SOL     OW31789   3.899   1.272   0.649
10297SOL    HW131790   3.844   1.231   0.721
10297SOL    HW231791   3.855   1.256   0.560
10298SOL     OW31792   0.458   2.198   2.086
10298SOL    HW131793   0.415   2.241   2.166
10298SOL    HW231794   0.514   2.121   2.116
10299SOL     OW31795   4.600   0.191   2.575
10299SOL    HW131796   4.562   0.215   2.665
10299SOL    HW231797   4.652   0.106   2.583
10300SOL     OW31798   1.278   3.494   0.966
10300SOL    HW131799   1.351   3.478   1.032
10300SOL    HW231800   1.198   3.531   1.014
10301SOL     OW31801   3.918   0.740   6.924
10301SOL    HW131802   3.874   0.698   7.003
10301SOL    HW231803   3.871   0.825   6.901
10302SOL     OW31804   2.937   6.487   4.897
10302SOL    HW131805   2.956   6.398   4.940
10302SOL    HW231806   2.959   6.560   4.962
10303SOL     OW31807   0.363   4.779   4.426
10303SOL    HW131808   0.410   4.799   4.339
10303SOL    HW231809   0.412   4.707   4.474
10304SOL     OW31810   5.622   6.324   0.783
10304SOL    HW131811   5.588   6.413   0.814
10304SOL    HW231812   5.570   6.294   0.704
10305SOL     OW31813   3.123   3.835   5.737
10305SOL    HW131814   3.087   3.744   5.721
10305SOL    HW231815   3.047   3.901   5.741
10306SOL     OW31816   3.918   0.367   0.888
10306SOL    HW131817   3.861   0.299   0.935
10306SOL    HW231818   3.878   0.386   0.798
10307SOL     OW31819   1.867   0.227   5.343
10307SOL    HW131820   1.768   0.213   5.349
10307SOL    HW231821   1.915   0.155   5.393
10308SOL     OW31822   3.063   4.712   1.629
10308SOL    HW131823   3.161   4.696   1.640
10308SOL    HW231824   3.013   4.662   1.699
10309SOL     OW31825   0.341   0.740   5.769
10309SOL    HW131826   0.329   0.700   5.679
10309SOL    HW231827   0.342   0.839   5.762
10310SOL     OW31828   2.852   3.991   5.402
10310SOL    HW131829   2.891   4.061   5.461
10310SOL    HW231830   2.807   3.921   5.458
10311SOL     OW31831   5.213   5.781   6.890
10311SOL    HW131832   5.252   5.691   6.869
10311SOL    HW231833   5.220   5.840   6.810
10312SOL     OW31834   3.693   6.645   2.384
10312SOL    HW131835   3.644   6.560   2.400
10312SOL    HW231836   3.720   6.685   2.472
10313SOL     OW31837   5.232   6.864   2.570
10313SOL    HW131838   5.211   6.953   2.611
10313SOL    HW231839   5.294   6.814   2.631
10314SOL     OW31840   0.406   0.272   0.943
10314SOL    HW131841   0.331   0.223   0.898
10314SOL    HW231842   0.491   0.221   0.932
10315SOL     OW31843   5.400   5.826   3.507
10315SOL    HW131844   5.444   5.850   3.421
10315SOL    HW231845   5.367   5.732   3.503
10316SOL     OW31846   0.617   1.707   0.100
10316SOL    HW131847   0.682   1.683   0.029
10316SOL    HW231848   0.664   1.711   0.188
10317SOL     OW31849   3.258   5.980   4.833
10317SOL    HW131850   3.224   5.953   4.743
10317SOL    HW231851   3.217   5.921   4.903
10318SOL     OW31852   6.428   0.360   0.108
10318SOL    HW131853   6.357   0.312   0.159
10318SOL    HW231854   6.424   0.334   0.011
10319SOL     OW31855   0.740   4.089   3.850
10319SOL    HW131856   0.799   4.146   3.907
10319SOL    HW231857   0.644   4.101   3.878
10320SOL     OW31858   0.176   6.813   3.035
10320SOL    HW131859   0.139   6.906   3.035
10320SOL    HW231860   0.163   6.772   2.945
10321SOL     OW31861   5.812   3.130   2.308
10321SOL    HW131862   5.713   3.123   2.320
10321SOL    HW231863   5.836   3.223   2.279
10322SOL     OW31864   4.599   4.442   4.912
10322SOL    HW131865   4.636   4.399   4.995
10322SOL    HW231866   4.503   4.466   4.927
10323SOL     OW31867   1.172   3.944   6.125
10323SOL    HW131868   1.271   3.956   6.114
10323SOL    HW231869   1.133   4.027   6.166
10324SOL     OW31870   3.262   2.985   2.537
10324SOL    HW131871   3.343   2.956   2.486
10324SOL    HW231872   3.191   3.015   2.473
10325SOL     OW31873   5.998   5.920   4.357
10325SOL    HW131874   5.957   5.864   4.429
10325SOL    HW231875   6.091   5.888   4.340
10326SOL     OW31876   5.311   3.491   6.564
10326SOL    HW131877   5.372   3.512   6.488
10326SOL    HW231878   5.264   3.404   6.546
10327SOL     OW31879   2.565   5.454   0.114
10327SOL    HW131880   2.488   5.394   0.137
10327SOL    HW231881   2.534   5.549   0.112
10328SOL     OW31882   5.457   2.321   2.076
10328SOL    HW131883   5.458   2.399   2.139
10328SOL    HW231884   5.511   2.247   2.116
10329SOL     OW31885   3.625   1.820   2.258
10329SOL    HW131886   3.549   1.810   2.323
10329SOL    HW231887   3.711   1.797   2.304
10330SOL     OW31888   5.445   0.496   1.618
10330SOL    HW131889   5.495   0.426   1.669
10330SOL    HW231890   5.372   0.533   1.676
10331SOL     OW31891   6.051   6.115   5.816
10331SOL    HW131892   6.150   6.116   5.831
10331SOL    HW231893   6.008   6.192   5.862
10332SOL     OW31894   1.597   1.734   6.399
10332SOL    HW131895   1.524   1.782   6.351
10332SOL    HW231896   1.685   1.763   6.363
10333SOL     OW31897   1.472   3.757   4.460
10333SOL    HW131898   1.398   3.718   4.516
10333SOL    HW231899   1.505   3.841   4.502
10334SOL     OW31900   3.114   1.469   4.101
10334SOL    HW131901   3.192   1.435   4.047
10334SOL    HW231902   3.087   1.559   4.069
10335SOL     OW31903   1.187   2.431   4.980
10335SOL    HW131904   1.118   2.416   4.908
10335SOL    HW231905   1.275   2.395   4.949
10336SOL     OW31906   5.626   0.030   2.890
10336SOL    HW131907   5.657   0.114   2.935
10336SOL    HW231908   5.620   0.044   2.792
10337SOL     OW31909   6.786   5.543   6.950
10337SOL    HW131910   6.768   5.519   0.026
10337SOL    HW231911   6.849   5.475   6.911
10338SOL     OW31912   1.055   6.553   1.550
10338SOL    HW131913   1.119   6.521   1.480
10338SOL    HW231914   1.048   6.484   1.622
10339SOL     OW31915   5.792   2.689   5.871
10339SOL    HW131916   5.798   2.774   5.819
10339SOL    HW231917   5.713   2.636   5.839
10340SOL     OW31918   2.236   3.976   5.937
10340SOL    HW131919   2.224   4.055   5.876
10340SOL    HW231920   2.254   4.008   6.030
10341SOL     OW31921   2.357   4.501   3.699
10341SOL    HW131922   2.394   4.449   3.622
10341SOL    HW231923   2.425   4.505   3.772
10342SOL     OW31924   0.428   0.824   3.772
10342SOL    HW131925   0.491   0.780   3.837
10342SOL    HW231926   0.437   0.781   3.682
10343SOL     OW31927   3.870   5.449   1.728
10343SOL    HW131928   3.815   5.426   1.648
10343SOL    HW231929   3.860   5.546   1.749
10344SOL     OW31930   4.492   6.802   0.062
10344SOL    HW131931   4.500   6.850   0.150
10344SOL    HW231932   4.399   6.767   0.052
10345SOL     OW31933   2.098   3.794   4.083
10345SOL    HW131934   2.150   3.879   4.077
10345SOL    HW231935   2.131   3.740   4.160
10346SOL     OW31936   6.891   6.147   0.140
10346SOL    HW131937   6.855   6.226   0.092
10346SOL    HW231938   6.972   6.113   0.092
10347SOL     OW31939   5.613   1.839   5.192
10347SOL    HW131940   5.524   1.851   5.149
10347SOL    HW231941   5.651   1.928   5.216
10348SOL     OW31942   6.566   4.983   1.067
10348SOL    HW131943   6.566   4.961   1.164
10348SOL    HW231944   6.620   5.066   1.051
10349SOL     OW31945   0.434   6.645   6.256
10349SOL    HW131946   0.410   6.727   6.205
10349SOL    HW231947   0.491   6.586   6.198
10350SOL     OW31948   3.269   1.121   6.634
10350SOL    HW131949   3.172   1.138   6.650
10350SOL    HW231950   3.301   1.047   6.694
10351SOL     OW31951   4.040   5.341   6.376
10351SOL    HW131952   4.048   5.351   6.475
10351SOL    HW231953   3.955   5.385   6.346
10352SOL     OW31954   3.809   3.880   6.616
10352SOL    HW131955   3.720   3.841   6.640
10352SOL    HW231956   3.841   3.839   6.531
10353SOL     OW31957   0.746   2.985   4.748
10353SOL    HW131958   0.790   2.914   4.804
10353SOL    HW231959   0.649   2.990   4.771
10354SOL     OW31960   5.644   1.720   1.131
10354SOL    HW131961   5.720   1.744   1.071
10354SOL    HW231962   5.558   1.728   1.081
10355SOL     OW31963   1.221   4.732   2.889
10355SOL    HW131964   1.285   4.803   2.861
10355SOL    HW231965   1.269   4.645   2.901
10356SOL     OW31966   0.039   2.024   4.715
10356SOL    HW131967   7.014   1.935   4.725
10356SOL    HW231968   6.994   2.096   4.739
10357SOL     OW31969   3.659   2.768   6.972
10357SOL    HW131970   3.602   2.792   6.893
10357SOL    HW231971   3.664   2.669   6.980
10358SOL     OW31972   0.127   1.266   2.187
10358SOL    HW131973   0.036   1.272   2.228
10358SOL    HW231974   0.171   1.182   2.218
10359SOL     OW31975   0.985   1.270   1.083
10359SOL    HW131976   0.951   1.233   1.169
10359SOL    HW231977   1.057   1.337   1.100
10360SOL     OW31978   0.121   4.658   2.820
10360SOL    HW131979   0.037   4.712   2.818
10360SOL    HW231980   0.140   4.623   2.728
10361SOL     OW31981   1.968   4.832   1.466
10361SOL    HW131982   2.048   4.797   1.419
10361SOL    HW231983   1.973   4.932   1.471
10362SOL     OW31984   1.583   4.570   5.173
10362SOL    HW131985   1.510   4.597   5.235
10362SOL    HW231986   1.666   4.622   5.194
10363SOL     OW31987   5.842   7.012   3.492
10363SOL    HW131988   5.797   0.077   3.460
10363SOL    HW231989   5.934   7.007   3.454
10364SOL     OW31990   1.605   3.851   1.092
10364SOL    HW131991   1.675   3.786   1.062
10364SOL    HW231992   1.643   3.911   1.163
10365SOL     OW31993   4.798   5.380   6.869
10365SOL    HW131994   4.857   5.300   6.881
10365SOL    HW231995   4.831   5.434   6.792
10366SOL     OW31996   3.810   6.476   3.774
10366SOL    HW131997   3.865   6.393   3.765
10366SOL    HW231998   3.723   6.453   3.818
10367SOL     OW31999   6.515   1.473   3.289
10367SOL    HW132000   6.513   1.380   3.325
10367SOL    HW232001   6.587   1.480   3.220
10368SOL     OW32002   2.509   0.439   1.344
10368SOL    HW132003   2.436   0.399   1.290
10368SOL    HW232004   2.523   0.534   1.316
10369SOL     OW32005   4.529   2.733   0.160
10369SOL    HW132006   4.566   2.823   0.140
10369SOL    HW232007   4.470   2.703   0.085
10370SOL     OW32008   3.923   1.193   4.990
10370SOL    HW132009   3.906   1.103   5.030
10370SOL    HW232010   3.837   1.241   4.978
10371SOL     OW32011   5.403   6.370   5.457
10371SOL    HW132012   5.320   6.371   5.401
10371SOL    HW232013   5.380   6.337   5.549
10372SOL     OW32014   1.051   0.426   3.645
10372SOL    HW132015   1.142   0.462   3.623
10372SOL    HW232016   1.036   0.342   3.592
10373SOL     OW32017   1.459   5.172   5.006
10373SOL    HW132018   1.505   5.091   4.970
10373SOL    HW232019   1.476   5.180   5.104
10374SOL     OW32020   3.044   1.758   3.707
10374SOL    HW132021   2.960   1.800   3.671
10374SOL    HW232022   3.105   1.829   3.740
10375SOL     OW32023   0.196   1.905   0.680
10375SOL    HW132024   0.250   1.914   0.764
10375SOL    HW232025   0.218   1.982   0.619
10376SOL     OW32026   6.553   0.354   3.353
10376SOL    HW132027   6.617   0.302   3.410
10376SOL    HW232028   6.583   0.348   3.257
10377SOL     OW32029   0.506   6.708   4.400
10377SOL    HW132030   0.597   6.715   4.440
10377SOL    HW232031   0.497   6.620   4.353
10378SOL     OW32032   6.200   6.560   5.827
10378SOL    HW132033   6.250   6.638   5.792
10378SOL    HW232034   6.107   6.561   5.790
10379SOL     OW32035   4.471   2.045   4.591
10379SOL    HW132036   4.537   2.100   4.643
10379SOL    HW232037   4.509   1.955   4.573
10380SOL     OW32038   4.007   1.052   3.762
10380SOL    HW132039   4.002   0.997   3.845
10380SOL    HW232040   4.088   1.025   3.709
10381SOL     OW32041   4.143   5.296   4.971
10381SOL    HW132042   4.060   5.345   5.001
10381SOL    HW232043   4.224   5.345   5.004
10382SOL     OW32044   1.142   5.724   0.383
10382SOL    HW132045   1.199   5.684   0.311
10382SOL    HW232046   1.052   5.680   0.382
10383SOL     OW32047   5.341   2.489   0.494
10383SOL    HW132048   5.347   2.586   0.472
10383SOL    HW232049   5.367   2.435   0.414
10384SOL     OW32050   5.796   1.136   6.765
10384SOL    HW132051   5.845   1.067   6.819
10384SOL    HW232052   5.708   1.098   6.735
10385SOL     OW32053   6.791   2.460   6.939
10385SOL    HW132054   6.738   2.379   6.914
10385SOL    HW232055   6.883   2.454   6.899
10386SOL     OW32056   6.686   1.769   6.020
10386SOL    HW132057   6.656   1.679   5.989
10386SOL    HW232058   6.773   1.791   5.976
10387SOL     OW32059   1.684   4.168   2.298
10387SOL    HW132060   1.675   4.132   2.206
10387SOL    HW232061   1.748   4.112   2.351
10388SOL     OW32062   1.906   4.715   2.599
10388SOL    HW132063   1.902   4.621   2.633
10388SOL    HW232064   1.813   4.749   2.583
10389SOL     OW32065   0.778   5.725   3.343
10389SOL    HW132066   0.809   5.701   3.435
10389SOL    HW232067   0.715   5.803   3.349
10390SOL     OW32068   2.152   4.022   3.576
10390SOL    HW132069   2.115   3.944   3.627
10390SOL    HW232070   2.152   4.103   3.635
10391SOL     OW32071   3.659   6.249   4.791
10391SOL    HW132072   3.612   6.249   4.702
10391SOL    HW232073   3.658   6.341   4.829
10392SOL     OW32074   6.217   5.426   6.326
10392SOL    HW132075   6.190   5.428   6.423
10392SOL    HW232076   6.167   5.498   6.277
10393SOL     OW32077   0.532   1.068   4.853
10393SOL    HW132078   0.486   1.108   4.773
10393SOL    HW232079   0.617   1.025   4.824
10394SOL     OW32080   3.302   0.042   1.288
10394SOL    HW132081   3.227   0.006   1.343
10394SOL    HW232082   3.291   0.012   1.193
10395SOL     OW32083   1.531   1.202   4.154
10395SOL    HW132084   1.550   1.253   4.070
10395SOL    HW232085   1.586   1.118   4.155
10396SOL     OW32086   0.487   0.089   4.958
10396SOL    HW132087   0.548   0.137   5.021
10396SOL    HW232088   0.411   0.149   4.934
10397SOL     OW32089   4.450   1.889   2.602
10397SOL    HW132090   4.535   1.907   2.553
10397SOL    HW232091   4.374   1.890   2.538
10398SOL     OW32092   6.515   3.151   2.176
10398SOL    HW132093   6.602   3.161   2.130
10398SOL    HW232094   6.527   3.099   2.261
10399SOL     OW32095   6.140   2.914   5.292
10399SOL    HW132096   6.100   2.978   5.227
10399SOL    HW232097   6.181   2.964   5.368
10400SOL     OW32098   1.403   5.010   1.906
10400SOL    HW132099   1.353   4.974   1.828
10400SOL    HW232100   1.490   4.962   1.914
10401SOL     OW32101   1.118   5.101   1.016
10401SOL    HW132102   1.177   5.020   1.014
10401SOL    HW232103   1.084   5.115   1.109
10402SOL     OW32104   0.858   2.074   4.707
10402SOL    HW132105   0.892   1.986   4.676
10402SOL    HW232106   0.780   2.060   4.769
10403SOL     OW32107   5.556   0.814   2.505
10403SOL    HW132108   5.612   0.781   2.430
10403SOL    HW232109   5.554   0.746   2.578
10404SOL     OW32110   7.006   0.561   4.608
10404SOL    HW132111   0.004   0.477   4.556
10404SOL    HW232112   0.072   0.613   4.614
10405SOL     OW32113   2.873   7.002   6.898
10405SOL    HW132114   2.790   0.033   6.874
10405SOL    HW232115   2.863   6.961   6.988
10406SOL     OW32116   2.019   5.893   5.406
10406SOL    HW132117   1.963   5.906   5.488
10406SOL    HW232118   2.111   5.929   5.423
10407SOL     OW32119   1.689   1.471   6.348
10407SOL    HW132120   1.678   1.559   6.395
10407SOL    HW232121   1.737   1.485   6.262
10408SOL     OW32122   3.880   6.874   3.161
10408SOL    HW132123   3.787   6.838   3.173
10408SOL    HW232124   3.900   6.883   3.064
10409SOL     OW32125   6.613   4.859   2.313
10409SOL    HW132126   6.513   4.867   2.315
10409SOL    HW232127   6.651   4.897   2.397
10410SOL     OW32128   4.961   5.775   1.105
10410SOL    HW132129   4.924   5.682   1.102
10410SOL    HW232130   5.007   5.790   1.192
10411SOL     OW32131   1.729   4.669   2.284
10411SOL    HW132132   1.714   4.733   2.359
10411SOL    HW232133   1.704   4.576   2.314
10412SOL     OW32134   0.539   2.134   6.580
10412SOL    HW132135   0.591   2.211   6.543
10412SOL    HW232136   0.506   2.077   6.505
10413SOL     OW32137   6.767   1.608   4.972
10413SOL    HW132138   6.674   1.645   4.972
10413SOL    HW232139   6.787   1.569   5.062
10414SOL     OW32140   5.574   6.234   5.001
10414SOL    HW132141   5.592   6.304   5.071
10414SOL    HW232142   5.514   6.164   5.039
10415SOL     OW32143   6.827   5.674   3.235
10415SOL    HW132144   6.761   5.732   3.281
10415SOL    HW232145   6.833   5.586   3.282
10416SOL     OW32146   4.904   0.722   0.621
10416SOL    HW132147   4.864   0.803   0.578
10416SOL    HW232148   4.837   0.681   0.683
10417SOL     OW32149   4.566   4.380   4.126
10417SOL    HW132150   4.614   4.351   4.044
10417SOL    HW232151   4.614   4.344   4.207
10418SOL     OW32152   6.082   3.535   0.302
10418SOL    HW132153   6.172   3.515   0.263
10418SOL    HW232154   6.014   3.542   0.229
10419SOL     OW32155   1.765   0.473   4.836
10419SOL    HW132156   1.771   0.535   4.757
10419SOL    HW232157   1.827   0.396   4.822
10420SOL     OW32158   6.353   3.919   4.440
10420SOL    HW132159   6.375   3.897   4.345
10420SOL    HW232160   6.333   4.017   4.448
10421SOL     OW32161   0.570   3.802   4.395
10421SOL    HW132162   0.633   3.728   4.421
10421SOL    HW232163   0.598   3.887   4.440
10422SOL     OW32164   5.638   3.446   5.661
10422SOL    HW132165   5.606   3.418   5.570
10422SOL    HW232166   5.722   3.500   5.651
10423SOL     OW32167   2.610   5.279   2.368
10423SOL    HW132168   2.555   5.225   2.304
10423SOL    HW232169   2.704   5.243   2.369
10424SOL     OW32170   4.544   1.012   2.097
10424SOL    HW132171   4.643   1.023   2.097
10424SOL    HW232172   4.501   1.090   2.052
10425SOL     OW32173   0.783   3.976   0.314
10425SOL    HW132174   0.858   3.919   0.349
10425SOL    HW232175   0.751   4.036   0.387
10426SOL     OW32176   6.830   1.791   0.148
10426SOL    HW132177   6.739   1.779   0.107
10426SOL    HW232178   6.847   1.889   0.162
10427SOL     OW32179   6.035   0.558   3.762
10427SOL    HW132180   6.103   0.606   3.707
10427SOL    HW232181   6.049   0.579   3.859
10428SOL     OW32182   1.758   6.691   4.494
10428SOL    HW132183   1.753   6.668   4.397
10428SOL    HW232184   1.713   6.620   4.549
10429SOL     OW32185   2.375   4.272   1.476
10429SOL    HW132186   2.438   4.342   1.440
10429SOL    HW232187   2.393   4.185   1.430
10430SOL     OW32188   3.600   0.075   4.282
10430SOL    HW132189   3.602   0.153   4.219
10430SOL    HW232190   3.636   0.104   4.371
10431SOL     OW32191   4.121   2.105   3.953
10431SOL    HW132192   4.024   2.117   3.975
10431SOL    HW232193   4.130   2.054   3.868
10432SOL     OW32194   0.662   5.033   0.334
10432SOL    HW132195   0.614   5.105   0.383
10432SOL    HW232196   0.760   5.043   0.346
10433SOL     OW32197   3.885   6.366   4.482
10433SOL    HW132198   3.820   6.441   4.486
10433SOL    HW232199   3.974   6.399   4.450
10434SOL     OW32200   4.134   1.222   6.999
10434SOL    HW132201   4.163   1.170   6.918
10434SOL    HW232202   4.171   1.314   6.994
10435SOL     OW32203   2.573   1.126   1.631
10435SOL    HW132204   2.591   1.207   1.688
10435SOL    HW232205   2.487   1.140   1.581
10436SOL     OW32206   0.897   3.563   5.211
10436SOL    HW132207   0.880   3.478   5.260
10436SOL    HW232208   0.853   3.639   5.260
10437SOL     OW32209   6.846   6.476   4.880
10437SOL    HW132210   6.944   6.492   4.873
10437SOL    HW232211   6.806   6.472   4.788
10438SOL     OW32212   6.644   5.306   6.659
10438SOL    HW132213   6.720   5.331   6.719
10438SOL    HW232214   6.561   5.353   6.689
10439SOL     OW32215   6.149   5.485   4.390
10439SOL    HW132216   6.068   5.430   4.374
10439SOL    HW232217   6.172   5.484   4.487
10440SOL     OW32218   6.140   2.580   1.273
10440SOL    HW132219   6.086   2.498   1.289
10440SOL    HW232220   6.160   2.588   1.175
10441SOL     OW32221   4.467   1.854   6.678
10441SOL    HW132222   4.462   1.816   6.770
10441SOL    HW232223   4.390   1.821   6.623
10442SOL     OW32224   2.609   0.909   5.066
10442SOL    HW132225   2.660   0.846   5.008
10442SOL    HW232226   2.671   0.979   5.102
10443SOL     OW32227   0.926   0.615   0.099
10443SOL    HW132228   0.991   0.690   0.083
10443SOL    HW232229   0.882   0.627   0.188
10444SOL     OW32230   4.197   5.178   3.583
10444SOL    HW132231   4.131   5.207   3.652
10444SOL    HW232232   4.150   5.155   3.498
10445SOL     OW32233   1.117   3.655   3.971
10445SOL    HW132234   1.056   3.725   3.934
10445SOL    HW232235   1.088   3.565   3.938
10446SOL     OW32236   2.527   5.014   4.799
10446SOL    HW132237   2.547   4.922   4.767
10446SOL    HW232238   2.567   5.081   4.736
10447SOL     OW32239   1.384   2.171   2.828
10447SOL    HW132240   1.343   2.086   2.861
10447SOL    HW232241   1.405   2.229   2.906
10448SOL     OW32242   0.913   5.606   2.577
10448SOL    HW132243   0.978   5.581   2.648
10448SOL    HW232244   0.904   5.706   2.573
10449SOL     OW32245   3.909   4.897   4.828
10449SOL    HW132246   3.972   4.861   4.759
10449SOL    HW232247   3.822   4.921   4.784
10450SOL     OW32248   0.872   2.076   3.847
10450SOL    HW132249   0.954   2.123   3.813
10450SOL    HW232250   0.811   2.057   3.770
10451SOL     OW32251   3.192   1.727   4.391
10451SOL    HW132252   3.247   1.677   4.324
10451SOL    HW232253   3.146   1.803   4.347
10452SOL     OW32254   6.683   2.786   4.369
10452SOL    HW132255   6.758   2.787   4.434
10452SOL    HW232256   6.616   2.716   4.396
10453SOL     OW32257   3.635   5.040   4.421
10453SOL    HW132258   3.586   4.992   4.349
10453SOL    HW232259   3.725   5.067   4.388
10454SOL     OW32260   6.984   1.190   6.932
10454SOL    HW132261   6.913   1.240   6.883
10454SOL    HW232262   0.011   1.252   6.995
10455SOL     OW32263   0.543   6.209   2.400
10455SOL    HW132264   0.513   6.237   2.309
10455SOL    HW232265   0.470   6.158   2.446
10456SOL     OW32266   1.564   5.264   6.695
10456SOL    HW132267   1.566   5.204   6.775
10456SOL    HW232268   1.547   5.358   6.724
10457SOL     OW32269   4.120   1.497   0.413
10457SOL    HW132270   4.101   1.556   0.491
10457SOL    HW232271   4.148   1.407   0.445
10458SOL     OW32272   1.540   6.391   0.392
10458SOL    HW132273   1.510   6.484   0.370
10458SOL    HW232274   1.564   6.385   0.489
10459SOL     OW32275   5.806   6.039   1.569
10459SOL    HW132276   5.747   6.118   1.580
10459SOL    HW232277   5.774   5.983   1.492
10460SOL     OW32278   5.838   0.876   6.517
10460SOL    HW132279   5.779   0.807   6.475
10460SOL    HW232280   5.921   0.888   6.462
10461SOL     OW32281   0.123   4.049   5.670
10461SOL    HW132282   0.120   3.949   5.669
10461SOL    HW232283   0.030   4.085   5.676
10462SOL     OW32284   4.028   4.040   6.663
10462SOL    HW132285   3.934   4.012   6.642
10462SOL    HW232286   4.054   4.004   6.753
10463SOL     OW32287   4.686   2.372   5.820
10463SOL    HW132288   4.756   2.441   5.836
10463SOL    HW232289   4.608   2.388   5.881
10464SOL     OW32290   6.471   4.217   1.821
10464SOL    HW132291   6.536   4.279   1.776
10464SOL    HW232292   6.445   4.145   1.757
10465SOL     OW32293   5.110   4.112   1.371
10465SOL    HW132294   5.080   4.114   1.466
10465SOL    HW232295   5.056   4.046   1.320
10466SOL     OW32296   5.833   4.086   5.252
10466SOL    HW132297   5.866   4.156   5.316
10466SOL    HW232298   5.845   3.995   5.292
10467SOL     OW32299   0.293   2.515   6.819
10467SOL    HW132300   0.286   2.416   6.833
10467SOL    HW232301   0.207   2.550   6.784
10468SOL     OW32302   1.662   3.731   3.801
10468SOL    HW132303   1.744   3.707   3.851
10468SOL    HW232304   1.669   3.696   3.707
10469SOL     OW32305   1.249   1.269   3.986
10469SOL    HW132306   1.192   1.349   4.005
10469SOL    HW232307   1.342   1.298   3.964
10470SOL     OW32308   2.206   3.993   2.136
10470SOL    HW132309   2.114   4.031   2.128
10470SOL    HW232310   2.206   3.922   2.206
10471SOL     OW32311   2.561   4.862   6.550
10471SOL    HW132312   2.517   4.811   6.477
10471SOL    HW232313   2.654   4.827   6.564
10472SOL     OW32314   4.136   5.467   6.097
10472SOL    HW132315   4.190   5.407   6.038
10472SOL    HW232316   4.087   5.412   6.165
10473SOL     OW32317   6.351   5.321   0.029
10473SOL    HW132318   6.324   5.242   0.085
10473SOL    HW232319   6.281   5.392   0.035
10474SOL     OW32320   6.283   6.007   5.283
10474SOL    HW132321   6.368   5.982   5.328
10474SOL    HW232322   6.266   5.944   5.207
10475SOL     OW32323   0.554   5.501   1.397
10475SOL    HW132324   0.543   5.601   1.403
10475SOL    HW232325   0.574   5.465   1.488
10476SOL     OW32326   5.299   6.905   1.237
10476SOL    HW132327   5.219   6.845   1.239
10476SOL    HW232328   5.269   7.001   1.243
10477SOL     OW32329   0.050   5.652   3.673
10477SOL    HW132330   0.102   5.577   3.632
10477SOL    HW232331   6.977   5.653   3.635
10478SOL     OW32332   0.326   0.761   6.357
10478SOL    HW132333   0.281   0.692   6.299
10478SOL    HW232334   0.425   0.748   6.353
10479SOL     OW32335   0.637   3.732   2.049
10479SOL    HW132336   0.563   3.707   1.986
10479SOL    HW232337   0.722   3.689   2.019
10480SOL     OW32338   2.397   0.501   3.038
10480SOL    HW132339   2.406   0.475   2.942
10480SOL    HW232340   2.444   0.433   3.095
10481SOL     OW32341   6.439   0.909   1.160
10481SOL    HW132342   6.373   0.868   1.223
10481SOL    HW232343   6.513   0.844   1.142
10482SOL     OW32344   5.440   3.929   4.056
10482SOL    HW132345   5.436   3.867   3.977
10482SOL    HW232346   5.500   3.891   4.126
10483SOL     OW32347   5.952   0.760   6.736
10483SOL    HW132348   5.915   0.807   6.655
10483SOL    HW232349   6.032   0.809   6.769
10484SOL     OW32350   5.927   0.828   1.901
10484SOL    HW132351   5.930   0.752   1.837
10484SOL    HW232352   5.915   0.914   1.851
10485SOL     OW32353   5.574   3.303   5.391
10485SOL    HW132354   5.650   3.256   5.436
10485SOL    HW232355   5.601   3.331   5.299
10486SOL     OW32356   5.495   2.599   2.220
10486SOL    HW132357   5.485   2.580   2.318
10486SOL    HW232358   5.415   2.648   2.186
10487SOL     OW32359   4.084   6.972   2.414
10487SOL    HW132360   4.022   6.905   2.374
10487SOL    HW232361   4.108   6.943   2.507
10488SOL     OW32362   3.766   4.184   6.492
10488SOL    HW132363   3.769   4.146   6.584
10488SOL    HW232364   3.854   4.168   6.447
10489SOL     OW32365   1.783   4.777   5.121
10489SOL    HW132366   1.838   4.749   5.199
10489SOL    HW232367   1.836   4.838   5.062
10490SOL     OW32368   6.316   0.385   4.129
10490SOL    HW132369   6.219   0.394   4.109
10490SOL    HW232370   6.367   0.457   4.083
10491SOL     OW32371   6.840   5.753   5.470
10491SOL    HW132372   6.846   5.787   5.376
10491SOL    HW232373   6.824   5.829   5.532
10492SOL     OW32374   5.076   4.535   5.882
10492SOL    HW132375   5.069   4.634   5.875
10492SOL    HW232376   5.090   4.495   5.791
10493SOL     OW32377   3.782   1.697   1.145
10493SOL    HW132378   3.864   1.654   1.183
10493SOL    HW232379   3.764   1.661   1.054
10494SOL     OW32380   5.418   1.502   5.617
10494SOL    HW132381   5.380   1.572   5.679
10494SOL    HW232382   5.394   1.411   5.651
10495SOL     OW32383   1.916   0.070   6.463
10495SOL    HW132384   1.948   0.016   6.386
10495SOL    HW232385   1.882   0.009   6.535
10496SOL     OW32386   6.445   0.222   5.527
10496SOL    HW132387   6.439   0.173   5.440
10496SOL    HW232388   6.534   0.206   5.569
10497SOL     OW32389   1.339   1.563   6.338
10497SOL    HW132390   1.359   1.578   6.435
10497SOL    HW232391   1.414   1.599   6.282
10498SOL     OW32392   3.310   4.844   6.048
10498SOL    HW132393   3.286   4.929   6.095
10498SOL    HW232394   3.242   4.774   6.068
10499SOL     OW32395   2.935   5.842   3.081
10499SOL    HW132396   2.954   5.937   3.106
10499SOL    HW232397   2.836   5.828   3.076
10500SOL     OW32398   2.558   2.355   6.823
10500SOL    HW132399   2.472   2.405   6.818
10500SOL    HW232400   2.624   2.396   6.760
10501SOL     OW32401   1.674   3.979   3.089
10501SOL    HW132402   1.688   3.880   3.094
10501SOL    HW232403   1.617   4.000   3.009
10502SOL     OW32404   3.345   5.212   4.200
10502SOL    HW132405   3.293   5.295   4.215
10502SOL    HW232406   3.436   5.235   4.165
10503SOL     OW32407   2.423   3.268   5.899
10503SOL    HW132408   2.477   3.212   5.836
10503SOL    HW232409   2.484   3.329   5.949
10504SOL     OW32410   2.168   3.791   1.230
10504SOL    HW132411   2.179   3.760   1.324
10504SOL    HW232412   2.258   3.814   1.192
10505SOL     OW32413   0.875   6.560   0.537
10505SOL    HW132414   0.823   6.625   0.482
10505SOL    HW232415   0.839   6.558   0.630
10506SOL     OW32416   6.710   4.197   5.396
10506SOL    HW132417   6.645   4.255   5.346
10506SOL    HW232418   6.671   4.106   5.408
10507SOL     OW32419   1.708   6.996   3.400
10507SOL    HW132420   1.765   6.961   3.473
10507SOL    HW232421   1.628   6.937   3.389
10508SOL     OW32422   5.877   4.122   2.914
10508SOL    HW132423   5.888   4.169   2.826
10508SOL    HW232424   5.795   4.065   2.911
10509SOL     OW32425   2.051   0.623   5.593
10509SOL    HW132426   2.096   0.578   5.671
10509SOL    HW232427   2.107   0.700   5.562
10510SOL     OW32428   5.799   0.360   6.870
10510SOL    HW132429   5.832   0.322   6.957
10510SOL    HW232430   5.861   0.432   6.840
10511SOL     OW32431   6.941   2.729   1.353
10511SOL    HW132432   6.890   2.644   1.340
10511SOL    HW232433   6.879   2.800   1.386
10512SOL     OW32434   2.514   0.529   6.196
10512SOL    HW132435   2.422   0.491   6.195
10512SOL    HW232436   2.552   0.523   6.288
10513SOL     OW32437   0.386   1.911   0.274
10513SOL    HW132438   0.313   1.952   0.219
10513SOL    HW232439   0.346   1.866   0.354
10514SOL     OW32440   0.502   3.331   1.923
10514SOL    HW132441   0.535   3.241   1.893
10514SOL    HW232442   0.430   3.318   1.992
10515SOL     OW32443   6.654   3.113   4.615
10515SOL    HW132444   6.734   3.084   4.562
10515SOL    HW232445   6.676   3.198   4.664
10516SOL     OW32446   2.731   6.597   0.835
10516SOL    HW132447   2.727   6.514   0.780
10516SOL    HW232448   2.639   6.622   0.864
10517SOL     OW32449   0.432   2.623   2.856
10517SOL    HW132450   0.435   2.526   2.833
10517SOL    HW232451   0.375   2.671   2.790
10518SOL     OW32452   0.744   6.046   2.660
10518SOL    HW132453   0.770   6.121   2.720
10518SOL    HW232454   0.648   6.057   2.633
10519SOL     OW32455   4.275   3.310   6.067
10519SOL    HW132456   4.272   3.366   5.984
10519SOL    HW232457   4.197   3.333   6.125
10520SOL     OW32458   3.210   4.639   6.238
10520SOL    HW132459   3.294   4.616   6.190
10520SOL    HW232460   3.231   4.661   6.334
10521SOL     OW32461   6.543   5.698   2.254
10521SOL    HW132462   6.517   5.710   2.158
10521SOL    HW232463   6.541   5.601   2.277
10522SOL     OW32464   0.027   0.259   2.133
10522SOL    HW132465   0.043   0.271   2.035
10522SOL    HW232466   6.948   0.268   2.152
10523SOL     OW32467   6.812   6.229   5.857
10523SOL    HW132468   6.726   6.269   5.891
10523SOL    HW232469   6.880   6.302   5.845
10524SOL     OW32470   4.851   1.006   4.559
10524SOL    HW132471   4.759   0.977   4.583
10524SOL    HW232472   4.851   1.105   4.540
10525SOL     OW32473   3.333   6.432   4.985
10525SOL    HW132474   3.328   6.529   4.962
10525SOL    HW232475   3.290   6.378   4.912
10526SOL     OW32476   4.828   6.760   2.643
10526SOL    HW132477   4.898   6.740   2.574
10526SOL    HW232478   4.869   6.750   2.734
10527SOL     OW32479   1.648   2.774   4.568
10527SOL    HW132480   1.572   2.749   4.508
10527SOL    HW232481   1.681   2.693   4.616
10528SOL     OW32482   5.854   4.921   5.501
10528SOL    HW132483   5.946   4.886   5.517
10528SOL    HW232484   5.831   4.990   5.570
10529SOL     OW32485   0.210   5.955   4.046
10529SOL    HW132486   0.178   5.863   4.069
10529SOL    HW232487   0.171   5.983   3.959
10530SOL     OW32488   1.779   2.086   4.994
10530SOL    HW132489   1.873   2.117   5.008
10530SOL    HW232490   1.775   1.987   5.001
10531SOL     OW32491   1.999   1.975   4.776
10531SOL    HW132492   2.001   2.008   4.870
10531SOL    HW232493   2.091   1.948   4.748
10532SOL     OW32494   3.322   3.140   4.912
10532SOL    HW132495   3.349   3.052   4.951
10532SOL    HW232496   3.244   3.128   4.851
10533SOL     OW32497   2.998   1.492   6.368
10533SOL    HW132498   2.931   1.437   6.318
10533SOL    HW232499   2.956   1.529   6.451
10534SOL     OW32500   5.683   5.038   1.457
10534SOL    HW132501   5.737   5.088   1.525
10534SOL    HW232502   5.739   5.022   1.376
10535SOL     OW32503   6.762   0.811   1.748
10535SOL    HW132504   6.705   0.762   1.682
10535SOL    HW232505   6.836   0.857   1.699
10536SOL     OW32506   5.191   5.871   3.034
10536SOL    HW132507   5.285   5.841   3.019
10536SOL    HW232508   5.176   5.883   3.133
10537SOL     OW32509   6.340   5.636   0.764
10537SOL    HW132510   6.301   5.612   0.676
10537SOL    HW232511   6.275   5.693   0.815
10538SOL     OW32512   4.026   3.762   0.283
10538SOL    HW132513   4.098   3.695   0.264
10538SOL    HW232514   3.960   3.761   0.208
10539SOL     OW32515   0.986   3.285   5.294
10539SOL    HW132516   1.024   3.214   5.353
10539SOL    HW232517   1.024   3.276   5.202
10540SOL     OW32518   3.510   0.656   0.078
10540SOL    HW132519   3.543   0.665   0.172
10540SOL    HW232520   3.517   0.561   0.049
10541SOL     OW32521   3.882   2.391   1.056
10541SOL    HW132522   3.806   2.455   1.071
10541SOL    HW232523   3.852   2.318   0.994
10542SOL     OW32524   1.618   2.173   0.074
10542SOL    HW132525   1.561   2.091   0.086
10542SOL    HW232526   1.598   2.237   0.148
10543SOL     OW32527   2.295   0.133   4.757
10543SOL    HW132528   2.332   0.121   4.849
10543SOL    HW232529   2.294   0.230   4.734
10544SOL     OW32530   0.099   2.281   1.764
10544SOL    HW132531   0.089   2.373   1.726
10544SOL    HW232532   0.133   2.219   1.694
10545SOL     OW32533   4.705   1.583   3.102
10545SOL    HW132534   4.645   1.513   3.064
10545SOL    HW232535   4.702   1.580   3.202
10546SOL     OW32536   4.161   1.628   5.401
10546SOL    HW132537   4.080   1.668   5.359
10546SOL    HW232538   4.204   1.694   5.461
10547SOL     OW32539   5.064   6.641   1.466
10547SOL    HW132540   4.980   6.680   1.504
10547SOL    HW232541   5.066   6.543   1.483
10548SOL     OW32542   4.492   4.397   5.329
10548SOL    HW132543   4.417   4.445   5.284
10548SOL    HW232544   4.456   4.338   5.401
10549SOL     OW32545   0.923   1.618   1.496
10549SOL    HW132546   0.957   1.662   1.413
10549SOL    HW232547   0.826   1.637   1.507
10550SOL     OW32548   5.156   6.569   4.764
10550SOL    HW132549   5.166   6.562   4.665
10550SOL    HW232550   5.089   6.641   4.786
10551SOL     OW32551   1.244   2.796   5.870
10551SOL    HW132552   1.241   2.784   5.771
10551SOL    HW232553   1.159   2.763   5.910
10552SOL     OW32554   3.282   1.936   4.866
10552SOL    HW132555   3.263   2.018   4.813
10552SOL    HW232556   3.244   1.945   4.958
10553SOL     OW32557   2.991   4.931   6.097
10553SOL    HW132558   2.989   4.832   6.085
10553SOL    HW232559   3.011   4.953   6.192
10554SOL     OW32560   6.017   4.105   5.810
10554SOL    HW132561   5.931   4.061   5.784
10554SOL    HW232562   6.093   4.042   5.796
10555SOL     OW32563   3.617   2.694   1.533
10555SOL    HW132564   3.683   2.626   1.564
10555SOL    HW232565   3.574   2.662   1.447
10556SOL     OW32566   1.361   3.568   3.676
10556SOL    HW132567   1.387   3.617   3.759
10556SOL    HW232568   1.317   3.631   3.612
10557SOL     OW32569   5.449   1.398   3.701
10557SOL    HW132570   5.509   1.445   3.637
10557SOL    HW232571   5.393   1.331   3.651
10558SOL     OW32572   4.982   6.130   5.146
10558SOL    HW132573   4.894   6.104   5.106
10558SOL    HW232574   4.999   6.074   5.228
10559SOL     OW32575   4.251   2.874   0.612
10559SOL    HW132576   4.181   2.803   0.618
10559SOL    HW232577   4.326   2.841   0.554
10560SOL     OW32578   0.168   2.212   4.490
10560SOL    HW132579   0.150   2.292   4.432
10560SOL    HW232580   0.095   2.204   4.558
10561SOL     OW32581   2.393   4.155   6.498
10561SOL    HW132582   2.335   4.207   6.561
10561SOL    HW232583   2.395   4.059   6.527
10562SOL     OW32584   3.639   1.660   0.604
10562SOL    HW132585   3.547   1.698   0.608
10562SOL    HW232586   3.637   1.571   0.559
10563SOL     OW32587   1.336   2.613   2.762
10563SOL    HW132588   1.315   2.526   2.805
10563SOL    HW232589   1.341   2.601   2.662
10564SOL     OW32590   6.672   2.559   2.309
10564SOL    HW132591   6.648   2.477   2.360
10564SOL    HW232592   6.630   2.556   2.219
10565SOL     OW32593   5.214   1.718   4.946
10565SOL    HW132594   5.144   1.649   4.964
10565SOL    HW232595   5.213   1.743   4.849
10566SOL     OW32596   4.535   5.406   6.781
10566SOL    HW132597   4.629   5.388   6.808
10566SOL    HW232598   4.487   5.319   6.767
10567SOL     OW32599   2.407   5.427   4.401
10567SOL    HW132600   2.321   5.389   4.367
10567SOL    HW232601   2.424   5.394   4.493
10568SOL     OW32602   3.721   1.011   3.250
10568SOL    HW132603   3.704   1.107   3.225
10568SOL    HW232604   3.745   1.006   3.347
10569SOL     OW32605   6.593   2.496   3.190
10569SOL    HW132606   6.558   2.587   3.209
10569SOL    HW232607   6.675   2.503   3.133
10570SOL     OW32608   1.465   3.956   0.878
10570SOL    HW132609   1.481   3.968   0.780
10570SOL    HW232610   1.538   3.899   0.916
10571SOL     OW32611   6.328   6.781   4.345
10571SOL    HW132612   6.381   6.863   4.326
10571SOL    HW232613   6.308   6.776   4.443
10572SOL     OW32614   6.987   3.463   1.688
10572SOL    HW132615   6.967   3.495   1.781
10572SOL    HW232616   6.917   3.499   1.626
10573SOL     OW32617   5.895   4.774   5.759
10573SOL    HW132618   5.875   4.720   5.677
10573SOL    HW232619   5.809   4.797   5.804
10574SOL     OW32620   0.226   2.477   3.109
10574SOL    HW132621   0.207   2.530   3.192
10574SOL    HW232622   0.307   2.420   3.125
10575SOL     OW32623   0.966   6.626   6.507
10575SOL    HW132624   1.053   6.579   6.492
10575SOL    HW232625   0.977   6.723   6.485
10576SOL     OW32626   0.962   5.773   2.989
10576SOL    HW132627   0.963   5.695   3.052
10576SOL    HW232628   1.036   5.762   2.923
10577SOL     OW32629   0.576   2.611   5.762
10577SOL    HW132630   0.578   2.519   5.722
10577SOL    HW232631   0.558   2.605   5.860
10578SOL     OW32632   5.556   1.252   5.410
10578SOL    HW132633   5.562   1.319   5.483
10578SOL    HW232634   5.615   1.279   5.334
10579SOL     OW32635   5.455   6.892   0.551
10579SOL    HW132636   5.525   6.822   0.566
10579SOL    HW232637   5.498   6.974   0.512
10580SOL     OW32638   0.623   5.677   0.217
10580SOL    HW132639   0.550   5.657   0.282
10580SOL    HW232640   0.604   5.764   0.171
10581SOL     OW32641   4.722   2.856   3.786
10581SOL    HW132642   4.771   2.774   3.756
10581SOL    HW232643   4.654   2.881   3.717
10582SOL     OW32644   2.966   4.793   0.128
10582SOL    HW132645   2.866   4.800   0.132
10582SOL    HW232646   2.992   4.700   0.101
10583SOL     OW32647   4.731   1.171   1.390
10583SOL    HW132648   4.733   1.131   1.482
10583SOL    HW232649   4.647   1.145   1.344
10584SOL     OW32650   5.742   6.731   0.768
10584SOL    HW132651   5.791   6.661   0.716
10584SOL    HW232652   5.653   6.694   0.797
10585SOL     OW32653   2.573   4.344   6.403
10585SOL    HW132654   2.502   4.275   6.419
10585SOL    HW232655   2.538   4.413   6.339
10586SOL     OW32656   4.843   2.062   1.098
10586SOL    HW132657   4.924   2.114   1.123
10586SOL    HW232658   4.867   1.997   1.025
10587SOL     OW32659   6.174   2.831   0.435
10587SOL    HW132660   6.085   2.834   0.390
10587SOL    HW232661   6.172   2.889   0.516
10588SOL     OW32662   1.418   4.949   3.093
10588SOL    HW132663   1.346   4.980   3.029
10588SOL    HW232664   1.481   5.024   3.110
10589SOL     OW32665   5.861   1.769   3.968
10589SOL    HW132666   5.809   1.733   4.045
10589SOL    HW232667   5.934   1.704   3.944
10590SOL     OW32668   1.562   0.168   5.349
10590SOL    HW132669   1.514   0.195   5.432
10590SOL    HW232670   1.514   0.205   5.269
10591SOL     OW32671   1.683   2.589   1.957
10591SOL    HW132672   1.774   2.574   1.997
10591SOL    HW232673   1.630   2.504   1.962
10592SOL     OW32674   5.928   1.356   6.478
10592SOL    HW132675   5.861   1.285   6.456
10592SOL    HW232676   5.942   1.415   6.399
10593SOL     OW32677   0.955   4.642   1.681
10593SOL    HW132678   0.939   4.589   1.764
10593SOL    HW232679   1.047   4.625   1.647
10594SOL     OW32680   1.330   1.243   4.340
10594SOL    HW132681   1.270   1.165   4.324
10594SOL    HW232682   1.401   1.246   4.270
10595SOL     OW32683   2.102   6.085   4.476
10595SOL    HW132684   2.144   5.997   4.457
10595SOL    HW232685   2.166   6.143   4.526
10596SOL     OW32686   3.274   1.283   1.859
10596SOL    HW132687   3.245   1.360   1.916
10596SOL    HW232688   3.359   1.245   1.896
10597SOL     OW32689   1.380   0.508   4.144
10597SOL    HW132690   1.343   0.503   4.237
10597SOL    HW232691   1.374   0.417   4.102
10598SOL     OW32692   2.307   0.808   0.763
10598SOL    HW132693   2.294   0.806   0.862
10598SOL    HW232694   2.372   0.737   0.736
10599SOL     OW32695   4.785   0.665   6.574
10599SOL    HW132696   4.838   0.595   6.525
10599SOL    HW232697   4.723   0.710   6.511
10600SOL     OW32698   1.479   3.074   4.867
10600SOL    HW132699   1.429   3.117   4.943
10600SOL    HW232700   1.415   3.023   4.810
10601SOL     OW32701   3.194   6.330   5.226
10601SOL    HW132702   3.254   6.250   5.232
10601SOL    HW232703   3.195   6.365   5.132
10602SOL     OW32704   5.054   1.547   1.413
10602SOL    HW132705   5.030   1.469   1.470
10602SOL    HW232706   5.124   1.602   1.458
10603SOL     OW32707   0.979   5.351   5.477
10603SOL    HW132708   0.894   5.403   5.485
10603SOL    HW232709   0.991   5.322   5.382
10604SOL     OW32710   0.434   4.285   5.761
10604SOL    HW132711   0.499   4.309   5.689
10604SOL    HW232712   0.444   4.188   5.784
10605SOL     OW32713   1.593   4.968   6.394
10605SOL    HW132714   1.580   4.943   6.298
10605SOL    HW232715   1.511   5.014   6.428
10606SOL     OW32716   0.356   1.197   2.017
10606SOL    HW132717   0.392   1.282   1.979
10606SOL    HW232718   0.264   1.211   2.052
10607SOL     OW32719   5.610   4.398   6.589
10607SOL    HW132720   5.689   4.414   6.531
10607SOL    HW232721   5.640   4.379   6.682
10608SOL     OW32722   5.680   0.099   2.612
10608SOL    HW132723   5.779   0.086   2.614
10608SOL    HW232724   5.647   0.095   2.517
10609SOL     OW32725   3.886   0.174   2.724
10609SOL    HW132726   3.914   0.181   2.819
10609SOL    HW232727   3.906   0.259   2.676
10610SOL     OW32728   1.978   4.131   4.799
10610SOL    HW132729   2.046   4.123   4.871
10610SOL    HW232730   1.984   4.221   4.757
10611SOL     OW32731   4.817   2.194   6.283
10611SOL    HW132732   4.781   2.117   6.229
10611SOL    HW232733   4.751   2.217   6.355
10612SOL     OW32734   1.886   0.179   1.081
10612SOL    HW132735   1.888   0.094   1.134
10612SOL    HW232736   1.797   0.188   1.037
10613SOL     OW32737   0.353   6.377   6.883
10613SOL    HW132738   0.320   6.404   6.973
10613SOL    HW232739   0.437   6.427   6.861
10614SOL     OW32740   0.272   1.023   2.567
10614SOL    HW132741   0.366   1.006   2.595
10614SOL    HW232742   0.215   0.944   2.592
10615SOL     OW32743   0.375   6.427   5.566
10615SOL    HW132744   0.413   6.476   5.645
10615SOL    HW232745   0.300   6.481   5.527
10616SOL     OW32746   2.913   5.854   1.334
10616SOL    HW132747   2.970   5.890   1.259
10616SOL    HW232748   2.911   5.754   1.330
10617SOL     OW32749   0.591   1.568   6.715
10617SOL    HW132750   0.675   1.601   6.759
10617SOL    HW232751   0.517   1.567   6.783
10618SOL     OW32752   6.233   4.135   0.626
10618SOL    HW132753   6.184   4.198   0.565
10618SOL    HW232754   6.310   4.095   0.577
10619SOL     OW32755   0.524   3.638   3.442
10619SOL    HW132756   0.449   3.626   3.508
10619SOL    HW232757   0.561   3.731   3.450
10620SOL     OW32758   1.636   5.106   4.486
10620SOL    HW132759   1.561   5.090   4.551
10620SOL    HW232760   1.633   5.036   4.414
10621SOL     OW32761   3.690   6.271   0.626
10621SOL    HW132762   3.754   6.340   0.661
10621SOL    HW232763   3.741   6.189   0.599
10622SOL     OW32764   3.945   2.033   1.113
10622SOL    HW132765   4.039   2.002   1.130
10622SOL    HW232766   3.932   2.049   1.015
10623SOL     OW32767   0.000   1.264   5.050
10623SOL    HW132768   6.942   1.200   5.049
10623SOL    HW232769   6.986   1.356   5.070
10624SOL     OW32770   2.842   0.984   4.148
10624SOL    HW132771   2.744   0.975   4.134
10624SOL    HW232772   2.870   1.079   4.132
10625SOL     OW32773   0.930   2.881   0.776
10625SOL    HW132774   1.022   2.884   0.736
10625SOL    HW232775   0.898   2.787   0.779
10626SOL     OW32776   6.285   2.541   2.536
10626SOL    HW132777   6.381   2.562   2.554
10626SOL    HW232778   6.234   2.626   2.520
10627SOL     OW32779   5.404   5.788   4.673
10627SOL    HW132780   5.488   5.741   4.645
10627SOL    HW232781   5.426   5.880   4.706
10628SOL     OW32782   7.014   5.542   5.441
10628SOL    HW132783   6.931   5.595   5.452
10628SOL    HW232784   0.053   5.585   5.371
10629SOL     OW32785   2.220   4.316   6.606
10629SOL    HW132786   2.148   4.323   6.536
10629SOL    HW232787   2.281   4.394   6.598
10630SOL     OW32788   5.281   0.662   2.081
10630SOL    HW132789   5.292   0.592   2.152
10630SOL    HW232790   5.348   0.734   2.094
10631SOL     OW32791   1.291   6.793   4.863
10631SOL    HW132792   1.385   6.760   4.853
10631SOL    HW232793   1.230   6.716   4.876
10632SOL     OW32794   6.976   3.075   6.468
10632SOL    HW132795   6.969   3.040   6.374
10632SOL    HW232796   0.003   3.164   6.467
10633SOL     OW32797   1.135   5.216   0.185
10633SOL    HW132798   1.035   5.221   0.187
10633SOL    HW232799   1.164   5.121   0.177
10634SOL     OW32800   3.563   6.409   2.362
10634SOL    HW132801   3.554   6.399   2.262
10634SOL    HW232802   3.617   6.333   2.398
10635SOL     OW32803   1.571   1.380   1.496
10635SOL    HW132804   1.639   1.432   1.444
10635SOL    HW232805   1.612   1.348   1.582
10636SOL     OW32806   5.031   1.910   0.770
10636SOL    HW132807   5.021   1.863   0.683
10636SOL    HW232808   4.963   1.875   0.835
10637SOL     OW32809   3.138   4.120   6.279
10637SOL    HW132810   3.153   4.090   6.185
10637SOL    HW232811   3.194   4.200   6.298
10638SOL     OW32812   6.498   0.495   5.982
10638SOL    HW132813   6.482   0.457   5.891
10638SOL    HW232814   6.596   0.515   5.992
10639SOL     OW32815   3.553   2.022   5.111
10639SOL    HW132816   3.520   2.095   5.172
10639SOL    HW232817   3.555   2.056   5.017
10640SOL     OW32818   4.815   6.240   0.659
10640SOL    HW132819   4.720   6.224   0.633
10640SOL    HW232820   4.846   6.326   0.618
10641SOL     OW32821   3.270   0.170   0.087
10641SOL    HW132822   3.221   0.161   0.173
10641SOL    HW232823   3.355   0.118   0.091
10642SOL     OW32824   0.035   4.897   0.440
10642SOL    HW132825   0.044   4.979   0.497
10642SOL    HW232826   0.040   4.816   0.498
10643SOL     OW32827   4.357   3.118   5.450
10643SOL    HW132828   4.402   3.207   5.453
10643SOL    HW232829   4.420   3.047   5.481
10644SOL     OW32830   4.048   1.392   5.171
10644SOL    HW132831   4.007   1.316   5.120
10644SOL    HW232832   4.136   1.362   5.209
10645SOL     OW32833   2.068   7.004   4.849
10645SOL    HW132834   2.040   6.946   4.772
10645SOL    HW232835   2.155   0.029   4.827
10646SOL     OW32836   6.842   5.063   6.807
10646SOL    HW132837   6.901   5.009   6.747
10646SOL    HW232838   6.878   5.059   6.900
10647SOL     OW32839   0.558   5.898   0.733
10647SOL    HW132840   0.498   5.978   0.724
10647SOL    HW232841   0.652   5.924   0.712
10648SOL     OW32842   5.114   4.813   6.096
10648SOL    HW132843   5.115   4.859   6.007
10648SOL    HW232844   5.170   4.731   6.093
10649SOL     OW32845   0.539   4.324   6.192
10649SOL    HW132846   0.454   4.372   6.170
10649SOL    HW232847   0.535   4.291   6.286
10650SOL     OW32848   2.679   0.241   5.677
10650SOL    HW132849   2.665   0.284   5.588
10650SOL    HW232850   2.720   0.150   5.664
10651SOL     OW32851   2.586   0.503   5.211
10651SOL    HW132852   2.547   0.501   5.119
10651SOL    HW232853   2.551   0.584   5.260
10652SOL     OW32854   4.005   1.570   0.654
10652SOL    HW132855   4.055   1.552   0.739
10652SOL    HW232856   3.945   1.493   0.633
10653SOL     OW32857   6.376   4.105   4.163
10653SOL    HW132858   6.440   4.179   4.181
10653SOL    HW232859   6.420   4.037   4.104
10654SOL     OW32860   4.812   0.758   1.945
10654SOL    HW132861   4.832   0.828   2.014
10654SOL    HW232862   4.743   0.793   1.882
10655SOL     OW32863   2.320   5.644   1.364
10655SOL    HW132864   2.353   5.657   1.271
10655SOL    HW232865   2.393   5.666   1.429
10656SOL     OW32866   6.563   2.889   0.011
10656SOL    HW132867   6.626   2.956   6.990
10656SOL    HW232868   6.612   2.804   0.031
10657SOL     OW32869   6.577   0.361   1.021
10657SOL    HW132870   6.511   0.306   0.969
10657SOL    HW232871   6.666   0.317   1.018
10658SOL     OW32872   0.122   6.198   4.262
10658SOL    HW132873   0.051   6.254   4.218
10658SOL    HW232874   0.133   6.113   4.210
10659SOL     OW32875   4.852   0.981   1.054
10659SOL    HW132876   4.754   0.997   1.041
10659SOL    HW232877   4.903   1.015   0.975
10660SOL     OW32878   5.541   5.551   5.292
10660SOL    HW132879   5.541   5.541   5.192
10660SOL    HW232880   5.628   5.519   5.329
10661SOL     OW32881   6.893   0.653   1.966
10661SOL    HW132882   6.850   0.710   1.897
10661SOL    HW232883   6.838   0.571   1.981
10662SOL     OW32884   7.019   1.631   0.209
10662SOL    HW132885   6.962   1.700   0.164
10662SOL    HW232886   0.052   1.673   0.283
10663SOL     OW32887   0.848   2.226   0.860
10663SOL    HW132888   0.756   2.197   0.887
10663SOL    HW232889   0.870   2.313   0.904
10664SOL     OW32890   2.354   5.316   6.056
10664SOL    HW132891   2.388   5.223   6.068
10664SOL    HW232892   2.355   5.340   5.959
10665SOL     OW32893   5.936   1.860   6.945
10665SOL    HW132894   5.846   1.870   6.903
10665SOL    HW232895   5.934   1.786   7.012
10666SOL     OW32896   0.773   6.758   0.388
10666SOL    HW132897   0.839   6.830   0.369
10666SOL    HW232898   0.680   6.793   0.373
10667SOL     OW32899   3.249   2.561   5.634
10667SOL    HW132900   3.162   2.610   5.629
10667SOL    HW232901   3.299   2.573   5.548
10668SOL     OW32902   2.017   0.970   5.718
10668SOL    HW132903   2.106   0.931   5.739
10668SOL    HW232904   2.020   1.069   5.732
10669SOL     OW32905   1.931   6.290   6.520
10669SOL    HW132906   1.870   6.252   6.589
10669SOL    HW232907   1.942   6.225   6.445
10670SOL     OW32908   6.281   4.299   4.732
10670SOL    HW132909   6.301   4.259   4.821
10670SOL    HW232910   6.283   4.399   4.739
10671SOL     OW32911   2.010   2.813   3.415
10671SOL    HW132912   1.957   2.873   3.476
10671SOL    HW232913   2.092   2.861   3.384
10672SOL     OW32914   6.899   2.169   0.977
10672SOL    HW132915   6.949   2.114   1.043
10672SOL    HW232916   6.918   2.135   0.885
10673SOL     OW32917   3.357   4.012   4.186
10673SOL    HW132918   3.395   3.924   4.215
10673SOL    HW232919   3.426   4.062   4.133
10674SOL     OW32920   4.346   1.416   2.202
10674SOL    HW132921   4.376   1.387   2.293
10674SOL    HW232922   4.258   1.374   2.181
10675SOL     OW32923   1.306   1.186   5.592
10675SOL    HW132924   1.245   1.260   5.565
10675SOL    HW232925   1.372   1.220   5.659
10676SOL     OW32926   6.683   0.614   6.749
10676SOL    HW132927   6.667   0.669   6.667
10676SOL    HW232928   6.658   0.519   6.730
10677SOL     OW32929   5.621   1.543   0.563
10677SOL    HW132930   5.561   1.472   0.598
10677SOL    HW232931   5.657   1.597   0.639
10678SOL     OW32932   1.594   5.255   3.494
10678SOL    HW132933   1.669   5.321   3.483
10678SOL    HW232934   1.617   5.191   3.567
10679SOL     OW32935   5.538   5.014   3.426
10679SOL    HW132936   5.471   5.080   3.459
10679SOL    HW232937   5.624   5.061   3.404
10680SOL     OW32938   0.556   2.616   3.786
10680SOL    HW132939   0.599   2.527   3.797
10680SOL    HW232940   0.539   2.656   3.876
10681SOL     OW32941   0.346   2.766   0.109
10681SOL    HW132942   0.434   2.778   0.063
10681SOL    HW232943   0.274   2.755   0.040
10682SOL     OW32944   6.339   2.221   3.392
10682SOL    HW132945   6.343   2.179   3.301
10682SOL    HW232946   6.403   2.297   3.397
10683SOL     OW32947   0.889   0.644   4.221
10683SOL    HW132948   0.950   0.668   4.146
10683SOL    HW232949   0.938   0.588   4.288
10684SOL     OW32950   5.201   6.074   0.995
10684SOL    HW132951   5.262   6.006   1.035
10684SOL    HW232952   5.117   6.030   0.964
10685SOL     OW32953   6.282   2.846   2.419
10685SOL    HW132954   6.210   2.786   2.453
10685SOL    HW232955   6.258   2.879   2.328
10686SOL     OW32956   4.518   4.536   1.323
10686SOL    HW132957   4.431   4.488   1.336
10686SOL    HW232958   4.501   4.622   1.276
10687SOL     OW32959   6.818   5.109   1.206
10687SOL    HW132960   6.833   5.102   1.305
10687SOL    HW232961   6.904   5.095   1.158
10688SOL     OW32962   1.078   4.751   0.913
10688SOL    HW132963   0.980   4.760   0.934
10688SOL    HW232964   1.089   4.702   0.827
10689SOL     OW32965   0.861   0.496   0.536
10689SOL    HW132966   0.893   0.581   0.494
10689SOL    HW232967   0.864   0.504   0.635
10690SOL     OW32968   4.503   0.166   3.042
10690SOL    HW132969   4.531   0.082   3.089
10690SOL    HW232970   4.425   0.206   3.090
10691SOL     OW32971   5.304   1.463   1.206
10691SOL    HW132972   5.231   1.442   1.142
10691SOL    HW232973   5.274   1.537   1.267
10692SOL     OW32974   6.037   6.780   4.072
10692SOL    HW132975   6.048   6.784   3.973
10692SOL    HW232976   6.054   6.687   4.104
10693SOL     OW32977   4.781   2.928   4.278
10693SOL    HW132978   4.744   2.869   4.349
10693SOL    HW232979   4.800   3.018   4.317
10694SOL     OW32980   2.382   5.948   0.390
10694SOL    HW132981   2.392   6.015   0.464
10694SOL    HW232982   2.431   5.979   0.309
10695SOL     OW32983   5.657   3.530   6.023
10695SOL    HW132984   5.727   3.504   5.957
10695SOL    HW232985   5.567   3.522   5.980
10696SOL     OW32986   6.657   0.128   0.841
10696SOL    HW132987   6.598   0.053   0.870
10696SOL    HW232988   6.751   0.108   0.867
10697SOL     OW32989   2.122   5.979   3.208
10697SOL    HW132990   2.027   5.962   3.184
10697SOL    HW232991   2.158   5.901   3.259
10698SOL     OW32992   3.094   0.550   4.952
10698SOL    HW132993   3.193   0.543   4.948
10698SOL    HW232994   3.054   0.485   4.887
10699SOL     OW32995   1.284   2.799   3.714
10699SOL    HW132996   1.253   2.743   3.637
10699SOL    HW232997   1.219   2.789   3.790
10700SOL     OW32998   1.045   3.214   2.735
10700SOL    HW132999   1.119   3.276   2.708
10700SOL    HW233000   1.069   3.121   2.706
10701SOL     OW33001   2.890   6.774   1.402
10701SOL    HW133002   2.863   6.731   1.488
10701SOL    HW233003   2.897   6.704   1.331
10702SOL     OW33004   5.015   2.165   0.519
10702SOL    HW133005   5.022   2.174   0.619
10702SOL    HW233006   4.988   2.252   0.479
10703SOL     OW33007   3.824   3.688   3.822
10703SOL    HW133008   3.861   3.768   3.775
10703SOL    HW233009   3.724   3.692   3.821
10704SOL     OW33010   5.269   5.532   2.006
10704SOL    HW133011   5.268   5.525   2.105
10704SOL    HW233012   5.344   5.591   1.977
10705SOL     OW33013   1.207   3.022   6.659
10705SOL    HW133014   1.302   3.034   6.631
10705SOL    HW233015   1.180   3.099   6.716
10706SOL     OW33016   3.523   3.182   0.892
10706SOL    HW133017   3.571   3.094   0.891
10706SOL    HW233018   3.590   3.256   0.890
10707SOL     OW33019   5.643   0.121   6.799
10707SOL    HW133020   5.698   0.204   6.810
10707SOL    HW233021   5.556   0.131   6.847
10708SOL     OW33022   4.835   2.147   1.718
10708SOL    HW133023   4.751   2.120   1.765
10708SOL    HW233024   4.814   2.214   1.647
10709SOL     OW33025   1.046   0.436   6.288
10709SOL    HW133026   0.959   0.447   6.239
10709SOL    HW233027   1.028   0.403   6.381
10710SOL     OW33028   0.287   6.091   3.699
10710SOL    HW133029   0.355   6.078   3.627
10710SOL    HW233030   0.280   6.188   3.721
10711SOL     OW33031   1.788   3.940   5.439
10711SOL    HW133032   1.854   3.980   5.503
10711SOL    HW233033   1.794   3.989   5.352
10712SOL     OW33034   3.364   1.994   6.567
10712SOL    HW133035   3.301   1.965   6.496
10712SOL    HW233036   3.360   1.930   6.644
10713SOL     OW33037   2.690   6.725   6.978
10713SOL    HW133038   2.644   6.644   7.014
10713SOL    HW233039   2.736   6.772   0.034
10714SOL     OW33040   4.980   5.569   4.041
10714SOL    HW133041   4.938   5.580   4.131
10714SOL    HW233042   4.931   5.499   3.989
10715SOL     OW33043   6.224   0.410   2.658
10715SOL    HW133044   6.275   0.492   2.684
10715SOL    HW233045   6.278   0.328   2.679
10716SOL     OW33046   6.891   1.252   2.251
10716SOL    HW133047   6.836   1.328   2.287
10716SOL    HW233048   6.834   1.170   2.244
10717SOL     OW33049   0.751   6.758   1.923
10717SOL    HW133050   0.659   6.772   1.961
10717SOL    HW233051   0.819   6.778   1.994
10718SOL     OW33052   0.743   4.543   5.233
10718SOL    HW133053   0.649   4.559   5.203
10718SOL    HW233054   0.776   4.456   5.196
10719SOL     OW33055   3.649   6.660   3.185
10719SOL    HW133056   3.609   6.631   3.272
10719SOL    HW233057   3.733   6.608   3.169
10720SOL     OW33058   0.425   2.774   6.063
10720SOL    HW133059   0.383   2.756   5.974
10720SOL    HW233060   0.362   2.826   6.120
10721SOL     OW33061   5.460   1.484   3.967
10721SOL    HW133062   5.531   1.544   4.003
10721SOL    HW233063   5.450   1.499   3.869
10722SOL     OW33064   0.846   5.257   0.239
10722SOL    HW133065   0.764   5.254   0.295
10722SOL    HW233066   0.839   5.331   0.173
10723SOL     OW33067   6.887   4.046   6.612
10723SOL    HW133068   6.890   4.006   6.704
10723SOL    HW233069   6.968   4.102   6.597
10724SOL     OW33070   3.309   6.235   5.808
10724SOL    HW133071   3.286   6.302   5.878
10724SOL    HW233072   3.232   6.173   5.794
10725SOL     OW33073   0.029   6.867   5.966
10725SOL    HW133074   0.088   6.883   5.887
10725SOL    HW233075   0.085   6.853   6.048
10726SOL     OW33076   6.982   0.209   3.237
10726SOL    HW133077   6.993   0.213   3.337
10726SOL    HW233078   6.942   0.121   3.211
10727SOL     OW33079   4.793   6.486   6.111
10727SOL    HW133080   4.884   6.445   6.119
10727SOL    HW233081   4.775   6.510   6.016
10728SOL     OW33082   5.954   5.735   3.645
10728SOL    HW133083   5.913   5.819   3.611
10728SOL    HW233084   5.882   5.670   3.669
10729SOL     OW33085   0.215   2.665   4.098
10729SOL    HW133086   0.117   2.670   4.079
10729SOL    HW233087   0.235   2.719   4.179
10730SOL     OW33088   1.460   6.209   4.381
10730SOL    HW133089   1.462   6.193   4.283
10730SOL    HW233090   1.427   6.127   4.428
10731SOL     OW33091   4.793   4.210   5.688
10731SOL    HW133092   4.709   4.251   5.651
10731SOL    HW233093   4.832   4.147   5.621
10732SOL     OW33094   5.833   6.056   1.964
10732SOL    HW133095   5.896   5.982   1.939
10732SOL    HW233096   5.885   6.132   2.002
10733SOL     OW33097   0.651   1.228   6.138
10733SOL    HW133098   0.636   1.135   6.105
10733SOL    HW233099   0.576   1.255   6.198
10734SOL     OW33100   0.710   0.493   4.623
10734SOL    HW133101   0.660   0.541   4.695
10734SOL    HW233102   0.680   0.397   4.620
10735SOL     OW33103   6.552   0.699   1.598
10735SOL    HW133104   6.506   0.617   1.563
10735SOL    HW233105   6.500   0.737   1.674
10736SOL     OW33106   5.804   6.029   3.652
10736SOL    HW133107   5.724   6.024   3.712
10736SOL    HW233108   5.812   6.120   3.613
10737SOL     OW33109   0.208   0.802   0.972
10737SOL    HW133110   0.278   0.863   0.934
10737SOL    HW233111   0.189   0.728   0.907
10738SOL     OW33112   1.649   6.418   2.010
10738SOL    HW133113   1.633   6.442   1.915
10738SOL    HW233114   1.707   6.487   2.053
10739SOL     OW33115   4.968   2.663   4.119
10739SOL    HW133116   4.967   2.677   4.218
10739SOL    HW233117   4.889   2.708   4.078
10740SOL     OW33118   2.628   0.779   6.124
10740SOL    HW133119   2.588   0.830   6.048
10740SOL    HW233120   2.580   0.692   6.135
10741SOL     OW33121   1.352   2.472   4.162
10741SOL    HW133122   1.297   2.506   4.238
10741SOL    HW233123   1.441   2.442   4.196
10742SOL     OW33124   0.572   0.284   1.754
10742SOL    HW133125   0.613   0.368   1.789
10742SOL    HW233126   0.595   0.207   1.814
10743SOL     OW33127   4.161   2.429   6.208
10743SOL    HW133128   4.088   2.431   6.139
10743SOL    HW233129   4.222   2.351   6.190
10744SOL     OW33130   1.919   2.272   1.308
10744SOL    HW133131   1.874   2.355   1.341
10744SOL    HW233132   1.986   2.240   1.376
10745SOL     OW33133   2.800   5.586   1.349
10745SOL    HW133134   2.764   5.564   1.440
10745SOL    HW233135   2.857   5.511   1.317
10746SOL     OW33136   2.610   5.499   6.457
10746SOL    HW133137   2.706   5.503   6.427
10746SOL    HW233138   2.551   5.502   6.376
10747SOL     OW33139   6.635   0.136   4.653
10747SOL    HW133140   6.579   0.179   4.581
10747SOL    HW233141   6.627   0.037   4.647
10748SOL     OW33142   2.759   6.330   2.595
10748SOL    HW133143   2.779   6.250   2.538
10748SOL    HW233144   2.835   6.395   2.589
10749SOL     OW33145   4.965   3.422   2.073
10749SOL    HW133146   4.990   3.424   1.976
10749SOL    HW233147   4.940   3.328   2.098
10750SOL     OW33148   3.689   1.824   4.262
10750SOL    HW133149   3.636   1.898   4.221
10750SOL    HW233150   3.781   1.821   4.222
10751SOL     OW33151   6.201   6.028   3.873
10751SOL    HW133152   6.220   6.027   3.775
10751SOL    HW233153   6.103   6.036   3.889
10752SOL     OW33154   0.281   5.949   6.809
10752SOL    HW133155   0.199   5.912   6.851
10752SOL    HW233156   0.294   5.909   6.718
10753SOL     OW33157   5.349   6.765   5.065
10753SOL    HW133158   5.409   6.830   5.111
10753SOL    HW233159   5.358   6.776   4.966
10754SOL     OW33160   6.958   5.624   2.252
10754SOL    HW133161   6.865   5.628   2.290
10754SOL    HW233162   0.001   5.587   2.321
10755SOL     OW33163   0.520   1.753   1.881
10755SOL    HW133164   0.420   1.746   1.889
10755SOL    HW233165   0.556   1.670   1.838
10756SOL     OW33166   1.078   7.008   6.320
10756SOL    HW133167   1.134   6.983   6.399
10756SOL    HW233168   0.984   6.979   6.336
10757SOL     OW33169   7.012   2.838   1.657
10757SOL    HW133170   6.995   2.922   1.606
10757SOL    HW233171   0.010   2.763   1.594
10758SOL     OW33172   0.862   1.623   0.549
10758SOL    HW133173   0.769   1.654   0.569
10758SOL    HW233174   0.923   1.648   0.624
10759SOL     OW33175   3.707   4.060   5.380
10759SOL    HW133176   3.779   3.992   5.370
10759SOL    HW233177   3.745   4.142   5.424
10760SOL     OW33178   0.684   4.731   0.114
10760SOL    HW133179   0.635   4.658   0.067
10760SOL    HW233180   0.620   4.804   0.140
10761SOL     OW33181   1.409   1.219   6.802
10761SOL    HW133182   1.400   1.176   6.712
10761SOL    HW233183   1.437   1.150   6.869
10762SOL     OW33184   1.603   6.316   1.066
10762SOL    HW133185   1.688   6.265   1.076
10762SOL    HW233186   1.620   6.413   1.079
10763SOL     OW33187   5.053   1.121   2.325
10763SOL    HW133188   5.096   1.083   2.406
10763SOL    HW233189   4.954   1.129   2.340
10764SOL     OW33190   5.179   6.340   5.258
10764SOL    HW133191   5.096   6.340   5.202
10764SOL    HW233192   5.256   6.375   5.203
10765SOL     OW33193   0.159   2.787   1.209
10765SOL    HW133194   0.192   2.865   1.261
10765SOL    HW233195   0.077   2.750   1.252
10766SOL     OW33196   3.000   4.738   6.397
10766SOL    HW133197   2.995   4.838   6.401
10766SOL    HW233198   3.061   4.710   6.323
10767SOL     OW33199   1.859   4.713   6.505
10767SOL    HW133200   1.881   4.779   6.577
10767SOL    HW233201   1.863   4.758   6.416
10768SOL     OW33202   5.476   6.414   6.753
10768SOL    HW133203   5.400   6.478   6.744
10768SOL    HW233204   5.441   6.321   6.752
10769SOL     OW33205   2.961   3.527   4.681
10769SOL    HW133206   2.941   3.481   4.767
10769SOL    HW233207   2.935   3.623   4.688
10770SOL     OW33208   4.891   0.111   3.857
10770SOL    HW133209   4.958   0.181   3.830
10770SOL    HW233210   4.832   0.147   3.929
10771SOL     OW33211   4.714   5.899   5.990
10771SOL    HW133212   4.775   5.916   5.913
10771SOL    HW233213   4.673   5.986   6.020
10772SOL     OW33214   4.872   3.843   3.262
10772SOL    HW133215   4.939   3.843   3.336
10772SOL    HW233216   4.782   3.866   3.299
10773SOL     OW33217   0.687   3.865   0.752
10773SOL    HW133218   0.728   3.951   0.782
10773SOL    HW233219   0.624   3.832   0.822
10774SOL     OW33220   0.041   2.925   0.404
10774SOL    HW133221   0.046   3.001   0.339
10774SOL    HW233222   0.071   2.841   0.360
10775SOL     OW33223   2.404   4.870   0.040
10775SOL    HW133224   2.336   4.902   0.106
10775SOL    HW233225   2.418   4.772   0.052
10776SOL     OW33226   0.699   3.706   3.216
10776SOL    HW133227   0.602   3.691   3.235
10776SOL    HW233228   0.740   3.620   3.186
10777SOL     OW33229   1.601   6.945   1.878
10777SOL    HW133230   1.615   6.930   1.976
10777SOL    HW233231   1.685   6.921   1.828
10778SOL     OW33232   4.783   0.611   3.812
10778SOL    HW133233   4.783   0.617   3.712
10778SOL    HW233234   4.695   0.575   3.843
10779SOL     OW33235   5.734   3.016   6.148
10779SOL    HW133236   5.676   3.096   6.136
10779SOL    HW233237   5.798   3.032   6.223
10780SOL     OW33238   0.961   4.997   4.800
10780SOL    HW133239   0.880   4.954   4.760
10780SOL    HW233240   1.043   4.966   4.753
10781SOL     OW33241   6.002   2.538   5.448
10781SOL    HW133242   5.959   2.540   5.357
10781SOL    HW233243   5.995   2.628   5.490
10782SOL     OW33244   1.293   3.360   5.311
10782SOL    HW133245   1.392   3.378   5.314
10782SOL    HW233246   1.249   3.406   5.388
10783SOL     OW33247   1.529   3.836   4.017
10783SOL    HW133248   1.579   3.799   3.938
10783SOL    HW233249   1.473   3.764   4.058
10784SOL     OW33250   4.500   5.402   3.600
10784SOL    HW133251   4.436   5.427   3.527
10784SOL    HW233252   4.552   5.321   3.572
10785SOL     OW33253   1.382   5.111   1.436
10785SOL    HW133254   1.451   5.061   1.488
10785SOL    HW233255   1.295   5.062   1.440
10786SOL     OW33256   5.032   1.470   2.636
10786SOL    HW133257   4.983   1.453   2.721
10786SOL    HW233258   5.111   1.409   2.630
10787SOL     OW33259   3.198   1.538   3.754
10787SOL    HW133260   3.269   1.553   3.822
10787SOL    HW233261   3.148   1.623   3.739
10788SOL     OW33262   1.452   3.128   0.149
10788SOL    HW133263   1.532   3.155   0.094
10788SOL    HW233264   1.369   3.161   0.105
10789SOL     OW33265   6.257   2.261   2.522
10789SOL    HW133266   6.272   2.342   2.465
10789SOL    HW233267   6.241   2.289   2.616
10790SOL     OW33268   0.070   2.103   5.266
10790SOL    HW133269   0.086   2.005   5.263
10790SOL    HW233270   0.038   2.130   5.357
10791SOL     OW33271   1.718   3.595   3.579
10791SOL    HW133272   1.788   3.534   3.543
10791SOL    HW233273   1.668   3.638   3.503
10792SOL     OW33274   4.148   0.997   2.095
10792SOL    HW133275   4.119   1.035   2.183
10792SOL    HW233276   4.084   0.925   2.067
10793SOL     OW33277   4.008   2.197   4.728
10793SOL    HW133278   4.105   2.179   4.742
10793SOL    HW233279   3.997   2.268   4.658
10794SOL     OW33280   4.930   2.626   6.488
10794SOL    HW133281   4.909   2.551   6.551
10794SOL    HW233282   5.018   2.667   6.513
10795SOL     OW33283   6.262   2.939   3.491
10795SOL    HW133284   6.178   2.963   3.443
10795SOL    HW233285   6.276   3.002   3.567
10796SOL     OW33286   0.487   1.828   6.622
10796SOL    HW133287   0.526   1.754   6.676
10796SOL    HW233288   0.530   1.915   6.648
10797SOL     OW33289   5.494   5.235   6.423
10797SOL    HW133290   5.438   5.190   6.492
10797SOL    HW233291   5.583   5.190   6.418
10798SOL     OW33292   2.258   5.446   0.734
10798SOL    HW133293   2.239   5.544   0.734
10798SOL    HW233294   2.270   5.414   0.640
10799SOL     OW33295   1.886   0.460   3.055
10799SOL    HW133296   1.858   0.520   3.130
10799SOL    HW233297   1.985   0.463   3.045
10800SOL     OW33298   1.971   0.747   4.853
10800SOL    HW133299   1.886   0.754   4.802
10800SOL    HW233300   1.952   0.718   4.947
10801SOL     OW33301   2.770   6.290   6.592
10801SOL    HW133302   2.833   6.352   6.639
10801SOL    HW233303   2.719   6.237   6.660
10802SOL     OW33304   0.721   4.746   3.991
10802SOL    HW133305   0.724   4.673   4.059
10802SOL    HW233306   0.797   4.809   4.007
10803SOL     OW33307   6.923   4.498   4.524
10803SOL    HW133308   6.913   4.560   4.603
10803SOL    HW233309   7.012   4.514   4.481
10804SOL     OW33310   4.176   4.955   6.992
10804SOL    HW133311   4.214   4.872   6.951
10804SOL    HW233312   4.249   5.008   0.015
10805SOL     OW33313   4.949   5.938   0.467
10805SOL    HW133314   4.859   5.974   0.440
10805SOL    HW233315   4.940   5.842   0.494
10806SOL     OW33316   4.947   2.901   5.562
10806SOL    HW133317   4.873   2.855   5.612
10806SOL    HW233318   4.951   2.997   5.591
10807SOL     OW33319   4.574   2.941   5.404
10807SOL    HW133320   4.590   2.884   5.324
10807SOL    HW233321   4.617   3.030   5.391
10808SOL     OW33322   0.606   2.798   0.638
10808SOL    HW133323   0.642   2.776   0.548
10808SOL    HW233324   0.507   2.811   0.633
10809SOL     OW33325   1.171   0.895   2.571
10809SOL    HW133326   1.072   0.899   2.587
10809SOL    HW233327   1.217   0.863   2.653
10810SOL     OW33328   1.738   1.420   6.050
10810SOL    HW133329   1.818   1.416   6.111
10810SOL    HW233330   1.743   1.346   5.984
10811SOL     OW33331   4.103   6.215   6.514
10811SOL    HW133332   4.200   6.228   6.492
10811SOL    HW233333   4.083   6.118   6.523
10812SOL     OW33334   6.385   3.362   3.255
10812SOL    HW133335   6.441   3.420   3.196
10812SOL    HW233336   6.369   3.274   3.210
10813SOL     OW33337   3.114   6.002   2.165
10813SOL    HW133338   3.198   6.037   2.124
10813SOL    HW233339   3.053   5.969   2.093
10814SOL     OW33340   2.217   6.183   4.257
10814SOL    HW133341   2.198   6.278   4.233
10814SOL    HW233342   2.154   6.153   4.329
10815SOL     OW33343   5.582   1.867   5.755
10815SOL    HW133344   5.655   1.864   5.687
10815SOL    HW233345   5.558   1.774   5.782
10816SOL     OW33346   2.305   2.218   1.230
10816SOL    HW133347   2.283   2.304   1.277
10816SOL    HW233348   2.391   2.228   1.181
10817SOL     OW33349   3.728   1.634   1.886
10817SOL    HW133350   3.642   1.586   1.869
10817SOL    HW233351   3.709   1.725   1.923
10818SOL     OW33352   4.645   3.321   6.375
10818SOL    HW133353   4.583   3.272   6.314
10818SOL    HW233354   4.630   3.290   6.469
10819SOL     OW33355   2.135   3.728   5.271
10819SOL    HW133356   2.231   3.747   5.250
10819SOL    HW233357   2.115   3.632   5.250
10820SOL     OW33358   1.169   6.137   5.794
10820SOL    HW133359   1.101   6.067   5.775
10820SOL    HW233360   1.251   6.120   5.740
10821SOL     OW33361   0.058   0.343   6.733
10821SOL    HW133362   0.016   0.346   6.823
10821SOL    HW233363   0.072   0.436   6.699
10822SOL     OW33364   0.415   4.687   6.259
10822SOL    HW133365   0.452   4.744   6.332
10822SOL    HW233366   0.467   4.704   6.175
10823SOL     OW33367   1.741   2.250   0.884
10823SOL    HW133368   1.778   2.176   0.828
10823SOL    HW233369   1.798   2.262   0.965
10824SOL     OW33370   5.399   1.476   5.007
10824SOL    HW133371   5.446   1.562   5.027
10824SOL    HW233372   5.321   1.494   4.947
10825SOL     OW33373   3.575   1.125   2.358
10825SOL    HW133374   3.551   1.152   2.451
10825SOL    HW233375   3.558   1.202   2.296
10826SOL     OW33376   6.909   3.398   1.085
10826SOL    HW133377   6.852   3.429   1.009
10826SOL    HW233378   6.952   3.311   1.061
10827SOL     OW33379   0.873   2.278   4.511
10827SOL    HW133380   0.850   2.217   4.587
10827SOL    HW233381   0.908   2.365   4.547
10828SOL     OW33382   2.705   4.720   0.170
10828SOL    HW133383   2.710   4.634   0.119
10828SOL    HW233384   2.612   4.755   0.166
10829SOL     OW33385   2.303   4.020   1.898
10829SOL    HW133386   2.361   4.101   1.885
10829SOL    HW233387   2.278   4.012   1.994
10830SOL     OW33388   6.623   0.892   3.190
10830SOL    HW133389   6.716   0.923   3.171
10830SOL    HW233390   6.616   0.793   3.177
10831SOL     OW33391   5.214   2.673   2.145
10831SOL    HW133392   5.118   2.672   2.172
10831SOL    HW233393   5.222   2.651   2.048
10832SOL     OW33394   1.421   2.744   2.209
10832SOL    HW133395   1.494   2.769   2.145
10832SOL    HW233396   1.363   2.823   2.227
10833SOL     OW33397   3.378   6.900   4.661
10833SOL    HW133398   3.331   6.925   4.577
10833SOL    HW233399   3.431   6.977   4.695
10834SOL     OW33400   0.121   1.641   6.012
10834SOL    HW133401   0.062   1.560   6.024
10834SOL    HW233402   0.126   1.664   5.915
10835SOL     OW33403   0.637   1.748   0.591
10835SOL    HW133404   0.595   1.838   0.581
10835SOL    HW233405   0.566   1.680   0.606
10836SOL     OW33406   0.352   2.314   1.345
10836SOL    HW133407   0.411   2.395   1.343
10836SOL    HW233408   0.380   2.254   1.420
10837SOL     OW33409   1.273   5.345   0.491
10837SOL    HW133410   1.277   5.405   0.571
10837SOL    HW233411   1.182   5.350   0.450
10838SOL     OW33412   6.358   5.925   0.493
10838SOL    HW133413   6.376   6.000   0.429
10838SOL    HW233414   6.328   5.963   0.581
10839SOL     OW33415   2.295   2.242   7.004
10839SOL    HW133416   2.374   2.303   7.018
10839SOL    HW233417   2.270   2.242   6.907
10840SOL     OW33418   2.049   0.209   3.466
10840SOL    HW133419   1.955   0.200   3.499
10840SOL    HW233420   2.062   0.301   3.427
10841SOL     OW33421   4.293   4.003   0.295
10841SOL    HW133422   4.254   4.030   0.206
10841SOL    HW233423   4.225   4.019   0.367
10842SOL     OW33424   6.326   1.901   2.030
10842SOL    HW133425   6.395   1.839   2.067
10842SOL    HW233426   6.238   1.883   2.074
10843SOL     OW33427   0.966   2.443   1.199
10843SOL    HW133428   0.999   2.528   1.240
10843SOL    HW233429   1.012   2.428   1.111
10844SOL     OW33430   5.287   0.303   4.319
10844SOL    HW133431   5.343   0.220   4.308
10844SOL    HW233432   5.340   0.382   4.289
10845SOL     OW33433   2.098   3.695   1.507
10845SOL    HW133434   2.146   3.746   1.579
10845SOL    HW233435   2.013   3.659   1.544
10846SOL     OW33436   3.728   3.013   1.875
10846SOL    HW133437   3.814   2.985   1.918
10846SOL    HW233438   3.702   3.104   1.908
10847SOL     OW33439   5.203   1.966   5.372
10847SOL    HW133440   5.264   2.045   5.366
10847SOL    HW233441   5.109   1.996   5.354
10848SOL     OW33442   1.576   0.786   6.871
10848SOL    HW133443   1.563   0.749   6.779
10848SOL    HW233444   1.673   0.799   6.889
10849SOL     OW33445   0.839   4.441   4.717
10849SOL    HW133446   0.779   4.363   4.737
10849SOL    HW233447   0.933   4.418   4.742
10850SOL     OW33448   6.289   0.989   2.965
10850SOL    HW133449   6.280   1.086   2.988
10850SOL    HW233450   6.288   0.934   3.048
10851SOL     OW33451   4.704   2.730   6.742
10851SOL    HW133452   4.782   2.695   6.794
10851SOL    HW233453   4.735   2.807   6.685
10852SOL     OW33454   6.053   1.131   5.915
10852SOL    HW133455   6.125   1.089   5.861
10852SOL    HW233456   6.088   1.153   6.007
10853SOL     OW33457   2.686   0.395   5.449
10853SOL    HW133458   2.652   0.458   5.380
10853SOL    HW233459   2.784   0.378   5.433
10854SOL     OW33460   6.260   6.999   6.819
10854SOL    HW133461   6.161   7.013   6.808
10854SOL    HW233462   6.287   0.007   6.911
10855SOL     OW33463   0.841   5.958   0.765
10855SOL    HW133464   0.814   5.973   0.860
10855SOL    HW233465   0.927   6.007   0.748
10856SOL     OW33466   4.926   6.839   6.871
10856SOL    HW133467   4.852   6.827   6.938
10856SOL    HW233468   4.889   6.875   6.786
10857SOL     OW33469   6.404   6.793   4.598
10857SOL    HW133470   6.402   6.711   4.655
10857SOL    HW233471   6.490   6.842   4.614
10858SOL     OW33472   1.719   2.449   0.708
10858SOL    HW133473   1.636   2.439   0.652
10858SOL    HW233474   1.721   2.378   0.778
10859SOL     OW33475   2.527   5.664   1.870
10859SOL    HW133476   2.530   5.564   1.870
10859SOL    HW233477   2.607   5.700   1.919
10860SOL     OW33478   6.193   1.435   1.576
10860SOL    HW133479   6.198   1.533   1.597
10860SOL    HW233480   6.113   1.395   1.622
10861SOL     OW33481   1.842   4.751   1.030
10861SOL    HW133482   1.858   4.747   1.129
10861SOL    HW233483   1.762   4.695   1.007
10862SOL     OW33484   3.554   4.454   5.271
10862SOL    HW133485   3.480   4.498   5.323
10862SOL    HW233486   3.516   4.377   5.219
10863SOL     OW33487   0.981   6.929   3.302
10863SOL    HW133488   0.997   0.001   3.263
10863SOL    HW233489   0.896   6.891   3.265
10864SOL     OW33490   3.040   4.050   1.791
10864SOL    HW133491   3.044   4.058   1.890
10864SOL    HW233492   3.035   4.141   1.750
10865SOL     OW33493   2.841   1.789   2.658
10865SOL    HW133494   2.909   1.816   2.589
10865SOL    HW233495   2.778   1.864   2.674
10866SOL     OW33496   0.765   3.537   4.441
10866SOL    HW133497   0.778   3.515   4.344
10866SOL    HW233498   0.851   3.573   4.478
10867SOL     OW33499   5.036   2.780   0.445
10867SOL    HW133500   5.015   2.869   0.484
10867SOL    HW233501   4.998   2.775   0.352
10868SOL     OW33502   0.854   6.993   5.711
10868SOL    HW133503   0.912   6.968   5.788
10868SOL    HW233504   0.780   6.927   5.701
10869NA      NA33505   0.137   0.796   6.509
10870NA      NA33506   4.700   4.924   4.922
10871NA      NA33507   0.835   4.656   2.881
10872NA      NA33508   6.230   3.707   3.448
10873NA      NA33509   4.181   2.394   5.336
10874NA      NA33510   2.235   3.686   0.036
10875NA      NA33511   1.790   5.748   0.452
10876NA      NA33512   4.265   4.872   2.055
10877NA      NA33513   5.307   3.588   1.350
10878NA      NA33514   3.797   1.750   0.759
10879NA      NA33515   5.482   6.728   1.287
10880NA      NA33516   2.923   6.577   4.668
10881NA      NA33517   3.352   5.590   2.886
10882NA      NA33518   3.906   4.925   6.575
   7.01896   7.01896   7.01896
