Generated by trjconv : CNT in water t= 100.00000
33518
    1C        C    1   2.848   2.771   4.750
    1C        C    2   2.904   2.723   4.870
    1C        C    3   2.845   2.774   4.987
    1C        C    4   2.855   2.775   4.261
    1C        C    5   2.906   2.731   4.385
    1C        C    6   2.848   2.776   4.506
    1C        C    7   3.014   2.642   4.626
    1C        C    8   2.898   2.723   4.627
    1C        C    9   3.080   2.610   4.747
    1C        C   10   3.012   2.633   4.869
    1C        C   11   3.180   2.492   4.975
    1C        C   12   3.057   2.559   4.979
    1C        C   13   2.853   2.772   3.774
    1C        C   14   2.906   2.727   3.897
    1C        C   15   2.857   2.779   4.018
    1C        C   16   3.017   2.637   4.140
    1C        C   17   2.906   2.724   4.139
    1C        C   18   3.079   2.608   4.264
    1C        C   19   3.017   2.644   4.386
    1C        C   20   3.211   2.557   4.507
    1C        C   21   3.076   2.601   4.506
    1C        C   22   3.280   2.537   4.629
    1C        C   23   3.211   2.556   4.751
    1C        C   24   3.416   2.488   4.870
    1C        C   25   3.273   2.503   4.867
    1C        C   26   3.490   2.478   4.988
    1C        C   27   2.851   2.768   3.285
    1C        C   28   2.906   2.722   3.407
    1C        C   29   2.854   2.768   3.530
    1C        C   30   3.026   2.645   3.652
    1C        C   31   2.908   2.724   3.653
    1C        C   32   3.083   2.608   3.775
    1C        C   33   3.017   2.640   3.896
    1C        C   34   3.207   2.547   4.021
    1C        C   35   3.075   2.597   4.018
    1C        C   36   3.279   2.532   4.142
    1C        C   37   3.210   2.557   4.263
    1C        C   38   3.417   2.509   4.383
    1C        C   39   3.278   2.535   4.385
    1C        C   40   3.488   2.504   4.505
    1C        C   41   3.416   2.500   4.627
    1C        C   42   3.629   2.486   4.745
    1C        C   43   3.487   2.479   4.747
    1C        C   44   3.704   2.484   4.864
    1C        C   45   3.629   2.474   4.982
    1C        C   46   2.838   2.748   2.795
    1C        C   47   2.894   2.708   2.919
    1C        C   48   2.843   2.759   3.040
    1C        C   49   3.016   2.636   3.161
    1C        C   50   2.900   2.718   3.163
    1C        C   51   3.076   2.601   3.284
    1C        C   52   3.018   2.636   3.408
    1C        C   53   3.208   2.541   3.531
    1C        C   54   3.082   2.603   3.529
    1C        C   55   3.276   2.518   3.653
    1C        C   56   3.209   2.544   3.775
    1C        C   57   3.414   2.499   3.896
    1C        C   58   3.275   2.525   3.898
    1C        C   59   3.487   2.502   4.017
    1C        C   60   3.418   2.510   4.140
    1C        C   61   3.629   2.499   4.261
    1C        C   62   3.488   2.494   4.262
    1C        C   63   3.702   2.501   4.381
    1C        C   64   3.629   2.505   4.502
    1C        C   65   3.835   2.548   4.622
    1C        C   66   3.700   2.507   4.624
    1C        C   67   3.906   2.563   4.743
    1C        C   68   3.838   2.529   4.862
    1C        C   69   4.051   2.586   4.977
    1C        C   70   3.921   2.536   4.974
    1C        C   71   2.831   2.738   2.307
    1C        C   72   2.888   2.695   2.429
    1C        C   73   2.839   2.750   2.550
    1C        C   74   3.010   2.628   2.674
    1C        C   75   2.890   2.702   2.672
    1C        C   76   3.074   2.594   2.795
    1C        C   77   3.012   2.630   2.917
    1C        C   78   3.207   2.547   3.041
    1C        C   79   3.075   2.599   3.039
    1C        C   80   3.275   2.527   3.163
    1C        C   81   3.207   2.547   3.285
    1C        C   82   3.412   2.494   3.405
    1C        C   83   3.273   2.519   3.407
    1C        C   84   3.484   2.491   3.526
    1C        C   85   3.416   2.496   3.650
    1C        C   86   3.625   2.502   3.771
    1C        C   87   3.483   2.495   3.774
    1C        C   88   3.697   2.507   3.892
    1C        C   89   3.628   2.503   4.016
    1C        C   90   3.836   2.544   4.135
    1C        C   91   3.699   2.512   4.138
    1C        C   92   3.902   2.571   4.257
    1C        C   93   3.837   2.544   4.380
    1C        C   94   4.032   2.632   4.503
    1C        C   95   3.902   2.576   4.501
    1C        C   96   4.095   2.672   4.623
    1C        C   97   4.032   2.628   4.741
    1C        C   98   4.195   2.764   4.861
    1C        C   99   4.100   2.657   4.863
    1C        C  100   4.221   2.841   4.975
    1C        C  101   2.823   2.733   2.066
    1C        C  102   2.989   2.595   2.190
    1C        C  103   2.877   2.683   2.185
    1C        C  104   3.065   2.575   2.309
    1C        C  105   3.008   2.621   2.429
    1C        C  106   3.199   2.532   2.553
    1C        C  107   3.070   2.589   2.552
    1C        C  108   3.270   2.520   2.674
    1C        C  109   3.204   2.539   2.798
    1C        C  110   3.412   2.495   2.917
    1C        C  111   3.273   2.518   2.919
    1C        C  112   3.485   2.491   3.038
    1C        C  113   3.413   2.500   3.160
    1C        C  114   3.623   2.498   3.280
    1C        C  115   3.482   2.489   3.282
    1C        C  116   3.695   2.508   3.402
    1C        C  117   3.625   2.500   3.524
    1C        C  118   3.830   2.545   3.649
    1C        C  119   3.693   2.508   3.648
    1C        C  120   3.897   2.574   3.769
    1C        C  121   3.832   2.549   3.892
    1C        C  122   4.023   2.645   4.014
    1C        C  123   3.900   2.575   4.013
    1C        C  124   4.084   2.679   4.137
    1C        C  125   4.027   2.637   4.259
    1C        C  126   4.196   2.765   4.376
    1C        C  127   4.091   2.671   4.380
    1C        C  128   4.242   2.822   4.497
    1C        C  129   4.196   2.771   4.620
    1C        C  130   4.330   2.937   4.740
    1C        C  131   4.249   2.820   4.742
    1C        C  132   4.359   3.005   4.860
    1C        C  133   4.287   2.963   4.973
    1C        C  134   3.175   2.472   2.085
    1C        C  135   3.044   2.521   2.080
    1C        C  136   3.262   2.477   2.194
    1C        C  137   3.194   2.516   2.312
    1C        C  138   3.405   2.476   2.431
    1C        C  139   3.266   2.500   2.432
    1C        C  140   3.479   2.476   2.551
    1C        C  141   3.409   2.495   2.673
    1C        C  142   3.623   2.495   2.791
    1C        C  143   3.482   2.487   2.794
    1C        C  144   3.693   2.506   2.913
    1C        C  145   3.626   2.497   3.037
    1C        C  146   3.832   2.544   3.157
    1C        C  147   3.695   2.509   3.159
    1C        C  148   3.897   2.570   3.280
    1C        C  149   3.831   2.544   3.402
    1C        C  150   4.023   2.627   3.522
    1C        C  151   3.896   2.564   3.526
    1C        C  152   4.080   2.675   3.642
    1C        C  153   4.021   2.643   3.766
    1C        C  154   4.192   2.766   3.890
    1C        C  155   4.080   2.679   3.889
    1C        C  156   4.244   2.816   4.011
    1C        C  157   4.193   2.769   4.134
    1C        C  158   4.341   2.922   4.255
    1C        C  159   4.250   2.814   4.255
    1C        C  160   4.372   2.988   4.376
    1C        C  161   4.329   2.933   4.499
    1C        C  162   4.439   3.118   4.617
    1C        C  163   4.374   2.993   4.618
    1C        C  164   4.469   3.186   4.737
    1C        C  165   4.438   3.122   4.859
    1C        C  166   4.521   3.323   4.973
    1C        C  167   4.482   3.189   4.974
    1C        C  168   3.476   2.443   2.072
    1C        C  169   3.402   2.456   2.190
    1C        C  170   3.618   2.466   2.306
    1C        C  171   3.476   2.456   2.310
    1C        C  172   3.690   2.487   2.425
    1C        C  173   3.620   2.480   2.547
    1C        C  174   3.827   2.539   2.667
    1C        C  175   3.691   2.499   2.668
    1C        C  176   3.893   2.568   2.788
    1C        C  177   3.830   2.544   2.912
    1C        C  178   4.026   2.625   3.033
    1C        C  179   3.898   2.564   3.034
    1C        C  180   4.085   2.665   3.155
    1C        C  181   4.023   2.634   3.278
    1C        C  182   4.194   2.753   3.397
    1C        C  183   4.086   2.663   3.401
    1C        C  184   4.243   2.807   3.518
    1C        C  185   4.194   2.758   3.642
    1C        C  186   4.333   2.917   3.764
    1C        C  187   4.242   2.809   3.765
    1C        C  188   4.374   2.980   3.884
    1C        C  189   4.333   2.925   4.007
    1C        C  190   4.441   3.105   4.128
    1C        C  191   4.375   2.981   4.131
    1C        C  192   4.469   3.172   4.249
    1C        C  193   4.437   3.114   4.374
    1C        C  194   4.507   3.318   4.489
    1C        C  195   4.465   3.183   4.494
    1C        C  196   4.526   3.388   4.610
    1C        C  197   4.520   3.318   4.734
    1C        C  198   4.553   3.535   4.854
    1C        C  199   4.542   3.393   4.853
    1C        C  200   4.586   3.620   4.965
    1C        C  201   3.615   2.426   2.070
    1C        C  202   3.828   2.511   2.181
    1C        C  203   3.692   2.466   2.184
    1C        C  204   3.897   2.540   2.302
    1C        C  205   3.825   2.529   2.423
    1C        C  206   4.019   2.622   2.544
    1C        C  207   3.893   2.557   2.544
    1C        C  208   4.082   2.660   2.665
    1C        C  209   4.022   2.627   2.789
    1C        C  210   4.195   2.751   2.910
    1C        C  211   4.084   2.664   2.910
    1C        C  212   4.248   2.802   3.030
    1C        C  213   4.197   2.751   3.152
    1C        C  214   4.334   2.912   3.274
    1C        C  215   4.247   2.801   3.275
    1C        C  216   4.371   2.975   3.395
    1C        C  217   4.329   2.919   3.518
    1C        C  218   4.430   3.104   3.640
    1C        C  219   4.369   2.976   3.641
    1C        C  220   4.455   3.173   3.761
    1C        C  221   4.434   3.108   3.884
    1C        C  222   4.510   3.306   4.004
    1C        C  223   4.469   3.171   4.006
    1C        C  224   4.520   3.380   4.124
    1C        C  225   4.506   3.308   4.246
    1C        C  226   4.525   3.524   4.368
    1C        C  227   4.524   3.382   4.365
    1C        C  228   4.527   3.599   4.487
    1C        C  229   4.534   3.529   4.609
    1C        C  230   4.508   3.741   4.727
    1C        C  231   4.541   3.602   4.730
    1C        C  232   4.498   3.820   4.844
    1C        C  233   4.543   3.753   4.959
    1C        C  234   4.020   2.608   2.063
    1C        C  235   3.898   2.541   2.064
    1C        C  236   4.083   2.651   2.180
    1C        C  237   4.018   2.614   2.300
    1C        C  238   4.197   2.734   2.421
    1C        C  239   4.081   2.651   2.421
    1C        C  240   4.250   2.786   2.541
    1C        C  241   4.192   2.747   2.664
    1C        C  242   4.333   2.907   2.783
    1C        C  243   4.244   2.797   2.785
    1C        C  244   4.375   2.967   2.904
    1C        C  245   4.336   2.912   3.029
    1C        C  246   4.439   3.095   3.150
    1C        C  247   4.375   2.970   3.152
    1C        C  248   4.465   3.163   3.272
    1C        C  249   4.434   3.102   3.395
    1C        C  250   4.496   3.305   3.514
    1C        C  251   4.454   3.170   3.517
    1C        C  252   4.510   3.374   3.637
    1C        C  253   4.495   3.308   3.761
    1C        C  254   4.526   3.518   3.878
    1C        C  255   4.519   3.377   3.882
    1C        C  256   4.523   3.590   4.000
    1C        C  257   4.526   3.521   4.123
    1C        C  258   4.500   3.732   4.244
    1C        C  259   4.524   3.593   4.245
    1C        C  260   4.479   3.806   4.363
    1C        C  261   4.495   3.737   4.485
    1C        C  262   4.430   3.940   4.604
    1C        C  263   4.471   3.805   4.607
    1C        C  264   4.406   4.011   4.724
    1C        C  265   4.439   3.948   4.846
    1C        C  266   4.320   4.130   4.954
    1C        C  267   4.390   4.010   4.961
    1C        C  268   4.268   2.771   2.063
    1C        C  269   4.196   2.736   2.178
    1C        C  270   4.342   2.892   2.299
    1C        C  271   4.248   2.785   2.300
    1C        C  272   4.382   2.956   2.418
    1C        C  273   4.338   2.897   2.539
    1C        C  274   4.443   3.085   2.661
    1C        C  275   4.373   2.961   2.659
    1C        C  276   4.469   3.153   2.782
    1C        C  277   4.444   3.090   2.905
    1C        C  278   4.503   3.294   3.026
    1C        C  279   4.473   3.156   3.027
    1C        C  280   4.514   3.366   3.147
    1C        C  281   4.502   3.299   3.271
    1C        C  282   4.520   3.513   3.390
    1C        C  283   4.510   3.372   3.391
    1C        C  284   4.522   3.584   3.513
    1C        C  285   4.525   3.514   3.636
    1C        C  286   4.498   3.728   3.755
    1C        C  287   4.519   3.588   3.756
    1C        C  288   4.483   3.797   3.877
    1C        C  289   4.499   3.729   3.999
    1C        C  290   4.435   3.932   4.118
    1C        C  291   4.479   3.798   4.121
    1C        C  292   4.402   4.001   4.238
    1C        C  293   4.433   3.939   4.361
    1C        C  294   4.325   4.123   4.478
    1C        C  295   4.400   4.004   4.482
    1C        C  296   4.285   4.187   4.597
    1C        C  297   4.333   4.133   4.719
    1C        C  298   4.198   4.310   4.840
    1C        C  299   4.287   4.198   4.836
    1C        C  300   4.169   4.400   4.948
    1C        C  301   4.353   2.881   2.062
    1C        C  302   4.468   3.070   2.175
    1C        C  303   4.393   2.948   2.179
    1C        C  304   4.483   3.143   2.296
    1C        C  305   4.451   3.079   2.418
    1C        C  306   4.511   3.284   2.538
    1C        C  307   4.477   3.147   2.539
    1C        C  308   4.520   3.358   2.658
    1C        C  309   4.507   3.290   2.781
    1C        C  310   4.531   3.502   2.900
    1C        C  311   4.517   3.361   2.903
    1C        C  312   4.524   3.575   3.021
    1C        C  313   4.519   3.507   3.145
    1C        C  314   4.490   3.719   3.265
    1C        C  315   4.511   3.580   3.266
    1C        C  316   4.477   3.787   3.388
    1C        C  317   4.497   3.723   3.512
    1C        C  318   4.432   3.929   3.630
    1C        C  319   4.481   3.796   3.632
    1C        C  320   4.399   3.991   3.752
    1C        C  321   4.428   3.928   3.875
    1C        C  322   4.322   4.112   3.993
    1C        C  323   4.400   3.994   3.997
    1C        C  324   4.273   4.167   4.113
    1C        C  325   4.323   4.118   4.236
    1C        C  326   4.182   4.281   4.355
    1C        C  327   4.278   4.178   4.356
    1C        C  328   4.135   4.341   4.475
    1C        C  329   4.191   4.292   4.595
    1C        C  330   4.023   4.429   4.715
    1C        C  331   4.139   4.346   4.715
    1C        C  332   3.968   4.485   4.833
    1C        C  333   4.052   4.476   4.945
    1C        C  334   4.554   3.272   2.061
    1C        C  335   4.531   3.134   2.064
    1C        C  336   4.539   3.350   2.177
    1C        C  337   4.523   3.279   2.298
    1C        C  338   4.527   3.496   2.414
    1C        C  339   4.530   3.355   2.417
    1C        C  340   4.528   3.568   2.535
    1C        C  341   4.529   3.499   2.658
    1C        C  342   4.506   3.712   2.774
    1C        C  343   4.527   3.573   2.778
    1C        C  344   4.488   3.783   2.894
    1C        C  345   4.499   3.714   3.017
    1C        C  346   4.422   3.913   3.137
    1C        C  347   4.473   3.781   3.139
    1C        C  348   4.393   3.979   3.258
    1C        C  349   4.423   3.917   3.382
    1C        C  350   4.319   4.101   3.502
    1C        C  351   4.398   3.984   3.504
    1C        C  352   4.269   4.155   3.623
    1C        C  353   4.319   4.107   3.746
    1C        C  354   4.176   4.261   3.868
    1C        C  355   4.280   4.166   3.869
    1C        C  356   4.122   4.316   3.987
    1C        C  357   4.175   4.268   4.109
    1C        C  358   4.006   4.395   4.231
    1C        C  359   4.123   4.315   4.232
    1C        C  360   3.948   4.438   4.352
    1C        C  361   4.016   4.416   4.474
    1C        C  362   3.827   4.517   4.594
    1C        C  363   3.955   4.456   4.595
    1C        C  364   3.765   4.551   4.716
    1C        C  365   3.838   4.539   4.836
    1C        C  366   3.629   4.596   4.950
    1C        C  367   3.766   4.568   4.952
    1C        C  368   4.508   3.562   2.053
    1C        C  369   4.525   3.491   2.172
    1C        C  370   4.499   3.706   2.289
    1C        C  371   4.518   3.566   2.292
    1C        C  372   4.481   3.778   2.409
    1C        C  373   4.506   3.708   2.529
    1C        C  374   4.423   3.905   2.648
    1C        C  375   4.481   3.776   2.650
    1C        C  376   4.394   3.972   2.769
    1C        C  377   4.430   3.912   2.892
    1C        C  378   4.313   4.091   3.011
    1C        C  379   4.396   3.976   3.013
    1C        C  380   4.268   4.149   3.131
    1C        C  381   4.318   4.098   3.254
    1C        C  382   4.175   4.252   3.379
    1C        C  383   4.275   4.152   3.377
    1C        C  384   4.118   4.298   3.500
    1C        C  385   4.170   4.255   3.624
    1C        C  386   4.007   4.391   3.744
    1C        C  387   4.119   4.304   3.746
    1C        C  388   3.944   4.429   3.864
    1C        C  389   4.004   4.392   3.986
    1C        C  390   3.815   4.488   4.111
    1C        C  391   3.943   4.428   4.109
    1C        C  392   3.746   4.510   4.232
    1C        C  393   3.818   4.493   4.352
    1C        C  394   3.618   4.561   4.474
    1C        C  395   3.756   4.529   4.473
    1C        C  396   3.548   4.566   4.597
    1C        C  397   3.624   4.560   4.715
    1C        C  398   3.411   4.555   4.838
    1C        C  399   3.551   4.576   4.835
    1C        C  400   3.344   4.516   4.955
    1C        C  401   4.503   3.701   2.054
    1C        C  402   4.450   3.915   2.165
    1C        C  403   4.489   3.779   2.169
    1C        C  404   4.415   3.980   2.285
    1C        C  405   4.437   3.912   2.407
    1C        C  406   4.325   4.095   2.527
    1C        C  407   4.396   3.974   2.528
    1C        C  408   4.280   4.153   2.649
    1C        C  409   4.319   4.091   2.770
    1C        C  410   4.177   4.254   2.889
    1C        C  411   4.273   4.151   2.889
    1C        C  412   4.123   4.300   3.011
    1C        C  413   4.174   4.254   3.135
    1C        C  414   4.003   4.377   3.257
    1C        C  415   4.122   4.301   3.257
    1C        C  416   3.940   4.410   3.379
    1C        C  417   4.003   4.379   3.501
    1C        C  418   3.812   4.476   3.618
    1C        C  419   3.941   4.419   3.622
    1C        C  420   3.748   4.501   3.742
    1C        C  421   3.813   4.483   3.866
    1C        C  422   3.610   4.537   3.987
    1C        C  423   3.749   4.511   3.988
    1C        C  424   3.540   4.548   4.109
    1C        C  425   3.609   4.544   4.232
    1C        C  426   3.401   4.552   4.359
    1C        C  427   3.542   4.559   4.356
    1C        C  428   3.333   4.550   4.483
    1C        C  429   3.407   4.560   4.603
    1C        C  430   3.193   4.521   4.724
    1C        C  431   3.331   4.556   4.722
    1C        C  432   3.126   4.492   4.845
    1C        C  433   3.206   4.502   4.959
    1C        C  434   4.382   4.122   2.056
    1C        C  435   4.446   3.998   2.052
    1C        C  436   4.298   4.163   2.165
    1C        C  437   4.331   4.094   2.285
    1C        C  438   4.181   4.250   2.405
    1C        C  439   4.281   4.150   2.405
    1C        C  440   4.122   4.295   2.525
    1C        C  441   4.180   4.253   2.647
    1C        C  442   4.005   4.377   2.767
    1C        C  443   4.124   4.301   2.767
    1C        C  444   3.944   4.410   2.890
    1C        C  445   4.002   4.373   3.014
    1C        C  446   3.812   4.469   3.129
    1C        C  447   3.941   4.412   3.135
    1C        C  448   3.745   4.490   3.251
    1C        C  449   3.813   4.472   3.374
    1C        C  450   3.607   4.526   3.496
    1C        C  451   3.745   4.498   3.495
    1C        C  452   3.542   4.539   3.621
    1C        C  453   3.611   4.535   3.744
    1C        C  454   3.398   4.554   3.866
    1C        C  455   3.540   4.550   3.865
    1C        C  456   3.329   4.541   3.989
    1C        C  457   3.398   4.550   4.112
    1C        C  458   3.194   4.509   4.239
    1C        C  459   3.332   4.539   4.236
    1C        C  460   3.128   4.489   4.362
    1C        C  461   3.194   4.524   4.482
    1C        C  462   3.000   4.432   4.606
    1C        C  463   3.125   4.498   4.602
    1C        C  464   2.936   4.395   4.726
    1C        C  465   2.992   4.440   4.849
    1C        C  466   2.798   4.338   4.958
    1C        C  467   2.906   4.427   4.963
    1C        C  468   4.124   4.291   2.044
    1C        C  469   4.181   4.246   2.163
    1C        C  470   4.010   4.378   2.280
    1C        C  471   4.127   4.299   2.284
    1C        C  472   3.945   4.409   2.403
    1C        C  473   4.004   4.374   2.526
    1C        C  474   3.809   4.465   2.642
    1C        C  475   3.939   4.408   2.646
    1C        C  476   3.746   4.495   2.765
    1C        C  477   3.815   4.467   2.886
    1C        C  478   3.607   4.522   3.009
    1C        C  479   3.745   4.491   3.006
    1C        C  480   3.536   4.532   3.131
    1C        C  481   3.607   4.522   3.252
    1C        C  482   3.395   4.537   3.378
    1C        C  483   3.536   4.535   3.374
    1C        C  484   3.328   4.532   3.502
    1C        C  485   3.400   4.542   3.622
    1C        C  486   3.193   4.502   3.746
    1C        C  487   3.329   4.542   3.744
    1C        C  488   3.132   4.474   3.870
    1C        C  489   3.194   4.500   3.994
    1C        C  490   3.000   4.421   4.117
    1C        C  491   3.126   4.484   4.117
    1C        C  492   2.941   4.386   4.241
    1C        C  493   3.003   4.424   4.362
    1C        C  494   2.834   4.299   4.484
    1C        C  495   2.941   4.391   4.484
    1C        C  496   2.773   4.255   4.604
    1C        C  497   2.819   4.314   4.723
    1C        C  498   2.662   4.166   4.846
    1C        C  499   2.755   4.273   4.842
    1C        C  500   2.594   4.116   4.957
    1C        C  501   4.002   4.358   2.040
    1C        C  502   3.817   4.467   2.156
    1C        C  503   3.945   4.408   2.158
    1C        C  504   3.746   4.484   2.277
    1C        C  505   3.812   4.455   2.399
    1C        C  506   3.605   4.512   2.522
    1C        C  507   3.743   4.484   2.519
    1C        C  508   3.534   4.519   2.644
    1C        C  509   3.608   4.522   2.765
    1C        C  510   3.395   4.522   2.886
    1C        C  511   3.536   4.525   2.887
    1C        C  512   3.324   4.522   3.008
    1C        C  513   3.395   4.533   3.130
    1C        C  514   3.190   4.494   3.255
    1C        C  515   3.327   4.528   3.254
    1C        C  516   3.125   4.469   3.378
    1C        C  517   3.192   4.493   3.500
    1C        C  518   3.002   4.407   3.625
    1C        C  519   3.127   4.473   3.624
    1C        C  520   2.944   4.375   3.749
    1C        C  521   3.007   4.408   3.871
    1C        C  522   2.841   4.282   3.996
    1C        C  523   2.948   4.374   3.995
    1C        C  524   2.787   4.236   4.118
    1C        C  525   2.832   4.295   4.238
    1C        C  526   2.703   4.131   4.365
    1C        C  527   2.789   4.244   4.362
    1C        C  528   2.654   4.077   4.485
    1C        C  529   2.688   4.142   4.606
    1C        C  530   2.587   3.959   4.731
    1C        C  531   2.638   4.092   4.728
    1C        C  532   2.544   3.898   4.852
    1C        C  533   2.525   3.994   4.957
    1C        C  534   3.618   4.560   2.042
    1C        C  535   3.751   4.514   2.042
    1C        C  536   3.536   4.535   2.156
    1C        C  537   3.606   4.510   2.278
    1C        C  538   3.395   4.520   2.401
    1C        C  539   3.537   4.525   2.400
    1C        C  540   3.324   4.511   2.523
    1C        C  541   3.393   4.515   2.646
    1C        C  542   3.182   4.485   2.767
    1C        C  543   3.320   4.512   2.767
    1C        C  544   3.115   4.466   2.890
    1C        C  545   3.186   4.490   3.009
    1C        C  546   2.997   4.406   3.135
    1C        C  547   3.121   4.473   3.134
    1C        C  548   2.938   4.369   3.258
    1C        C  549   3.000   4.403   3.380
    1C        C  550   2.834   4.276   3.508
    1C        C  551   2.942   4.368   3.504
    1C        C  552   2.787   4.228   3.632
    1C        C  553   2.835   4.285   3.752
    1C        C  554   2.698   4.125   3.875
    1C        C  555   2.786   4.235   3.874
    1C        C  556   2.662   4.065   3.998
    1C        C  557   2.701   4.124   4.120
    1C        C  558   2.597   3.945   4.245
    1C        C  559   2.660   4.071   4.245
    1C        C  560   2.569   3.880   4.368
    1C        C  561   2.590   3.951   4.489
    1C        C  562   2.530   3.750   4.615
    1C        C  563   2.561   3.888   4.612
    1C        C  564   2.519   3.680   4.737
    1C        C  565   2.523   3.757   4.857
    1C        C  566   2.534   3.547   4.977
    1C        C  567   2.527   3.685   4.977
    1C        C  568   3.324   4.490   2.038
    1C        C  569   3.396   4.513   2.156
    1C        C  570   3.185   4.484   2.280
    1C        C  571   3.325   4.505   2.279
    1C        C  572   3.117   4.459   2.402
    1C        C  573   3.186   4.481   2.523
    1C        C  574   2.988   4.404   2.647
    1C        C  575   3.115   4.464   2.644
    1C        C  576   2.927   4.367   2.769
    1C        C  577   2.988   4.402   2.892
    1C        C  578   2.826   4.271   3.017
    1C        C  579   2.934   4.362   3.016
    1C        C  580   2.780   4.223   3.142
    1C        C  581   2.833   4.274   3.262
    1C        C  582   2.701   4.111   3.386
    1C        C  583   2.785   4.225   3.386
    1C        C  584   2.666   4.053   3.510
    1C        C  585   2.706   4.112   3.631
    1C        C  586   2.600   3.932   3.754
    1C        C  587   2.662   4.059   3.755
    1C        C  588   2.570   3.872   3.879
    1C        C  589   2.603   3.937   4.000
    1C        C  590   2.541   3.739   4.127
    1C        C  591   2.574   3.876   4.124
    1C        C  592   2.525   3.672   4.250
    1C        C  593   2.535   3.743   4.371
    1C        C  594   2.510   3.536   4.497
    1C        C  595   2.517   3.677   4.495
    1C        C  596   2.522   3.464   4.618
    1C        C  597   2.516   3.538   4.738
    1C        C  598   2.537   3.328   4.862
    1C        C  599   2.529   3.469   4.861
    1C        C  600   2.533   3.249   4.977
    1C        C  601   3.198   4.434   2.048
    1C        C  602   2.982   4.397   2.162
    1C        C  603   3.117   4.447   2.161
    1C        C  604   2.922   4.362   2.285
    1C        C  605   2.988   4.402   2.403
    1C        C  606   2.827   4.265   2.528
    1C        C  607   2.928   4.364   2.525
    1C        C  608   2.775   4.220   2.652
    1C        C  609   2.820   4.276   2.774
    1C        C  610   2.683   4.113   2.898
    1C        C  611   2.773   4.222   2.896
    1C        C  612   2.655   4.049   3.021
    1C        C  613   2.693   4.111   3.142
    1C        C  614   2.592   3.927   3.266
    1C        C  615   2.659   4.051   3.265
    1C        C  616   2.567   3.864   3.390
    1C        C  617   2.599   3.928   3.512
    1C        C  618   2.530   3.729   3.638
    1C        C  619   2.571   3.864   3.634
    1C        C  620   2.524   3.662   3.762
    1C        C  621   2.536   3.735   3.883
    1C        C  622   2.512   3.526   4.010
    1C        C  623   2.524   3.667   4.006
    1C        C  624   2.514   3.457   4.133
    1C        C  625   2.510   3.531   4.253
    1C        C  626   2.532   3.323   4.379
    1C        C  627   2.512   3.463   4.376
    1C        C  628   2.553   3.252   4.499
    1C        C  629   2.540   3.324   4.620
    1C        C  630   2.597   3.119   4.743
    1C        C  631   2.559   3.256   4.742
    1C        C  632   2.619   3.051   4.866
    1C        C  633   2.569   3.114   4.984
    1C        C  634   2.788   4.299   2.052
    1C        C  635   2.893   4.391   2.050
    1C        C  636   2.750   4.229   2.167
    1C        C  637   2.811   4.273   2.287
    1C        C  638   2.682   4.106   2.413
    1C        C  639   2.767   4.218   2.409
    1C        C  640   2.643   4.048   2.536
    1C        C  641   2.689   4.108   2.656
    1C        C  642   2.588   3.922   2.779
    1C        C  643   2.644   4.052   2.777
    1C        C  644   2.567   3.855   2.902
    1C        C  645   2.593   3.922   3.024
    1C        C  646   2.525   3.722   3.151
    1C        C  647   2.565   3.857   3.146
    1C        C  648   2.510   3.655   3.275
    1C        C  649   2.527   3.729   3.394
    1C        C  650   2.508   3.517   3.518
    1C        C  651   2.517   3.658   3.516
    1C        C  652   2.517   3.451   3.643
    1C        C  653   2.513   3.522   3.765
    1C        C  654   2.535   3.314   3.892
    1C        C  655   2.515   3.454   3.889
    1C        C  656   2.548   3.247   4.015
    1C        C  657   2.536   3.317   4.137
    1C        C  658   2.606   3.120   4.259
    1C        C  659   2.546   3.248   4.260
    1C        C  660   2.639   3.056   4.380
    1C        C  661   2.600   3.119   4.501
    1C        C  662   2.713   2.940   4.628
    1C        C  663   2.627   3.052   4.622
    1C        C  664   2.757   2.881   4.749
    1C        C  665   2.701   2.934   4.868
    1C        C  666   2.747   2.872   4.985
    1C        C  667   2.682   4.024   2.056
    1C        C  668   2.683   4.105   2.171
    1C        C  669   2.593   3.911   2.295
    1C        C  670   2.643   4.044   2.292
    1C        C  671   2.557   3.847   2.416
    1C        C  672   2.585   3.920   2.534
    1C        C  673   2.519   3.721   2.662
    1C        C  674   2.559   3.857   2.658
    1C        C  675   2.508   3.648   2.782
    1C        C  676   2.529   3.719   2.903
    1C        C  677   2.502   3.513   3.031
    1C        C  678   2.517   3.653   3.027
    1C        C  679   2.503   3.442   3.154
    1C        C  680   2.501   3.514   3.275
    1C        C  681   2.530   3.305   3.400
    1C        C  682   2.500   3.443   3.398
    1C        C  683   2.554   3.243   3.525
    1C        C  684   2.534   3.311   3.648
    1C        C  685   2.603   3.112   3.770
    1C        C  686   2.551   3.243   3.770
    1C        C  687   2.638   3.052   3.894
    1C        C  688   2.608   3.119   4.015
    1C        C  689   2.720   2.939   4.139
    1C        C  690   2.642   3.058   4.138
    1C        C  691   2.763   2.882   4.261
    1C        C  692   2.715   2.937   4.382
    1C        C  693   2.755   2.883   4.506
    1C        C  694   2.629   3.894   2.060
    1C        C  695   2.530   3.703   2.177
    1C        C  696   2.580   3.835   2.177
    1C        C  697   2.507   3.638   2.300
    1C        C  698   2.519   3.711   2.420
    1C        C  699   2.491   3.505   2.543
    1C        C  700   2.501   3.646   2.544
    1C        C  701   2.499   3.437   2.667
    1C        C  702   2.497   3.508   2.789
    1C        C  703   2.529   3.300   2.912
    1C        C  704   2.501   3.438   2.911
    1C        C  705   2.552   3.233   3.034
    1C        C  706   2.535   3.305   3.155
    1C        C  707   2.600   3.105   3.279
    1C        C  708   2.548   3.236   3.278
    1C        C  709   2.638   3.049   3.403
    1C        C  710   2.612   3.114   3.526
    1C        C  711   2.714   2.931   3.648
    1C        C  712   2.638   3.050   3.648
    1C        C  713   2.758   2.876   3.771
    1C        C  714   2.719   2.937   3.893
    1C        C  715   2.760   2.882   4.017
    1C        C  716   2.447   3.501   2.064
    1C        C  717   2.490   3.634   2.062
    1C        C  718   2.467   3.423   2.183
    1C        C  719   2.484   3.497   2.303
    1C        C  720   2.514   3.288   2.426
    1C        C  721   2.487   3.427   2.425
    1C        C  722   2.540   3.224   2.549
    1C        C  723   2.527   3.298   2.668
    1C        C  724   2.597   3.097   2.790
    1C        C  725   2.551   3.231   2.790
    1C        C  726   2.630   3.034   2.912
    1C        C  727   2.602   3.101   3.033
    1C        C  728   2.714   2.926   3.162
    1C        C  729   2.632   3.041   3.158
    1C        C  730   2.750   2.867   3.285
    1C        C  731   2.713   2.929   3.407
    1C        C  732   2.759   2.873   3.528
    1C        C  733   2.485   3.195   2.073
    1C        C  734   2.495   3.283   2.182
    1C        C  735   2.589   3.090   2.307
    1C        C  736   2.524   3.217   2.305
    1C        C  737   2.618   3.023   2.428
    1C        C  738   2.589   3.092   2.548
    1C        C  739   2.700   2.910   2.672
    1C        C  740   2.623   3.028   2.669
    1C        C  741   2.747   2.856   2.794
    1C        C  742   2.705   2.915   2.915
    1C        C  743   2.753   2.867   3.039
    1C        C  744   2.548   3.071   2.077
    1C        C  745   2.686   2.896   2.185
    1C        C  746   2.613   3.016   2.188
    1C        C  747   2.737   2.845   2.307
    1C        C  748   2.694   2.905   2.427
    1C        C  749   2.743   2.854   2.550
    1C        C  750   2.729   2.836   2.066
    1C        C  751   3.654   2.311   1.985
    1C        O  752   3.683   2.207   2.048
    1C        O  753   3.713   2.333   1.860
    1C        C  754   4.597   3.071   1.947
    1C        O  755   4.534   3.068   1.838
    1C        O  756   4.735   3.051   1.944
    1C        C  757   4.439   4.225   1.966
    1C        O  758   4.500   4.324   2.016
    1C        O  759   4.445   4.221   1.826
    1C        C  760   3.587   4.675   1.955
    1C        O  761   3.594   4.795   1.991
    1C        O  762   3.593   4.650   1.817
    1C        C  763   2.866   4.511   1.968
    1C        O  764   2.906   4.508   1.848
    1C        O  765   2.778   4.613   2.007
    1C        C  766   2.345   3.475   1.960
    1C        O  767   2.374   3.447   1.841
    1C        O  768   2.212   3.448   1.994
    1C        C  769   4.701   3.592   5.054
    1C        O  770   4.678   3.548   5.170
    1C        O  771   4.836   3.589   5.017
    1C        C  772   4.276   4.464   5.028
    1C        O  773   4.284   4.463   5.153
    1C        O  774   4.404   4.478   4.971
    1C        C  775   4.153   2.504   5.046
    1C        O  776   4.207   2.397   5.006
    1C        O  777   4.187   2.530   5.179
    1C        C  778   2.902   4.525   5.073
    1C        O  779   2.868   4.646   5.057
    1C        O  780   2.979   4.521   5.190
    1C        C  781   2.475   3.035   5.068
    1C        O  782   2.364   3.003   5.018
    1C        O  783   2.503   2.971   5.188
    1C        C  784   2.387   3.999   5.011
    1C        O  785   2.285   4.051   4.959
    1C        O  786   2.368   3.978   5.148
    1C        C  787   2.948   2.436   2.006
    1C        O  788   2.925   2.478   1.889
    1C        O  789   2.919   2.303   2.035
    1C        C  790   3.177   2.372   5.061
    1C        O  791   3.194   2.260   5.006
    1C        O  792   3.199   2.378   5.199
    1C        H  793   4.277   3.022   5.062
    1C        H  794   4.215   2.793   5.071
    1C        H  795   4.523   3.127   5.051
    1C        H  796   4.520   3.380   5.063
    1C        H  797   4.599   3.816   5.024
    1C        H  798   4.384   3.958   5.055
    1C        H  799   4.278   4.160   5.048
    1C        H  800   4.020   4.520   5.037
    1C        H  801   3.825   4.618   5.027
    1C        H  802   3.581   4.641   5.034
    1C        H  803   3.399   4.522   5.047
    1C        H  804   3.169   4.519   5.058
    1C        H  805   3.913   2.453   5.041
    1C        H  806   3.678   2.427   5.065
    1C        H  807   2.984   2.518   5.046
    1C        H  808   3.439   2.458   5.080
    1C        H  809   2.886   2.760   5.085
    1C        H  810   2.743   2.930   5.075
    1C        H  811   2.474   3.285   5.059
    1C        H  812   2.542   3.501   5.073
    1C        H  813   2.485   3.737   5.061
    1C        H  814   2.591   4.175   5.046
    1C        H  815   2.785   4.284   5.050
    1C        H  816   2.712   2.880   1.970
    1C        H  817   2.815   2.667   1.982
    1C        H  818   3.190   2.388   2.021
    1C        H  819   3.430   2.466   1.979
    1C        H  820   3.853   2.516   1.970
    1C        H  821   4.056   2.638   1.966
    1C        H  822   4.311   2.684   2.019
    1C        H  823   4.367   2.934   1.971
    1C        H  824   4.598   3.311   1.972
    1C        H  825   4.476   3.513   1.963
    1C        H  826   4.522   3.757   1.965
    1C        H  827   3.821   4.558   1.974
    1C        H  828   3.940   4.329   1.958
    1C        H  829   4.191   4.314   1.964
    1C        H  830   4.535   3.997   1.992
    1C        H  831   2.669   3.825   1.989
    1C        H  832   2.716   4.062   1.962
    1C        H  833   2.717   4.294   1.972
    1C        H  834   3.343   4.565   1.965
    1C        H  835   3.177   4.361   1.972
    1C        H  836   2.508   3.003   2.005
    1C        H  837   2.451   3.226   1.977
    1C        H  838   2.457   3.696   1.980
    2V3OU   H29  839   2.802   3.542   1.526
    2V3OU   C27  840   2.782   3.500   1.628
    2V3OU   H27  841   2.723   3.565   1.697
    2V3OU   H28  842   2.723   3.406   1.632
    2V3OU   O11  843   2.907   3.480   1.695
    2V3OU   C15  844   2.923   3.396   1.803
    2V3OU   C13  845   3.051   3.377   1.859
    2V3OU   C14  846   3.076   3.275   1.952
    2V3OU   C16  847   2.969   3.198   1.995
    2V3OU    H6  848   2.989   3.111   2.060
    2V3OU   C12  849   3.215   3.235   1.988
    2V3OU    O2  850   3.240   3.137   2.061
    2V3OU   C10  851   3.329   3.309   1.933
    2V3OU    C8  852   3.458   3.265   1.959
    2V3OU   O10  853   3.491   3.161   2.039
    2V3OU   H26  854   3.407   3.111   2.041
    2V3OU    C6  855   3.563   3.348   1.908
    2V3OU    C5  856   3.538   3.466   1.838
    2V3OU    C4  857   3.702   3.294   1.907
    2V3OU    H4  858   3.724   3.223   1.992
    2V3OU    H5  859   3.709   3.229   1.815
    2V3OU    C2  860   3.817   3.395   1.902
    2V3OU    O6  861   3.807   3.471   2.023
    2V3OU   H21  862   3.769   3.555   1.994
    2V3OU    C3  863   3.785   3.493   1.788
    2V3OU    H2  864   3.862   3.573   1.781
    2V3OU    H3  865   3.787   3.443   1.688
    2V3OU   C25  866   3.952   3.325   1.883
    2V3OU    O7  867   4.000   3.290   1.776
    2V3OU   C26  868   4.030   3.288   2.008
    2V3OU   H22  869   4.066   3.380   2.061
    2V3OU   H23  870   4.117   3.224   1.982
    2V3OU    O8  871   3.963   3.210   2.104
    2V3OU   H24  872   3.916   3.272   2.162
    2V3OU    C1  873   3.651   3.561   1.813
    2V3OU    H1  874   3.623   3.618   1.719
    2V3OU    O3  875   3.660   3.653   1.922
    2V3OU   C19  876   3.623   3.790   1.901
    2V3OU    H9  877   3.524   3.805   1.848
    2V3OU    O4  878   3.715   3.849   1.812
    2V3OU   C20  879   3.845   3.877   1.866
    2V3OU   H10  880   3.891   3.774   1.869
    2V3OU   C24  881   3.609   3.858   2.037
    2V3OU   H16  882   3.543   3.801   2.107
    2V3OU   H17  883   3.561   3.959   2.027
    2V3OU   C23  884   3.750   3.876   2.095
    2V3OU   H15  885   3.795   3.772   2.109
    2V3OU    N1  886   3.734   3.957   2.214
    2V3OU   H19  887   3.806   3.927   2.276
    2V3OU   H20  888   3.652   3.940   2.268
    2V3OU   C21  889   3.851   3.949   2.001
    2V3OU   H11  890   3.958   3.931   2.031
    2V3OU    O5  891   3.829   4.089   1.995
    2V3OU   H18  892   3.779   4.105   2.077
    2V3OU   C22  893   3.917   3.953   1.756
    2V3OU   H12  894   3.863   4.049   1.737
    2V3OU   H13  895   3.912   3.896   1.660
    2V3OU   H14  896   4.026   3.966   1.781
    2V3OU   C11  897   3.160   3.472   1.834
    2V3OU    O1  898   3.132   3.587   1.793
    2V3OU    C9  899   3.299   3.428   1.862
    2V3OU    C7  900   3.403   3.508   1.816
    2V3OU    O9  901   3.381   3.620   1.739
    2V3OU   H25  902   3.285   3.628   1.750
    2V3OU   C17  903   2.821   3.312   1.851
    2V3OU    H7  904   2.720   3.346   1.826
    2V3OU   C18  905   2.840   3.211   1.944
    2V3OU    H8  906   2.753   3.150   1.974
    3SOL     OW  907   1.356   3.590   1.354
    3SOL    HW1  908   1.279   3.547   1.401
    3SOL    HW2  909   1.435   3.528   1.356
    4SOL     OW  910   5.994   0.870   1.862
    4SOL    HW1  911   5.932   0.795   1.886
    4SOL    HW2  912   6.077   0.864   1.918
    5SOL     OW  913   4.172   1.767   0.656
    5SOL    HW1  914   4.145   1.838   0.721
    5SOL    HW2  915   4.118   1.776   0.573
    6SOL     OW  916   3.104   2.030   1.995
    6SOL    HW1  917   3.062   2.096   2.057
    6SOL    HW2  918   3.037   1.959   1.971
    7SOL     OW  919   5.389   1.856   2.028
    7SOL    HW1  920   5.455   1.904   2.085
    7SOL    HW2  921   5.425   1.847   1.935
    8SOL     OW  922   2.723   0.271   4.109
    8SOL    HW1  923   2.803   0.211   4.097
    8SOL    HW2  924   2.749   0.365   4.091
    9SOL     OW  925   1.696   4.917   6.064
    9SOL    HW1  926   1.741   4.828   6.072
    9SOL    HW2  927   1.628   4.913   5.991
   10SOL     OW  928   0.704   4.687   6.096
   10SOL    HW1  929   0.625   4.686   6.157
   10SOL    HW2  930   0.776   4.745   6.136
   11SOL     OW  931   4.167   6.457   0.354
   11SOL    HW1  932   4.243   6.522   0.354
   11SOL    HW2  933   4.204   6.364   0.355
   12SOL     OW  934   5.277   5.999   3.001
   12SOL    HW1  935   5.194   6.018   3.053
   12SOL    HW2  936   5.290   5.900   2.994
   13SOL     OW  937   2.803   6.315   4.047
   13SOL    HW1  938   2.901   6.335   4.057
   13SOL    HW2  939   2.793   6.229   3.995
   14SOL     OW  940   3.504   6.575   0.252
   14SOL    HW1  941   3.541   6.516   0.180
   14SOL    HW2  942   3.420   6.534   0.288
   15SOL     OW  943   1.155   6.466   0.134
   15SOL    HW1  944   1.241   6.463   0.185
   15SOL    HW2  945   1.079   6.450   0.196
   16SOL     OW  946   6.400   2.497   6.201
   16SOL    HW1  947   6.338   2.559   6.249
   16SOL    HW2  948   6.440   2.545   6.122
   17SOL     OW  949   5.328   6.619   3.894
   17SOL    HW1  950   5.268   6.682   3.844
   17SOL    HW2  951   5.418   6.618   3.851
   18SOL     OW  952   1.899   2.003   5.581
   18SOL    HW1  953   1.802   1.990   5.602
   18SOL    HW2  954   1.937   2.074   5.640
   19SOL     OW  955   0.278   0.156   2.733
   19SOL    HW1  956   0.180   0.176   2.731
   19SOL    HW2  957   0.315   0.185   2.822
   20SOL     OW  958   3.481   1.426   3.954
   20SOL    HW1  959   3.435   1.351   3.906
   20SOL    HW2  960   3.427   1.455   4.032
   21SOL     OW  961   3.038   1.420   1.353
   21SOL    HW1  962   3.016   1.470   1.269
   21SOL    HW2  963   3.133   1.436   1.377
   22SOL     OW  964   2.326   6.329   6.054
   22SOL    HW1  965   2.291   6.296   5.966
   22SOL    HW2  966   2.299   6.424   6.067
   23SOL     OW  967   4.496   6.729   3.864
   23SOL    HW1  968   4.473   6.638   3.829
   23SOL    HW2  969   4.413   6.778   3.887
   24SOL     OW  970   5.457   1.036   5.062
   24SOL    HW1  971   5.519   1.094   5.008
   24SOL    HW2  972   5.480   1.045   5.159
   25SOL     OW  973   3.825   5.618   0.298
   25SOL    HW1  974   3.895   5.562   0.254
   25SOL    HW2  975   3.751   5.637   0.233
   26SOL     OW  976   6.571   1.123   1.851
   26SOL    HW1  977   6.472   1.119   1.842
   26SOL    HW2  978   6.602   1.218   1.850
   27SOL     OW  979   6.125   0.282   2.463
   27SOL    HW1  980   6.225   0.286   2.455
   27SOL    HW2  981   6.100   0.275   2.559
   28SOL     OW  982   4.035   0.794   0.197
   28SOL    HW1  983   3.947   0.756   0.225
   28SOL    HW2  984   4.076   0.734   0.128
   29SOL     OW  985   4.536   2.394   1.386
   29SOL    HW1  986   4.586   2.396   1.300
   29SOL    HW2  987   4.532   2.486   1.425
   30SOL     OW  988   3.443   0.269   5.149
   30SOL    HW1  989   3.537   0.249   5.121
   30SOL    HW2  990   3.421   0.218   5.231
   31SOL     OW  991   0.777   1.058   5.074
   31SOL    HW1  992   0.847   1.006   5.123
   31SOL    HW2  993   0.790   1.155   5.090
   32SOL     OW  994   0.891   1.913   1.893
   32SOL    HW1  995   0.860   1.935   1.800
   32SOL    HW2  996   0.921   1.997   1.938
   33SOL     OW  997   1.797   2.583   6.019
   33SOL    HW1  998   1.760   2.567   6.111
   33SOL    HW2  999   1.805   2.681   6.003
   34SOL     OW 1000   2.188   6.947   4.761
   34SOL    HW1 1001   2.162   0.013   4.727
   34SOL    HW2 1002   2.153   6.935   4.854
   35SOL     OW 1003   4.978   1.541   0.519
   35SOL    HW1 1004   4.883   1.569   0.533
   35SOL    HW2 1005   4.988   1.502   0.428
   36SOL     OW 1006   1.872   1.198   5.905
   36SOL    HW1 1007   1.785   1.247   5.905
   36SOL    HW2 1008   1.933   1.238   5.974
   37SOL     OW 1009   3.141   6.789   1.162
   37SOL    HW1 1010   3.155   6.765   1.258
   37SOL    HW2 1011   3.209   6.740   1.106
   38SOL     OW 1012   6.831   6.553   3.354
   38SOL    HW1 1013   6.790   6.626   3.408
   38SOL    HW2 1014   6.766   6.523   3.284
   39SOL     OW 1015   6.658   3.341   5.352
   39SOL    HW1 1016   6.751   3.338   5.391
   39SOL    HW2 1017   6.591   3.330   5.425
   40SOL     OW 1018   5.875   0.717   2.607
   40SOL    HW1 1019   5.791   0.743   2.559
   40SOL    HW2 1020   5.909   0.631   2.570
   41SOL     OW 1021   1.419   6.658   5.125
   41SOL    HW1 1022   1.327   6.658   5.085
   41SOL    HW2 1023   1.445   6.565   5.151
   42SOL     OW 1024   3.579   0.522   6.619
   42SOL    HW1 1025   3.570   0.452   6.690
   42SOL    HW2 1026   3.634   0.598   6.653
   43SOL     OW 1027   5.436   6.335   5.271
   43SOL    HW1 1028   5.529   6.303   5.253
   43SOL    HW2 1029   5.428   6.366   5.366
   44SOL     OW 1030   0.313   2.788   6.462
   44SOL    HW1 1031   0.320   2.716   6.392
   44SOL    HW2 1032   0.399   2.794   6.513
   45SOL     OW 1033   2.634   1.238   2.042
   45SOL    HW1 1034   2.650   1.204   2.135
   45SOL    HW2 1035   2.549   1.198   2.007
   46SOL     OW 1036   1.895   3.625   4.429
   46SOL    HW1 1037   1.828   3.552   4.439
   46SOL    HW2 1038   1.985   3.591   4.456
   47SOL     OW 1039   6.618   4.739   3.285
   47SOL    HW1 1040   6.559   4.809   3.326
   47SOL    HW2 1041   6.609   4.653   3.335
   48SOL     OW 1042   6.981   2.341   4.939
   48SOL    HW1 1043   6.995   2.382   5.029
   48SOL    HW2 1044   6.910   2.271   4.944
   49SOL     OW 1045   4.533   3.519   0.786
   49SOL    HW1 1046   4.574   3.500   0.875
   49SOL    HW2 1047   4.606   3.529   0.718
   50SOL     OW 1048   6.388   3.842   4.943
   50SOL    HW1 1049   6.386   3.925   4.888
   50SOL    HW2 1050   6.481   3.826   4.977
   51SOL     OW 1051   3.440   4.997   3.138
   51SOL    HW1 1052   3.345   4.967   3.151
   51SOL    HW2 1053   3.441   5.094   3.113
   52SOL     OW 1054   3.072   1.358   2.171
   52SOL    HW1 1055   2.999   1.394   2.228
   52SOL    HW2 1056   3.111   1.431   2.115
   53SOL     OW 1057   5.022   6.976   4.233
   53SOL    HW1 1058   5.021   6.931   4.322
   53SOL    HW2 1059   4.977   0.041   4.241
   54SOL     OW 1060   3.411   5.114   5.564
   54SOL    HW1 1061   3.355   5.188   5.527
   54SOL    HW2 1062   3.354   5.050   5.613
   55SOL     OW 1063   4.068   1.582   5.995
   55SOL    HW1 1064   4.088   1.675   6.027
   55SOL    HW2 1065   4.128   1.517   6.041
   56SOL     OW 1066   1.156   0.629   2.388
   56SOL    HW1 1067   1.247   0.589   2.381
   56SOL    HW2 1068   1.092   0.576   2.331
   57SOL     OW 1069   4.969   0.996   0.603
   57SOL    HW1 1070   4.892   1.044   0.643
   57SOL    HW2 1071   4.937   0.938   0.528
   58SOL     OW 1072   6.965   6.170   6.650
   58SOL    HW1 1073   6.926   6.209   6.733
   58SOL    HW2 1074   0.040   6.163   6.660
   59SOL     OW 1075   1.239   0.529   6.080
   59SOL    HW1 1076   1.333   0.562   6.091
   59SOL    HW2 1077   1.220   0.459   6.150
   60SOL     OW 1078   4.547   6.801   5.253
   60SOL    HW1 1079   4.462   6.853   5.247
   60SOL    HW2 1080   4.559   6.746   5.170
   61SOL     OW 1081   4.772   0.222   3.957
   61SOL    HW1 1082   4.863   0.255   3.981
   61SOL    HW2 1083   4.771   0.122   3.960
   62SOL     OW 1084   1.717   0.449   3.775
   62SOL    HW1 1085   1.706   0.484   3.868
   62SOL    HW2 1086   1.799   0.489   3.734
   63SOL     OW 1087   6.618   2.904   3.410
   63SOL    HW1 1088   6.671   2.833   3.365
   63SOL    HW2 1089   6.663   2.993   3.400
   64SOL     OW 1090   5.945   3.865   6.347
   64SOL    HW1 1091   5.919   3.812   6.266
   64SOL    HW2 1092   6.045   3.875   6.350
   65SOL     OW 1093   6.697   4.630   4.839
   65SOL    HW1 1094   6.769   4.561   4.846
   65SOL    HW2 1095   6.714   4.688   4.759
   66SOL     OW 1096   3.475   0.426   7.000
   66SOL    HW1 1097   3.528   0.464   6.924
   66SOL    HW2 1098   3.504   0.470   0.061
   67SOL     OW 1099   5.814   6.034   5.054
   67SOL    HW1 1100   5.721   6.026   5.088
   67SOL    HW2 1101   5.817   6.005   4.958
   68SOL     OW 1102   6.235   1.688   6.076
   68SOL    HW1 1103   6.190   1.629   6.143
   68SOL    HW2 1104   6.168   1.720   6.009
   69SOL     OW 1105   2.816   4.244   6.260
   69SOL    HW1 1106   2.731   4.292   6.280
   69SOL    HW2 1107   2.813   4.207   6.167
   70SOL     OW 1108   0.116   5.604   2.712
   70SOL    HW1 1109   0.118   5.516   2.665
   70SOL    HW2 1110   0.151   5.676   2.652
   71SOL     OW 1111   2.259   2.924   3.375
   71SOL    HW1 1112   2.245   2.862   3.298
   71SOL    HW2 1113   2.311   2.877   3.446
   72SOL     OW 1114   2.838   5.394   3.744
   72SOL    HW1 1115   2.906   5.322   3.751
   72SOL    HW2 1116   2.859   5.453   3.666
   73SOL     OW 1117   3.716   1.784   0.064
   73SOL    HW1 1118   3.786   1.767   0.133
   73SOL    HW2 1119   3.633   1.818   0.108
   74SOL     OW 1120   5.161   6.530   6.594
   74SOL    HW1 1121   5.142   6.459   6.661
   74SOL    HW2 1122   5.152   6.493   6.502
   75SOL     OW 1123   3.796   5.788   5.518
   75SOL    HW1 1124   3.715   5.735   5.491
   75SOL    HW2 1125   3.773   5.843   5.599
   76SOL     OW 1126   1.876   2.279   1.102
   76SOL    HW1 1127   1.874   2.318   1.194
   76SOL    HW2 1128   1.939   2.201   1.101
   77SOL     OW 1129   5.871   5.201   5.180
   77SOL    HW1 1130   5.818   5.273   5.134
   77SOL    HW2 1131   5.968   5.225   5.178
   78SOL     OW 1132   6.372   6.133   6.000
   78SOL    HW1 1133   6.393   6.210   6.059
   78SOL    HW2 1134   6.275   6.111   6.006
   79SOL     OW 1135   3.692   0.253   0.552
   79SOL    HW1 1136   3.722   0.165   0.515
   79SOL    HW2 1137   3.605   0.241   0.601
   80SOL     OW 1138   6.492   1.677   4.500
   80SOL    HW1 1139   6.550   1.628   4.566
   80SOL    HW2 1140   6.521   1.654   4.407
   81SOL     OW 1141   1.610   1.123   3.156
   81SOL    HW1 1142   1.633   1.177   3.075
   81SOL    HW2 1143   1.512   1.108   3.160
   82SOL     OW 1144   6.674   4.752   6.863
   82SOL    HW1 1145   6.765   4.759   6.904
   82SOL    HW2 1146   6.665   4.821   6.790
   83SOL     OW 1147   0.114   6.349   0.443
   83SOL    HW1 1148   0.089   6.374   0.537
   83SOL    HW2 1149   0.197   6.293   0.444
   84SOL     OW 1150   5.230   3.813   2.269
   84SOL    HW1 1151   5.164   3.841   2.199
   84SOL    HW2 1152   5.217   3.716   2.290
   85SOL     OW 1153   0.715   1.697   4.976
   85SOL    HW1 1154   0.733   1.794   4.957
   85SOL    HW2 1155   0.627   1.689   5.023
   86SOL     OW 1156   0.419   0.476   5.440
   86SOL    HW1 1157   0.487   0.509   5.506
   86SOL    HW2 1158   0.452   0.392   5.397
   87SOL     OW 1159   4.753   2.448   0.194
   87SOL    HW1 1160   4.671   2.492   0.228
   87SOL    HW2 1161   4.801   2.403   0.269
   88SOL     OW 1162   5.216   1.166   0.736
   88SOL    HW1 1163   5.131   1.177   0.684
   88SOL    HW2 1164   5.280   1.239   0.711
   89SOL     OW 1165   1.745   2.773   6.638
   89SOL    HW1 1166   1.794   2.860   6.644
   89SOL    HW2 1167   1.692   2.759   6.721
   90SOL     OW 1168   6.226   6.290   4.025
   90SOL    HW1 1169   6.167   6.328   4.096
   90SOL    HW2 1170   6.220   6.346   3.942
   91SOL     OW 1171   5.082   4.540   4.347
   91SOL    HW1 1172   5.149   4.610   4.320
   91SOL    HW2 1173   4.991   4.580   4.348
   92SOL     OW 1174   2.888   4.760   1.025
   92SOL    HW1 1175   2.981   4.749   1.060
   92SOL    HW2 1176   2.880   4.849   0.978
   93SOL     OW 1177   3.794   4.941   5.874
   93SOL    HW1 1178   3.750   4.931   5.785
   93SOL    HW2 1179   3.737   4.901   5.945
   94SOL     OW 1180   2.900   5.804   0.055
   94SOL    HW1 1181   2.913   5.822   0.153
   94SOL    HW2 1182   2.815   5.753   0.042
   95SOL     OW 1183   0.614   0.174   4.198
   95SOL    HW1 1184   0.555   0.250   4.174
   95SOL    HW2 1185   0.594   0.096   4.138
   96SOL     OW 1186   2.234   0.172   4.966
   96SOL    HW1 1187   2.283   0.107   5.023
   96SOL    HW2 1188   2.139   0.177   4.995
   97SOL     OW 1189   5.930   3.401   4.295
   97SOL    HW1 1190   5.866   3.337   4.337
   97SOL    HW2 1191   5.943   3.479   4.356
   98SOL     OW 1192   5.003   2.583   6.122
   98SOL    HW1 1193   5.017   2.488   6.095
   98SOL    HW2 1194   5.080   2.614   6.178
   99SOL     OW 1195   4.021   2.739   0.906
   99SOL    HW1 1196   4.040   2.771   0.999
   99SOL    HW2 1197   4.065   2.800   0.840
  100SOL     OW 1198   0.631   6.466   6.643
  100SOL    HW1 1199   0.580   6.391   6.683
  100SOL    HW2 1200   0.669   6.524   6.716
  101SOL     OW 1201   0.588   5.886   3.931
  101SOL    HW1 1202   0.518   5.824   3.965
  101SOL    HW2 1203   0.628   5.937   4.008
  102SOL     OW 1204   3.901   0.690   3.342
  102SOL    HW1 1205   3.844   0.696   3.424
  102SOL    HW2 1206   3.861   0.625   3.278
  103SOL     OW 1207   4.248   2.163   1.573
  103SOL    HW1 1208   4.329   2.105   1.579
  103SOL    HW2 1209   4.226   2.199   1.664
  104SOL     OW 1210   6.633   5.501   2.535
  104SOL    HW1 1211   6.677   5.571   2.591
  104SOL    HW2 1212   6.703   5.442   2.496
  105SOL     OW 1213   6.202   1.031   6.600
  105SOL    HW1 1214   6.206   1.053   6.502
  105SOL    HW2 1215   6.295   1.020   6.635
  106SOL     OW 1216   2.552   6.166   6.338
  106SOL    HW1 1217   2.610   6.247   6.346
  106SOL    HW2 1218   2.592   6.090   6.390
  107SOL     OW 1219   1.089   2.634   1.164
  107SOL    HW1 1220   1.100   2.550   1.111
  107SOL    HW2 1221   1.168   2.646   1.224
  108SOL     OW 1222   5.030   4.852   6.764
  108SOL    HW1 1223   4.939   4.811   6.770
  108SOL    HW2 1224   5.031   4.920   6.690
  109SOL     OW 1225   0.430   0.197   0.752
  109SOL    HW1 1226   0.396   0.290   0.764
  109SOL    HW2 1227   0.440   0.154   0.842
  110SOL     OW 1228   3.727   5.929   5.732
  110SOL    HW1 1229   3.758   5.940   5.826
  110SOL    HW2 1230   3.628   5.939   5.727
  111SOL     OW 1231   3.723   0.705   3.573
  111SOL    HW1 1232   3.746   0.611   3.599
  111SOL    HW2 1233   3.713   0.761   3.655
  112SOL     OW 1234   6.111   5.695   5.783
  112SOL    HW1 1235   6.042   5.670   5.716
  112SOL    HW2 1236   6.067   5.713   5.871
  113SOL     OW 1237   6.787   4.622   3.838
  113SOL    HW1 1238   6.762   4.699   3.780
  113SOL    HW2 1239   6.862   4.571   3.796
  114SOL     OW 1240   0.528   6.768   0.550
  114SOL    HW1 1241   0.580   6.834   0.603
  114SOL    HW2 1242   0.481   6.705   0.612
  115SOL     OW 1243   4.685   1.213   4.027
  115SOL    HW1 1244   4.618   1.287   4.014
  115SOL    HW2 1245   4.754   1.242   4.094
  116SOL     OW 1246   6.373   4.832   2.357
  116SOL    HW1 1247   6.274   4.842   2.355
  116SOL    HW2 1248   6.398   4.736   2.348
  117SOL     OW 1249   1.229   0.706   6.601
  117SOL    HW1 1250   1.274   0.763   6.532
  117SOL    HW2 1251   1.164   0.645   6.557
  118SOL     OW 1252   0.204   0.816   1.797
  118SOL    HW1 1253   0.130   0.875   1.829
  118SOL    HW2 1254   0.170   0.757   1.724
  119SOL     OW 1255   6.902   2.547   6.551
  119SOL    HW1 1256   6.866   2.463   6.510
  119SOL    HW2 1257   6.854   2.565   6.637
  120SOL     OW 1258   6.219   6.811   0.983
  120SOL    HW1 1259   6.314   6.829   1.006
  120SOL    HW2 1260   6.189   6.727   1.029
  121SOL     OW 1261   2.552   3.617   6.363
  121SOL    HW1 1262   2.642   3.596   6.326
  121SOL    HW2 1263   2.520   3.541   6.419
  122SOL     OW 1264   1.227   3.679   5.022
  122SOL    HW1 1265   1.324   3.664   5.041
  122SOL    HW2 1266   1.201   3.770   5.053
  123SOL     OW 1267   6.954   1.716   1.459
  123SOL    HW1 1268   6.919   1.696   1.368
  123SOL    HW2 1269   0.027   1.740   1.453
  124SOL     OW 1270   5.325   3.123   0.140
  124SOL    HW1 1271   5.268   3.196   0.100
  124SOL    HW2 1272   5.318   3.041   0.084
  125SOL     OW 1273   1.648   2.241   1.954
  125SOL    HW1 1274   1.643   2.261   2.052
  125SOL    HW2 1275   1.565   2.274   1.909
  126SOL     OW 1276   2.446   4.466   0.875
  126SOL    HW1 1277   2.404   4.539   0.821
  126SOL    HW2 1278   2.402   4.462   0.965
  127SOL     OW 1279   6.998   5.288   5.993
  127SOL    HW1 1280   6.958   5.197   5.981
  127SOL    HW2 1281   6.969   5.346   5.917
  128SOL     OW 1282   4.371   2.950   1.551
  128SOL    HW1 1283   4.336   2.974   1.642
  128SOL    HW2 1284   4.357   2.852   1.536
  129SOL     OW 1285   3.418   3.891   6.282
  129SOL    HW1 1286   3.499   3.833   6.276
  129SOL    HW2 1287   3.364   3.882   6.198
  130SOL     OW 1288   0.980   0.961   4.185
  130SOL    HW1 1289   1.033   0.878   4.166
  130SOL    HW2 1290   0.952   0.961   4.281
  131SOL     OW 1291   4.547   1.557   2.620
  131SOL    HW1 1292   4.647   1.550   2.612
  131SOL    HW2 1293   4.512   1.474   2.663
  132SOL     OW 1294   1.030   2.886   1.584
  132SOL    HW1 1295   1.049   2.984   1.593
  132SOL    HW2 1296   1.086   2.847   1.511
  133SOL     OW 1297   6.070   6.241   2.860
  133SOL    HW1 1298   6.014   6.313   2.819
  133SOL    HW2 1299   6.165   6.252   2.830
  134SOL     OW 1300   6.843   3.015   3.290
  134SOL    HW1 1301   6.792   3.101   3.284
  134SOL    HW2 1302   6.823   2.959   3.210
  135SOL     OW 1303   5.073   1.664   3.663
  135SOL    HW1 1304   5.050   1.732   3.594
  135SOL    HW2 1305   5.139   1.599   3.626
  136SOL     OW 1306   5.684   4.396   5.600
  136SOL    HW1 1307   5.676   4.297   5.607
  136SOL    HW2 1308   5.658   4.438   5.687
  137SOL     OW 1309   5.163   0.017   5.397
  137SOL    HW1 1310   5.217   0.063   5.327
  137SOL    HW2 1311   5.071   7.023   5.363
  138SOL     OW 1312   6.756   5.065   4.652
  138SOL    HW1 1313   6.834   5.106   4.700
  138SOL    HW2 1314   6.772   5.069   4.553
  139SOL     OW 1315   2.865   4.965   5.155
  139SOL    HW1 1316   2.931   5.000   5.221
  139SOL    HW2 1317   2.914   4.928   5.076
  140SOL     OW 1318   5.484   5.325   4.035
  140SOL    HW1 1319   5.399   5.338   3.984
  140SOL    HW2 1320   5.476   5.242   4.091
  141SOL     OW 1321   1.107   1.791   4.828
  141SOL    HW1 1322   1.117   1.700   4.788
  141SOL    HW2 1323   1.059   1.851   4.763
  142SOL     OW 1324   1.416   6.154   1.731
  142SOL    HW1 1325   1.477   6.214   1.678
  142SOL    HW2 1326   1.465   6.071   1.757
  143SOL     OW 1327   5.250   5.041   2.196
  143SOL    HW1 1328   5.185   5.104   2.237
  143SOL    HW2 1329   5.342   5.059   2.232
  144SOL     OW 1330   1.576   6.720   6.381
  144SOL    HW1 1331   1.541   6.786   6.315
  144SOL    HW2 1332   1.615   6.642   6.333
  145SOL     OW 1333   0.376   5.586   0.595
  145SOL    HW1 1334   0.411   5.633   0.513
  145SOL    HW2 1335   0.276   5.581   0.590
  146SOL     OW 1336   5.171   6.748   0.373
  146SOL    HW1 1337   5.158   6.813   0.299
  146SOL    HW2 1338   5.156   6.655   0.338
  147SOL     OW 1339   6.443   3.044   0.582
  147SOL    HW1 1340   6.360   3.013   0.535
  147SOL    HW2 1341   6.514   3.065   0.516
  148SOL     OW 1342   0.965   4.980   5.580
  148SOL    HW1 1343   0.896   5.025   5.637
  148SOL    HW2 1344   0.932   4.974   5.486
  149SOL     OW 1345   2.811   0.925   4.139
  149SOL    HW1 1346   2.739   0.965   4.196
  149SOL    HW2 1347   2.795   0.947   4.043
  150SOL     OW 1348   6.943   4.937   6.876
  150SOL    HW1 1349   0.018   4.947   6.865
  150SOL    HW2 1350   6.902   4.913   6.789
  151SOL     OW 1351   3.922   1.412   1.434
  151SOL    HW1 1352   3.862   1.379   1.361
  151SOL    HW2 1353   3.927   1.512   1.431
  152SOL     OW 1354   2.840   0.770   4.745
  152SOL    HW1 1355   2.803   0.743   4.657
  152SOL    HW2 1356   2.825   0.868   4.758
  153SOL     OW 1357   2.254   0.546   2.593
  153SOL    HW1 1358   2.174   0.605   2.602
  153SOL    HW2 1359   2.226   0.459   2.553
  154SOL     OW 1360   6.995   2.330   1.656
  154SOL    HW1 1361   6.956   2.388   1.727
  154SOL    HW2 1362   0.012   2.388   1.585
  155SOL     OW 1363   0.088   0.912   3.028
  155SOL    HW1 1364   0.105   1.008   3.005
  155SOL    HW2 1365   0.170   0.858   3.007
  156SOL     OW 1366   6.300   1.692   1.516
  156SOL    HW1 1367   6.227   1.751   1.553
  156SOL    HW2 1368   6.259   1.622   1.458
  157SOL     OW 1369   6.048   3.448   2.798
  157SOL    HW1 1370   6.111   3.525   2.801
  157SOL    HW2 1371   6.066   3.387   2.875
  158SOL     OW 1372   3.078   0.857   2.705
  158SOL    HW1 1373   3.128   0.844   2.620
  158SOL    HW2 1374   2.982   0.835   2.691
  159SOL     OW 1375   4.518   4.530   1.858
  159SOL    HW1 1376   4.479   4.608   1.907
  159SOL    HW2 1377   4.508   4.447   1.914
  160SOL     OW 1378   6.602   4.464   5.902
  160SOL    HW1 1379   6.701   4.455   5.887
  160SOL    HW2 1380   6.558   4.488   5.816
  161SOL     OW 1381   2.133   4.764   5.024
  161SOL    HW1 1382   2.209   4.800   5.078
  161SOL    HW2 1383   2.156   4.767   4.927
  162SOL     OW 1384   4.713   5.899   0.670
  162SOL    HW1 1385   4.628   5.910   0.617
  162SOL    HW2 1386   4.776   5.839   0.620
  163SOL     OW 1387   4.281   6.693   1.476
  163SOL    HW1 1388   4.283   6.600   1.514
  163SOL    HW2 1389   4.225   6.752   1.535
  164SOL     OW 1390   6.293   3.364   1.044
  164SOL    HW1 1391   6.231   3.385   0.968
  164SOL    HW2 1392   6.248   3.386   1.131
  165SOL     OW 1393   4.994   3.350   6.714
  165SOL    HW1 1394   5.013   3.394   6.802
  165SOL    HW2 1395   4.896   3.327   6.709
  166SOL     OW 1396   0.411   6.440   2.999
  166SOL    HW1 1397   0.398   6.534   2.970
  166SOL    HW2 1398   0.346   6.417   3.071
  167SOL     OW 1399   6.542   2.432   0.065
  167SOL    HW1 1400   6.591   2.364   0.119
  167SOL    HW2 1401   6.510   2.391   7.004
  168SOL     OW 1402   2.075   5.050   0.841
  168SOL    HW1 1403   2.036   5.000   0.763
  168SOL    HW2 1404   2.011   5.045   0.918
  169SOL     OW 1405   2.205   0.250   2.092
  169SOL    HW1 1406   2.285   0.190   2.088
  169SOL    HW2 1407   2.204   0.309   2.011
  170SOL     OW 1408   0.339   1.924   3.934
  170SOL    HW1 1409   0.251   1.898   3.895
  170SOL    HW2 1410   0.406   1.851   3.916
  171SOL     OW 1411   3.917   3.863   0.720
  171SOL    HW1 1412   4.010   3.842   0.690
  171SOL    HW2 1413   3.852   3.802   0.675
  172SOL     OW 1414   6.792   2.147   5.016
  172SOL    HW1 1415   6.749   2.228   5.054
  172SOL    HW2 1416   6.843   2.099   5.088
  173SOL     OW 1417   6.952   6.634   4.905
  173SOL    HW1 1418   6.927   6.722   4.945
  173SOL    HW2 1419   7.001   6.579   4.972
  174SOL     OW 1420   2.588   5.112   3.717
  174SOL    HW1 1421   2.551   5.022   3.696
  174SOL    HW2 1422   2.513   5.177   3.728
  175SOL     OW 1423   1.710   6.160   2.048
  175SOL    HW1 1424   1.665   6.108   1.975
  175SOL    HW2 1425   1.791   6.205   2.011
  176SOL     OW 1426   1.992   4.098   1.510
  176SOL    HW1 1427   2.082   4.139   1.523
  176SOL    HW2 1428   1.932   4.164   1.464
  177SOL     OW 1429   4.989   2.250   3.116
  177SOL    HW1 1430   5.008   2.205   3.028
  177SOL    HW2 1431   4.939   2.188   3.175
  178SOL     OW 1432   4.952   4.254   6.583
  178SOL    HW1 1433   4.860   4.268   6.547
  178SOL    HW2 1434   4.955   4.283   6.679
  179SOL     OW 1435   3.170   0.524   0.776
  179SOL    HW1 1436   3.214   0.605   0.814
  179SOL    HW2 1437   3.104   0.488   0.843
  180SOL     OW 1438   0.836   0.979   6.934
  180SOL    HW1 1439   0.850   0.897   6.879
  180SOL    HW2 1440   0.834   1.059   6.874
  181SOL     OW 1441   3.832   2.524   6.495
  181SOL    HW1 1442   3.812   2.496   6.402
  181SOL    HW2 1443   3.874   2.615   6.495
  182SOL     OW 1444   4.051   2.219   3.834
  182SOL    HW1 1445   3.989   2.203   3.911
  182SOL    HW2 1446   4.105   2.301   3.851
  183SOL     OW 1447   4.817   1.035   1.582
  183SOL    HW1 1448   4.813   1.104   1.653
  183SOL    HW2 1449   4.793   0.946   1.621
  184SOL     OW 1450   1.277   4.786   3.152
  184SOL    HW1 1451   1.179   4.803   3.143
  184SOL    HW2 1452   1.292   4.701   3.203
  185SOL     OW 1453   1.525   3.628   6.464
  185SOL    HW1 1454   1.428   3.649   6.453
  185SOL    HW2 1455   1.578   3.713   6.463
  186SOL     OW 1456   6.126   0.284   2.933
  186SOL    HW1 1457   6.178   0.365   2.961
  186SOL    HW2 1458   6.098   0.232   3.013
  187SOL     OW 1459   5.446   0.793   4.183
  187SOL    HW1 1460   5.430   0.747   4.096
  187SOL    HW2 1461   5.377   0.765   4.249
  188SOL     OW 1462   5.941   2.284   3.036
  188SOL    HW1 1463   6.005   2.351   3.075
  188SOL    HW2 1464   5.874   2.258   3.104
  189SOL     OW 1465   2.264   5.215   2.867
  189SOL    HW1 1466   2.231   5.211   2.773
  189SOL    HW2 1467   2.220   5.143   2.921
  190SOL     OW 1468   3.946   1.251   5.180
  190SOL    HW1 1469   3.915   1.186   5.250
  190SOL    HW2 1470   3.915   1.343   5.204
  191SOL     OW 1471   6.111   5.660   6.429
  191SOL    HW1 1472   6.049   5.663   6.350
  191SOL    HW2 1473   6.070   5.708   6.506
  192SOL     OW 1474   6.387   7.020   1.852
  192SOL    HW1 1475   6.475   6.994   1.812
  192SOL    HW2 1476   6.338   0.056   1.790
  193SOL     OW 1477   5.282   3.391   6.838
  193SOL    HW1 1478   5.219   3.316   6.823
  193SOL    HW2 1479   5.351   3.393   6.766
  194SOL     OW 1480   2.936   1.001   2.939
  194SOL    HW1 1481   2.917   0.918   2.886
  194SOL    HW2 1482   2.915   1.081   2.883
  195SOL     OW 1483   1.525   5.206   3.783
  195SOL    HW1 1484   1.560   5.290   3.823
  195SOL    HW2 1485   1.489   5.147   3.855
  196SOL     OW 1486   1.540   1.887   6.828
  196SOL    HW1 1487   1.458   1.932   6.864
  196SOL    HW2 1488   1.532   1.877   6.729
  197SOL     OW 1489   1.895   1.178   1.316
  197SOL    HW1 1490   1.973   1.146   1.262
  197SOL    HW2 1491   1.904   1.277   1.331
  198SOL     OW 1492   3.926   1.491   3.172
  198SOL    HW1 1493   3.988   1.565   3.149
  198SOL    HW2 1494   3.974   1.403   3.166
  199SOL     OW 1495   1.095   2.532   4.248
  199SOL    HW1 1496   1.133   2.442   4.271
  199SOL    HW2 1497   1.052   2.572   4.328
  200SOL     OW 1498   0.209   2.673   0.553
  200SOL    HW1 1499   0.194   2.765   0.516
  200SOL    HW2 1500   0.170   2.667   0.644
  201SOL     OW 1501   0.577   0.456   5.853
  201SOL    HW1 1502   0.570   0.479   5.756
  201SOL    HW2 1503   0.667   0.484   5.887
  202SOL     OW 1504   4.640   0.332   6.026
  202SOL    HW1 1505   4.657   0.392   6.104
  202SOL    HW2 1506   4.636   0.237   6.057
  203SOL     OW 1507   5.472   3.047   5.216
  203SOL    HW1 1508   5.450   3.011   5.307
  203SOL    HW2 1509   5.498   2.972   5.156
  204SOL     OW 1510   0.118   0.306   6.170
  204SOL    HW1 1511   0.098   0.404   6.168
  204SOL    HW2 1512   0.217   0.292   6.174
  205SOL     OW 1513   0.889   2.864   2.005
  205SOL    HW1 1514   0.856   2.946   2.052
  205SOL    HW2 1515   0.810   2.808   1.979
  206SOL     OW 1516   0.268   3.257   0.941
  206SOL    HW1 1517   0.170   3.280   0.937
  206SOL    HW2 1518   0.316   3.325   0.997
  207SOL     OW 1519   4.976   1.907   3.607
  207SOL    HW1 1520   4.885   1.871   3.584
  207SOL    HW2 1521   4.977   2.005   3.591
  208SOL     OW 1522   1.081   4.012   4.739
  208SOL    HW1 1523   1.152   3.941   4.738
  208SOL    HW2 1524   1.010   3.988   4.673
  209SOL     OW 1525   6.810   4.912   2.471
  209SOL    HW1 1526   6.856   4.850   2.408
  209SOL    HW2 1527   6.725   4.944   2.430
  210SOL     OW 1528   4.694   2.291   6.962
  210SOL    HW1 1529   4.631   2.344   7.018
  210SOL    HW2 1530   4.748   2.353   6.906
  211SOL     OW 1531   1.626   0.498   3.179
  211SOL    HW1 1532   1.598   0.534   3.268
  211SOL    HW2 1533   1.601   0.563   3.107
  212SOL     OW 1534   1.516   4.103   3.162
  212SOL    HW1 1535   1.514   4.033   3.090
  212SOL    HW2 1536   1.497   4.060   3.250
  213SOL     OW 1537   1.944   5.393   0.930
  213SOL    HW1 1538   1.914   5.304   0.967
  213SOL    HW2 1539   1.893   5.466   0.975
  214SOL     OW 1540   4.629   5.904   2.589
  214SOL    HW1 1541   4.651   5.873   2.496
  214SOL    HW2 1542   4.711   5.898   2.646
  215SOL     OW 1543   2.606   4.977   2.106
  215SOL    HW1 1544   2.680   4.942   2.048
  215SOL    HW2 1545   2.564   4.901   2.155
  216SOL     OW 1546   1.585   0.052   2.365
  216SOL    HW1 1547   1.559   6.983   2.340
  216SOL    HW2 1548   1.670   0.049   2.418
  217SOL     OW 1549   1.298   3.764   6.388
  217SOL    HW1 1550   1.224   3.824   6.420
  217SOL    HW2 1551   1.334   3.800   6.302
  218SOL     OW 1552   0.879   2.226   5.621
  218SOL    HW1 1553   0.873   2.325   5.608
  218SOL    HW2 1554   0.971   2.203   5.654
  219SOL     OW 1555   4.141   0.373   0.543
  219SOL    HW1 1556   4.139   0.451   0.606
  219SOL    HW2 1557   4.083   0.300   0.579
  220SOL     OW 1558   3.438   0.177   0.620
  220SOL    HW1 1559   3.428   0.159   0.522
  220SOL    HW2 1560   3.411   0.095   0.671
  221SOL     OW 1561   5.195   5.275   1.028
  221SOL    HW1 1562   5.212   5.324   0.942
  221SOL    HW2 1563   5.119   5.211   1.015
  222SOL     OW 1564   2.354   4.376   6.433
  222SOL    HW1 1565   2.313   4.286   6.416
  222SOL    HW2 1566   2.442   4.364   6.479
  223SOL     OW 1567   6.355   2.727   5.129
  223SOL    HW1 1568   6.294   2.697   5.203
  223SOL    HW2 1569   6.348   2.826   5.118
  224SOL     OW 1570   2.134   1.573   6.017
  224SOL    HW1 1571   2.133   1.650   5.953
  224SOL    HW2 1572   2.226   1.560   6.053
  225SOL     OW 1573   4.906   3.829   6.098
  225SOL    HW1 1574   4.977   3.863   6.035
  225SOL    HW2 1575   4.837   3.900   6.112
  226SOL     OW 1576   0.921   1.578   6.257
  226SOL    HW1 1577   0.973   1.524   6.323
  226SOL    HW2 1578   0.966   1.667   6.245
  227SOL     OW 1579   2.178   3.937   2.262
  227SOL    HW1 1580   2.190   3.858   2.202
  227SOL    HW2 1581   2.114   3.914   2.335
  228SOL     OW 1582   1.479   0.589   2.740
  228SOL    HW1 1583   1.507   0.589   2.644
  228SOL    HW2 1584   1.505   0.502   2.783
  229SOL     OW 1585   5.191   4.639   6.721
  229SOL    HW1 1586   5.283   4.675   6.709
  229SOL    HW2 1587   5.128   4.714   6.740
  230SOL     OW 1588   4.777   5.897   4.730
  230SOL    HW1 1589   4.722   5.980   4.726
  230SOL    HW2 1590   4.717   5.817   4.724
  231SOL     OW 1591   4.860   1.491   0.244
  231SOL    HW1 1592   4.940   1.520   0.192
  231SOL    HW2 1593   4.819   1.411   0.200
  232SOL     OW 1594   1.120   2.163   6.063
  232SOL    HW1 1595   1.163   2.119   5.984
  232SOL    HW2 1596   1.065   2.241   6.031
  233SOL     OW 1597   2.842   1.612   3.787
  233SOL    HW1 1598   2.862   1.520   3.819
  233SOL    HW2 1599   2.907   1.677   3.827
  234SOL     OW 1600   5.346   1.252   6.506
  234SOL    HW1 1601   5.279   1.326   6.502
  234SOL    HW2 1602   5.300   1.165   6.488
  235SOL     OW 1603   4.904   3.181   2.130
  235SOL    HW1 1604   4.845   3.143   2.059
  235SOL    HW2 1605   4.908   3.118   2.207
  236SOL     OW 1606   4.420   3.653   6.319
  236SOL    HW1 1607   4.423   3.751   6.301
  236SOL    HW2 1608   4.410   3.603   6.233
  237SOL     OW 1609   6.055   4.178   2.530
  237SOL    HW1 1610   5.958   4.197   2.517
  237SOL    HW2 1611   6.097   4.156   2.442
  238SOL     OW 1612   6.078   1.505   0.323
  238SOL    HW1 1613   6.032   1.591   0.345
  238SOL    HW2 1614   6.107   1.460   0.407
  239SOL     OW 1615   1.454   3.921   0.562
  239SOL    HW1 1616   1.392   3.916   0.641
  239SOL    HW2 1617   1.403   3.952   0.482
  240SOL     OW 1618   6.240   3.850   3.155
  240SOL    HW1 1619   6.196   3.917   3.215
  240SOL    HW2 1620   6.254   3.891   3.064
  241SOL     OW 1621   3.081   1.509   3.934
  241SOL    HW1 1622   3.149   1.495   4.006
  241SOL    HW2 1623   3.038   1.421   3.912
  242SOL     OW 1624   3.362   3.945   3.583
  242SOL    HW1 1625   3.352   3.854   3.622
  242SOL    HW2 1626   3.272   3.979   3.555
  243SOL     OW 1627   4.790   2.847   6.369
  243SOL    HW1 1628   4.757   2.812   6.457
  243SOL    HW2 1629   4.846   2.928   6.385
  244SOL     OW 1630   6.342   3.510   6.154
  244SOL    HW1 1631   6.418   3.514   6.089
  244SOL    HW2 1632   6.321   3.415   6.175
  245SOL     OW 1633   3.210   1.901   2.846
  245SOL    HW1 1634   3.179   1.837   2.776
  245SOL    HW2 1635   3.132   1.932   2.899
  246SOL     OW 1636   6.001   1.444   3.386
  246SOL    HW1 1637   6.055   1.526   3.369
  246SOL    HW2 1638   6.058   1.374   3.429
  247SOL     OW 1639   2.155   1.653   0.723
  247SOL    HW1 1640   2.088   1.598   0.673
  247SOL    HW2 1641   2.217   1.696   0.658
  248SOL     OW 1642   2.104   1.434   2.168
  248SOL    HW1 1643   2.111   1.382   2.083
  248SOL    HW2 1644   2.189   1.485   2.183
  249SOL     OW 1645   5.459   6.985   4.723
  249SOL    HW1 1646   5.454   6.938   4.811
  249SOL    HW2 1647   5.367   6.994   4.684
  250SOL     OW 1648   3.685   2.777   0.340
  250SOL    HW1 1649   3.662   2.799   0.434
  250SOL    HW2 1650   3.658   2.683   0.320
  251SOL     OW 1651   4.424   3.876   5.483
  251SOL    HW1 1652   4.324   3.879   5.482
  251SOL    HW2 1653   4.455   3.797   5.536
  252SOL     OW 1654   5.832   6.504   5.765
  252SOL    HW1 1655   5.932   6.511   5.772
  252SOL    HW2 1656   5.793   6.594   5.747
  253SOL     OW 1657   4.126   5.217   5.721
  253SOL    HW1 1658   4.086   5.181   5.636
  253SOL    HW2 1659   4.053   5.238   5.786
  254SOL     OW 1660   6.225   2.850   4.279
  254SOL    HW1 1661   6.178   2.767   4.250
  254SOL    HW2 1662   6.189   2.928   4.227
  255SOL     OW 1663   1.866   4.717   6.051
  255SOL    HW1 1664   1.782   4.667   6.031
  255SOL    HW2 1665   1.929   4.710   5.973
  256SOL     OW 1666   4.684   3.144   5.652
  256SOL    HW1 1667   4.741   3.130   5.733
  256SOL    HW2 1668   4.713   3.227   5.605
  257SOL     OW 1669   4.693   6.237   2.851
  257SOL    HW1 1670   4.734   6.322   2.886
  257SOL    HW2 1671   4.675   6.247   2.753
  258SOL     OW 1672   2.762   3.529   6.213
  258SOL    HW1 1673   2.740   3.494   6.122
  258SOL    HW2 1674   2.793   3.624   6.205
  259SOL     OW 1675   4.391   6.975   2.457
  259SOL    HW1 1676   4.428   6.882   2.445
  259SOL    HW2 1677   4.354   6.985   2.549
  260SOL     OW 1678   3.982   5.244   3.691
  260SOL    HW1 1679   3.985   5.188   3.774
  260SOL    HW2 1680   4.040   5.202   3.621
  261SOL     OW 1681   4.814   4.980   0.666
  261SOL    HW1 1682   4.831   4.889   0.703
  261SOL    HW2 1683   4.725   5.013   0.698
  262SOL     OW 1684   1.964   4.045   0.883
  262SOL    HW1 1685   1.872   4.074   0.858
  262SOL    HW2 1686   1.974   3.947   0.869
  263SOL     OW 1687   1.305   6.834   4.370
  263SOL    HW1 1688   1.400   6.839   4.339
  263SOL    HW2 1689   1.299   6.873   4.462
  264SOL     OW 1690   0.092   2.845   7.019
  264SOL    HW1 1691   0.003   2.803   0.010
  264SOL    HW2 1692   0.129   2.813   6.931
  265SOL     OW 1693   5.836   6.896   3.973
  265SOL    HW1 1694   5.889   6.977   3.998
  265SOL    HW2 1695   5.785   6.864   4.053
  266SOL     OW 1696   4.935   2.125   5.394
  266SOL    HW1 1697   4.954   2.076   5.480
  266SOL    HW2 1698   4.915   2.059   5.322
  267SOL     OW 1699   1.263   0.741   5.211
  267SOL    HW1 1700   1.346   0.691   5.233
  267SOL    HW2 1701   1.277   0.795   5.128
  268SOL     OW 1702   3.728   1.204   0.952
  268SOL    HW1 1703   3.752   1.292   0.910
  268SOL    HW2 1704   3.810   1.148   0.960
  269SOL     OW 1705   3.303   2.013   0.239
  269SOL    HW1 1706   3.248   2.019   0.156
  269SOL    HW2 1707   3.325   2.105   0.271
  270SOL     OW 1708   0.183   6.681   0.101
  270SOL    HW1 1709   0.187   6.596   0.153
  270SOL    HW2 1710   0.141   6.664   0.012
  271SOL     OW 1711   0.314   1.835   6.310
  271SOL    HW1 1712   0.405   1.865   6.281
  271SOL    HW2 1713   0.257   1.915   6.327
  272SOL     OW 1714   3.024   6.097   3.812
  272SOL    HW1 1715   3.110   6.050   3.791
  272SOL    HW2 1716   3.009   6.170   3.746
  273SOL     OW 1717   2.042   5.139   5.461
  273SOL    HW1 1718   2.016   5.114   5.368
  273SOL    HW2 1719   2.027   5.237   5.474
  274SOL     OW 1720   4.127   1.068   4.446
  274SOL    HW1 1721   4.205   1.065   4.509
  274SOL    HW2 1722   4.151   1.123   4.367
  275SOL     OW 1723   0.615   6.825   3.001
  275SOL    HW1 1724   0.526   6.780   2.996
  275SOL    HW2 1725   0.667   6.805   2.919
  276SOL     OW 1726   0.399   0.290   4.455
  276SOL    HW1 1727   0.480   0.251   4.500
  276SOL    HW2 1728   0.323   0.226   4.463
  277SOL     OW 1729   2.375   2.814   0.887
  277SOL    HW1 1730   2.357   2.725   0.847
  277SOL    HW2 1731   2.324   2.884   0.837
  278SOL     OW 1732   6.963   2.452   3.009
  278SOL    HW1 1733   6.926   2.528   3.062
  278SOL    HW2 1734   0.034   2.472   2.985
  279SOL     OW 1735   5.780   2.529   4.366
  279SOL    HW1 1736   5.853   2.516   4.434
  279SOL    HW2 1737   5.781   2.453   4.301
  280SOL     OW 1738   2.157   5.165   1.822
  280SOL    HW1 1739   2.173   5.170   1.723
  280SOL    HW2 1740   2.232   5.211   1.870
  281SOL     OW 1741   2.307   3.894   0.962
  281SOL    HW1 1742   2.321   3.982   1.008
  281SOL    HW2 1743   2.236   3.903   0.893
  282SOL     OW 1744   3.781   1.895   6.052
  282SOL    HW1 1745   3.780   1.942   6.140
  282SOL    HW2 1746   3.707   1.931   5.995
  283SOL     OW 1747   5.278   3.121   6.475
  283SOL    HW1 1748   5.312   3.207   6.513
  283SOL    HW2 1749   5.304   3.114   6.379
  284SOL     OW 1750   0.694   3.007   3.650
  284SOL    HW1 1751   0.758   2.942   3.691
  284SOL    HW2 1752   0.642   3.054   3.723
  285SOL     OW 1753   5.988   4.535   3.565
  285SOL    HW1 1754   5.907   4.570   3.612
  285SOL    HW2 1755   5.992   4.436   3.574
  286SOL     OW 1756   3.254   3.848   6.882
  286SOL    HW1 1757   3.178   3.887   6.829
  286SOL    HW2 1758   3.218   3.807   6.965
  287SOL     OW 1759   1.809   3.570   0.644
  287SOL    HW1 1760   1.764   3.623   0.717
  287SOL    HW2 1761   1.907   3.563   0.664
  288SOL     OW 1762   4.489   1.568   0.159
  288SOL    HW1 1763   4.521   1.551   0.066
  288SOL    HW2 1764   4.536   1.649   0.195
  289SOL     OW 1765   2.429   4.667   5.915
  289SOL    HW1 1766   2.468   4.581   5.948
  289SOL    HW2 1767   2.331   4.654   5.898
  290SOL     OW 1768   0.342   2.415   5.765
  290SOL    HW1 1769   0.285   2.421   5.847
  290SOL    HW2 1770   0.408   2.341   5.776
  291SOL     OW 1771   0.048   1.611   2.754
  291SOL    HW1 1772   0.088   1.588   2.666
  291SOL    HW2 1773   0.055   1.710   2.769
  292SOL     OW 1774   2.173   0.633   3.111
  292SOL    HW1 1775   2.089   0.583   3.087
  292SOL    HW2 1776   2.233   0.637   3.032
  293SOL     OW 1777   4.450   5.161   4.274
  293SOL    HW1 1778   4.483   5.070   4.250
  293SOL    HW2 1779   4.403   5.201   4.196
  294SOL     OW 1780   5.442   6.498   6.339
  294SOL    HW1 1781   5.343   6.514   6.338
  294SOL    HW2 1782   5.490   6.583   6.317
  295SOL     OW 1783   4.860   0.604   3.638
  295SOL    HW1 1784   4.955   0.615   3.610
  295SOL    HW2 1785   4.833   0.680   3.697
  296SOL     OW 1786   3.048   2.159   3.162
  296SOL    HW1 1787   2.998   2.245   3.170
  296SOL    HW2 1788   3.102   2.144   3.244
  297SOL     OW 1789   1.458   3.965   3.422
  297SOL    HW1 1790   1.414   4.030   3.484
  297SOL    HW2 1791   1.555   3.957   3.445
  298SOL     OW 1792   6.341   5.127   1.209
  298SOL    HW1 1793   6.372   5.211   1.165
  298SOL    HW2 1794   6.280   5.150   1.285
  299SOL     OW 1795   6.553   2.469   4.791
  299SOL    HW1 1796   6.519   2.406   4.861
  299SOL    HW2 1797   6.651   2.485   4.806
  300SOL     OW 1798   5.828   0.528   3.205
  300SOL    HW1 1799   5.814   0.617   3.246
  300SOL    HW2 1800   5.791   0.528   3.112
  301SOL     OW 1801   5.584   3.790   6.264
  301SOL    HW1 1802   5.649   3.769   6.191
  301SOL    HW2 1803   5.634   3.824   6.344
  302SOL     OW 1804   0.552   0.056   3.775
  302SOL    HW1 1805   0.627   0.051   3.709
  302SOL    HW2 1806   0.554   0.145   3.821
  303SOL     OW 1807   5.029   0.768   3.222
  303SOL    HW1 1808   4.966   0.815   3.285
  303SOL    HW2 1809   5.116   0.818   3.220
  304SOL     OW 1810   2.424   0.318   3.648
  304SOL    HW1 1811   2.350   0.339   3.584
  304SOL    HW2 1812   2.425   0.220   3.667
  305SOL     OW 1813   1.351   3.279   0.546
  305SOL    HW1 1814   1.422   3.330   0.496
  305SOL    HW2 1815   1.268   3.335   0.552
  306SOL     OW 1816   2.120   1.031   4.022
  306SOL    HW1 1817   2.042   1.080   4.060
  306SOL    HW2 1818   2.091   0.941   3.990
  307SOL     OW 1819   4.079   0.300   1.133
  307SOL    HW1 1820   4.078   0.360   1.213
  307SOL    HW2 1821   4.170   0.304   1.091
  308SOL     OW 1822   0.960   5.957   3.874
  308SOL    HW1 1823   0.995   6.042   3.913
  308SOL    HW2 1824   1.036   5.903   3.838
  309SOL     OW 1825   3.410   4.988   5.038
  309SOL    HW1 1826   3.478   5.061   5.025
  309SOL    HW2 1827   3.380   4.954   4.949
  310SOL     OW 1828   0.517   6.371   5.517
  310SOL    HW1 1829   0.489   6.347   5.424
  310SOL    HW2 1830   0.564   6.294   5.558
  311SOL     OW 1831   0.398   6.526   1.196
  311SOL    HW1 1832   0.448   6.546   1.112
  311SOL    HW2 1833   0.371   6.430   1.197
  312SOL     OW 1834   4.739   1.929   4.960
  312SOL    HW1 1835   4.764   2.021   4.932
  312SOL    HW2 1836   4.654   1.902   4.913
  313SOL     OW 1837   1.674   4.181   1.554
  313SOL    HW1 1838   1.631   4.093   1.537
  313SOL    HW2 1839   1.620   4.232   1.621
  314SOL     OW 1840   3.567   6.253   0.713
  314SOL    HW1 1841   3.488   6.242   0.653
  314SOL    HW2 1842   3.539   6.236   0.808
  315SOL     OW 1843   0.755   2.384   3.390
  315SOL    HW1 1844   0.855   2.387   3.392
  315SOL    HW2 1845   0.718   2.447   3.458
  316SOL     OW 1846   2.553   2.461   3.950
  316SOL    HW1 1847   2.595   2.370   3.947
  316SOL    HW2 1848   2.560   2.498   4.042
  317SOL     OW 1849   6.999   1.670   6.816
  317SOL    HW1 1850   6.904   1.675   6.846
  317SOL    HW2 1851   7.002   1.657   6.717
  318SOL     OW 1852   2.144   4.473   0.769
  318SOL    HW1 1853   2.206   4.402   0.803
  318SOL    HW2 1854   2.052   4.436   0.762
  319SOL     OW 1855   1.742   6.327   0.759
  319SOL    HW1 1856   1.824   6.291   0.804
  319SOL    HW2 1857   1.732   6.423   0.782
  320SOL     OW 1858   6.000   3.679   0.502
  320SOL    HW1 1859   6.015   3.583   0.526
  320SOL    HW2 1860   6.076   3.712   0.445
  321SOL     OW 1861   2.130   2.633   1.313
  321SOL    HW1 1862   2.165   2.668   1.226
  321SOL    HW2 1863   2.189   2.665   1.388
  322SOL     OW 1864   3.792   3.192   5.305
  322SOL    HW1 1865   3.806   3.249   5.224
  322SOL    HW2 1866   3.851   3.111   5.300
  323SOL     OW 1867   0.502   3.859   1.885
  323SOL    HW1 1868   0.433   3.886   1.952
  323SOL    HW2 1869   0.481   3.900   1.796
  324SOL     OW 1870   0.935   2.260   4.753
  324SOL    HW1 1871   0.883   2.320   4.692
  324SOL    HW2 1872   0.993   2.315   4.813
  325SOL     OW 1873   2.380   2.605   1.909
  325SOL    HW1 1874   2.430   2.524   1.879
  325SOL    HW2 1875   2.439   2.661   1.967
  326SOL     OW 1876   1.426   4.814   6.526
  326SOL    HW1 1877   1.375   4.864   6.456
  326SOL    HW2 1878   1.522   4.805   6.497
  327SOL     OW 1879   6.284   5.165   5.208
  327SOL    HW1 1880   6.372   5.195   5.172
  327SOL    HW2 1881   6.295   5.074   5.248
  328SOL     OW 1882   3.964   5.389   2.336
  328SOL    HW1 1883   3.869   5.374   2.307
  328SOL    HW2 1884   3.971   5.371   2.434
  329SOL     OW 1885   3.302   3.601   3.379
  329SOL    HW1 1886   3.336   3.668   3.312
  329SOL    HW2 1887   3.265   3.522   3.330
  330SOL     OW 1888   3.659   0.126   2.061
  330SOL    HW1 1889   3.623   0.198   2.119
  330SOL    HW2 1890   3.607   0.122   1.975
  331SOL     OW 1891   5.216   5.210   5.857
  331SOL    HW1 1892   5.207   5.310   5.852
  331SOL    HW2 1893   5.218   5.172   5.765
  332SOL     OW 1894   3.185   2.010   2.539
  332SOL    HW1 1895   3.214   1.938   2.476
  332SOL    HW2 1896   3.230   1.997   2.628
  333SOL     OW 1897   4.191   6.076   6.299
  333SOL    HW1 1898   4.282   6.038   6.316
  333SOL    HW2 1899   4.190   6.119   6.208
  334SOL     OW 1900   4.161   6.903   2.295
  334SOL    HW1 1901   4.224   6.918   2.370
  334SOL    HW2 1902   4.200   6.836   2.232
  335SOL     OW 1903   2.806   6.922   3.272
  335SOL    HW1 1904   2.708   6.938   3.266
  335SOL    HW2 1905   2.836   6.935   3.366
  336SOL     OW 1906   2.826   0.709   3.837
  336SOL    HW1 1907   2.766   0.694   3.758
  336SOL    HW2 1908   2.854   0.805   3.840
  337SOL     OW 1909   6.829   3.828   1.338
  337SOL    HW1 1910   6.762   3.878   1.284
  337SOL    HW2 1911   6.841   3.737   1.299
  338SOL     OW 1912   3.367   2.759   1.298
  338SOL    HW1 1913   3.383   2.673   1.347
  338SOL    HW2 1914   3.453   2.809   1.288
  339SOL     OW 1915   4.323   6.483   3.305
  339SOL    HW1 1916   4.327   6.417   3.230
  339SOL    HW2 1917   4.228   6.503   3.327
  340SOL     OW 1918   4.810   3.828   4.364
  340SOL    HW1 1919   4.862   3.792   4.442
  340SOL    HW2 1920   4.745   3.758   4.332
  341SOL     OW 1921   5.372   5.054   4.588
  341SOL    HW1 1922   5.417   5.136   4.553
  341SOL    HW2 1923   5.440   4.983   4.603
  342SOL     OW 1924   6.268   4.579   0.743
  342SOL    HW1 1925   6.274   4.569   0.842
  342SOL    HW2 1926   6.350   4.541   0.700
  343SOL     OW 1927   3.099   0.203   2.326
  343SOL    HW1 1928   3.185   0.216   2.276
  343SOL    HW2 1929   3.046   0.130   2.283
  344SOL     OW 1930   2.448   5.158   0.292
  344SOL    HW1 1931   2.410   5.087   0.352
  344SOL    HW2 1932   2.415   5.248   0.322
  345SOL     OW 1933   0.694   0.193   4.901
  345SOL    HW1 1934   0.651   0.267   4.953
  345SOL    HW2 1935   0.630   0.117   4.892
  346SOL     OW 1936   1.379   0.245   3.050
  346SOL    HW1 1937   1.457   0.297   3.017
  346SOL    HW2 1938   1.387   0.150   3.019
  347SOL     OW 1939   4.780   6.751   6.480
  347SOL    HW1 1940   4.684   6.780   6.481
  347SOL    HW2 1941   4.813   6.741   6.574
  348SOL     OW 1942   3.642   5.388   1.519
  348SOL    HW1 1943   3.656   5.486   1.532
  348SOL    HW2 1944   3.549   5.364   1.548
  349SOL     OW 1945   0.954   4.682   2.109
  349SOL    HW1 1946   0.993   4.633   2.187
  349SOL    HW2 1947   0.925   4.774   2.138
  350SOL     OW 1948   4.537   3.571   1.127
  350SOL    HW1 1949   4.594   3.509   1.073
  350SOL    HW2 1950   4.551   3.553   1.225
  351SOL     OW 1951   3.158   1.923   0.471
  351SOL    HW1 1952   3.188   1.965   0.557
  351SOL    HW2 1953   3.219   1.952   0.397
  352SOL     OW 1954   3.032   0.820   6.862
  352SOL    HW1 1955   2.981   0.849   6.780
  352SOL    HW2 1956   3.090   0.743   6.839
  353SOL     OW 1957   2.184   6.089   1.285
  353SOL    HW1 1958   2.089   6.121   1.279
  353SOL    HW2 1959   2.246   6.165   1.266
  354SOL     OW 1960   4.886   1.501   1.013
  354SOL    HW1 1961   4.883   1.596   1.044
  354SOL    HW2 1962   4.793   1.466   1.003
  355SOL     OW 1963   0.154   2.706   2.487
  355SOL    HW1 1964   0.111   2.786   2.447
  355SOL    HW2 1965   0.088   2.656   2.542
  356SOL     OW 1966   4.063   5.527   3.734
  356SOL    HW1 1967   4.163   5.532   3.730
  356SOL    HW2 1968   4.036   5.431   3.744
  357SOL     OW 1969   0.338   5.384   5.439
  357SOL    HW1 1970   0.348   5.454   5.510
  357SOL    HW2 1971   0.282   5.421   5.364
  358SOL     OW 1972   5.433   0.476   1.133
  358SOL    HW1 1973   5.476   0.469   1.043
  358SOL    HW2 1974   5.357   0.541   1.129
  359SOL     OW 1975   1.524   1.538   1.755
  359SOL    HW1 1976   1.432   1.551   1.719
  359SOL    HW2 1977   1.556   1.446   1.733
  360SOL     OW 1978   4.118   7.020   0.187
  360SOL    HW1 1979   4.218   7.022   0.179
  360SOL    HW2 1980   4.080   6.962   0.114
  361SOL     OW 1981   4.724   0.014   2.451
  361SOL    HW1 1982   4.634   0.036   2.414
  361SOL    HW2 1983   4.794   0.034   2.383
  362SOL     OW 1984   3.111   3.312   0.837
  362SOL    HW1 1985   3.049   3.389   0.851
  362SOL    HW2 1986   3.195   3.326   0.889
  363SOL     OW 1987   4.306   4.655   4.252
  363SOL    HW1 1988   4.298   4.670   4.351
  363SOL    HW2 1989   4.252   4.724   4.203
  364SOL     OW 1990   1.143   5.389   5.956
  364SOL    HW1 1991   1.214   5.460   5.953
  364SOL    HW2 1992   1.174   5.309   5.904
  365SOL     OW 1993   4.590   6.294   1.857
  365SOL    HW1 1994   4.592   6.326   1.762
  365SOL    HW2 1995   4.657   6.221   1.869
  366SOL     OW 1996   5.971   0.837   0.017
  366SOL    HW1 1997   5.966   0.873   6.948
  366SOL    HW2 1998   5.930   0.902   0.080
  367SOL     OW 1999   5.139   2.799   1.013
  367SOL    HW1 2000   5.058   2.750   0.980
  367SOL    HW2 2001   5.201   2.735   1.057
  368SOL     OW 2002   1.075   4.745   4.791
  368SOL    HW1 2003   1.034   4.835   4.775
  368SOL    HW2 2004   1.068   4.690   4.708
  369SOL     OW 2005   1.010   3.807   1.980
  369SOL    HW1 2006   0.991   3.768   2.070
  369SOL    HW2 2007   1.084   3.755   1.937
  370SOL     OW 2008   3.647   1.048   5.543
  370SOL    HW1 2009   3.643   1.142   5.577
  370SOL    HW2 2010   3.554   1.012   5.533
  371SOL     OW 2011   4.047   2.797   6.931
  371SOL    HW1 2012   3.965   2.766   6.883
  371SOL    HW2 2013   4.022   2.866   6.999
  372SOL     OW 2014   0.845   6.326   6.246
  372SOL    HW1 2015   0.757   6.303   6.203
  372SOL    HW2 2016   0.829   6.348   6.343
  373SOL     OW 2017   7.011   6.879   0.239
  373SOL    HW1 2018   0.044   6.815   0.188
  373SOL    HW2 2019   6.916   6.850   0.236
  374SOL     OW 2020   3.135   0.984   1.417
  374SOL    HW1 2021   3.070   1.037   1.361
  374SOL    HW2 2022   3.189   1.047   1.472
  375SOL     OW 2023   6.809   4.581   3.102
  375SOL    HW1 2024   6.901   4.621   3.101
  375SOL    HW2 2025   6.749   4.637   3.158
  376SOL     OW 2026   2.268   2.873   3.759
  376SOL    HW1 2027   2.271   2.816   3.677
  376SOL    HW2 2028   2.195   2.942   3.749
  377SOL     OW 2029   4.883   1.519   3.788
  377SOL    HW1 2030   4.956   1.570   3.744
  377SOL    HW2 2031   4.872   1.551   3.883
  378SOL     OW 2032   5.055   3.027   4.756
  378SOL    HW1 2033   4.963   3.017   4.795
  378SOL    HW2 2034   5.123   3.026   4.829
  379SOL     OW 2035   6.537   3.916   1.170
  379SOL    HW1 2036   6.539   3.821   1.202
  379SOL    HW2 2037   6.607   3.929   1.100
  380SOL     OW 2038   0.853   2.329   1.143
  380SOL    HW1 2039   0.794   2.384   1.083
  380SOL    HW2 2040   0.944   2.370   1.147
  381SOL     OW 2041   3.709   3.407   1.045
  381SOL    HW1 2042   3.743   3.373   1.133
  381SOL    HW2 2043   3.619   3.449   1.058
  382SOL     OW 2044   2.758   6.106   0.682
  382SOL    HW1 2045   2.823   6.051   0.629
  382SOL    HW2 2046   2.719   6.050   0.754
  383SOL     OW 2047   6.397   2.639   0.248
  383SOL    HW1 2048   6.421   2.554   0.202
  383SOL    HW2 2049   6.459   2.712   0.218
  384SOL     OW 2050   1.703   5.706   5.361
  384SOL    HW1 2051   1.672   5.739   5.272
  384SOL    HW2 2052   1.666   5.614   5.378
  385SOL     OW 2053   4.277   5.707   0.422
  385SOL    HW1 2054   4.243   5.640   0.488
  385SOL    HW2 2055   4.358   5.752   0.460
  386SOL     OW 2056   3.448   6.385   5.913
  386SOL    HW1 2057   3.388   6.415   5.839
  386SOL    HW2 2058   3.521   6.328   5.876
  387SOL     OW 2059   0.319   0.719   5.347
  387SOL    HW1 2060   0.412   0.744   5.320
  387SOL    HW2 2061   0.321   0.632   5.396
  388SOL     OW 2062   6.814   2.546   4.841
  388SOL    HW1 2063   6.873   2.627   4.848
  388SOL    HW2 2064   6.871   2.463   4.846
  389SOL     OW 2065   4.175   4.310   1.368
  389SOL    HW1 2066   4.243   4.321   1.441
  389SOL    HW2 2067   4.215   4.258   1.293
  390SOL     OW 2068   3.526   1.876   0.216
  390SOL    HW1 2069   3.586   1.882   0.296
  390SOL    HW2 2070   3.445   1.932   0.232
  391SOL     OW 2071   3.289   4.441   5.492
  391SOL    HW1 2072   3.281   4.343   5.474
  391SOL    HW2 2073   3.201   4.486   5.473
  392SOL     OW 2074   1.398   3.461   1.762
  392SOL    HW1 2075   1.466   3.473   1.689
  392SOL    HW2 2076   1.437   3.406   1.836
  393SOL     OW 2077   1.286   4.126   1.661
  393SOL    HW1 2078   1.363   4.173   1.617
  393SOL    HW2 2079   1.283   4.150   1.757
  394SOL     OW 2080   0.179   1.161   6.625
  394SOL    HW1 2081   0.248   1.123   6.687
  394SOL    HW2 2082   0.094   1.108   6.632
  395SOL     OW 2083   5.223   4.520   1.088
  395SOL    HW1 2084   5.131   4.499   1.053
  395SOL    HW2 2085   5.282   4.441   1.074
  396SOL     OW 2086   1.751   1.042   1.513
  396SOL    HW1 2087   1.750   1.094   1.598
  396SOL    HW2 2088   1.796   1.095   1.442
  397SOL     OW 2089   4.339   2.195   5.158
  397SOL    HW1 2090   4.438   2.185   5.168
  397SOL    HW2 2091   4.319   2.268   5.093
  398SOL     OW 2092   1.299   1.458   4.383
  398SOL    HW1 2093   1.389   1.478   4.344
  398SOL    HW2 2094   1.252   1.392   4.325
  399SOL     OW 2095   5.859   6.232   4.078
  399SOL    HW1 2096   5.851   6.182   3.992
  399SOL    HW2 2097   5.874   6.329   4.060
  400SOL     OW 2098   5.908   0.251   4.465
  400SOL    HW1 2099   5.846   0.262   4.387
  400SOL    HW2 2100   5.886   0.321   4.534
  401SOL     OW 2101   0.188   4.977   5.724
  401SOL    HW1 2102   0.131   4.908   5.768
  401SOL    HW2 2103   0.226   5.039   5.793
  402SOL     OW 2104   6.034   0.999   3.302
  402SOL    HW1 2105   6.116   0.989   3.359
  402SOL    HW2 2106   5.953   1.002   3.361
  403SOL     OW 2107   2.877   1.201   5.193
  403SOL    HW1 2108   2.931   1.134   5.143
  403SOL    HW2 2109   2.841   1.159   5.277
  404SOL     OW 2110   3.321   5.472   3.645
  404SOL    HW1 2111   3.333   5.382   3.688
  404SOL    HW2 2112   3.407   5.499   3.602
  405SOL     OW 2113   2.223   4.786   4.140
  405SOL    HW1 2114   2.271   4.863   4.100
  405SOL    HW2 2115   2.125   4.809   4.148
  406SOL     OW 2116   0.070   5.701   5.342
  406SOL    HW1 2117   0.117   5.614   5.322
  406SOL    HW2 2118   0.138   5.774   5.350
  407SOL     OW 2119   1.920   2.975   4.177
  407SOL    HW1 2120   2.018   2.956   4.186
  407SOL    HW2 2121   1.869   2.922   4.246
  408SOL     OW 2122   2.573   1.730   3.708
  408SOL    HW1 2123   2.668   1.706   3.729
  408SOL    HW2 2124   2.545   1.685   3.623
  409SOL     OW 2125   0.522   3.302   2.562
  409SOL    HW1 2126   0.607   3.350   2.540
  409SOL    HW2 2127   0.520   3.279   2.659
  410SOL     OW 2128   1.444   1.174   1.349
  410SOL    HW1 2129   1.412   1.090   1.393
  410SOL    HW2 2130   1.513   1.152   1.280
  411SOL     OW 2131   7.009   3.077   1.624
  411SOL    HW1 2132   0.062   3.015   1.634
  411SOL    HW2 2133   6.924   3.027   1.643
  412SOL     OW 2134   1.386   5.248   2.693
  412SOL    HW1 2135   1.342   5.171   2.739
  412SOL    HW2 2136   1.448   5.294   2.758
  413SOL     OW 2137   5.798   6.011   2.595
  413SOL    HW1 2138   5.723   6.033   2.533
  413SOL    HW2 2139   5.794   6.071   2.675
  414SOL     OW 2140   1.764   6.558   3.346
  414SOL    HW1 2141   1.824   6.617   3.401
  414SOL    HW2 2142   1.713   6.497   3.407
  415SOL     OW 2143   6.043   1.048   0.446
  415SOL    HW1 2144   6.019   0.995   0.527
  415SOL    HW2 2145   6.113   0.999   0.394
  416SOL     OW 2146   5.512   3.351   4.964
  416SOL    HW1 2147   5.535   3.436   4.916
  416SOL    HW2 2148   5.424   3.361   5.011
  417SOL     OW 2149   2.169   1.954   6.286
  417SOL    HW1 2150   2.210   1.873   6.243
  417SOL    HW2 2151   2.175   2.032   6.224
  418SOL     OW 2152   3.894   6.783   4.677
  418SOL    HW1 2153   3.814   6.794   4.618
  418SOL    HW2 2154   3.888   6.696   4.726
  419SOL     OW 2155   0.232   0.018   0.687
  419SOL    HW1 2156   0.191   7.024   0.777
  419SOL    HW2 2157   0.320   0.063   0.699
  420SOL     OW 2158   4.229   0.895   6.908
  420SOL    HW1 2159   4.184   0.982   6.928
  420SOL    HW2 2160   4.160   0.824   6.895
  421SOL     OW 2161   5.088   3.977   2.516
  421SOL    HW1 2162   5.013   4.037   2.487
  421SOL    HW2 2163   5.066   3.883   2.491
  422SOL     OW 2164   5.130   3.004   1.675
  422SOL    HW1 2165   5.209   3.050   1.715
  422SOL    HW2 2166   5.046   3.039   1.717
  423SOL     OW 2167   3.602   1.069   6.488
  423SOL    HW1 2168   3.662   1.148   6.491
  423SOL    HW2 2169   3.600   1.032   6.395
  424SOL     OW 2170   1.258   3.740   3.950
  424SOL    HW1 2171   1.272   3.715   4.046
  424SOL    HW2 2172   1.256   3.656   3.894
  425SOL     OW 2173   2.879   1.064   6.178
  425SOL    HW1 2174   2.784   1.045   6.152
  425SOL    HW2 2175   2.931   1.090   6.097
  426SOL     OW 2176   2.576   2.138   4.293
  426SOL    HW1 2177   2.568   2.086   4.208
  426SOL    HW2 2178   2.648   2.206   4.283
  427SOL     OW 2179   4.037   2.179   2.974
  427SOL    HW1 2180   3.966   2.209   2.911
  427SOL    HW2 2181   4.034   2.235   3.057
  428SOL     OW 2182   3.046   2.126   5.870
  428SOL    HW1 2183   3.082   2.061   5.803
  428SOL    HW2 2184   3.063   2.091   5.962
  429SOL     OW 2185   0.519   5.582   4.325
  429SOL    HW1 2186   0.580   5.638   4.269
  429SOL    HW2 2187   0.427   5.620   4.322
  430SOL     OW 2188   1.448   0.066   3.669
  430SOL    HW1 2189   1.489   0.067   3.578
  430SOL    HW2 2190   1.375   7.022   3.671
  431SOL     OW 2191   2.335   1.732   1.354
  431SOL    HW1 2192   2.366   1.720   1.449
  431SOL    HW2 2193   2.362   1.822   1.321
  432SOL     OW 2194   4.845   1.952   1.367
  432SOL    HW1 2195   4.920   1.889   1.344
  432SOL    HW2 2196   4.839   2.023   1.297
  433SOL     OW 2197   1.425   5.376   1.017
  433SOL    HW1 2198   1.405   5.471   0.990
  433SOL    HW2 2199   1.374   5.354   1.100
  434SOL     OW 2200   4.717   5.551   3.846
  434SOL    HW1 2201   4.744   5.566   3.941
  434SOL    HW2 2202   4.734   5.635   3.794
  435SOL     OW 2203   3.771   1.624   5.967
  435SOL    HW1 2204   3.842   1.557   5.988
  435SOL    HW2 2205   3.771   1.697   6.035
  436SOL     OW 2206   4.775   6.716   2.822
  436SOL    HW1 2207   4.729   6.754   2.742
  436SOL    HW2 2208   4.743   6.762   2.905
  437SOL     OW 2209   6.385   0.800   4.918
  437SOL    HW1 2210   6.381   0.724   4.853
  437SOL    HW2 2211   6.397   0.764   5.011
  438SOL     OW 2212   0.380   4.418   2.462
  438SOL    HW1 2213   0.360   4.387   2.554
  438SOL    HW2 2214   0.297   4.413   2.406
  439SOL     OW 2215   0.081   0.436   4.687
  439SOL    HW1 2216   0.029   0.431   4.772
  439SOL    HW2 2217   0.178   0.450   4.709
  440SOL     OW 2218   4.092   1.482   0.641
  440SOL    HW1 2219   4.148   1.563   0.659
  440SOL    HW2 2220   3.995   1.507   0.643
  441SOL     OW 2221   0.316   4.314   2.719
  441SOL    HW1 2222   0.361   4.363   2.794
  441SOL    HW2 2223   0.287   4.225   2.751
  442SOL     OW 2224   5.606   2.746   5.413
  442SOL    HW1 2225   5.567   2.681   5.348
  442SOL    HW2 2226   5.540   2.820   5.431
  443SOL     OW 2227   5.324   3.212   1.794
  443SOL    HW1 2228   5.300   3.308   1.778
  443SOL    HW2 2229   5.347   3.200   1.891
  444SOL     OW 2230   4.448   1.145   1.868
  444SOL    HW1 2231   4.391   1.217   1.908
  444SOL    HW2 2232   4.526   1.127   1.927
  445SOL     OW 2233   1.628   5.483   2.871
  445SOL    HW1 2234   1.602   5.550   2.801
  445SOL    HW2 2235   1.546   5.435   2.901
  446SOL     OW 2236   5.561   6.715   1.392
  446SOL    HW1 2237   5.518   6.632   1.428
  446SOL    HW2 2238   5.560   6.711   1.292
  447SOL     OW 2239   6.012   4.597   0.677
  447SOL    HW1 2240   5.971   4.508   0.657
  447SOL    HW2 2241   6.107   4.585   0.706
  448SOL     OW 2242   2.774   6.718   3.101
  448SOL    HW1 2243   2.792   6.792   3.167
  448SOL    HW2 2244   2.679   6.689   3.110
  449SOL     OW 2245   1.543   3.894   4.975
  449SOL    HW1 2246   1.578   3.977   5.019
  449SOL    HW2 2247   1.551   3.816   5.037
  450SOL     OW 2248   0.121   5.114   3.660
  450SOL    HW1 2249   0.165   5.201   3.635
  450SOL    HW2 2250   0.172   5.071   3.734
  451SOL     OW 2251   1.034   2.069   1.439
  451SOL    HW1 2252   1.025   2.054   1.340
  451SOL    HW2 2253   1.060   1.983   1.483
  452SOL     OW 2254   4.718   5.838   2.300
  452SOL    HW1 2255   4.665   5.870   2.221
  452SOL    HW2 2256   4.815   5.835   2.275
  453SOL     OW 2257   3.193   0.927   6.295
  453SOL    HW1 2258   3.108   0.875   6.308
  453SOL    HW2 2259   3.196   1.003   6.360
  454SOL     OW 2260   6.738   3.295   6.464
  454SOL    HW1 2261   6.678   3.280   6.542
  454SOL    HW2 2262   6.830   3.263   6.486
  455SOL     OW 2263   5.560   4.852   5.978
  455SOL    HW1 2264   5.510   4.834   6.062
  455SOL    HW2 2265   5.599   4.766   5.943
  456SOL     OW 2266   2.552   1.167   2.891
  456SOL    HW1 2267   2.453   1.160   2.899
  456SOL    HW2 2268   2.594   1.164   2.981
  457SOL     OW 2269   2.218   6.841   0.256
  457SOL    HW1 2270   2.273   6.862   0.175
  457SOL    HW2 2271   2.275   6.795   0.324
  458SOL     OW 2272   2.857   1.665   3.519
  458SOL    HW1 2273   2.829   1.761   3.508
  458SOL    HW2 2274   2.855   1.642   3.616
  459SOL     OW 2275   3.909   0.212   3.414
  459SOL    HW1 2276   3.991   0.192   3.360
  459SOL    HW2 2277   3.834   0.154   3.384
  460SOL     OW 2278   0.872   1.364   6.047
  460SOL    HW1 2279   0.910   1.420   6.121
  460SOL    HW2 2280   0.773   1.376   6.044
  461SOL     OW 2281   1.233   4.823   5.547
  461SOL    HW1 2282   1.205   4.917   5.561
  461SOL    HW2 2283   1.153   4.763   5.548
  462SOL     OW 2284   3.508   4.157   4.399
  462SOL    HW1 2285   3.408   4.155   4.388
  462SOL    HW2 2286   3.548   4.208   4.322
  463SOL     OW 2287   4.999   6.343   3.440
  463SOL    HW1 2288   5.057   6.368   3.361
  463SOL    HW2 2289   4.942   6.265   3.415
  464SOL     OW 2290   3.872   5.276   6.617
  464SOL    HW1 2291   3.851   5.206   6.549
  464SOL    HW2 2292   3.960   5.318   6.596
  465SOL     OW 2293   0.941   3.704   1.155
  465SOL    HW1 2294   0.962   3.776   1.220
  465SOL    HW2 2295   1.017   3.692   1.091
  466SOL     OW 2296   4.070   5.505   4.700
  466SOL    HW1 2297   4.124   5.561   4.763
  466SOL    HW2 2298   4.014   5.441   4.752
  467SOL     OW 2299   5.868   6.709   2.030
  467SOL    HW1 2300   5.887   6.678   2.123
  467SOL    HW2 2301   5.905   6.802   2.018
  468SOL     OW 2302   2.758   6.328   6.440
  468SOL    HW1 2303   2.793   6.417   6.470
  468SOL    HW2 2304   2.833   6.263   6.431
  469SOL     OW 2305   3.235   4.934   4.814
  469SOL    HW1 2306   3.237   4.927   4.714
  469SOL    HW2 2307   3.169   4.869   4.851
  470SOL     OW 2308   2.455   4.531   2.688
  470SOL    HW1 2309   2.444   4.624   2.654
  470SOL    HW2 2310   2.447   4.466   2.612
  471SOL     OW 2311   1.389   2.224   4.192
  471SOL    HW1 2312   1.472   2.264   4.155
  471SOL    HW2 2313   1.334   2.295   4.235
  472SOL     OW 2314   5.720   3.845   6.488
  472SOL    HW1 2315   5.698   3.937   6.521
  472SOL    HW2 2316   5.818   3.840   6.468
  473SOL     OW 2317   6.349   2.769   1.766
  473SOL    HW1 2318   6.307   2.845   1.816
  473SOL    HW2 2319   6.406   2.806   1.692
  474SOL     OW 2320   4.619   6.589   4.073
  474SOL    HW1 2321   4.595   6.653   4.000
  474SOL    HW2 2322   4.716   6.598   4.095
  475SOL     OW 2323   5.550   1.743   0.196
  475SOL    HW1 2324   5.599   1.814   0.247
  475SOL    HW2 2325   5.510   1.783   0.114
  476SOL     OW 2326   1.030   4.115   0.923
  476SOL    HW1 2327   1.023   4.017   0.905
  476SOL    HW2 2328   0.977   4.165   0.855
  477SOL     OW 2329   1.677   4.750   3.763
  477SOL    HW1 2330   1.670   4.729   3.860
  477SOL    HW2 2331   1.607   4.817   3.737
  478SOL     OW 2332   5.107   6.240   2.283
  478SOL    HW1 2333   5.191   6.200   2.321
  478SOL    HW2 2334   5.066   6.175   2.218
  479SOL     OW 2335   3.109   4.052   3.542
  479SOL    HW1 2336   3.078   3.988   3.612
  479SOL    HW2 2337   3.043   4.127   3.534
  480SOL     OW 2338   0.944   0.897   2.891
  480SOL    HW1 2339   0.931   0.802   2.861
  480SOL    HW2 2340   0.858   0.947   2.881
  481SOL     OW 2341   0.327   6.975   0.452
  481SOL    HW1 2342   0.270   6.991   0.533
  481SOL    HW2 2343   0.404   6.915   0.477
  482SOL     OW 2344   3.917   4.998   1.946
  482SOL    HW1 2345   3.825   5.005   1.906
  482SOL    HW2 2346   3.912   4.947   2.031
  483SOL     OW 2347   6.058   2.352   4.042
  483SOL    HW1 2348   6.063   2.305   4.130
  483SOL    HW2 2349   6.000   2.299   3.980
  484SOL     OW 2350   2.617   4.827   3.863
  484SOL    HW1 2351   2.623   4.755   3.794
  484SOL    HW2 2352   2.523   4.835   3.896
  485SOL     OW 2353   5.459   3.084   1.221
  485SOL    HW1 2354   5.368   3.126   1.216
  485SOL    HW2 2355   5.475   3.050   1.313
  486SOL     OW 2356   5.972   6.054   6.374
  486SOL    HW1 2357   6.064   6.016   6.363
  486SOL    HW2 2358   5.906   5.980   6.380
  487SOL     OW 2359   0.182   6.597   5.693
  487SOL    HW1 2360   0.281   6.603   5.684
  487SOL    HW2 2361   0.158   6.524   5.757
  488SOL     OW 2362   1.935   5.522   3.844
  488SOL    HW1 2363   1.856   5.467   3.816
  488SOL    HW2 2364   1.961   5.498   3.937
  489SOL     OW 2365   1.946   5.834   6.446
  489SOL    HW1 2366   2.018   5.875   6.390
  489SOL    HW2 2367   1.882   5.905   6.475
  490SOL     OW 2368   0.708   3.912   4.681
  490SOL    HW1 2369   0.621   3.900   4.632
  490SOL    HW2 2370   0.763   3.829   4.673
  491SOL     OW 2371   0.189   3.002   0.556
  491SOL    HW1 2372   0.238   3.089   0.554
  491SOL    HW2 2373   0.122   3.003   0.630
  492SOL     OW 2374   0.985   2.664   5.870
  492SOL    HW1 2375   0.902   2.678   5.924
  492SOL    HW2 2376   1.055   2.730   5.898
  493SOL     OW 2377   2.135   5.849   5.020
  493SOL    HW1 2378   2.085   5.763   5.014
  493SOL    HW2 2379   2.073   5.922   5.050
  494SOL     OW 2380   2.519   6.675   4.546
  494SOL    HW1 2381   2.526   6.672   4.446
  494SOL    HW2 2382   2.495   6.768   4.575
  495SOL     OW 2383   3.778   4.190   6.374
  495SOL    HW1 2384   3.780   4.262   6.305
  495SOL    HW2 2385   3.683   4.169   6.398
  496SOL     OW 2386   4.731   1.526   3.095
  496SOL    HW1 2387   4.770   1.618   3.099
  496SOL    HW2 2388   4.638   1.531   3.058
  497SOL     OW 2389   4.671   1.722   0.291
  497SOL    HW1 2390   4.704   1.806   0.248
  497SOL    HW2 2391   4.730   1.646   0.265
  498SOL     OW 2392   6.997   6.920   1.438
  498SOL    HW1 2393   0.030   6.851   1.482
  498SOL    HW2 2394   6.903   6.888   1.432
  499SOL     OW 2395   2.942   5.977   0.498
  499SOL    HW1 2396   3.019   5.930   0.456
  499SOL    HW2 2397   2.890   6.026   0.428
  500SOL     OW 2398   5.360   2.190   7.008
  500SOL    HW1 2399   5.433   2.252   0.012
  500SOL    HW2 2400   5.289   2.188   0.054
  501SOL     OW 2401   0.993   1.388   4.571
  501SOL    HW1 2402   1.055   1.450   4.620
  501SOL    HW2 2403   0.900   1.425   4.573
  502SOL     OW 2404   2.929   4.317   6.977
  502SOL    HW1 2405   2.831   4.316   6.959
  502SOL    HW2 2406   2.946   4.365   0.039
  503SOL     OW 2407   4.133   4.819   0.709
  503SOL    HW1 2408   4.160   4.875   0.788
  503SOL    HW2 2409   4.134   4.722   0.735
  504SOL     OW 2410   6.623   6.147   1.410
  504SOL    HW1 2411   6.711   6.099   1.418
  504SOL    HW2 2412   6.603   6.194   1.496
  505SOL     OW 2413   5.148   5.768   5.410
  505SOL    HW1 2414   5.158   5.853   5.360
  505SOL    HW2 2415   5.160   5.691   5.348
  506SOL     OW 2416   4.098   5.076   2.453
  506SOL    HW1 2417   4.048   4.998   2.491
  506SOL    HW2 2418   4.041   5.157   2.455
  507SOL     OW 2419   2.928   0.464   1.365
  507SOL    HW1 2420   2.852   0.529   1.361
  507SOL    HW2 2421   3.003   0.505   1.417
  508SOL     OW 2422   0.081   3.935   3.024
  508SOL    HW1 2423   0.049   3.841   3.013
  508SOL    HW2 2424   0.002   3.996   3.032
  509SOL     OW 2425   4.737   0.393   5.772
  509SOL    HW1 2426   4.711   0.489   5.758
  509SOL    HW2 2427   4.726   0.368   5.868
  510SOL     OW 2428   6.563   3.884   0.061
  510SOL    HW1 2429   6.578   3.835   7.000
  510SOL    HW2 2430   6.465   3.898   0.075
  511SOL     OW 2431   0.265   2.105   0.408
  511SOL    HW1 2432   0.283   2.024   0.465
  511SOL    HW2 2433   0.263   2.078   0.312
  512SOL     OW 2434   0.253   1.908   4.180
  512SOL    HW1 2435   0.282   1.921   4.086
  512SOL    HW2 2436   0.324   1.858   4.230
  513SOL     OW 2437   4.730   1.060   2.978
  513SOL    HW1 2438   4.827   1.052   2.957
  513SOL    HW2 2439   4.676   1.028   2.900
  514SOL     OW 2440   5.917   0.807   4.567
  514SOL    HW1 2441   5.876   0.871   4.633
  514SOL    HW2 2442   6.005   0.843   4.537
  515SOL     OW 2443   4.077   0.199   5.775
  515SOL    HW1 2444   3.982   0.168   5.766
  515SOL    HW2 2445   4.124   0.187   5.688
  516SOL     OW 2446   2.147   6.177   2.409
  516SOL    HW1 2447   2.188   6.129   2.331
  516SOL    HW2 2448   2.204   6.163   2.490
  517SOL     OW 2449   3.071   5.675   1.287
  517SOL    HW1 2450   3.010   5.658   1.210
  517SOL    HW2 2451   3.045   5.760   1.333
  518SOL     OW 2452   2.072   3.765   3.969
  518SOL    HW1 2453   2.008   3.717   3.909
  518SOL    HW2 2454   2.063   3.729   4.062
  519SOL     OW 2455   6.854   0.360   1.879
  519SOL    HW1 2456   6.825   0.358   1.975
  519SOL    HW2 2457   6.944   0.402   1.872
  520SOL     OW 2458   1.956   4.139   1.157
  520SOL    HW1 2459   1.991   4.083   1.082
  520SOL    HW2 2460   1.857   4.151   1.147
  521SOL     OW 2461   6.497   6.420   4.951
  521SOL    HW1 2462   6.518   6.370   4.867
  521SOL    HW2 2463   6.505   6.518   4.933
  522SOL     OW 2464   3.607   4.299   1.514
  522SOL    HW1 2465   3.676   4.367   1.538
  522SOL    HW2 2466   3.598   4.233   1.589
  523SOL     OW 2467   0.863   0.432   0.907
  523SOL    HW1 2468   0.828   0.355   0.961
  523SOL    HW2 2469   0.817   0.516   0.935
  524SOL     OW 2470   6.602   2.122   1.398
  524SOL    HW1 2471   6.689   2.107   1.349
  524SOL    HW2 2472   6.616   2.187   1.472
  525SOL     OW 2473   0.546   3.706   4.959
  525SOL    HW1 2474   0.487   3.701   4.878
  525SOL    HW2 2475   0.577   3.615   4.984
  526SOL     OW 2476   3.640   0.475   3.779
  526SOL    HW1 2477   3.649   0.412   3.856
  526SOL    HW2 2478   3.672   0.431   3.696
  527SOL     OW 2479   0.389   0.988   0.801
  527SOL    HW1 2480   0.485   0.980   0.775
  527SOL    HW2 2481   0.379   1.061   0.869
  528SOL     OW 2482   6.796   2.922   4.534
  528SOL    HW1 2483   6.853   2.961   4.461
  528SOL    HW2 2484   6.746   2.995   4.580
  529SOL     OW 2485   1.775   0.108   0.118
  529SOL    HW1 2486   1.839   0.184   0.124
  529SOL    HW2 2487   1.774   0.058   0.205
  530SOL     OW 2488   3.198   4.286   0.939
  530SOL    HW1 2489   3.105   4.252   0.954
  530SOL    HW2 2490   3.211   4.310   0.843
  531SOL     OW 2491   1.855   0.332   0.441
  531SOL    HW1 2492   1.794   0.384   0.381
  531SOL    HW2 2493   1.858   0.236   0.410
  532SOL     OW 2494   1.467   2.124   6.267
  532SOL    HW1 2495   1.458   2.049   6.200
  532SOL    HW2 2496   1.387   2.184   6.261
  533SOL     OW 2497   4.010   0.361   4.230
  533SOL    HW1 2498   3.963   0.335   4.147
  533SOL    HW2 2499   4.091   0.303   4.242
  534SOL     OW 2500   2.196   4.632   1.710
  534SOL    HW1 2501   2.183   4.533   1.709
  534SOL    HW2 2502   2.285   4.654   1.669
  535SOL     OW 2503   4.902   3.394   3.780
  535SOL    HW1 2504   4.908   3.483   3.825
  535SOL    HW2 2505   4.946   3.325   3.838
  536SOL     OW 2506   6.476   0.097   2.102
  536SOL    HW1 2507   6.405   0.069   2.036
  536SOL    HW2 2508   6.551   0.141   2.053
  537SOL     OW 2509   3.267   2.101   3.757
  537SOL    HW1 2510   3.189   2.138   3.807
  537SOL    HW2 2511   3.352   2.128   3.803
  538SOL     OW 2512   3.404   4.830   5.269
  538SOL    HW1 2513   3.421   4.886   5.189
  538SOL    HW2 2514   3.309   4.798   5.269
  539SOL     OW 2515   0.966   6.943   0.294
  539SOL    HW1 2516   1.037   6.911   0.231
  539SOL    HW2 2517   0.927   6.864   0.342
  540SOL     OW 2518   1.095   0.035   4.037
  540SOL    HW1 2519   1.131   0.076   3.953
  540SOL    HW2 2520   1.014   0.086   4.066
  541SOL     OW 2521   4.567   5.784   4.066
  541SOL    HW1 2522   4.512   5.700   4.066
  541SOL    HW2 2523   4.659   5.762   4.098
  542SOL     OW 2524   3.475   0.492   5.450
  542SOL    HW1 2525   3.419   0.531   5.377
  542SOL    HW2 2526   3.571   0.517   5.435
  543SOL     OW 2527   6.154   2.178   3.793
  543SOL    HW1 2528   6.061   2.212   3.778
  543SOL    HW2 2529   6.211   2.254   3.825
  544SOL     OW 2530   1.631   3.240   1.327
  544SOL    HW1 2531   1.620   3.328   1.280
  544SOL    HW2 2532   1.580   3.169   1.278
  545SOL     OW 2533   5.760   0.184   1.383
  545SOL    HW1 2534   5.743   0.258   1.318
  545SOL    HW2 2535   5.775   0.099   1.332
  546SOL     OW 2536   0.062   4.392   2.786
  546SOL    HW1 2537   0.154   4.387   2.748
  546SOL    HW2 2538   0.065   4.368   2.883
  547SOL     OW 2539   5.204   1.010   6.464
  547SOL    HW1 2540   5.139   1.042   6.532
  547SOL    HW2 2541   5.249   0.927   6.498
  548SOL     OW 2542   3.990   2.099   0.283
  548SOL    HW1 2543   4.058   2.156   0.330
  548SOL    HW2 2544   4.003   2.108   0.184
  549SOL     OW 2545   5.968   1.601   1.509
  549SOL    HW1 2546   5.962   1.625   1.606
  549SOL    HW2 2547   6.037   1.530   1.496
  550SOL     OW 2548   0.529   6.227   3.345
  550SOL    HW1 2549   0.485   6.291   3.408
  550SOL    HW2 2550   0.460   6.188   3.284
  551SOL     OW 2551   5.950   0.858   0.654
  551SOL    HW1 2552   6.004   0.775   0.639
  551SOL    HW2 2553   5.866   0.853   0.601
  552SOL     OW 2554   0.349   5.814   5.518
  552SOL    HW1 2555   0.342   5.755   5.598
  552SOL    HW2 2556   0.433   5.868   5.524
  553SOL     OW 2557   3.053   1.410   0.177
  553SOL    HW1 2558   3.145   1.431   0.208
  553SOL    HW2 2559   3.049   1.417   0.077
  554SOL     OW 2560   5.259   6.589   1.196
  554SOL    HW1 2561   5.205   6.624   1.119
  554SOL    HW2 2562   5.199   6.577   1.276
  555SOL     OW 2563   1.119   3.832   5.774
  555SOL    HW1 2564   1.190   3.770   5.806
  555SOL    HW2 2565   1.036   3.780   5.755
  556SOL     OW 2566   5.765   0.249   4.252
  556SOL    HW1 2567   5.812   0.315   4.194
  556SOL    HW2 2568   5.707   0.190   4.196
  557SOL     OW 2569   6.724   4.205   6.719
  557SOL    HW1 2570   6.736   4.293   6.764
  557SOL    HW2 2571   6.627   4.182   6.717
  558SOL     OW 2572   3.014   3.864   2.285
  558SOL    HW1 2573   2.983   3.812   2.205
  558SOL    HW2 2574   2.978   3.822   2.368
  559SOL     OW 2575   6.652   6.252   5.909
  559SOL    HW1 2576   6.569   6.201   5.932
  559SOL    HW2 2577   6.654   6.269   5.811
  560SOL     OW 2578   6.692   3.269   4.102
  560SOL    HW1 2579   6.768   3.333   4.100
  560SOL    HW2 2580   6.610   3.313   4.066
  561SOL     OW 2581   0.925   3.095   0.090
  561SOL    HW1 2582   0.981   3.077   0.170
  561SOL    HW2 2583   0.982   3.132   0.016
  562SOL     OW 2584   4.278   0.022   4.823
  562SOL    HW1 2585   4.297   6.948   4.815
  562SOL    HW2 2586   4.184   0.034   4.857
  563SOL     OW 2587   1.649   1.005   4.240
  563SOL    HW1 2588   1.716   1.013   4.314
  563SOL    HW2 2589   1.615   1.096   4.215
  564SOL     OW 2590   6.818   1.424   6.254
  564SOL    HW1 2591   6.827   1.384   6.345
  564SOL    HW2 2592   6.900   1.403   6.201
  565SOL     OW 2593   3.496   3.513   3.919
  565SOL    HW1 2594   3.402   3.546   3.913
  565SOL    HW2 2595   3.501   3.420   3.882
  566SOL     OW 2596   2.922   0.737   3.472
  566SOL    HW1 2597   2.920   0.833   3.444
  566SOL    HW2 2598   2.831   0.708   3.501
  567SOL     OW 2599   2.309   2.581   5.485
  567SOL    HW1 2600   2.367   2.501   5.502
  567SOL    HW2 2601   2.338   2.656   5.544
  568SOL     OW 2602   0.538   6.235   6.986
  568SOL    HW1 2603   0.494   6.255   6.899
  568SOL    HW2 2604   0.482   6.269   0.037
  569SOL     OW 2605   6.138   2.709   0.312
  569SOL    HW1 2606   6.072   2.675   0.379
  569SOL    HW2 2607   6.221   2.652   0.315
  570SOL     OW 2608   2.374   0.478   6.358
  570SOL    HW1 2609   2.438   0.417   6.405
  570SOL    HW2 2610   2.424   0.539   6.297
  571SOL     OW 2611   2.044   4.957   1.974
  571SOL    HW1 2612   2.066   5.036   1.917
  571SOL    HW2 2613   2.047   4.984   2.070
  572SOL     OW 2614   2.961   0.585   4.375
  572SOL    HW1 2615   3.011   0.565   4.291
  572SOL    HW2 2616   2.959   0.684   4.389
  573SOL     OW 2617   0.068   1.031   5.160
  573SOL    HW1 2618   0.002   1.076   5.219
  573SOL    HW2 2619   0.022   0.959   5.108
  574SOL     OW 2620   2.405   2.170   5.675
  574SOL    HW1 2621   2.422   2.102   5.604
  574SOL    HW2 2622   2.438   2.135   5.763
  575SOL     OW 2623   3.994   2.932   0.134
  575SOL    HW1 2624   4.052   3.012   0.146
  575SOL    HW2 2625   3.994   2.878   0.218
  576SOL     OW 2626   2.260   2.892   2.757
  576SOL    HW1 2627   2.325   2.867   2.829
  576SOL    HW2 2628   2.212   2.976   2.782
  577SOL     OW 2629   0.486   0.993   1.691
  577SOL    HW1 2630   0.406   0.949   1.734
  577SOL    HW2 2631   0.534   1.048   1.759
  578SOL     OW 2632   2.392   6.811   6.773
  578SOL    HW1 2633   2.408   6.713   6.764
  578SOL    HW2 2634   2.296   6.828   6.797
  579SOL     OW 2635   2.319   4.035   2.020
  579SOL    HW1 2636   2.308   3.990   2.108
  579SOL    HW2 2637   2.415   4.062   2.008
  580SOL     OW 2638   4.630   5.671   4.720
  580SOL    HW1 2639   4.700   5.601   4.719
  580SOL    HW2 2640   4.551   5.640   4.667
  581SOL     OW 2641   1.537   2.751   4.630
  581SOL    HW1 2642   1.619   2.699   4.603
  581SOL    HW2 2643   1.565   2.840   4.667
  582SOL     OW 2644   5.214   5.408   3.925
  582SOL    HW1 2645   5.168   5.348   3.990
  582SOL    HW2 2646   5.230   5.497   3.967
  583SOL     OW 2647   4.138   5.935   5.778
  583SOL    HW1 2648   4.066   5.993   5.741
  583SOL    HW2 2649   4.114   5.839   5.764
  584SOL     OW 2650   4.812   0.738   5.118
  584SOL    HW1 2651   4.714   0.755   5.114
  584SOL    HW2 2652   4.859   0.821   5.147
  585SOL     OW 2653   2.945   0.899   1.975
  585SOL    HW1 2654   2.888   0.900   1.893
  585SOL    HW2 2655   3.041   0.894   1.949
  586SOL     OW 2656   4.432   0.172   0.796
  586SOL    HW1 2657   4.336   0.151   0.778
  586SOL    HW2 2658   4.438   0.245   0.865
  587SOL     OW 2659   4.827   2.001   1.630
  587SOL    HW1 2660   4.820   1.995   1.530
  587SOL    HW2 2661   4.741   1.970   1.671
  588SOL     OW 2662   2.057   5.072   3.298
  588SOL    HW1 2663   2.019   5.008   3.364
  588SOL    HW2 2664   2.149   5.099   3.327
  589SOL     OW 2665   2.859   5.691   1.054
  589SOL    HW1 2666   2.780   5.660   1.002
  589SOL    HW2 2667   2.855   5.790   1.067
  590SOL     OW 2668   4.437   2.149   0.519
  590SOL    HW1 2669   4.505   2.078   0.540
  590SOL    HW2 2670   4.484   2.236   0.503
  591SOL     OW 2671   3.274   6.159   4.476
  591SOL    HW1 2672   3.261   6.198   4.384
  591SOL    HW2 2673   3.192   6.175   4.531
  592SOL     OW 2674   3.786   2.100   4.292
  592SOL    HW1 2675   3.837   2.123   4.374
  592SOL    HW2 2676   3.688   2.101   4.312
  593SOL     OW 2677   3.026   2.164   6.606
  593SOL    HW1 2678   2.968   2.200   6.678
  593SOL    HW2 2679   3.114   2.213   6.606
  594SOL     OW 2680   4.922   1.260   1.793
  594SOL    HW1 2681   4.853   1.311   1.844
  594SOL    HW2 2682   4.974   1.202   1.856
  595SOL     OW 2683   5.971   5.812   2.634
  595SOL    HW1 2684   6.006   5.828   2.726
  595SOL    HW2 2685   5.890   5.868   2.618
  596SOL     OW 2686   6.303   4.975   4.065
  596SOL    HW1 2687   6.266   4.946   4.153
  596SOL    HW2 2688   6.229   4.987   4.000
  597SOL     OW 2689   2.482   0.831   6.572
  597SOL    HW1 2690   2.471   0.919   6.618
  597SOL    HW2 2691   2.394   0.786   6.564
  598SOL     OW 2692   2.906   3.346   4.339
  598SOL    HW1 2693   2.972   3.302   4.399
  598SOL    HW2 2694   2.873   3.281   4.271
  599SOL     OW 2695   1.211   4.787   1.689
  599SOL    HW1 2696   1.166   4.843   1.620
  599SOL    HW2 2697   1.303   4.762   1.657
  600SOL     OW 2698   6.651   3.763   5.030
  600SOL    HW1 2699   6.689   3.691   5.088
  600SOL    HW2 2700   6.702   3.766   4.944
  601SOL     OW 2701   1.774   6.480   5.231
  601SOL    HW1 2702   1.806   6.481   5.326
  601SOL    HW2 2703   1.674   6.486   5.229
  602SOL     OW 2704   2.366   0.049   3.701
  602SOL    HW1 2705   2.307   0.006   3.769
  602SOL    HW2 2706   2.446   7.017   3.685
  603SOL     OW 2707   1.407   1.526   5.382
  603SOL    HW1 2708   1.354   1.458   5.332
  603SOL    HW2 2709   1.385   1.617   5.348
  604SOL     OW 2710   6.545   2.117   1.822
  604SOL    HW1 2711   6.457   2.076   1.797
  604SOL    HW2 2712   6.548   2.132   1.920
  605SOL     OW 2713   6.612   6.550   1.564
  605SOL    HW1 2714   6.706   6.532   1.592
  605SOL    HW2 2715   6.566   6.606   1.633
  606SOL     OW 2716   3.645   6.772   4.532
  606SOL    HW1 2717   3.642   6.732   4.624
  606SOL    HW2 2718   3.555   6.809   4.509
  607SOL     OW 2719   1.766   4.441   6.095
  607SOL    HW1 2720   1.721   4.353   6.108
  607SOL    HW2 2721   1.760   4.468   5.999
  608SOL     OW 2722   2.858   1.133   5.503
  608SOL    HW1 2723   2.877   1.038   5.526
  608SOL    HW2 2724   2.775   1.163   5.549
  609SOL     OW 2725   3.362   2.882   2.095
  609SOL    HW1 2726   3.305   2.832   2.030
  609SOL    HW2 2727   3.307   2.905   2.176
  610SOL     OW 2728   5.060   3.643   1.458
  610SOL    HW1 2729   5.048   3.555   1.504
  610SOL    HW2 2730   5.028   3.635   1.363
  611SOL     OW 2731   3.588   0.235   2.686
  611SOL    HW1 2732   3.605   0.179   2.767
  611SOL    HW2 2733   3.627   0.326   2.699
  612SOL     OW 2734   4.226   4.894   5.189
  612SOL    HW1 2735   4.204   4.945   5.106
  612SOL    HW2 2736   4.176   4.933   5.266
  613SOL     OW 2737   4.508   4.859   5.432
  613SOL    HW1 2738   4.459   4.860   5.345
  613SOL    HW2 2739   4.568   4.939   5.437
  614SOL     OW 2740   3.490   5.565   5.624
  614SOL    HW1 2741   3.425   5.535   5.695
  614SOL    HW2 2742   3.442   5.574   5.537
  615SOL     OW 2743   0.982   4.948   2.272
  615SOL    HW1 2744   0.926   4.879   2.318
  615SOL    HW2 2745   1.072   4.952   2.315
  616SOL     OW 2746   6.317   3.853   3.535
  616SOL    HW1 2747   6.260   3.907   3.598
  616SOL    HW2 2748   6.285   3.758   3.535
  617SOL     OW 2749   3.306   5.867   6.511
  617SOL    HW1 2750   3.286   5.872   6.609
  617SOL    HW2 2751   3.239   5.923   6.461
  618SOL     OW 2752   1.462   1.093   2.550
  618SOL    HW1 2753   1.525   1.162   2.584
  618SOL    HW2 2754   1.446   1.024   2.621
  619SOL     OW 2755   0.979   1.112   0.098
  619SOL    HW1 2756   0.938   1.053   0.029
  619SOL    HW2 2757   1.064   1.151   0.063
  620SOL     OW 2758   4.837   3.941   1.138
  620SOL    HW1 2759   4.866   3.993   1.058
  620SOL    HW2 2760   4.857   3.993   1.221
  621SOL     OW 2761   0.624   4.954   1.487
  621SOL    HW1 2762   0.705   4.938   1.544
  621SOL    HW2 2763   0.601   5.051   1.489
  622SOL     OW 2764   1.003   0.248   0.120
  622SOL    HW1 2765   1.089   0.197   0.134
  622SOL    HW2 2766   0.926   0.185   0.130
  623SOL     OW 2767   0.566   4.603   6.315
  623SOL    HW1 2768   0.491   4.578   6.253
  623SOL    HW2 2769   0.609   4.519   6.350
  624SOL     OW 2770   0.330   2.541   1.974
  624SOL    HW1 2771   0.365   2.627   2.012
  624SOL    HW2 2772   0.254   2.508   2.030
  625SOL     OW 2773   2.514   1.078   1.794
  625SOL    HW1 2774   2.458   1.132   1.857
  625SOL    HW2 2775   2.459   1.003   1.757
  626SOL     OW 2776   2.903   6.437   4.405
  626SOL    HW1 2777   2.857   6.508   4.352
  626SOL    HW2 2778   2.991   6.417   4.362
  627SOL     OW 2779   4.815   1.047   7.018
  627SOL    HW1 2780   4.857   0.960   6.991
  627SOL    HW2 2781   4.721   1.050   6.986
  628SOL     OW 2782   5.307   3.927   3.922
  628SOL    HW1 2783   5.240   3.868   3.967
  628SOL    HW2 2784   5.398   3.911   3.961
  629SOL     OW 2785   1.590   6.124   0.400
  629SOL    HW1 2786   1.596   6.209   0.452
  629SOL    HW2 2787   1.495   6.105   0.378
  630SOL     OW 2788   3.859   2.050   1.199
  630SOL    HW1 2789   3.826   2.098   1.280
  630SOL    HW2 2790   3.953   2.079   1.179
  631SOL     OW 2791   2.071   6.576   5.243
  631SOL    HW1 2792   2.148   6.563   5.181
  631SOL    HW2 2793   2.003   6.504   5.227
  632SOL     OW 2794   1.581   1.357   1.048
  632SOL    HW1 2795   1.637   1.312   1.119
  632SOL    HW2 2796   1.608   1.453   1.040
  633SOL     OW 2797   2.372   0.086   6.066
  633SOL    HW1 2798   2.468   0.086   6.038
  633SOL    HW2 2799   2.314   0.059   5.989
  634SOL     OW 2800   3.670   6.261   0.330
  634SOL    HW1 2801   3.601   6.297   0.267
  634SOL    HW2 2802   3.721   6.187   0.285
  635SOL     OW 2803   2.539   0.840   2.686
  635SOL    HW1 2804   2.604   0.838   2.762
  635SOL    HW2 2805   2.503   0.932   2.676
  636SOL     OW 2806   5.188   5.226   0.141
  636SOL    HW1 2807   5.107   5.168   0.135
  636SOL    HW2 2808   5.210   5.243   0.237
  637SOL     OW 2809   4.945   4.353   1.100
  637SOL    HW1 2810   4.906   4.276   1.049
  637SOL    HW2 2811   4.884   4.432   1.094
  638SOL     OW 2812   5.402   1.495   2.549
  638SOL    HW1 2813   5.364   1.497   2.641
  638SOL    HW2 2814   5.472   1.424   2.542
  639SOL     OW 2815   4.214   4.678   2.350
  639SOL    HW1 2816   4.259   4.603   2.300
  639SOL    HW2 2817   4.186   4.748   2.285
  640SOL     OW 2818   2.892   4.134   6.001
  640SOL    HW1 2819   2.917   4.053   5.947
  640SOL    HW2 2820   2.913   4.217   5.949
  641SOL     OW 2821   6.607   5.720   4.708
  641SOL    HW1 2822   6.587   5.708   4.611
  641SOL    HW2 2823   6.556   5.653   4.761
  642SOL     OW 2824   1.536   5.260   5.845
  642SOL    HW1 2825   1.634   5.262   5.826
  642SOL    HW2 2826   1.519   5.294   5.937
  643SOL     OW 2827   5.582   6.361   4.940
  643SOL    HW1 2828   5.646   6.317   4.877
  643SOL    HW2 2829   5.516   6.294   4.974
  644SOL     OW 2830   1.473   6.130   2.210
  644SOL    HW1 2831   1.458   6.045   2.261
  644SOL    HW2 2832   1.560   6.125   2.162
  645SOL     OW 2833   6.095   3.560   3.450
  645SOL    HW1 2834   6.180   3.543   3.401
  645SOL    HW2 2835   6.105   3.531   3.545
  646SOL     OW 2836   1.555   1.872   4.572
  646SOL    HW1 2837   1.486   1.874   4.500
  646SOL    HW2 2838   1.522   1.921   4.652
  647SOL     OW 2839   5.577   3.333   0.446
  647SOL    HW1 2840   5.580   3.321   0.545
  647SOL    HW2 2841   5.659   3.292   0.405
  648SOL     OW 2842   5.879   2.480   2.519
  648SOL    HW1 2843   5.876   2.567   2.470
  648SOL    HW2 2844   5.795   2.467   2.571
  649SOL     OW 2845   3.935   4.773   1.588
  649SOL    HW1 2846   3.846   4.787   1.631
  649SOL    HW2 2847   3.969   4.682   1.610
  650SOL     OW 2848   4.229   4.174   0.774
  650SOL    HW1 2849   4.234   4.135   0.682
  650SOL    HW2 2850   4.282   4.118   0.837
  651SOL     OW 2851   0.851   5.216   6.558
  651SOL    HW1 2852   0.918   5.143   6.552
  651SOL    HW2 2853   0.847   5.251   6.652
  652SOL     OW 2854   3.589   0.998   2.530
  652SOL    HW1 2855   3.622   0.922   2.474
  652SOL    HW2 2856   3.561   0.963   2.620
  653SOL     OW 2857   3.732   5.376   3.625
  653SOL    HW1 2858   3.828   5.376   3.654
  653SOL    HW2 2859   3.701   5.471   3.613
  654SOL     OW 2860   6.214   4.587   0.412
  654SOL    HW1 2861   6.121   4.592   0.450
  654SOL    HW2 2862   6.233   4.669   0.358
  655SOL     OW 2863   1.091   0.994   0.428
  655SOL    HW1 2864   1.092   0.908   0.377
  655SOL    HW2 2865   0.996   1.020   0.447
  656SOL     OW 2866   2.764   6.249   2.074
  656SOL    HW1 2867   2.807   6.304   2.003
  656SOL    HW2 2868   2.726   6.308   2.144
  657SOL     OW 2869   3.257   1.428   6.686
  657SOL    HW1 2870   3.241   1.339   6.729
  657SOL    HW2 2871   3.349   1.460   6.710
  658SOL     OW 2872   3.718   5.170   6.197
  658SOL    HW1 2873   3.640   5.126   6.153
  658SOL    HW2 2874   3.795   5.172   6.133
  659SOL     OW 2875   2.735   0.080   6.609
  659SOL    HW1 2876   2.721   0.067   6.707
  659SOL    HW2 2877   2.683   0.012   6.558
  660SOL     OW 2878   3.758   5.654   3.399
  660SOL    HW1 2879   3.857   5.663   3.402
  660SOL    HW2 2880   3.717   5.738   3.364
  661SOL     OW 2881   5.620   5.596   2.751
  661SOL    HW1 2882   5.662   5.599   2.660
  661SOL    HW2 2883   5.620   5.688   2.791
  662SOL     OW 2884   3.591   1.332   0.266
  662SOL    HW1 2885   3.555   1.414   0.221
  662SOL    HW2 2886   3.688   1.343   0.283
  663SOL     OW 2887   2.393   4.533   5.027
  663SOL    HW1 2888   2.304   4.545   5.072
  663SOL    HW2 2889   2.457   4.491   5.091
  664SOL     OW 2890   6.298   1.236   7.019
  664SOL    HW1 2891   6.367   1.304   0.017
  664SOL    HW2 2892   6.341   1.158   6.975
  665SOL     OW 2893   2.436   5.462   2.640
  665SOL    HW1 2894   2.536   5.467   2.637
  665SOL    HW2 2895   2.408   5.383   2.694
  666SOL     OW 2896   3.960   0.907   1.803
  666SOL    HW1 2897   3.971   1.001   1.836
  666SOL    HW2 2898   3.928   0.908   1.708
  667SOL     OW 2899   1.070   6.774   2.530
  667SOL    HW1 2900   1.058   6.685   2.575
  667SOL    HW2 2901   1.117   6.761   2.442
  668SOL     OW 2902   5.362   3.659   0.535
  668SOL    HW1 2903   5.278   3.612   0.509
  668SOL    HW2 2904   5.401   3.615   0.616
  669SOL     OW 2905   5.256   1.653   2.395
  669SOL    HW1 2906   5.312   1.595   2.454
  669SOL    HW2 2907   5.175   1.683   2.445
  670SOL     OW 2908   2.669   2.176   3.055
  670SOL    HW1 2909   2.740   2.118   3.095
  670SOL    HW2 2910   2.674   2.172   2.956
  671SOL     OW 2911   3.601   6.704   0.945
  671SOL    HW1 2912   3.515   6.671   0.985
  671SOL    HW2 2913   3.581   6.746   0.856
  672SOL     OW 2914   1.196   6.684   2.283
  672SOL    HW1 2915   1.285   6.722   2.258
  672SOL    HW2 2916   1.195   6.586   2.262
  673SOL     OW 2917   5.774   6.790   0.079
  673SOL    HW1 2918   5.793   6.692   0.071
  673SOL    HW2 2919   5.675   6.803   0.089
  674SOL     OW 2920   6.976   0.914   4.464
  674SOL    HW1 2921   0.002   0.841   4.417
  674SOL    HW2 2922   0.012   0.992   4.479
  675SOL     OW 2923   6.566   2.861   2.714
  675SOL    HW1 2924   6.592   2.774   2.756
  675SOL    HW2 2925   6.552   2.930   2.785
  676SOL     OW 2926   2.309   5.605   5.900
  676SOL    HW1 2927   2.363   5.689   5.889
  676SOL    HW2 2928   2.266   5.606   5.990
  677SOL     OW 2929   5.077   1.251   1.050
  677SOL    HW1 2930   5.038   1.203   1.129
  677SOL    HW2 2931   5.014   1.323   1.021
  678SOL     OW 2932   1.960   4.644   4.793
  678SOL    HW1 2933   2.001   4.731   4.765
  678SOL    HW2 2934   1.971   4.633   4.892
  679SOL     OW 2935   5.314   1.773   5.189
  679SOL    HW1 2936   5.386   1.831   5.228
  679SOL    HW2 2937   5.313   1.685   5.236
  680SOL     OW 2938   5.032   0.283   4.054
  680SOL    HW1 2939   4.999   0.244   4.140
  680SOL    HW2 2940   5.098   0.222   4.012
  681SOL     OW 2941   4.356   4.961   2.646
  681SOL    HW1 2942   4.443   4.967   2.597
  681SOL    HW2 2943   4.284   5.005   2.593
  682SOL     OW 2944   0.774   0.982   3.380
  682SOL    HW1 2945   0.693   1.035   3.404
  682SOL    HW2 2946   0.746   0.900   3.330
  683SOL     OW 2947   4.268   3.591   1.068
  683SOL    HW1 2948   4.248   3.502   1.026
  683SOL    HW2 2949   4.357   3.588   1.113
  684SOL     OW 2950   6.535   0.840   6.510
  684SOL    HW1 2951   6.535   0.741   6.517
  684SOL    HW2 2952   6.518   0.880   6.600
  685SOL     OW 2953   3.382   0.509   2.858
  685SOL    HW1 2954   3.481   0.503   2.844
  685SOL    HW2 2955   3.335   0.463   2.782
  686SOL     OW 2956   4.809   0.302   4.729
  686SOL    HW1 2957   4.826   0.271   4.823
  686SOL    HW2 2958   4.804   0.402   4.728
  687SOL     OW 2959   1.003   2.128   3.934
  687SOL    HW1 2960   1.072   2.120   4.005
  687SOL    HW2 2961   1.007   2.047   3.875
  688SOL     OW 2962   6.478   1.319   6.751
  688SOL    HW1 2963   6.498   1.238   6.807
  688SOL    HW2 2964   6.421   1.382   6.802
  689SOL     OW 2965   1.330   5.646   5.792
  689SOL    HW1 2966   1.394   5.693   5.731
  689SOL    HW2 2967   1.375   5.628   5.879
  690SOL     OW 2968   5.999   3.409   2.529
  690SOL    HW1 2969   6.023   3.434   2.623
  690SOL    HW2 2970   5.936   3.478   2.492
  691SOL     OW 2971   5.544   1.474   0.718
  691SOL    HW1 2972   5.523   1.405   0.648
  691SOL    HW2 2973   5.466   1.484   0.779
  692SOL     OW 2974   2.332   0.489   5.114
  692SOL    HW1 2975   2.241   0.475   5.076
  692SOL    HW2 2976   2.389   0.538   5.048
  693SOL     OW 2977   5.177   5.860   3.857
  693SOL    HW1 2978   5.174   5.868   3.757
  693SOL    HW2 2979   5.227   5.937   3.896
  694SOL     OW 2980   4.439   6.536   5.309
  694SOL    HW1 2981   4.497   6.610   5.274
  694SOL    HW2 2982   4.489   6.486   5.380
  695SOL     OW 2983   3.216   0.562   3.962
  695SOL    HW1 2984   3.156   0.606   3.895
  695SOL    HW2 2985   3.231   0.625   4.039
  696SOL     OW 2986   5.309   4.373   3.113
  696SOL    HW1 2987   5.367   4.362   3.193
  696SOL    HW2 2988   5.225   4.421   3.138
  697SOL     OW 2989   0.759   5.807   2.099
  697SOL    HW1 2990   0.659   5.808   2.107
  697SOL    HW2 2991   0.797   5.887   2.145
  698SOL     OW 2992   5.893   6.673   0.386
  698SOL    HW1 2993   5.927   6.605   0.320
  698SOL    HW2 2994   5.901   6.764   0.346
  699SOL     OW 2995   2.834   2.792   1.010
  699SOL    HW1 2996   2.816   2.694   1.016
  699SOL    HW2 2997   2.826   2.833   1.101
  700SOL     OW 2998   3.288   0.567   3.330
  700SOL    HW1 2999   3.292   0.664   3.355
  700SOL    HW2 3000   3.194   0.534   3.338
  701SOL     OW 3001   5.765   5.244   1.545
  701SOL    HW1 3002   5.737   5.164   1.493
  701SOL    HW2 3003   5.826   5.300   1.490
  702SOL     OW 3004   3.206   1.021   4.402
  702SOL    HW1 3005   3.190   1.024   4.304
  702SOL    HW2 3006   3.192   1.112   4.441
  703SOL     OW 3007   2.701   1.952   6.249
  703SOL    HW1 3008   2.615   1.948   6.198
  703SOL    HW2 3009   2.697   1.888   6.326
  704SOL     OW 3010   1.313   2.736   5.601
  704SOL    HW1 3011   1.305   2.724   5.700
  704SOL    HW2 3012   1.401   2.778   5.580
  705SOL     OW 3013   0.004   6.845   5.432
  705SOL    HW1 3014   6.992   6.847   5.525
  705SOL    HW2 3015   6.976   6.780   5.377
  706SOL     OW 3016   4.541   1.000   5.225
  706SOL    HW1 3017   4.592   1.043   5.152
  706SOL    HW2 3018   4.558   1.048   5.311
  707SOL     OW 3019   3.471   5.201   4.129
  707SOL    HW1 3020   3.387   5.151   4.147
  707SOL    HW2 3021   3.455   5.299   4.140
  708SOL     OW 3022   3.978   6.842   3.893
  708SOL    HW1 3023   4.035   6.767   3.860
  708SOL    HW2 3024   4.036   6.916   3.928
  709SOL     OW 3025   2.829   6.761   1.788
  709SOL    HW1 3026   2.816   6.684   1.850
  709SOL    HW2 3027   2.859   6.841   1.839
  710SOL     OW 3028   4.676   2.918   1.654
  710SOL    HW1 3029   4.622   2.928   1.571
  710SOL    HW2 3030   4.646   2.984   1.722
  711SOL     OW 3031   0.312   2.278   6.476
  711SOL    HW1 3032   0.405   2.266   6.441
  711SOL    HW2 3033   0.261   2.340   6.417
  712SOL     OW 3034   5.185   4.268   0.756
  712SOL    HW1 3035   5.225   4.316   0.834
  712SOL    HW2 3036   5.246   4.275   0.677
  713SOL     OW 3037   4.089   2.736   5.302
  713SOL    HW1 3038   4.143   2.784   5.371
  713SOL    HW2 3039   4.135   2.652   5.275
  714SOL     OW 3040   5.272   5.379   2.952
  714SOL    HW1 3041   5.242   5.286   2.930
  714SOL    HW2 3042   5.354   5.375   3.009
  715SOL     OW 3043   6.600   5.381   5.478
  715SOL    HW1 3044   6.511   5.348   5.510
  715SOL    HW2 3045   6.605   5.480   5.489
  716SOL     OW 3046   1.873   2.033   2.988
  716SOL    HW1 3047   1.842   1.945   2.954
  716SOL    HW2 3048   1.917   2.085   2.914
  717SOL     OW 3049   5.367   3.957   4.278
  717SOL    HW1 3050   5.401   3.883   4.221
  717SOL    HW2 3051   5.418   4.041   4.258
  718SOL     OW 3052   6.234   1.532   5.413
  718SOL    HW1 3053   6.157   1.562   5.356
  718SOL    HW2 3054   6.319   1.539   5.361
  719SOL     OW 3055   5.147   0.347   3.296
  719SOL    HW1 3056   5.070   0.324   3.355
  719SOL    HW2 3057   5.113   0.369   3.204
  720SOL     OW 3058   2.675   1.548   0.543
  720SOL    HW1 3059   2.768   1.537   0.577
  720SOL    HW2 3060   2.611   1.503   0.606
  721SOL     OW 3061   0.369   1.633   3.277
  721SOL    HW1 3062   0.330   1.594   3.194
  721SOL    HW2 3063   0.345   1.730   3.283
  722SOL     OW 3064   4.608   6.435   0.471
  722SOL    HW1 3065   4.671   6.369   0.511
  722SOL    HW2 3066   4.641   6.463   0.381
  723SOL     OW 3067   2.401   5.322   3.650
  723SOL    HW1 3068   2.414   5.253   3.579
  723SOL    HW2 3069   2.450   5.405   3.626
  724SOL     OW 3070   0.965   1.483   4.295
  724SOL    HW1 3071   0.943   1.484   4.392
  724SOL    HW2 3072   1.032   1.410   4.277
  725SOL     OW 3073   1.510   3.658   2.574
  725SOL    HW1 3074   1.428   3.624   2.527
  725SOL    HW2 3075   1.515   3.758   2.564
  726SOL     OW 3076   1.875   4.424   0.663
  726SOL    HW1 3077   1.894   4.508   0.612
  726SOL    HW2 3078   1.783   4.429   0.703
  727SOL     OW 3079   4.583   5.806   5.311
  727SOL    HW1 3080   4.608   5.901   5.290
  727SOL    HW2 3081   4.545   5.802   5.404
  728SOL     OW 3082   6.737   3.779   3.995
  728SOL    HW1 3083   6.781   3.866   3.970
  728SOL    HW2 3084   6.807   3.709   4.009
  729SOL     OW 3085   0.596   4.053   1.623
  729SOL    HW1 3086   0.617   4.138   1.576
  729SOL    HW2 3087   0.524   4.005   1.574
  730SOL     OW 3088   4.528   0.609   3.294
  730SOL    HW1 3089   4.560   0.611   3.199
  730SOL    HW2 3090   4.589   0.550   3.348
  731SOL     OW 3091   4.389   5.336   6.311
  731SOL    HW1 3092   4.338   5.307   6.230
  731SOL    HW2 3093   4.351   5.423   6.345
  732SOL     OW 3094   4.653   1.800   4.545
  732SOL    HW1 3095   4.583   1.729   4.534
  732SOL    HW2 3096   4.723   1.767   4.608
  733SOL     OW 3097   6.331   6.278   3.266
  733SOL    HW1 3098   6.347   6.193   3.215
  733SOL    HW2 3099   6.283   6.343   3.207
  734SOL     OW 3100   6.021   6.330   2.401
  734SOL    HW1 3101   6.055   6.341   2.308
  734SOL    HW2 3102   6.008   6.232   2.420
  735SOL     OW 3103   4.683   0.519   2.742
  735SOL    HW1 3104   4.645   0.594   2.687
  735SOL    HW2 3105   4.669   0.539   2.839
  736SOL     OW 3106   1.762   1.738   4.068
  736SOL    HW1 3107   1.740   1.780   4.157
  736SOL    HW2 3108   1.715   1.788   3.995
  737SOL     OW 3109   4.714   1.061   6.620
  737SOL    HW1 3110   4.679   1.015   6.702
  737SOL    HW2 3111   4.649   1.049   6.545
  738SOL     OW 3112   1.882   4.741   1.095
  738SOL    HW1 3113   1.978   4.714   1.095
  738SOL    HW2 3114   1.861   4.791   1.179
  739SOL     OW 3115   2.796   7.024   4.394
  739SOL    HW1 3116   2.759   7.003   4.304
  739SOL    HW2 3117   2.861   6.953   4.421
  740SOL     OW 3118   5.499   3.543   2.672
  740SOL    HW1 3119   5.567   3.615   2.655
  740SOL    HW2 3120   5.468   3.548   2.767
  741SOL     OW 3121   2.345   1.101   3.277
  741SOL    HW1 3122   2.276   1.037   3.243
  741SOL    HW2 3123   2.300   1.181   3.315
  742SOL     OW 3124   2.004   6.950   1.861
  742SOL    HW1 3125   2.079   6.943   1.927
  742SOL    HW2 3126   1.971   0.020   1.858
  743SOL     OW 3127   1.013   6.324   3.470
  743SOL    HW1 3128   0.914   6.331   3.465
  743SOL    HW2 3129   1.041   6.313   3.565
  744SOL     OW 3130   4.761   1.912   0.129
  744SOL    HW1 3131   4.849   1.959   0.131
  744SOL    HW2 3132   4.722   1.916   0.037
  745SOL     OW 3133   2.536   6.485   5.193
  745SOL    HW1 3134   2.590   6.491   5.277
  745SOL    HW2 3135   2.598   6.488   5.114
  746SOL     OW 3136   6.641   4.796   5.622
  746SOL    HW1 3137   6.652   4.776   5.525
  746SOL    HW2 3138   6.581   4.728   5.664
  747SOL     OW 3139   5.067   6.003   3.169
  747SOL    HW1 3140   5.032   6.096   3.181
  747SOL    HW2 3141   5.013   5.940   3.225
  748SOL     OW 3142   5.382   5.379   2.195
  748SOL    HW1 3143   5.402   5.454   2.258
  748SOL    HW2 3144   5.333   5.415   2.115
  749SOL     OW 3145   4.970   3.732   3.630
  749SOL    HW1 3146   4.960   3.647   3.578
  749SOL    HW2 3147   5.000   3.805   3.569
  750SOL     OW 3148   2.351   2.194   1.783
  750SOL    HW1 3149   2.373   2.110   1.833
  750SOL    HW2 3150   2.375   2.183   1.687
  751SOL     OW 3151   4.325   0.178   0.506
  751SOL    HW1 3152   4.363   0.174   0.598
  751SOL    HW2 3153   4.285   0.268   0.491
  752SOL     OW 3154   3.612   2.404   5.349
  752SOL    HW1 3155   3.650   2.490   5.313
  752SOL    HW2 3156   3.516   2.417   5.372
  753SOL     OW 3157   3.647   3.920   5.215
  753SOL    HW1 3158   3.582   3.996   5.220
  753SOL    HW2 3159   3.622   3.850   5.282
  754SOL     OW 3160   5.736   0.136   0.274
  754SOL    HW1 3161   5.678   0.181   0.207
  754SOL    HW2 3162   5.679   0.099   0.348
  755SOL     OW 3163   4.112   4.635   5.271
  755SOL    HW1 3164   4.179   4.570   5.237
  755SOL    HW2 3165   4.142   4.729   5.251
  756SOL     OW 3166   1.956   5.368   6.313
  756SOL    HW1 3167   2.030   5.366   6.246
  756SOL    HW2 3168   1.970   5.295   6.380
  757SOL     OW 3169   2.503   6.229   2.947
  757SOL    HW1 3170   2.549   6.224   3.036
  757SOL    HW2 3171   2.460   6.141   2.928
  758SOL     OW 3172   3.196   1.061   3.891
  758SOL    HW1 3173   3.249   0.987   3.850
  758SOL    HW2 3174   3.222   1.148   3.849
  759SOL     OW 3175   0.166   2.786   4.083
  759SOL    HW1 3176   0.246   2.840   4.056
  759SOL    HW2 3177   0.189   2.689   4.082
  760SOL     OW 3178   6.047   5.456   3.227
  760SOL    HW1 3179   6.105   5.538   3.235
  760SOL    HW2 3180   6.094   5.378   3.268
  761SOL     OW 3181   3.938   3.237   5.986
  761SOL    HW1 3182   3.990   3.152   5.996
  761SOL    HW2 3183   3.874   3.228   5.910
  762SOL     OW 3184   3.226   5.801   3.883
  762SOL    HW1 3185   3.204   5.826   3.977
  762SOL    HW2 3186   3.190   5.710   3.862
  763SOL     OW 3187   5.858   0.587   0.167
  763SOL    HW1 3188   5.930   0.655   0.175
  763SOL    HW2 3189   5.888   0.501   0.207
  764SOL     OW 3190   5.448   0.465   5.647
  764SOL    HW1 3191   5.350   0.454   5.628
  764SOL    HW2 3192   5.490   0.375   5.660
  765SOL     OW 3193   6.694   6.472   0.567
  765SOL    HW1 3194   6.701   6.545   0.499
  765SOL    HW2 3195   6.637   6.398   0.530
  766SOL     OW 3196   2.287   2.309   5.090
  766SOL    HW1 3197   2.272   2.310   4.991
  766SOL    HW2 3198   2.272   2.400   5.127
  767SOL     OW 3199   6.763   6.173   4.429
  767SOL    HW1 3200   6.830   6.175   4.504
  767SOL    HW2 3201   6.693   6.104   4.448
  768SOL     OW 3202   2.234   5.235   2.108
  768SOL    HW1 3203   2.215   5.158   2.170
  768SOL    HW2 3204   2.162   5.303   2.117
  769SOL     OW 3205   2.781   2.314   4.781
  769SOL    HW1 3206   2.736   2.260   4.853
  769SOL    HW2 3207   2.871   2.274   4.761
  770SOL     OW 3208   1.391   4.369   5.507
  770SOL    HW1 3209   1.425   4.443   5.449
  770SOL    HW2 3210   1.316   4.403   5.564
  771SOL     OW 3211   1.095   5.716   3.321
  771SOL    HW1 3212   1.123   5.790   3.260
  771SOL    HW2 3213   1.171   5.689   3.379
  772SOL     OW 3214   5.465   4.356   0.772
  772SOL    HW1 3215   5.526   4.280   0.753
  772SOL    HW2 3216   5.508   4.441   0.742
  773SOL     OW 3217   0.679   3.856   3.527
  773SOL    HW1 3218   0.740   3.792   3.480
  773SOL    HW2 3219   0.733   3.925   3.574
  774SOL     OW 3220   2.122   0.047   3.101
  774SOL    HW1 3221   2.105   6.973   3.102
  774SOL    HW2 3222   2.165   0.074   3.187
  775SOL     OW 3223   2.003   4.938   2.612
  775SOL    HW1 3224   1.944   4.951   2.532
  775SOL    HW2 3225   1.947   4.939   2.695
  776SOL     OW 3226   3.014   5.058   6.682
  776SOL    HW1 3227   2.953   5.020   6.612
  776SOL    HW2 3228   3.001   5.157   6.687
  777SOL     OW 3229   2.390   4.248   0.256
  777SOL    HW1 3230   2.470   4.189   0.247
  777SOL    HW2 3231   2.328   4.209   0.324
  778SOL     OW 3232   3.166   6.714   0.530
  778SOL    HW1 3233   3.110   6.673   0.603
  778SOL    HW2 3234   3.253   6.666   0.524
  779SOL     OW 3235   6.918   2.261   3.568
  779SOL    HW1 3236   6.982   2.241   3.494
  779SOL    HW2 3237   6.825   2.239   3.537
  780SOL     OW 3238   0.631   1.874   4.083
  780SOL    HW1 3239   0.693   1.811   4.037
  780SOL    HW2 3240   0.680   1.958   4.105
  781SOL     OW 3241   0.724   4.470   0.325
  781SOL    HW1 3242   0.657   4.540   0.297
  781SOL    HW2 3243   0.757   4.421   0.245
  782SOL     OW 3244   1.727   3.304   5.150
  782SOL    HW1 3245   1.813   3.279   5.194
  782SOL    HW2 3246   1.714   3.403   5.156
  783SOL     OW 3247   6.551   4.731   6.277
  783SOL    HW1 3248   6.602   4.698   6.357
  783SOL    HW2 3249   6.518   4.653   6.224
  784SOL     OW 3250   2.625   6.346   0.642
  784SOL    HW1 3251   2.597   6.346   0.546
  784SOL    HW2 3252   2.666   6.257   0.664
  785SOL     OW 3253   1.342   6.850   4.672
  785SOL    HW1 3254   1.312   6.929   4.726
  785SOL    HW2 3255   1.433   6.822   4.701
  786SOL     OW 3256   6.596   1.216   3.637
  786SOL    HW1 3257   6.545   1.232   3.722
  786SOL    HW2 3258   6.685   1.260   3.643
  787SOL     OW 3259   2.327   0.279   0.753
  787SOL    HW1 3260   2.403   0.338   0.727
  787SOL    HW2 3261   2.361   0.188   0.778
  788SOL     OW 3262   2.443   2.185   1.501
  788SOL    HW1 3263   2.531   2.180   1.548
  788SOL    HW2 3264   2.431   2.275   1.460
  789SOL     OW 3265   4.240   4.957   1.986
  789SOL    HW1 3266   4.205   4.927   2.074
  789SOL    HW2 3267   4.309   4.892   1.953
  790SOL     OW 3268   0.481   2.078   2.655
  790SOL    HW1 3269   0.478   2.167   2.702
  790SOL    HW2 3270   0.556   2.024   2.691
  791SOL     OW 3271   2.970   5.633   4.388
  791SOL    HW1 3272   2.973   5.725   4.425
  791SOL    HW2 3273   2.909   5.576   4.443
  792SOL     OW 3274   1.519   0.689   0.308
  792SOL    HW1 3275   1.544   0.687   0.405
  792SOL    HW2 3276   1.535   0.780   0.271
  793SOL     OW 3277   2.771   6.057   3.907
  793SOL    HW1 3278   2.867   6.041   3.886
  793SOL    HW2 3279   2.725   6.090   3.825
  794SOL     OW 3280   3.468   3.299   2.839
  794SOL    HW1 3281   3.565   3.302   2.864
  794SOL    HW2 3282   3.458   3.251   2.752
  795SOL     OW 3283   3.471   0.375   6.134
  795SOL    HW1 3284   3.482   0.358   6.231
  795SOL    HW2 3285   3.442   0.470   6.120
  796SOL     OW 3286   1.307   3.295   6.939
  796SOL    HW1 3287   1.394   3.252   6.963
  796SOL    HW2 3288   1.325   3.384   6.896
  797SOL     OW 3289   4.815   0.097   0.651
  797SOL    HW1 3290   4.841   0.076   0.746
  797SOL    HW2 3291   4.734   0.045   0.626
  798SOL     OW 3292   4.341   6.725   0.793
  798SOL    HW1 3293   4.344   6.717   0.892
  798SOL    HW2 3294   4.246   6.733   0.762
  799SOL     OW 3295   2.164   2.327   5.754
  799SOL    HW1 3296   2.173   2.424   5.777
  799SOL    HW2 3297   2.254   2.289   5.732
  800SOL     OW 3298   6.211   3.208   2.586
  800SOL    HW1 3299   6.119   3.247   2.581
  800SOL    HW2 3300   6.226   3.150   2.506
  801SOL     OW 3301   2.386   5.328   5.928
  801SOL    HW1 3302   2.357   5.422   5.908
  801SOL    HW2 3303   2.486   5.323   5.923
  802SOL     OW 3304   5.228   2.589   6.293
  802SOL    HW1 3305   5.311   2.630   6.256
  802SOL    HW2 3306   5.241   2.490   6.301
  803SOL     OW 3307   2.536   1.182   5.081
  803SOL    HW1 3308   2.556   1.103   5.023
  803SOL    HW2 3309   2.534   1.153   5.177
  804SOL     OW 3310   5.412   0.444   2.462
  804SOL    HW1 3311   5.496   0.462   2.412
  804SOL    HW2 3312   5.377   0.354   2.437
  805SOL     OW 3313   3.518   0.751   3.184
  805SOL    HW1 3314   3.563   0.811   3.250
  805SOL    HW2 3315   3.422   0.742   3.208
  806SOL     OW 3316   2.391   5.867   5.946
  806SOL    HW1 3317   2.385   5.936   5.875
  806SOL    HW2 3318   2.463   5.891   6.011
  807SOL     OW 3319   1.103   6.107   6.251
  807SOL    HW1 3320   1.035   6.165   6.207
  807SOL    HW2 3321   1.104   6.125   6.350
  808SOL     OW 3322   5.827   3.101   6.562
  808SOL    HW1 3323   5.839   3.138   6.654
  808SOL    HW2 3324   5.797   3.175   6.500
  809SOL     OW 3325   2.211   4.706   6.981
  809SOL    HW1 3326   2.278   4.646   6.936
  809SOL    HW2 3327   2.161   4.758   6.913
  810SOL     OW 3328   3.673   3.317   6.942
  810SOL    HW1 3329   3.603   3.257   6.980
  810SOL    HW2 3330   3.657   3.330   6.845
  811SOL     OW 3331   5.812   4.918   4.499
  811SOL    HW1 3332   5.793   5.010   4.465
  811SOL    HW2 3333   5.790   4.913   4.596
  812SOL     OW 3334   0.813   3.121   2.115
  812SOL    HW1 3335   0.761   3.173   2.184
  812SOL    HW2 3336   0.851   3.184   2.047
  813SOL     OW 3337   1.131   2.059   4.431
  813SOL    HW1 3338   1.225   2.024   4.424
  813SOL    HW2 3339   1.083   2.012   4.504
  814SOL     OW 3340   0.365   5.094   3.025
  814SOL    HW1 3341   0.419   5.091   3.109
  814SOL    HW2 3342   0.402   5.027   2.959
  815SOL     OW 3343   4.789   2.051   4.441
  815SOL    HW1 3344   4.730   1.976   4.471
  815SOL    HW2 3345   4.884   2.032   4.468
  816SOL     OW 3346   5.336   4.799   6.465
  816SOL    HW1 3347   5.342   4.898   6.453
  816SOL    HW2 3348   5.373   4.774   6.555
  817SOL     OW 3349   1.338   4.097   6.717
  817SOL    HW1 3350   1.330   3.997   6.723
  817SOL    HW2 3351   1.280   4.139   6.787
  818SOL     OW 3352   6.469   2.272   4.945
  818SOL    HW1 3353   6.399   2.204   4.924
  818SOL    HW2 3354   6.559   2.236   4.922
  819SOL     OW 3355   4.616   2.669   1.495
  819SOL    HW1 3356   4.709   2.638   1.476
  819SOL    HW2 3357   4.619   2.743   1.563
  820SOL     OW 3358   2.218   2.133   4.743
  820SOL    HW1 3359   2.222   2.233   4.745
  820SOL    HW2 3360   2.263   2.097   4.825
  821SOL     OW 3361   5.269   3.828   5.462
  821SOL    HW1 3362   5.260   3.913   5.409
  821SOL    HW2 3363   5.331   3.843   5.539
  822SOL     OW 3364   0.755   4.180   3.169
  822SOL    HW1 3365   0.843   4.156   3.128
  822SOL    HW2 3366   0.770   4.220   3.260
  823SOL     OW 3367   0.919   3.338   5.355
  823SOL    HW1 3368   0.965   3.400   5.292
  823SOL    HW2 3369   0.987   3.298   5.417
  824SOL     OW 3370   5.748   1.160   5.973
  824SOL    HW1 3371   5.728   1.112   6.058
  824SOL    HW2 3372   5.803   1.242   5.993
  825SOL     OW 3373   5.878   5.343   1.134
  825SOL    HW1 3374   5.918   5.426   1.093
  825SOL    HW2 3375   5.908   5.263   1.083
  826SOL     OW 3376   3.795   2.015   6.977
  826SOL    HW1 3377   3.889   2.016   6.944
  826SOL    HW2 3378   3.768   1.922   7.000
  827SOL     OW 3379   3.935   4.109   4.997
  827SOL    HW1 3380   3.936   4.208   4.980
  827SOL    HW2 3381   3.980   4.090   5.084
  828SOL     OW 3382   6.413   5.895   5.856
  828SOL    HW1 3383   6.512   5.891   5.845
  828SOL    HW2 3384   6.385   5.987   5.882
  829SOL     OW 3385   3.220   3.612   2.614
  829SOL    HW1 3386   3.285   3.678   2.653
  829SOL    HW2 3387   3.193   3.547   2.685
  830SOL     OW 3388   6.293   4.368   0.308
  830SOL    HW1 3389   6.242   4.448   0.341
  830SOL    HW2 3390   6.382   4.365   0.353
  831SOL     OW 3391   4.453   0.152   1.380
  831SOL    HW1 3392   4.463   0.133   1.478
  831SOL    HW2 3393   4.468   0.250   1.364
  832SOL     OW 3394   2.788   1.992   4.887
  832SOL    HW1 3395   2.722   2.058   4.924
  832SOL    HW2 3396   2.879   2.013   4.924
  833SOL     OW 3397   2.817   2.230   6.762
  833SOL    HW1 3398   2.789   2.324   6.743
  833SOL    HW2 3399   2.755   2.166   6.716
  834SOL     OW 3400   5.567   3.218   6.918
  834SOL    HW1 3401   5.545   3.145   6.853
  834SOL    HW2 3402   5.483   3.253   6.958
  835SOL     OW 3403   0.558   6.997   4.037
  835SOL    HW1 3404   0.598   6.908   4.059
  835SOL    HW2 3405   0.575   7.018   3.940
  836SOL     OW 3406   3.876   1.184   4.387
  836SOL    HW1 3407   3.849   1.199   4.482
  836SOL    HW2 3408   3.965   1.139   4.383
  837SOL     OW 3409   1.682   0.602   0.571
  837SOL    HW1 3410   1.773   0.565   0.589
  837SOL    HW2 3411   1.616   0.562   0.634
  838SOL     OW 3412   1.814   5.116   3.699
  838SOL    HW1 3413   1.865   5.070   3.772
  838SOL    HW2 3414   1.760   5.190   3.737
  839SOL     OW 3415   1.235   1.998   0.392
  839SOL    HW1 3416   1.275   1.920   0.343
  839SOL    HW2 3417   1.139   2.008   0.366
  840SOL     OW 3418   5.369   5.222   6.836
  840SOL    HW1 3419   5.450   5.216   6.779
  840SOL    HW2 3420   5.368   5.147   6.902
  841SOL     OW 3421   3.422   4.622   6.832
  841SOL    HW1 3422   3.354   4.634   6.760
  841SOL    HW2 3423   3.509   4.661   6.802
  842SOL     OW 3424   3.588   6.389   0.061
  842SOL    HW1 3425   3.557   6.446   7.010
  842SOL    HW2 3426   3.674   6.344   0.037
  843SOL     OW 3427   1.325   1.251   2.110
  843SOL    HW1 3428   1.263   1.245   2.188
  843SOL    HW2 3429   1.331   1.346   2.079
  844SOL     OW 3430   6.387   0.800   1.753
  844SOL    HW1 3431   6.481   0.809   1.720
  844SOL    HW2 3432   6.327   0.779   1.676
  845SOL     OW 3433   3.593   0.981   2.208
  845SOL    HW1 3434   3.506   0.992   2.255
  845SOL    HW2 3435   3.578   0.968   2.110
  846SOL     OW 3436   2.723   1.932   0.727
  846SOL    HW1 3437   2.733   1.835   0.749
  846SOL    HW2 3438   2.632   1.963   0.755
  847SOL     OW 3439   2.824   4.239   1.372
  847SOL    HW1 3440   2.809   4.150   1.329
  847SOL    HW2 3441   2.906   4.281   1.333
  848SOL     OW 3442   6.819   5.757   0.450
  848SOL    HW1 3443   6.785   5.674   0.406
  848SOL    HW2 3444   6.835   5.739   0.547
  849SOL     OW 3445   6.095   3.615   6.530
  849SOL    HW1 3446   6.090   3.672   6.612
  849SOL    HW2 3447   6.172   3.551   6.539
  850SOL     OW 3448   1.069   0.583   5.076
  850SOL    HW1 3449   1.088   0.540   4.987
  850SOL    HW2 3450   1.155   0.612   5.117
  851SOL     OW 3451   6.297   3.266   6.219
  851SOL    HW1 3452   6.292   3.225   6.309
  851SOL    HW2 3453   6.339   3.202   6.155
  852SOL     OW 3454   0.793   4.028   2.434
  852SOL    HW1 3455   0.796   3.969   2.353
  852SOL    HW2 3456   0.698   4.052   2.453
  853SOL     OW 3457   2.783   2.532   6.889
  853SOL    HW1 3458   2.751   2.621   6.923
  853SOL    HW2 3459   2.734   2.459   6.937
  854SOL     OW 3460   5.561   6.886   6.529
  854SOL    HW1 3461   5.580   6.790   6.551
  854SOL    HW2 3462   5.462   6.901   6.530
  855SOL     OW 3463   5.792   1.300   0.448
  855SOL    HW1 3464   5.814   1.296   0.545
  855SOL    HW2 3465   5.870   1.266   0.395
  856SOL     OW 3466   2.018   5.789   1.026
  856SOL    HW1 3467   2.041   5.776   0.930
  856SOL    HW2 3468   2.101   5.781   1.081
  857SOL     OW 3469   6.301   5.493   5.800
  857SOL    HW1 3470   6.235   5.563   5.772
  857SOL    HW2 3471   6.290   5.412   5.743
  858SOL     OW 3472   4.933   3.425   0.222
  858SOL    HW1 3473   4.875   3.479   0.162
  858SOL    HW2 3474   4.930   3.463   0.314
  859SOL     OW 3475   4.545   6.441   5.569
  859SOL    HW1 3476   4.487   6.518   5.596
  859SOL    HW2 3477   4.606   6.416   5.644
  860SOL     OW 3478   5.372   3.459   5.793
  860SOL    HW1 3479   5.339   3.367   5.771
  860SOL    HW2 3480   5.294   3.520   5.806
  861SOL     OW 3481   2.250   6.029   2.207
  861SOL    HW1 3482   2.346   6.051   2.218
  861SOL    HW2 3483   2.239   5.965   2.130
  862SOL     OW 3484   0.407   4.063   3.492
  862SOL    HW1 3485   0.491   4.009   3.504
  862SOL    HW2 3486   0.424   4.139   3.430
  863SOL     OW 3487   6.890   0.643   0.192
  863SOL    HW1 3488   6.927   0.736   0.204
  863SOL    HW2 3489   6.801   0.648   0.148
  864SOL     OW 3490   5.767   6.937   4.714
  864SOL    HW1 3491   5.668   6.951   4.724
  864SOL    HW2 3492   5.799   6.874   4.784
  865SOL     OW 3493   1.796   6.251   5.086
  865SOL    HW1 3494   1.748   6.293   5.009
  865SOL    HW2 3495   1.800   6.315   5.162
  866SOL     OW 3496   3.467   6.308   2.073
  866SOL    HW1 3497   3.379   6.344   2.042
  866SOL    HW2 3498   3.533   6.382   2.079
  867SOL     OW 3499   5.915   2.343   6.954
  867SOL    HW1 3500   6.002   2.390   6.937
  867SOL    HW2 3501   5.932   2.251   6.989
  868SOL     OW 3502   0.046   1.878   2.482
  868SOL    HW1 3503   0.028   1.969   2.521
  868SOL    HW2 3504   0.130   1.841   2.521
  869SOL     OW 3505   6.676   3.998   3.528
  869SOL    HW1 3506   6.687   4.042   3.439
  869SOL    HW2 3507   6.586   4.021   3.566
  870SOL     OW 3508   3.662   5.135   2.072
  870SOL    HW1 3509   3.645   5.099   1.980
  870SOL    HW2 3510   3.656   5.061   2.139
  871SOL     OW 3511   4.184   1.949   3.103
  871SOL    HW1 3512   4.092   1.987   3.092
  871SOL    HW2 3513   4.177   1.853   3.130
  872SOL     OW 3514   6.832   2.919   5.257
  872SOL    HW1 3515   6.741   2.948   5.224
  872SOL    HW2 3516   6.850   2.961   5.345
  873SOL     OW 3517   4.871   6.701   6.018
  873SOL    HW1 3518   4.867   6.790   5.974
  873SOL    HW2 3519   4.803   6.640   5.977
  874SOL     OW 3520   4.474   4.357   0.427
  874SOL    HW1 3521   4.392   4.335   0.374
  874SOL    HW2 3522   4.480   4.456   0.439
  875SOL     OW 3523   5.486   5.497   0.496
  875SOL    HW1 3524   5.584   5.481   0.502
  875SOL    HW2 3525   5.448   5.444   0.419
  876SOL     OW 3526   6.889   6.740   1.153
  876SOL    HW1 3527   6.891   6.671   1.226
  876SOL    HW2 3528   6.801   6.788   1.154
  877SOL     OW 3529   2.728   3.566   6.634
  877SOL    HW1 3530   2.669   3.500   6.586
  877SOL    HW2 3531   2.671   3.633   6.682
  878SOL     OW 3532   4.106   6.752   4.216
  878SOL    HW1 3533   4.083   6.728   4.310
  878SOL    HW2 3534   4.035   6.720   4.154
  879SOL     OW 3535   5.880   0.446   0.523
  879SOL    HW1 3536   5.964   0.495   0.543
  879SOL    HW2 3537   5.828   0.432   0.607
  880SOL     OW 3538   3.054   3.236   2.992
  880SOL    HW1 3539   2.959   3.230   3.023
  880SOL    HW2 3540   3.094   3.145   2.985
  881SOL     OW 3541   4.099   1.568   7.007
  881SOL    HW1 3542   4.003   1.557   6.981
  881SOL    HW2 3543   4.126   1.492   0.042
  882SOL     OW 3544   1.471   3.571   4.213
  882SOL    HW1 3545   1.469   3.472   4.199
  882SOL    HW2 3546   1.536   3.594   4.286
  883SOL     OW 3547   2.923   0.114   2.680
  883SOL    HW1 3548   2.831   0.153   2.680
  883SOL    HW2 3549   2.968   0.134   2.593
  884SOL     OW 3550   4.758   3.370   5.518
  884SOL    HW1 3551   4.846   3.354   5.473
  884SOL    HW2 3552   4.728   3.464   5.499
  885SOL     OW 3553   3.995   2.442   6.023
  885SOL    HW1 3554   3.996   2.363   5.961
  885SOL    HW2 3555   3.942   2.420   6.104
  886SOL     OW 3556   3.512   0.206   6.830
  886SOL    HW1 3557   3.467   0.261   6.900
  886SOL    HW2 3558   3.468   0.117   6.824
  887SOL     OW 3559   4.435   1.703   3.903
  887SOL    HW1 3560   4.391   1.726   3.815
  887SOL    HW2 3561   4.521   1.754   3.911
  888SOL     OW 3562   0.006   6.985   3.458
  888SOL    HW1 3563   7.016   0.056   3.434
  888SOL    HW2 3564   0.042   6.935   3.378
  889SOL     OW 3565   1.052   3.614   0.241
  889SOL    HW1 3566   1.121   3.675   0.280
  889SOL    HW2 3567   1.097   3.535   0.200
  890SOL     OW 3568   2.531   5.509   4.091
  890SOL    HW1 3569   2.510   5.543   3.999
  890SOL    HW2 3570   2.628   5.522   4.110
  891SOL     OW 3571   5.960   5.573   1.006
  891SOL    HW1 3572   5.955   5.593   1.103
  891SOL    HW2 3573   5.880   5.611   0.960
  892SOL     OW 3574   3.174   4.838   6.344
  892SOL    HW1 3575   3.110   4.791   6.283
  892SOL    HW2 3576   3.164   4.802   6.437
  893SOL     OW 3577   2.742   6.565   2.790
  893SOL    HW1 3578   2.665   6.593   2.733
  893SOL    HW2 3579   2.769   6.641   2.849
  894SOL     OW 3580   1.546   3.749   1.579
  894SOL    HW1 3581   1.491   3.749   1.495
  894SOL    HW2 3582   1.607   3.670   1.578
  895SOL     OW 3583   0.752   6.298   3.482
  895SOL    HW1 3584   0.698   6.330   3.560
  895SOL    HW2 3585   0.690   6.272   3.407
  896SOL     OW 3586   6.380   6.394   5.465
  896SOL    HW1 3587   6.421   6.303   5.459
  896SOL    HW2 3588   6.379   6.423   5.561
  897SOL     OW 3589   5.450   0.602   6.766
  897SOL    HW1 3590   5.440   0.679   6.828
  897SOL    HW2 3591   5.364   0.552   6.759
  898SOL     OW 3592   4.169   5.894   3.226
  898SOL    HW1 3593   4.150   5.899   3.324
  898SOL    HW2 3594   4.118   5.965   3.178
  899SOL     OW 3595   6.870   4.891   6.627
  899SOL    HW1 3596   6.795   4.848   6.577
  899SOL    HW2 3597   6.877   4.988   6.601
  900SOL     OW 3598   5.743   5.944   0.545
  900SOL    HW1 3599   5.824   6.002   0.551
  900SOL    HW2 3600   5.770   5.853   0.513
  901SOL     OW 3601   1.356   0.930   2.091
  901SOL    HW1 3602   1.319   0.899   2.179
  901SOL    HW2 3603   1.339   1.027   2.080
  902SOL     OW 3604   6.168   4.270   1.533
  902SOL    HW1 3605   6.180   4.232   1.442
  902SOL    HW2 3606   6.253   4.312   1.564
  903SOL     OW 3607   6.736   2.831   0.275
  903SOL    HW1 3608   6.751   2.764   0.348
  903SOL    HW2 3609   6.738   2.923   0.313
  904SOL     OW 3610   3.096   1.755   2.636
  904SOL    HW1 3611   3.018   1.791   2.585
  904SOL    HW2 3612   3.157   1.706   2.573
  905SOL     OW 3613   6.145   2.486   6.917
  905SOL    HW1 3614   6.114   2.565   6.969
  905SOL    HW2 3615   6.176   2.515   6.827
  906SOL     OW 3616   6.600   3.228   6.683
  906SOL    HW1 3617   6.541   3.245   6.762
  906SOL    HW2 3618   6.650   3.142   6.697
  907SOL     OW 3619   4.959   3.757   6.590
  907SOL    HW1 3620   4.979   3.665   6.559
  907SOL    HW2 3621   4.930   3.755   6.686
  908SOL     OW 3622   2.817   4.714   2.529
  908SOL    HW1 3623   2.774   4.678   2.612
  908SOL    HW2 3624   2.898   4.767   2.554
  909SOL     OW 3625   5.325   5.064   6.499
  909SOL    HW1 3626   5.420   5.091   6.515
  909SOL    HW2 3627   5.278   5.137   6.449
  910SOL     OW 3628   2.643   3.331   1.198
  910SOL    HW1 3629   2.631   3.242   1.242
  910SOL    HW2 3630   2.560   3.355   1.148
  911SOL     OW 3631   1.160   5.470   6.774
  911SOL    HW1 3632   1.095   5.406   6.814
  911SOL    HW2 3633   1.114   5.557   6.756
  912SOL     OW 3634   4.786   2.020   2.713
  912SOL    HW1 3635   4.690   2.049   2.715
  912SOL    HW2 3636   4.795   1.935   2.765
  913SOL     OW 3637   5.023   0.093   3.447
  913SOL    HW1 3638   4.938   0.059   3.488
  913SOL    HW2 3639   5.073   0.016   3.408
  914SOL     OW 3640   2.576   0.035   0.314
  914SOL    HW1 3641   2.492   7.006   0.326
  914SOL    HW2 3642   2.565   0.124   0.360
  915SOL     OW 3643   6.205   6.128   0.521
  915SOL    HW1 3644   6.259   6.105   0.602
  915SOL    HW2 3645   6.264   6.125   0.440
  916SOL     OW 3646   0.489   2.377   2.214
  916SOL    HW1 3647   0.520   2.288   2.180
  916SOL    HW2 3648   0.438   2.424   2.141
  917SOL     OW 3649   6.842   0.130   0.654
  917SOL    HW1 3650   6.921   0.170   0.701
  917SOL    HW2 3651   6.874   0.073   0.579
  918SOL     OW 3652   1.613   5.466   0.667
  918SOL    HW1 3653   1.647   5.544   0.719
  918SOL    HW2 3654   1.675   5.447   0.591
  919SOL     OW 3655   5.447   1.567   4.603
  919SOL    HW1 3656   5.500   1.621   4.668
  919SOL    HW2 3657   5.460   1.470   4.622
  920SOL     OW 3658   2.719   4.706   2.253
  920SOL    HW1 3659   2.747   4.674   2.162
  920SOL    HW2 3660   2.771   4.657   2.323
  921SOL     OW 3661   5.186   5.653   4.679
  921SOL    HW1 3662   5.182   5.667   4.778
  921SOL    HW2 3663   5.153   5.735   4.632
  922SOL     OW 3664   3.982   3.782   3.664
  922SOL    HW1 3665   4.052   3.773   3.593
  922SOL    HW2 3666   4.026   3.801   3.752
  923SOL     OW 3667   2.226   3.292   5.710
  923SOL    HW1 3668   2.183   3.338   5.787
  923SOL    HW2 3669   2.174   3.312   5.626
  924SOL     OW 3670   0.065   3.656   2.938
  924SOL    HW1 3671   7.020   3.591   2.969
  924SOL    HW2 3672   0.036   3.696   2.851
  925SOL     OW 3673   5.947   1.712   0.493
  925SOL    HW1 3674   6.017   1.755   0.551
  925SOL    HW2 3675   5.861   1.706   0.544
  926SOL     OW 3676   0.651   1.364   2.142
  926SOL    HW1 3677   0.573   1.394   2.087
  926SOL    HW2 3678   0.726   1.338   2.083
  927SOL     OW 3679   5.739   4.113   3.544
  927SOL    HW1 3680   5.699   4.180   3.607
  927SOL    HW2 3681   5.730   4.021   3.582
  928SOL     OW 3682   2.852   5.080   6.911
  928SOL    HW1 3683   2.852   5.034   6.999
  928SOL    HW2 3684   2.923   5.040   6.852
  929SOL     OW 3685   6.846   1.444   5.497
  929SOL    HW1 3686   6.853   1.535   5.458
  929SOL    HW2 3687   6.775   1.392   5.449
  930SOL     OW 3688   5.550   5.409   5.720
  930SOL    HW1 3689   5.528   5.327   5.772
  930SOL    HW2 3690   5.482   5.480   5.739
  931SOL     OW 3691   6.335   2.708   2.972
  931SOL    HW1 3692   6.284   2.776   3.024
  931SOL    HW2 3693   6.372   2.638   3.034
  932SOL     OW 3694   3.504   0.457   3.448
  932SOL    HW1 3695   3.420   0.507   3.428
  932SOL    HW2 3696   3.486   0.387   3.517
  933SOL     OW 3697   1.486   4.927   1.910
  933SOL    HW1 3698   1.421   4.963   1.843
  933SOL    HW2 3699   1.510   4.833   1.887
  934SOL     OW 3700   1.951   4.641   6.730
  934SOL    HW1 3701   1.862   4.611   6.762
  934SOL    HW2 3702   1.950   4.648   6.630
  935SOL     OW 3703   5.887   3.255   3.976
  935SOL    HW1 3704   5.831   3.174   3.958
  935SOL    HW2 3705   5.915   3.256   4.072
  936SOL     OW 3706   1.651   0.329   6.200
  936SOL    HW1 3707   1.645   0.345   6.299
  936SOL    HW2 3708   1.570   0.367   6.156
  937SOL     OW 3709   4.709   1.387   5.664
  937SOL    HW1 3710   4.708   1.357   5.569
  937SOL    HW2 3711   4.729   1.309   5.724
  938SOL     OW 3712   5.399   5.596   4.211
  938SOL    HW1 3713   5.488   5.622   4.172
  938SOL    HW2 3714   5.326   5.624   4.149
  939SOL     OW 3715   0.297   6.792   5.378
  939SOL    HW1 3716   0.344   6.742   5.451
  939SOL    HW2 3717   0.199   6.797   5.399
  940SOL     OW 3718   1.869   5.073   0.216
  940SOL    HW1 3719   1.909   5.159   0.184
  940SOL    HW2 3720   1.833   5.086   0.308
  941SOL     OW 3721   3.323   0.506   6.556
  941SOL    HW1 3722   3.421   0.486   6.556
  941SOL    HW2 3723   3.278   0.452   6.485
  942SOL     OW 3724   0.331   5.144   0.491
  942SOL    HW1 3725   0.376   5.226   0.528
  942SOL    HW2 3726   0.327   5.150   0.392
  943SOL     OW 3727   2.865   5.689   3.012
  943SOL    HW1 3728   2.925   5.621   3.054
  943SOL    HW2 3729   2.771   5.654   3.012
  944SOL     OW 3730   0.125   6.551   4.348
  944SOL    HW1 3731   0.105   6.455   4.330
  944SOL    HW2 3732   0.090   6.576   4.439
  945SOL     OW 3733   0.619   5.565   6.987
  945SOL    HW1 3734   0.613   5.477   0.011
  945SOL    HW2 3735   0.706   5.571   6.939
  946SOL     OW 3736   4.864   3.218   3.574
  946SOL    HW1 3737   4.881   3.273   3.656
  946SOL    HW2 3738   4.865   3.277   3.494
  947SOL     OW 3739   3.631   4.171   4.121
  947SOL    HW1 3740   3.715   4.161   4.175
  947SOL    HW2 3741   3.639   4.120   4.036
  948SOL     OW 3742   3.916   0.344   2.739
  948SOL    HW1 3743   3.975   0.402   2.683
  948SOL    HW2 3744   3.868   0.401   2.806
  949SOL     OW 3745   2.491   6.826   6.336
  949SOL    HW1 3746   2.419   6.895   6.330
  949SOL    HW2 3747   2.526   6.822   6.430
  950SOL     OW 3748   0.034   6.963   1.832
  950SOL    HW1 3749   0.062   0.016   1.776
  950SOL    HW2 3750   0.109   6.936   1.893
  951SOL     OW 3751   2.301   6.808   3.433
  951SOL    HW1 3752   2.269   6.866   3.358
  951SOL    HW2 3753   2.241   6.819   3.512
  952SOL     OW 3754   3.303   1.132   1.873
  952SOL    HW1 3755   3.264   1.206   1.817
  952SOL    HW2 3756   3.381   1.168   1.924
  953SOL     OW 3757   6.212   4.506   5.754
  953SOL    HW1 3758   6.229   4.602   5.731
  953SOL    HW2 3759   6.124   4.477   5.716
  954SOL     OW 3760   4.713   6.259   2.456
  954SOL    HW1 3761   4.713   6.352   2.494
  954SOL    HW2 3762   4.781   6.204   2.504
  955SOL     OW 3763   1.333   4.713   6.765
  955SOL    HW1 3764   1.410   4.753   6.815
  955SOL    HW2 3765   1.343   4.733   6.667
  956SOL     OW 3766   5.750   0.430   1.157
  956SOL    HW1 3767   5.656   0.460   1.176
  956SOL    HW2 3768   5.803   0.508   1.123
  957SOL     OW 3769   5.772   1.462   3.194
  957SOL    HW1 3770   5.696   1.509   3.238
  957SOL    HW2 3771   5.858   1.484   3.240
  958SOL     OW 3772   5.434   0.131   1.705
  958SOL    HW1 3773   5.494   0.182   1.643
  958SOL    HW2 3774   5.341   0.129   1.666
  959SOL     OW 3775   4.346   6.380   4.424
  959SOL    HW1 3776   4.338   6.433   4.340
  959SOL    HW2 3777   4.274   6.408   4.488
  960SOL     OW 3778   1.041   7.005   6.919
  960SOL    HW1 3779   1.022   0.060   6.862
  960SOL    HW2 3780   0.954   6.962   6.945
  961SOL     OW 3781   3.646   6.895   3.242
  961SOL    HW1 3782   3.578   6.869   3.174
  961SOL    HW2 3783   3.655   6.994   3.245
  962SOL     OW 3784   6.521   0.408   5.281
  962SOL    HW1 3785   6.470   0.461   5.349
  962SOL    HW2 3786   6.484   0.427   5.190
  963SOL     OW 3787   5.838   3.257   0.898
  963SOL    HW1 3788   5.883   3.237   0.985
  963SOL    HW2 3789   5.840   3.356   0.882
  964SOL     OW 3790   4.844   4.441   5.388
  964SOL    HW1 3791   4.938   4.440   5.354
  964SOL    HW2 3792   4.837   4.505   5.464
  965SOL     OW 3793   6.065   3.098   3.477
  965SOL    HW1 3794   6.042   3.004   3.452
  965SOL    HW2 3795   6.023   3.121   3.564
  966SOL     OW 3796   4.655   2.308   4.556
  966SOL    HW1 3797   4.751   2.302   4.531
  966SOL    HW2 3798   4.618   2.397   4.528
  967SOL     OW 3799   5.064   4.102   6.239
  967SOL    HW1 3800   4.968   4.111   6.210
  967SOL    HW2 3801   5.068   4.056   6.327
  968SOL     OW 3802   3.344   0.632   1.725
  968SOL    HW1 3803   3.430   0.654   1.680
  968SOL    HW2 3804   3.267   0.660   1.667
  969SOL     OW 3805   3.800   4.424   6.231
  969SOL    HW1 3806   3.812   4.522   6.215
  969SOL    HW2 3807   3.888   4.378   6.224
  970SOL     OW 3808   6.408   0.030   6.325
  970SOL    HW1 3809   6.401   0.129   6.308
  970SOL    HW2 3810   6.326   7.023   6.373
  971SOL     OW 3811   5.807   4.543   2.609
  971SOL    HW1 3812   5.838   4.625   2.657
  971SOL    HW2 3813   5.710   4.551   2.589
  972SOL     OW 3814   7.021   3.048   0.764
  972SOL    HW1 3815   6.989   3.136   0.728
  972SOL    HW2 3816   7.004   3.044   0.862
  973SOL     OW 3817   6.809   3.591   6.092
  973SOL    HW1 3818   6.771   3.660   6.154
  973SOL    HW2 3819   6.906   3.610   6.077
  974SOL     OW 3820   6.896   5.203   3.776
  974SOL    HW1 3821   6.944   5.120   3.747
  974SOL    HW2 3822   6.829   5.228   3.706
  975SOL     OW 3823   2.430   0.068   2.153
  975SOL    HW1 3824   2.412   0.106   2.244
  975SOL    HW2 3825   2.516   0.015   2.156
  976SOL     OW 3826   6.288   3.442   3.132
  976SOL    HW1 3827   6.217   3.394   3.082
  976SOL    HW2 3828   6.341   3.499   3.070
  977SOL     OW 3829   0.190   0.872   2.427
  977SOL    HW1 3830   0.123   0.939   2.460
  977SOL    HW2 3831   0.159   0.780   2.451
  978SOL     OW 3832   5.417   3.214   2.053
  978SOL    HW1 3833   5.504   3.186   2.011
  978SOL    HW2 3834   5.435   3.283   2.124
  979SOL     OW 3835   0.778   4.176   6.607
  979SOL    HW1 3836   0.773   4.084   6.646
  979SOL    HW2 3837   0.766   4.171   6.508
  980SOL     OW 3838   3.015   1.672   4.614
  980SOL    HW1 3839   3.112   1.696   4.612
  980SOL    HW2 3840   2.978   1.692   4.705
  981SOL     OW 3841   6.708   6.470   5.259
  981SOL    HW1 3842   6.763   6.525   5.321
  981SOL    HW2 3843   6.642   6.529   5.212
  982SOL     OW 3844   6.187   0.623   5.689
  982SOL    HW1 3845   6.184   0.681   5.770
  982SOL    HW2 3846   6.098   0.577   5.678
  983SOL     OW 3847   0.299   4.975   4.797
  983SOL    HW1 3848   0.368   5.004   4.731
  983SOL    HW2 3849   0.224   4.929   4.749
  984SOL     OW 3850   0.656   2.534   3.205
  984SOL    HW1 3851   0.682   2.483   3.123
  984SOL    HW2 3852   0.699   2.491   3.285
  985SOL     OW 3853   6.432   4.735   5.293
  985SOL    HW1 3854   6.363   4.739   5.221
  985SOL    HW2 3855   6.497   4.810   5.281
  986SOL     OW 3856   5.396   4.741   1.065
  986SOL    HW1 3857   5.356   4.651   1.048
  986SOL    HW2 3858   5.414   4.752   1.163
  987SOL     OW 3859   5.252   4.705   4.197
  987SOL    HW1 3860   5.222   4.801   4.195
  987SOL    HW2 3861   5.226   4.661   4.111
  988SOL     OW 3862   2.674   4.430   1.477
  988SOL    HW1 3863   2.715   4.487   1.548
  988SOL    HW2 3864   2.732   4.349   1.461
  989SOL     OW 3865   0.551   1.704   0.976
  989SOL    HW1 3866   0.588   1.763   0.905
  989SOL    HW2 3867   0.539   1.611   0.940
  990SOL     OW 3868   3.654   0.150   3.757
  990SOL    HW1 3869   3.622   0.179   3.847
  990SOL    HW2 3870   3.587   0.180   3.688
  991SOL     OW 3871   7.005   5.163   3.392
  991SOL    HW1 3872   6.951   5.090   3.350
  991SOL    HW2 3873   0.009   5.136   3.484
  992SOL     OW 3874   0.359   2.694   0.861
  992SOL    HW1 3875   0.328   2.789   0.863
  992SOL    HW2 3876   0.407   2.676   0.775
  993SOL     OW 3877   1.035   5.006   0.400
  993SOL    HW1 3878   0.965   4.978   0.467
  993SOL    HW2 3879   1.083   5.087   0.434
  994SOL     OW 3880   3.289   6.380   0.072
  994SOL    HW1 3881   3.224   6.314   0.035
  994SOL    HW2 3882   3.335   6.427   7.022
  995SOL     OW 3883   5.906   3.482   5.379
  995SOL    HW1 3884   5.911   3.581   5.395
  995SOL    HW2 3885   5.813   3.457   5.352
  996SOL     OW 3886   3.645   6.227   5.818
  996SOL    HW1 3887   3.695   6.249   5.902
  996SOL    HW2 3888   3.678   6.284   5.744
  997SOL     OW 3889   1.776   6.323   4.000
  997SOL    HW1 3890   1.806   6.325   3.904
  997SOL    HW2 3891   1.704   6.254   4.010
  998SOL     OW 3892   6.515   0.559   6.507
  998SOL    HW1 3893   6.486   0.527   6.597
  998SOL    HW2 3894   6.551   0.483   6.454
  999SOL     OW 3895   4.675   4.317   2.489
  999SOL    HW1 3896   4.595   4.377   2.494
  999SOL    HW2 3897   4.745   4.350   2.553
 1000SOL     OW 3898   4.389   2.046   1.130
 1000SOL    HW1 3899   4.430   2.082   1.214
 1000SOL    HW2 3900   4.456   2.051   1.056
 1001SOL     OW 3901   3.576   6.263   2.485
 1001SOL    HW1 3902   3.491   6.221   2.518
 1001SOL    HW2 3903   3.586   6.354   2.524
 1002SOL     OW 3904   4.994   2.373   0.881
 1002SOL    HW1 3905   5.074   2.392   0.823
 1002SOL    HW2 3906   5.025   2.338   0.970
 1003SOL     OW 3907   0.513   0.367   3.368
 1003SOL    HW1 3908   0.434   0.307   3.381
 1003SOL    HW2 3909   0.586   0.318   3.322
 1004SOL     OW 3910   5.626   1.775   3.598
 1004SOL    HW1 3911   5.553   1.751   3.662
 1004SOL    HW2 3912   5.651   1.871   3.609
 1005SOL     OW 3913   1.151   4.427   2.691
 1005SOL    HW1 3914   1.071   4.368   2.700
 1005SOL    HW2 3915   1.126   4.511   2.645
 1006SOL     OW 3916   2.771   3.643   0.929
 1006SOL    HW1 3917   2.750   3.621   1.024
 1006SOL    HW2 3918   2.687   3.642   0.875
 1007SOL     OW 3919   4.876   0.808   6.839
 1007SOL    HW1 3920   4.974   0.789   6.853
 1007SOL    HW2 3921   4.853   0.791   6.744
 1008SOL     OW 3922   7.020   4.794   5.415
 1008SOL    HW1 3923   0.010   4.867   5.482
 1008SOL    HW2 3924   0.078   4.782   5.360
 1009SOL     OW 3925   6.651   5.332   6.488
 1009SOL    HW1 3926   6.633   5.358   6.582
 1009SOL    HW2 3927   6.575   5.277   6.454
 1010SOL     OW 3928   2.856   3.222   0.788
 1010SOL    HW1 3929   2.827   3.137   0.831
 1010SOL    HW2 3930   2.948   3.246   0.819
 1011SOL     OW 3931   6.387   5.362   2.332
 1011SOL    HW1 3932   6.414   5.295   2.401
 1011SOL    HW2 3933   6.386   5.453   2.372
 1012SOL     OW 3934   4.742   0.456   3.377
 1012SOL    HW1 3935   4.770   0.361   3.361
 1012SOL    HW2 3936   4.796   0.495   3.451
 1013SOL     OW 3937   0.096   6.963   6.709
 1013SOL    HW1 3938   0.085   7.009   6.797
 1013SOL    HW2 3939   0.017   6.983   6.651
 1014SOL     OW 3940   0.987   4.677   5.039
 1014SOL    HW1 3941   1.054   4.708   5.107
 1014SOL    HW2 3942   1.030   4.674   4.949
 1015SOL     OW 3943   3.068   6.246   7.019
 1015SOL    HW1 3944   3.002   6.259   0.069
 1015SOL    HW2 3945   3.039   6.167   6.964
 1016SOL     OW 3946   6.006   4.286   1.787
 1016SOL    HW1 3947   5.949   4.367   1.799
 1016SOL    HW2 3948   6.048   4.289   1.696
 1017SOL     OW 3949   2.339   1.930   2.259
 1017SOL    HW1 3950   2.426   1.900   2.296
 1017SOL    HW2 3951   2.265   1.906   2.323
 1018SOL     OW 3952   6.677   6.027   3.747
 1018SOL    HW1 3953   6.669   6.104   3.810
 1018SOL    HW2 3954   6.767   5.986   3.756
 1019SOL     OW 3955   6.579   4.772   0.671
 1019SOL    HW1 3956   6.627   4.760   0.584
 1019SOL    HW2 3957   6.645   4.775   0.746
 1020SOL     OW 3958   6.237   0.773   0.831
 1020SOL    HW1 3959   6.208   0.864   0.799
 1020SOL    HW2 3960   6.325   0.750   0.788
 1021SOL     OW 3961   7.011   6.021   1.196
 1021SOL    HW1 3962   0.030   6.016   1.106
 1021SOL    HW2 3963   6.974   6.113   1.210
 1022SOL     OW 3964   2.419   5.827   6.830
 1022SOL    HW1 3965   2.345   5.882   6.867
 1022SOL    HW2 3966   2.385   5.768   6.757
 1023SOL     OW 3967   0.717   1.781   3.156
 1023SOL    HW1 3968   0.726   1.707   3.222
 1023SOL    HW2 3969   0.791   1.847   3.171
 1024SOL     OW 3970   1.920   2.191   4.740
 1024SOL    HW1 3971   2.009   2.158   4.769
 1024SOL    HW2 3972   1.876   2.121   4.683
 1025SOL     OW 3973   4.768   3.520   0.601
 1025SOL    HW1 3974   4.800   3.435   0.559
 1025SOL    HW2 3975   4.744   3.586   0.530
 1026SOL     OW 3976   3.278   2.757   0.771
 1026SOL    HW1 3977   3.262   2.855   0.759
 1026SOL    HW2 3978   3.323   2.742   0.859
 1027SOL     OW 3979   0.777   6.639   0.759
 1027SOL    HW1 3980   0.702   6.592   0.712
 1027SOL    HW2 3981   0.754   6.737   0.768
 1028SOL     OW 3982   1.427   6.186   2.663
 1028SOL    HW1 3983   1.432   6.255   2.591
 1028SOL    HW2 3984   1.370   6.110   2.632
 1029SOL     OW 3985   0.889   0.855   6.025
 1029SOL    HW1 3986   0.830   0.931   6.053
 1029SOL    HW2 3987   0.967   0.849   6.088
 1030SOL     OW 3988   3.580   2.921   1.233
 1030SOL    HW1 3989   3.642   2.895   1.159
 1030SOL    HW2 3990   3.616   3.000   1.281
 1031SOL     OW 3991   3.261   3.344   1.181
 1031SOL    HW1 3992   3.187   3.281   1.207
 1031SOL    HW2 3993   3.235   3.437   1.208
 1032SOL     OW 3994   2.367   1.970   6.033
 1032SOL    HW1 3995   2.282   2.022   6.028
 1032SOL    HW2 3996   2.348   1.880   6.074
 1033SOL     OW 3997   1.047   6.325   2.007
 1033SOL    HW1 3998   1.129   6.283   1.968
 1033SOL    HW2 3999   0.968   6.267   1.988
 1034SOL     OW 4000   3.143   0.206   4.186
 1034SOL    HW1 4001   3.214   0.136   4.177
 1034SOL    HW2 4002   3.137   0.235   4.281
 1035SOL     OW 4003   1.095   1.891   5.770
 1035SOL    HW1 4004   1.131   1.847   5.853
 1035SOL    HW2 4005   1.153   1.868   5.693
 1036SOL     OW 4006   5.298   1.730   1.144
 1036SOL    HW1 4007   5.202   1.745   1.166
 1036SOL    HW2 4008   5.324   1.637   1.172
 1037SOL     OW 4009   1.423   2.762   2.221
 1037SOL    HW1 4010   1.411   2.862   2.222
 1037SOL    HW2 4011   1.473   2.736   2.138
 1038SOL     OW 4012   2.812   6.026   0.274
 1038SOL    HW1 4013   2.848   6.114   0.242
 1038SOL    HW2 4014   2.725   6.007   0.230
 1039SOL     OW 4015   3.794   3.019   3.740
 1039SOL    HW1 4016   3.695   3.008   3.738
 1039SOL    HW2 4017   3.833   3.003   3.649
 1040SOL     OW 4018   3.656   0.863   2.969
 1040SOL    HW1 4019   3.625   0.778   3.011
 1040SOL    HW2 4020   3.645   0.938   3.035
 1041SOL     OW 4021   6.934   5.756   6.382
 1041SOL    HW1 4022   0.007   5.779   6.375
 1041SOL    HW2 4023   6.891   5.817   6.448
 1042SOL     OW 4024   5.470   4.934   2.797
 1042SOL    HW1 4025   5.466   4.949   2.896
 1042SOL    HW2 4026   5.475   5.023   2.751
 1043SOL     OW 4027   3.025   2.194   3.538
 1043SOL    HW1 4028   3.105   2.189   3.478
 1043SOL    HW2 4029   3.024   2.115   3.599
 1044SOL     OW 4030   5.298   4.888   1.949
 1044SOL    HW1 4031   5.286   4.948   2.028
 1044SOL    HW2 4032   5.354   4.934   1.880
 1045SOL     OW 4033   2.153   0.938   3.144
 1045SOL    HW1 4034   2.170   0.841   3.160
 1045SOL    HW2 4035   2.060   0.949   3.108
 1046SOL     OW 4036   3.234   1.216   0.897
 1046SOL    HW1 4037   3.236   1.134   0.839
 1046SOL    HW2 4038   3.181   1.287   0.853
 1047SOL     OW 4039   3.673   6.387   3.802
 1047SOL    HW1 4040   3.742   6.370   3.731
 1047SOL    HW2 4041   3.702   6.344   3.887
 1048SOL     OW 4042   1.462   6.434   2.200
 1048SOL    HW1 4043   1.367   6.435   2.231
 1048SOL    HW2 4044   1.495   6.340   2.193
 1049SOL     OW 4045   4.430   6.179   5.283
 1049SOL    HW1 4046   4.411   6.082   5.293
 1049SOL    HW2 4047   4.350   6.232   5.312
 1050SOL     OW 4048   3.474   5.267   3.032
 1050SOL    HW1 4049   3.530   5.272   2.949
 1050SOL    HW2 4050   3.454   5.360   3.064
 1051SOL     OW 4051   1.035   6.863   6.304
 1051SOL    HW1 4052   0.992   6.922   6.372
 1051SOL    HW2 4053   0.999   6.886   6.213
 1052SOL     OW 4054   3.490   0.870   6.991
 1052SOL    HW1 4055   3.395   0.844   7.007
 1052SOL    HW2 4056   3.507   0.876   6.893
 1053SOL     OW 4057   5.535   2.535   3.110
 1053SOL    HW1 4058   5.515   2.437   3.114
 1053SOL    HW2 4059   5.473   2.579   3.046
 1054SOL     OW 4060   3.119   4.830   5.906
 1054SOL    HW1 4061   3.132   4.912   5.962
 1054SOL    HW2 4062   3.131   4.748   5.962
 1055SOL     OW 4063   5.127   6.231   6.484
 1055SOL    HW1 4064   5.222   6.259   6.500
 1055SOL    HW2 4065   5.100   6.165   6.554
 1056SOL     OW 4066   3.132   3.676   6.330
 1056SOL    HW1 4067   3.149   3.584   6.365
 1056SOL    HW2 4068   3.035   3.696   6.335
 1057SOL     OW 4069   2.670   2.212   0.846
 1057SOL    HW1 4070   2.770   2.214   0.852
 1057SOL    HW2 4071   2.640   2.283   0.782
 1058SOL     OW 4072   2.319   2.651   2.363
 1058SOL    HW1 4073   2.302   2.748   2.342
 1058SOL    HW2 4074   2.381   2.613   2.295
 1059SOL     OW 4075   2.751   6.621   2.011
 1059SOL    HW1 4076   2.711   6.565   2.084
 1059SOL    HW2 4077   2.704   6.603   1.925
 1060SOL     OW 4078   5.718   6.291   5.590
 1060SOL    HW1 4079   5.735   6.360   5.660
 1060SOL    HW2 4080   5.800   6.282   5.532
 1061SOL     OW 4081   0.138   3.781   0.346
 1061SOL    HW1 4082   0.226   3.742   0.370
 1061SOL    HW2 4083   0.151   3.866   0.296
 1062SOL     OW 4084   3.671   6.465   4.979
 1062SOL    HW1 4085   3.745   6.429   5.036
 1062SOL    HW2 4086   3.627   6.389   4.929
 1063SOL     OW 4087   2.971   6.558   6.063
 1063SOL    HW1 4088   2.998   6.471   6.103
 1063SOL    HW2 4089   3.021   6.632   6.107
 1064SOL     OW 4090   1.584   3.474   0.559
 1064SOL    HW1 4091   1.679   3.497   0.581
 1064SOL    HW2 4092   1.534   3.455   0.643
 1065SOL     OW 4093   4.322   1.094   4.238
 1065SOL    HW1 4094   4.399   1.108   4.176
 1065SOL    HW2 4095   4.248   1.048   4.189
 1066SOL     OW 4096   5.062   6.896   1.814
 1066SOL    HW1 4097   5.069   6.807   1.770
 1066SOL    HW2 4098   4.977   6.940   1.784
 1067SOL     OW 4099   2.432   1.247   0.357
 1067SOL    HW1 4100   2.493   1.299   0.298
 1067SOL    HW2 4101   2.474   1.159   0.378
 1068SOL     OW 4102   6.375   3.399   1.516
 1068SOL    HW1 4103   6.457   3.443   1.550
 1068SOL    HW2 4104   6.381   3.300   1.532
 1069SOL     OW 4105   6.644   4.003   1.676
 1069SOL    HW1 4106   6.597   3.960   1.599
 1069SOL    HW2 4107   6.578   4.050   1.734
 1070SOL     OW 4108   0.885   0.009   2.024
 1070SOL    HW1 4109   0.919   0.089   1.976
 1070SOL    HW2 4110   0.961   6.975   2.052
 1071SOL     OW 4111   6.808   3.023   5.746
 1071SOL    HW1 4112   6.901   3.027   5.783
 1071SOL    HW2 4113   6.806   2.959   5.668
 1072SOL     OW 4114   2.366   1.213   1.967
 1072SOL    HW1 4115   2.304   1.286   1.940
 1072SOL    HW2 4116   2.314   1.139   2.010
 1073SOL     OW 4117   4.881   1.787   3.138
 1073SOL    HW1 4118   4.969   1.747   3.162
 1073SOL    HW2 4119   4.879   1.883   3.166
 1074SOL     OW 4120   2.747   4.624   1.655
 1074SOL    HW1 4121   2.793   4.594   1.739
 1074SOL    HW2 4122   2.804   4.691   1.608
 1075SOL     OW 4123   5.627   3.451   5.321
 1075SOL    HW1 4124   5.628   3.542   5.279
 1075SOL    HW2 4125   5.532   3.422   5.334
 1076SOL     OW 4126   2.209   4.013   4.698
 1076SOL    HW1 4127   2.220   4.093   4.638
 1076SOL    HW2 4128   2.238   4.037   4.790
 1077SOL     OW 4129   0.420   6.814   0.103
 1077SOL    HW1 4130   0.337   6.760   0.096
 1077SOL    HW2 4131   0.442   6.853   0.013
 1078SOL     OW 4132   6.652   6.654   4.135
 1078SOL    HW1 4133   6.597   6.589   4.082
 1078SOL    HW2 4134   6.708   6.708   4.073
 1079SOL     OW 4135   0.726   6.760   2.537
 1079SOL    HW1 4136   0.662   6.837   2.526
 1079SOL    HW2 4137   0.724   6.729   2.633
 1080SOL     OW 4138   2.631   5.289   6.268
 1080SOL    HW1 4139   2.653   5.305   6.365
 1080SOL    HW2 4140   2.710   5.313   6.212
 1081SOL     OW 4141   7.001   5.500   4.298
 1081SOL    HW1 4142   6.983   5.582   4.352
 1081SOL    HW2 4143   6.932   5.431   4.318
 1082SOL     OW 4144   4.935   6.615   6.293
 1082SOL    HW1 4145   4.915   6.662   6.207
 1082SOL    HW2 4146   4.879   6.654   6.366
 1083SOL     OW 4147   5.114   4.319   1.304
 1083SOL    HW1 4148   5.185   4.388   1.291
 1083SOL    HW2 4149   5.043   4.331   1.235
 1084SOL     OW 4150   6.785   0.535   5.536
 1084SOL    HW1 4151   6.759   0.440   5.520
 1084SOL    HW2 4152   6.857   0.561   5.471
 1085SOL     OW 4153   1.390   3.900   4.499
 1085SOL    HW1 4154   1.434   3.989   4.511
 1085SOL    HW2 4155   1.366   3.887   4.403
 1086SOL     OW 4156   5.801   5.126   0.912
 1086SOL    HW1 4157   5.726   5.072   0.949
 1086SOL    HW2 4158   5.886   5.100   0.957
 1087SOL     OW 4159   3.272   0.316   5.415
 1087SOL    HW1 4160   3.340   0.384   5.442
 1087SOL    HW2 4161   3.190   0.362   5.381
 1088SOL     OW 4162   6.865   4.935   3.583
 1088SOL    HW1 4163   6.831   4.952   3.491
 1088SOL    HW2 4164   6.952   4.885   3.577
 1089SOL     OW 4165   6.424   4.116   4.161
 1089SOL    HW1 4166   6.511   4.136   4.207
 1089SOL    HW2 4167   6.424   4.020   4.131
 1090SOL     OW 4168   5.253   1.753   4.901
 1090SOL    HW1 4169   5.265   1.753   5.000
 1090SOL    HW2 4170   5.174   1.808   4.877
 1091SOL     OW 4171   2.336   2.708   3.534
 1091SOL    HW1 4172   2.386   2.650   3.597
 1091SOL    HW2 4173   2.317   2.657   3.450
 1092SOL     OW 4174   0.791   5.669   1.258
 1092SOL    HW1 4175   0.855   5.595   1.241
 1092SOL    HW2 4176   0.804   5.704   1.351
 1093SOL     OW 4177   1.705   6.806   2.510
 1093SOL    HW1 4178   1.667   6.736   2.451
 1093SOL    HW2 4179   1.772   6.766   2.572
 1094SOL     OW 4180   1.118   0.295   3.050
 1094SOL    HW1 4181   1.088   0.241   3.128
 1094SOL    HW2 4182   1.218   0.290   3.042
 1095SOL     OW 4183   5.930   3.266   0.103
 1095SOL    HW1 4184   5.948   3.173   0.135
 1095SOL    HW2 4185   5.836   3.291   0.123
 1096SOL     OW 4186   2.852   5.560   1.658
 1096SOL    HW1 4187   2.755   5.545   1.674
 1096SOL    HW2 4188   2.872   5.658   1.668
 1097SOL     OW 4189   3.477   5.438   4.688
 1097SOL    HW1 4190   3.548   5.478   4.746
 1097SOL    HW2 4191   3.518   5.370   4.627
 1098SOL     OW 4192   6.326   4.882   1.086
 1098SOL    HW1 4193   6.237   4.837   1.093
 1098SOL    HW2 4194   6.332   4.955   1.154
 1099SOL     OW 4195   4.710   0.525   5.456
 1099SOL    HW1 4196   4.753   0.436   5.465
 1099SOL    HW2 4197   4.641   0.536   5.527
 1100SOL     OW 4198   3.314   1.850   3.845
 1100SOL    HW1 4199   3.302   1.763   3.797
 1100SOL    HW2 4200   3.277   1.924   3.790
 1101SOL     OW 4201   6.379   3.062   6.039
 1101SOL    HW1 4202   6.412   2.977   6.081
 1101SOL    HW2 4203   6.297   3.044   5.986
 1102SOL     OW 4204   2.933   1.342   4.188
 1102SOL    HW1 4205   2.916   1.372   4.282
 1102SOL    HW2 4206   2.854   1.365   4.132
 1103SOL     OW 4207   2.566   0.319   6.505
 1103SOL    HW1 4208   2.561   0.391   6.574
 1103SOL    HW2 4209   2.644   0.259   6.524
 1104SOL     OW 4210   0.585   3.447   4.050
 1104SOL    HW1 4211   0.499   3.460   4.099
 1104SOL    HW2 4212   0.629   3.363   4.082
 1105SOL     OW 4213   5.603   0.823   5.799
 1105SOL    HW1 4214   5.696   0.813   5.763
 1105SOL    HW2 4215   5.538   0.823   5.723
 1106SOL     OW 4216   0.577   1.960   0.737
 1106SOL    HW1 4217   0.513   1.901   0.688
 1106SOL    HW2 4218   0.540   2.053   0.740
 1107SOL     OW 4219   1.165   1.367   0.208
 1107SOL    HW1 4220   1.201   1.310   0.282
 1107SOL    HW2 4221   1.065   1.365   0.210
 1108SOL     OW 4222   2.606   6.314   4.232
 1108SOL    HW1 4223   2.699   6.304   4.196
 1108SOL    HW2 4224   2.544   6.254   4.182
 1109SOL     OW 4225   4.828   1.614   4.039
 1109SOL    HW1 4226   4.886   1.628   4.119
 1109SOL    HW2 4227   4.775   1.697   4.021
 1110SOL     OW 4228   3.017   0.665   2.506
 1110SOL    HW1 4229   2.943   0.731   2.517
 1110SOL    HW2 4230   2.979   0.572   2.509
 1111SOL     OW 4231   5.336   4.010   6.368
 1111SOL    HW1 4232   5.400   4.071   6.415
 1111SOL    HW2 4233   5.256   3.995   6.425
 1112SOL     OW 4234   4.855   0.247   2.283
 1112SOL    HW1 4235   4.935   0.254   2.343
 1112SOL    HW2 4236   4.883   0.212   2.194
 1113SOL     OW 4237   5.277   4.952   2.564
 1113SOL    HW1 4238   5.213   4.882   2.536
 1113SOL    HW2 4239   5.325   4.922   2.647
 1114SOL     OW 4240   3.871   3.546   5.431
 1114SOL    HW1 4241   3.835   3.592   5.350
 1114SOL    HW2 4242   3.805   3.479   5.464
 1115SOL     OW 4243   2.978   4.361   5.884
 1115SOL    HW1 4244   3.070   4.328   5.862
 1115SOL    HW2 4245   2.962   4.448   5.838
 1116SOL     OW 4246   4.556   7.021   6.341
 1116SOL    HW1 4247   4.502   0.003   6.256
 1116SOL    HW2 4248   4.650   0.023   6.322
 1117SOL     OW 4249   1.444   2.620   1.755
 1117SOL    HW1 4250   1.526   2.663   1.719
 1117SOL    HW2 4251   1.394   2.577   1.680
 1118SOL     OW 4252   3.299   4.574   0.022
 1118SOL    HW1 4253   3.367   4.554   0.092
 1118SOL    HW2 4254   3.343   4.618   6.968
 1119SOL     OW 4255   3.592   4.933   4.428
 1119SOL    HW1 4256   3.510   4.945   4.372
 1119SOL    HW2 4257   3.567   4.939   4.525
 1120SOL     OW 4258   6.956   4.434   0.953
 1120SOL    HW1 4259   7.022   4.374   0.998
 1120SOL    HW2 4260   6.984   4.448   0.858
 1121SOL     OW 4261   6.243   4.726   4.371
 1121SOL    HW1 4262   6.154   4.755   4.407
 1121SOL    HW2 4263   6.254   4.627   4.386
 1122SOL     OW 4264   5.375   2.668   2.032
 1122SOL    HW1 4265   5.345   2.575   2.009
 1122SOL    HW2 4266   5.391   2.675   2.130
 1123SOL     OW 4267   3.794   1.538   2.810
 1123SOL    HW1 4268   3.783   1.634   2.835
 1123SOL    HW2 4269   3.771   1.480   2.888
 1124SOL     OW 4270   2.277   2.960   4.773
 1124SOL    HW1 4271   2.303   2.976   4.868
 1124SOL    HW2 4272   2.297   2.865   4.749
 1125SOL     OW 4273   1.068   3.805   3.771
 1125SOL    HW1 4274   1.136   3.800   3.844
 1125SOL    HW2 4275   0.985   3.755   3.798
 1126SOL     OW 4276   3.213   5.445   4.802
 1126SOL    HW1 4277   3.180   5.363   4.848
 1126SOL    HW2 4278   3.311   5.435   4.782
 1127SOL     OW 4279   5.920   6.824   3.037
 1127SOL    HW1 4280   5.830   6.793   3.067
 1127SOL    HW2 4281   5.983   6.746   3.030
 1128SOL     OW 4282   5.600   1.145   3.483
 1128SOL    HW1 4283   5.662   1.068   3.464
 1128SOL    HW2 4284   5.654   1.229   3.494
 1129SOL     OW 4285   1.817   0.656   0.859
 1129SOL    HW1 4286   1.876   0.719   0.910
 1129SOL    HW2 4287   1.865   0.623   0.778
 1130SOL     OW 4288   2.151   5.027   2.266
 1130SOL    HW1 4289   2.055   5.021   2.294
 1130SOL    HW2 4290   2.206   4.967   2.325
 1131SOL     OW 4291   1.516   5.433   4.513
 1131SOL    HW1 4292   1.428   5.410   4.556
 1131SOL    HW2 4293   1.498   5.482   4.427
 1132SOL     OW 4294   2.951   1.110   2.186
 1132SOL    HW1 4295   2.932   1.043   2.114
 1132SOL    HW2 4296   2.955   1.202   2.147
 1133SOL     OW 4297   1.215   6.975   4.887
 1133SOL    HW1 4298   1.204   6.886   4.931
 1133SOL    HW2 4299   1.297   7.020   4.922
 1134SOL     OW 4300   3.949   6.637   1.569
 1134SOL    HW1 4301   4.009   6.717   1.579
 1134SOL    HW2 4302   3.926   6.601   1.659
 1135SOL     OW 4303   1.820   5.697   4.082
 1135SOL    HW1 4304   1.802   5.766   4.012
 1135SOL    HW2 4305   1.855   5.742   4.165
 1136SOL     OW 4306   2.254   5.864   1.984
 1136SOL    HW1 4307   2.264   5.927   1.907
 1136SOL    HW2 4308   2.251   5.770   1.950
 1137SOL     OW 4309   0.740   5.089   5.429
 1137SOL    HW1 4310   0.705   5.008   5.477
 1137SOL    HW2 4311   0.742   5.166   5.492
 1138SOL     OW 4312   2.017   2.830   4.685
 1138SOL    HW1 4313   1.965   2.910   4.655
 1138SOL    HW2 4314   2.051   2.846   4.778
 1139SOL     OW 4315   2.780   5.503   4.529
 1139SOL    HW1 4316   2.743   5.490   4.621
 1139SOL    HW2 4317   2.729   5.445   4.464
 1140SOL     OW 4318   1.118   1.605   0.881
 1140SOL    HW1 4319   1.159   1.638   0.796
 1140SOL    HW2 4320   1.185   1.612   0.955
 1141SOL     OW 4321   6.016   4.850   6.304
 1141SOL    HW1 4322   6.005   4.907   6.386
 1141SOL    HW2 4323   6.113   4.846   6.279
 1142SOL     OW 4324   2.166   6.296   2.863
 1142SOL    HW1 4325   2.192   6.366   2.930
 1142SOL    HW2 4326   2.123   6.219   2.911
 1143SOL     OW 4327   1.438   3.812   1.985
 1143SOL    HW1 4328   1.477   3.889   1.935
 1143SOL    HW2 4329   1.362   3.774   1.933
 1144SOL     OW 4330   5.577   4.587   1.540
 1144SOL    HW1 4331   5.531   4.631   1.617
 1144SOL    HW2 4332   5.539   4.495   1.526
 1145SOL     OW 4333   6.884   1.290   1.074
 1145SOL    HW1 4334   6.900   1.340   1.159
 1145SOL    HW2 4335   6.968   1.243   1.046
 1146SOL     OW 4336   0.879   0.973   1.736
 1146SOL    HW1 4337   0.819   1.051   1.725
 1146SOL    HW2 4338   0.959   0.984   1.677
 1147SOL     OW 4339   3.433   6.263   1.185
 1147SOL    HW1 4340   3.366   6.334   1.162
 1147SOL    HW2 4341   3.410   6.222   1.273
 1148SOL     OW 4342   4.539   5.192   3.844
 1148SOL    HW1 4343   4.526   5.150   3.754
 1148SOL    HW2 4344   4.450   5.219   3.881
 1149SOL     OW 4345   4.678   2.924   1.008
 1149SOL    HW1 4346   4.705   3.018   1.031
 1149SOL    HW2 4347   4.702   2.863   1.083
 1150SOL     OW 4348   2.039   4.343   6.994
 1150SOL    HW1 4349   2.081   4.368   6.907
 1150SOL    HW2 4350   1.965   4.278   6.978
 1151SOL     OW 4351   6.617   5.869   4.028
 1151SOL    HW1 4352   6.625   5.849   4.125
 1151SOL    HW2 4353   6.658   5.958   4.007
 1152SOL     OW 4354   3.844   0.002   6.457
 1152SOL    HW1 4355   3.812   0.005   6.363
 1152SOL    HW2 4356   3.789   0.063   6.514
 1153SOL     OW 4357   6.341   0.815   1.102
 1153SOL    HW1 4358   6.308   0.811   1.008
 1153SOL    HW2 4359   6.441   0.823   1.102
 1154SOL     OW 4360   1.998   2.273   1.563
 1154SOL    HW1 4361   2.048   2.310   1.642
 1154SOL    HW2 4362   1.922   2.218   1.595
 1155SOL     OW 4363   2.830   6.080   5.071
 1155SOL    HW1 4364   2.882   6.161   5.098
 1155SOL    HW2 4365   2.893   6.007   5.044
 1156SOL     OW 4366   3.057   2.195   3.891
 1156SOL    HW1 4367   3.138   2.193   3.950
 1156SOL    HW2 4368   2.984   2.143   3.935
 1157SOL     OW 4369   3.803   1.266   5.925
 1157SOL    HW1 4370   3.800   1.166   5.923
 1157SOL    HW2 4371   3.758   1.302   5.844
 1158SOL     OW 4372   6.044   6.243   3.165
 1158SOL    HW1 4373   6.066   6.160   3.216
 1158SOL    HW2 4374   6.012   6.219   3.073
 1159SOL     OW 4375   6.393   6.266   2.025
 1159SOL    HW1 4376   6.477   6.310   1.993
 1159SOL    HW2 4377   6.330   6.255   1.948
 1160SOL     OW 4378   5.714   1.122   0.823
 1160SOL    HW1 4379   5.799   1.095   0.868
 1160SOL    HW2 4380   5.636   1.093   0.878
 1161SOL     OW 4381   0.640   5.433   0.394
 1161SOL    HW1 4382   0.558   5.452   0.340
 1161SOL    HW2 4383   0.648   5.501   0.467
 1162SOL     OW 4384   2.403   2.570   4.861
 1162SOL    HW1 4385   2.416   2.613   4.772
 1162SOL    HW2 4386   2.492   2.550   4.902
 1163SOL     OW 4387   5.732   3.207   1.756
 1163SOL    HW1 4388   5.700   3.177   1.846
 1163SOL    HW2 4389   5.796   3.284   1.767
 1164SOL     OW 4390   4.603   2.195   4.817
 1164SOL    HW1 4391   4.655   2.248   4.751
 1164SOL    HW2 4392   4.512   2.235   4.829
 1165SOL     OW 4393   4.115   6.232   3.235
 1165SOL    HW1 4394   4.144   6.219   3.140
 1165SOL    HW2 4395   4.031   6.181   3.252
 1166SOL     OW 4396   2.364   5.331   6.611
 1166SOL    HW1 4397   2.322   5.270   6.544
 1166SOL    HW2 4398   2.315   5.324   6.698
 1167SOL     OW 4399   5.784   4.548   2.149
 1167SOL    HW1 4400   5.687   4.524   2.143
 1167SOL    HW2 4401   5.794   4.647   2.148
 1168SOL     OW 4402   6.231   1.511   3.162
 1168SOL    HW1 4403   6.308   1.492   3.223
 1168SOL    HW2 4404   6.171   1.580   3.203
 1169SOL     OW 4405   5.778   0.661   5.442
 1169SOL    HW1 4406   5.846   0.679   5.372
 1169SOL    HW2 4407   5.818   0.605   5.514
 1170SOL     OW 4408   4.767   6.559   3.795
 1170SOL    HW1 4409   4.676   6.530   3.764
 1170SOL    HW2 4410   4.805   6.489   3.857
 1171SOL     OW 4411   1.129   0.077   1.206
 1171SOL    HW1 4412   1.090   0.163   1.172
 1171SOL    HW2 4413   1.159   0.022   1.129
 1172SOL     OW 4414   6.776   3.550   6.530
 1172SOL    HW1 4415   6.786   3.463   6.482
 1172SOL    HW2 4416   6.791   3.625   6.466
 1173SOL     OW 4417   3.507   1.655   0.413
 1173SOL    HW1 4418   3.587   1.715   0.408
 1173SOL    HW2 4419   3.458   1.672   0.499
 1174SOL     OW 4420   3.714   3.207   0.775
 1174SOL    HW1 4421   3.811   3.184   0.768
 1174SOL    HW2 4422   3.659   3.123   0.780
 1175SOL     OW 4423   3.230   3.273   4.031
 1175SOL    HW1 4424   3.254   3.209   3.958
 1175SOL    HW2 4425   3.263   3.237   4.119
 1176SOL     OW 4426   5.321   4.024   6.050
 1176SOL    HW1 4427   5.222   4.023   6.044
 1176SOL    HW2 4428   5.349   4.038   6.144
 1177SOL     OW 4429   6.667   2.406   5.121
 1177SOL    HW1 4430   6.712   2.482   5.168
 1177SOL    HW2 4431   6.598   2.442   5.058
 1178SOL     OW 4432   3.445   4.875   0.519
 1178SOL    HW1 4433   3.383   4.817   0.467
 1178SOL    HW2 4434   3.393   4.929   0.586
 1179SOL     OW 4435   2.437   5.723   0.440
 1179SOL    HW1 4436   2.515   5.786   0.435
 1179SOL    HW2 4437   2.362   5.759   0.386
 1180SOL     OW 4438   3.754   6.020   1.046
 1180SOL    HW1 4439   3.678   6.073   1.008
 1180SOL    HW2 4440   3.781   5.949   0.981
 1181SOL     OW 4441   0.506   5.773   0.440
 1181SOL    HW1 4442   0.467   5.855   0.482
 1181SOL    HW2 4443   0.509   5.786   0.341
 1182SOL     OW 4444   4.210   5.181   2.869
 1182SOL    HW1 4445   4.191   5.129   2.786
 1182SOL    HW2 4446   4.247   5.120   2.939
 1183SOL     OW 4447   2.117   3.685   6.094
 1183SOL    HW1 4448   2.155   3.612   6.150
 1183SOL    HW2 4449   2.190   3.750   6.069
 1184SOL     OW 4450   1.560   6.858   5.274
 1184SOL    HW1 4451   1.502   6.777   5.260
 1184SOL    HW2 4452   1.639   6.832   5.329
 1185SOL     OW 4453   6.918   1.094   6.383
 1185SOL    HW1 4454   6.996   1.074   6.324
 1185SOL    HW2 4455   6.843   1.032   6.361
 1186SOL     OW 4456   5.379   6.140   4.978
 1186SOL    HW1 4457   5.284   6.143   5.009
 1186SOL    HW2 4458   5.432   6.080   5.038
 1187SOL     OW 4459   6.052   0.121   5.776
 1187SOL    HW1 4460   5.963   0.136   5.732
 1187SOL    HW2 4461   6.105   0.055   5.724
 1188SOL     OW 4462   2.273   6.662   5.514
 1188SOL    HW1 4463   2.358   6.677   5.464
 1188SOL    HW2 4464   2.208   6.735   5.493
 1189SOL     OW 4465   6.021   3.702   3.238
 1189SOL    HW1 4466   6.112   3.735   3.215
 1189SOL    HW2 4467   6.023   3.655   3.326
 1190SOL     OW 4468   1.796   6.357   2.546
 1190SOL    HW1 4469   1.819   6.290   2.617
 1190SOL    HW2 4470   1.822   6.322   2.456
 1191SOL     OW 4471   4.936   5.522   2.835
 1191SOL    HW1 4472   4.929   5.425   2.812
 1191SOL    HW2 4473   4.887   5.576   2.767
 1192SOL     OW 4474   4.625   6.157   3.432
 1192SOL    HW1 4475   4.645   6.085   3.499
 1192SOL    HW2 4476   4.548   6.130   3.375
 1193SOL     OW 4477   6.718   5.323   3.609
 1193SOL    HW1 4478   6.707   5.388   3.534
 1193SOL    HW2 4479   6.644   5.334   3.675
 1194SOL     OW 4480   4.143   0.796   1.481
 1194SOL    HW1 4481   4.174   0.888   1.502
 1194SOL    HW2 4482   4.046   0.787   1.503
 1195SOL     OW 4483   6.110   2.335   2.607
 1195SOL    HW1 4484   6.032   2.388   2.573
 1195SOL    HW2 4485   6.077   2.248   2.645
 1196SOL     OW 4486   6.312   6.489   4.583
 1196SOL    HW1 4487   6.271   6.428   4.651
 1196SOL    HW2 4488   6.265   6.577   4.586
 1197SOL     OW 4489   3.022   6.543   0.737
 1197SOL    HW1 4490   3.006   6.452   0.774
 1197SOL    HW2 4491   3.005   6.611   0.808
 1198SOL     OW 4492   0.715   1.824   0.349
 1198SOL    HW1 4493   0.809   1.825   0.382
 1198SOL    HW2 4494   0.699   1.903   0.290
 1199SOL     OW 4495   4.836   4.856   2.096
 1199SOL    HW1 4496   4.812   4.800   2.175
 1199SOL    HW2 4497   4.916   4.816   2.050
 1200SOL     OW 4498   2.970   3.741   2.575
 1200SOL    HW1 4499   3.064   3.710   2.585
 1200SOL    HW2 4500   2.912   3.664   2.547
 1201SOL     OW 4501   1.899   2.004   4.501
 1201SOL    HW1 4502   1.805   2.039   4.499
 1201SOL    HW2 4503   1.961   2.072   4.463
 1202SOL     OW 4504   0.152   5.451   6.662
 1202SOL    HW1 4505   0.161   5.543   6.622
 1202SOL    HW2 4506   0.080   5.401   6.614
 1203SOL     OW 4507   4.731   5.733   5.955
 1203SOL    HW1 4508   4.740   5.786   6.040
 1203SOL    HW2 4509   4.634   5.729   5.930
 1204SOL     OW 4510   1.748   0.418   2.262
 1204SOL    HW1 4511   1.701   0.412   2.350
 1204SOL    HW2 4512   1.839   0.376   2.270
 1205SOL     OW 4513   5.496   3.951   1.873
 1205SOL    HW1 4514   5.439   3.883   1.918
 1205SOL    HW2 4515   5.443   4.034   1.858
 1206SOL     OW 4516   3.188   2.882   5.059
 1206SOL    HW1 4517   3.205   2.804   4.998
 1206SOL    HW2 4518   3.150   2.849   5.145
 1207SOL     OW 4519   1.934   6.807   2.200
 1207SOL    HW1 4520   1.995   6.739   2.242
 1207SOL    HW2 4521   1.986   6.890   2.180
 1208SOL     OW 4522   3.316   3.405   6.389
 1208SOL    HW1 4523   3.371   3.431   6.309
 1208SOL    HW2 4524   3.372   3.350   6.450
 1209SOL     OW 4525   4.062   6.966   5.477
 1209SOL    HW1 4526   4.112   0.022   5.509
 1209SOL    HW2 4527   4.017   6.988   5.390
 1210SOL     OW 4528   3.086   1.410   3.008
 1210SOL    HW1 4529   3.135   1.458   3.081
 1210SOL    HW2 4530   2.988   1.428   3.018
 1211SOL     OW 4531   0.987   3.852   0.797
 1211SOL    HW1 4532   1.061   3.813   0.743
 1211SOL    HW2 4533   0.937   3.919   0.742
 1212SOL     OW 4534   0.744   0.028   6.893
 1212SOL    HW1 4535   0.736   7.014   6.985
 1212SOL    HW2 4536   0.759   0.127   6.900
 1213SOL     OW 4537   5.345   2.752   0.476
 1213SOL    HW1 4538   5.310   2.673   0.527
 1213SOL    HW2 4539   5.330   2.835   0.529
 1214SOL     OW 4540   0.134   2.430   1.455
 1214SOL    HW1 4541   0.121   2.513   1.508
 1214SOL    HW2 4542   0.202   2.446   1.383
 1215SOL     OW 4543   0.992   4.617   4.097
 1215SOL    HW1 4544   0.974   4.711   4.127
 1215SOL    HW2 4545   0.975   4.609   3.999
 1216SOL     OW 4546   4.418   0.178   6.508
 1216SOL    HW1 4547   4.333   0.196   6.459
 1216SOL    HW2 4548   4.482   0.132   6.448
 1217SOL     OW 4549   2.493   4.552   0.483
 1217SOL    HW1 4550   2.495   4.475   0.546
 1217SOL    HW2 4551   2.477   4.637   0.533
 1218SOL     OW 4552   1.535   4.175   3.987
 1218SOL    HW1 4553   1.463   4.114   3.954
 1218SOL    HW2 4554   1.493   4.259   4.023
 1219SOL     OW 4555   4.414   5.983   2.437
 1219SOL    HW1 4556   4.490   5.972   2.501
 1219SOL    HW2 4557   4.350   6.051   2.473
 1220SOL     OW 4558   1.102   4.727   2.560
 1220SOL    HW1 4559   1.186   4.729   2.506
 1220SOL    HW2 4560   1.108   4.794   2.633
 1221SOL     OW 4561   6.072   3.259   6.041
 1221SOL    HW1 4562   6.022   3.191   6.095
 1221SOL    HW2 4563   6.153   3.289   6.091
 1222SOL     OW 4564   6.910   5.974   6.940
 1222SOL    HW1 4565   6.827   5.919   6.935
 1222SOL    HW2 4566   6.917   6.015   0.006
 1223SOL     OW 4567   3.345   6.248   0.514
 1223SOL    HW1 4568   3.326   6.337   0.470
 1223SOL    HW2 4569   3.259   6.198   0.527
 1224SOL     OW 4570   2.649   6.872   1.608
 1224SOL    HW1 4571   2.674   6.968   1.626
 1224SOL    HW2 4572   2.697   6.813   1.672
 1225SOL     OW 4573   3.317   4.432   6.500
 1225SOL    HW1 4574   3.395   4.381   6.538
 1225SOL    HW2 4575   3.341   4.463   6.408
 1226SOL     OW 4576   1.722   4.905   1.321
 1226SOL    HW1 4577   1.705   5.004   1.317
 1226SOL    HW2 4578   1.796   4.887   1.386
 1227SOL     OW 4579   6.920   3.936   6.417
 1227SOL    HW1 4580   6.983   3.921   6.341
 1227SOL    HW2 4581   6.949   4.017   6.468
 1228SOL     OW 4582   4.501   2.076   6.271
 1228SOL    HW1 4583   4.495   2.104   6.367
 1228SOL    HW2 4584   4.558   1.994   6.264
 1229SOL     OW 4585   3.610   4.766   6.673
 1229SOL    HW1 4586   3.595   4.861   6.646
 1229SOL    HW2 4587   3.692   4.759   6.730
 1230SOL     OW 4588   4.675   6.791   3.433
 1230SOL    HW1 4589   4.726   6.711   3.463
 1230SOL    HW2 4590   4.730   6.873   3.448
 1231SOL     OW 4591   2.008   3.295   4.756
 1231SOL    HW1 4592   2.036   3.387   4.729
 1231SOL    HW2 4593   1.926   3.300   4.813
 1232SOL     OW 4594   1.182   2.865   4.757
 1232SOL    HW1 4595   1.232   2.782   4.783
 1232SOL    HW2 4596   1.213   2.941   4.815
 1233SOL     OW 4597   0.818   3.772   4.978
 1233SOL    HW1 4598   0.719   3.766   4.991
 1233SOL    HW2 4599   0.841   3.745   4.884
 1234SOL     OW 4600   5.995   4.207   4.328
 1234SOL    HW1 4601   5.957   4.295   4.358
 1234SOL    HW2 4602   5.972   4.192   4.232
 1235SOL     OW 4603   6.672   5.748   3.585
 1235SOL    HW1 4604   6.615   5.789   3.656
 1235SOL    HW2 4605   6.744   5.812   3.558
 1236SOL     OW 4606   5.586   0.155   0.018
 1236SOL    HW1 4607   5.606   0.237   6.989
 1236SOL    HW2 4608   5.632   0.076   7.002
 1237SOL     OW 4609   3.207   5.099   6.351
 1237SOL    HW1 4610   3.288   5.095   6.410
 1237SOL    HW2 4611   3.175   5.007   6.332
 1238SOL     OW 4612   1.696   1.610   1.063
 1238SOL    HW1 4613   1.705   1.655   0.974
 1238SOL    HW2 4614   1.786   1.583   1.096
 1239SOL     OW 4615   6.861   5.923   6.603
 1239SOL    HW1 4616   6.850   5.873   6.688
 1239SOL    HW2 4617   6.899   6.014   6.622
 1240SOL     OW 4618   4.837   6.188   1.821
 1240SOL    HW1 4619   4.910   6.135   1.778
 1240SOL    HW2 4620   4.843   6.283   1.789
 1241SOL     OW 4621   6.478   3.878   4.061
 1241SOL    HW1 4622   6.572   3.844   4.067
 1241SOL    HW2 4623   6.416   3.801   4.045
 1242SOL     OW 4624   2.235   4.159   0.442
 1242SOL    HW1 4625   2.139   4.135   0.460
 1242SOL    HW2 4626   2.289   4.075   0.434
 1243SOL     OW 4627   2.290   5.117   5.335
 1243SOL    HW1 4628   2.245   5.107   5.424
 1243SOL    HW2 4629   2.281   5.031   5.284
 1244SOL     OW 4630   0.941   1.179   3.924
 1244SOL    HW1 4631   0.851   1.140   3.902
 1244SOL    HW2 4632   0.965   1.154   4.018
 1245SOL     OW 4633   3.391   3.524   0.069
 1245SOL    HW1 4634   3.455   3.486   0.137
 1245SOL    HW2 4635   3.352   3.608   0.105
 1246SOL     OW 4636   1.914   6.291   2.319
 1246SOL    HW1 4637   2.002   6.269   2.362
 1246SOL    HW2 4638   1.914   6.260   2.224
 1247SOL     OW 4639   1.816   6.516   6.564
 1247SOL    HW1 4640   1.883   6.505   6.490
 1247SOL    HW2 4641   1.726   6.487   6.531
 1248SOL     OW 4642   1.830   5.214   4.146
 1248SOL    HW1 4643   1.824   5.151   4.224
 1248SOL    HW2 4644   1.740   5.255   4.130
 1249SOL     OW 4645   5.945   3.335   3.365
 1249SOL    HW1 4646   6.005   3.262   3.397
 1249SOL    HW2 4647   5.994   3.422   3.365
 1250SOL     OW 4648   1.122   4.531   4.328
 1250SOL    HW1 4649   1.086   4.566   4.242
 1250SOL    HW2 4650   1.091   4.437   4.341
 1251SOL     OW 4651   3.814   0.206   4.785
 1251SOL    HW1 4652   3.836   0.300   4.809
 1251SOL    HW2 4653   3.722   0.202   4.745
 1252SOL     OW 4654   3.628   3.888   5.804
 1252SOL    HW1 4655   3.704   3.853   5.859
 1252SOL    HW2 4656   3.570   3.811   5.775
 1253SOL     OW 4657   3.802   5.391   3.216
 1253SOL    HW1 4658   3.835   5.467   3.272
 1253SOL    HW2 4659   3.868   5.372   3.143
 1254SOL     OW 4660   6.481   1.880   3.021
 1254SOL    HW1 4661   6.532   1.955   2.979
 1254SOL    HW2 4662   6.450   1.817   2.949
 1255SOL     OW 4663   6.870   6.807   6.871
 1255SOL    HW1 4664   6.937   6.759   6.813
 1255SOL    HW2 4665   6.860   6.901   6.839
 1256SOL     OW 4666   4.487   0.876   3.355
 1256SOL    HW1 4667   4.392   0.905   3.350
 1256SOL    HW2 4668   4.494   0.779   3.329
 1257SOL     OW 4669   6.625   1.057   4.068
 1257SOL    HW1 4670   6.592   1.030   4.159
 1257SOL    HW2 4671   6.547   1.061   4.005
 1258SOL     OW 4672   0.342   6.696   3.466
 1258SOL    HW1 4673   0.328   6.758   3.543
 1258SOL    HW2 4674   0.257   6.689   3.414
 1259SOL     OW 4675   4.020   1.914   4.420
 1259SOL    HW1 4676   4.024   1.922   4.321
 1259SOL    HW2 4677   4.104   1.871   4.453
 1260SOL     OW 4678   1.266   0.518   6.978
 1260SOL    HW1 4679   1.271   0.514   0.054
 1260SOL    HW2 4680   1.357   0.533   6.941
 1261SOL     OW 4681   6.746   4.753   0.904
 1261SOL    HW1 4682   6.653   4.737   0.937
 1261SOL    HW2 4683   6.811   4.730   0.977
 1262SOL     OW 4684   5.459   5.718   0.915
 1262SOL    HW1 4685   5.404   5.702   0.834
 1262SOL    HW2 4686   5.480   5.631   0.960
 1263SOL     OW 4687   1.387   2.270   3.357
 1263SOL    HW1 4688   1.353   2.194   3.302
 1263SOL    HW2 4689   1.332   2.279   3.440
 1264SOL     OW 4690   0.667   2.604   5.496
 1264SOL    HW1 4691   0.739   2.610   5.426
 1264SOL    HW2 4692   0.709   2.582   5.585
 1265SOL     OW 4693   6.029   6.675   4.805
 1265SOL    HW1 4694   5.979   6.663   4.891
 1265SOL    HW2 4695   5.965   6.668   4.728
 1266SOL     OW 4696   2.061   0.507   5.047
 1266SOL    HW1 4697   2.035   0.588   4.995
 1266SOL    HW2 4698   2.006   0.501   5.130
 1267SOL     OW 4699   4.305   6.970   2.732
 1267SOL    HW1 4700   4.286   6.899   2.801
 1267SOL    HW2 4701   4.235   0.016   2.737
 1268SOL     OW 4702   4.451   2.536   5.230
 1268SOL    HW1 4703   4.456   2.581   5.319
 1268SOL    HW2 4704   4.356   2.536   5.198
 1269SOL     OW 4705   6.155   1.760   4.252
 1269SOL    HW1 4706   6.182   1.839   4.196
 1269SOL    HW2 4707   6.179   1.778   4.348
 1270SOL     OW 4708   6.866   5.724   2.958
 1270SOL    HW1 4709   6.964   5.734   2.978
 1270SOL    HW2 4710   6.814   5.736   3.042
 1271SOL     OW 4711   1.122   1.468   1.166
 1271SOL    HW1 4712   1.121   1.384   1.219
 1271SOL    HW2 4713   1.051   1.465   1.096
 1272SOL     OW 4714   6.626   4.146   7.024
 1272SOL    HW1 4715   6.620   4.049   0.025
 1272SOL    HW2 4716   6.715   4.164   6.981
 1273SOL     OW 4717   1.496   4.741   4.947
 1273SOL    HW1 4718   1.429   4.810   4.917
 1273SOL    HW2 4719   1.535   4.768   5.035
 1274SOL     OW 4720   0.422   5.408   2.701
 1274SOL    HW1 4721   0.364   5.360   2.768
 1274SOL    HW2 4722   0.437   5.350   2.622
 1275SOL     OW 4723   2.301   1.045   2.919
 1275SOL    HW1 4724   2.332   0.959   2.878
 1275SOL    HW2 4725   2.254   1.025   3.005
 1276SOL     OW 4726   5.368   4.934   3.817
 1276SOL    HW1 4727   5.426   4.902   3.893
 1276SOL    HW2 4728   5.311   5.009   3.849
 1277SOL     OW 4729   0.329   6.136   0.443
 1277SOL    HW1 4730   0.361   6.109   0.534
 1277SOL    HW2 4731   0.402   6.119   0.376
 1278SOL     OW 4732   1.061   5.609   2.713
 1278SOL    HW1 4733   1.034   5.572   2.802
 1278SOL    HW2 4734   1.082   5.707   2.722
 1279SOL     OW 4735   1.887   2.519   0.417
 1279SOL    HW1 4736   1.850   2.438   0.373
 1279SOL    HW2 4737   1.855   2.524   0.512
 1280SOL     OW 4738   2.114   2.310   3.851
 1280SOL    HW1 4739   2.034   2.368   3.838
 1280SOL    HW2 4740   2.085   2.220   3.883
 1281SOL     OW 4741   4.568   6.231   4.485
 1281SOL    HW1 4742   4.580   6.173   4.404
 1281SOL    HW2 4743   4.481   6.280   4.479
 1282SOL     OW 4744   6.637   2.516   1.403
 1282SOL    HW1 4745   6.577   2.458   1.458
 1282SOL    HW2 4746   6.587   2.597   1.374
 1283SOL     OW 4747   6.608   3.462   4.915
 1283SOL    HW1 4748   6.572   3.555   4.915
 1283SOL    HW2 4749   6.620   3.431   5.010
 1284SOL     OW 4750   4.056   1.737   2.056
 1284SOL    HW1 4751   4.084   1.811   1.995
 1284SOL    HW2 4752   4.112   1.737   2.138
 1285SOL     OW 4753   4.224   1.168   5.191
 1285SOL    HW1 4754   4.132   1.192   5.161
 1285SOL    HW2 4755   4.290   1.193   5.119
 1286SOL     OW 4756   4.974   2.107   1.862
 1286SOL    HW1 4757   4.983   2.061   1.951
 1286SOL    HW2 4758   4.915   2.053   1.803
 1287SOL     OW 4759   6.337   4.506   4.827
 1287SOL    HW1 4760   6.344   4.538   4.921
 1287SOL    HW2 4761   6.417   4.449   4.805
 1288SOL     OW 4762   4.477   3.914   6.882
 1288SOL    HW1 4763   4.457   3.828   6.836
 1288SOL    HW2 4764   4.428   3.988   6.837
 1289SOL     OW 4765   6.890   0.335   1.620
 1289SOL    HW1 4766   6.834   0.334   1.704
 1289SOL    HW2 4767   6.979   0.294   1.639
 1290SOL     OW 4768   1.511   6.900   6.192
 1290SOL    HW1 4769   1.591   6.937   6.144
 1290SOL    HW2 4770   1.465   6.834   6.133
 1291SOL     OW 4771   6.743   5.357   3.137
 1291SOL    HW1 4772   6.832   5.401   3.152
 1291SOL    HW2 4773   6.695   5.403   3.063
 1292SOL     OW 4774   0.977   6.772   2.138
 1292SOL    HW1 4775   1.052   6.737   2.195
 1292SOL    HW2 4776   0.896   6.717   2.153
 1293SOL     OW 4777   3.338   1.673   0.154
 1293SOL    HW1 4778   3.392   1.714   0.228
 1293SOL    HW2 4779   3.250   1.721   0.147
 1294SOL     OW 4780   2.287   3.507   5.315
 1294SOL    HW1 4781   2.207   3.462   5.354
 1294SOL    HW2 4782   2.349   3.439   5.278
 1295SOL     OW 4783   6.516   4.490   0.665
 1295SOL    HW1 4784   6.529   4.443   0.578
 1295SOL    HW2 4785   6.549   4.584   0.657
 1296SOL     OW 4786   5.371   6.947   5.550
 1296SOL    HW1 4787   5.280   6.966   5.513
 1296SOL    HW2 4788   5.440   6.970   5.481
 1297SOL     OW 4789   0.649   0.108   2.231
 1297SOL    HW1 4790   0.553   0.111   2.203
 1297SOL    HW2 4791   0.708   0.110   2.151
 1298SOL     OW 4792   5.406   6.404   2.546
 1298SOL    HW1 4793   5.353   6.321   2.538
 1298SOL    HW2 4794   5.358   6.480   2.503
 1299SOL     OW 4795   1.100   3.500   5.190
 1299SOL    HW1 4796   1.172   3.461   5.248
 1299SOL    HW2 4797   1.139   3.565   5.126
 1300SOL     OW 4798   1.185   4.661   1.937
 1300SOL    HW1 4799   1.175   4.706   1.848
 1300SOL    HW2 4800   1.101   4.674   1.990
 1301SOL     OW 4801   0.784   0.709   0.911
 1301SOL    HW1 4802   0.693   0.712   0.951
 1301SOL    HW2 4803   0.853   0.698   0.983
 1302SOL     OW 4804   5.411   6.878   4.434
 1302SOL    HW1 4805   5.359   6.857   4.517
 1302SOL    HW2 4806   5.357   6.938   4.375
 1303SOL     OW 4807   3.908   6.282   1.684
 1303SOL    HW1 4808   3.936   6.337   1.605
 1303SOL    HW2 4809   3.957   6.313   1.765
 1304SOL     OW 4810   0.858   1.293   0.495
 1304SOL    HW1 4811   0.949   1.276   0.534
 1304SOL    HW2 4812   0.793   1.309   0.569
 1305SOL     OW 4813   5.364   3.718   6.407
 1305SOL    HW1 4814   5.458   3.726   6.377
 1305SOL    HW2 4815   5.311   3.795   6.372
 1306SOL     OW 4816   2.591   5.372   4.340
 1306SOL    HW1 4817   2.638   5.289   4.313
 1306SOL    HW2 4818   2.545   5.412   4.260
 1307SOL     OW 4819   2.808   2.154   3.381
 1307SOL    HW1 4820   2.888   2.188   3.430
 1307SOL    HW2 4821   2.724   2.181   3.428
 1308SOL     OW 4822   0.459   4.831   5.841
 1308SOL    HW1 4823   0.552   4.798   5.853
 1308SOL    HW2 4824   0.438   4.898   5.912
 1309SOL     OW 4825   5.544   4.350   6.760
 1309SOL    HW1 4826   5.502   4.279   6.816
 1309SOL    HW2 4827   5.492   4.361   6.675
 1310SOL     OW 4828   1.258   3.771   3.344
 1310SOL    HW1 4829   1.283   3.745   3.250
 1310SOL    HW2 4830   1.336   3.814   3.389
 1311SOL     OW 4831   6.825   5.680   0.727
 1311SOL    HW1 4832   6.827   5.724   0.816
 1311SOL    HW2 4833   6.732   5.649   0.706
 1312SOL     OW 4834   2.390   0.899   6.103
 1312SOL    HW1 4835   2.394   0.877   6.006
 1312SOL    HW2 4836   2.426   0.823   6.157
 1313SOL     OW 4837   6.587   6.135   2.650
 1313SOL    HW1 4838   6.650   6.106   2.722
 1313SOL    HW2 4839   6.583   6.235   2.648
 1314SOL     OW 4840   2.262   1.802   5.287
 1314SOL    HW1 4841   2.352   1.778   5.248
 1314SOL    HW2 4842   2.196   1.731   5.261
 1315SOL     OW 4843   6.156   1.277   3.536
 1315SOL    HW1 4844   6.185   1.324   3.619
 1315SOL    HW2 4845   6.094   1.202   3.559
 1316SOL     OW 4846   4.054   0.658   5.037
 1316SOL    HW1 4847   4.055   0.648   5.136
 1316SOL    HW2 4848   4.022   0.750   5.013
 1317SOL     OW 4849   3.112   3.236   5.788
 1317SOL    HW1 4850   3.059   3.184   5.722
 1317SOL    HW2 4851   3.148   3.319   5.745
 1318SOL     OW 4852   2.026   2.408   6.050
 1318SOL    HW1 4853   1.937   2.453   6.058
 1318SOL    HW2 4854   2.083   2.460   5.986
 1319SOL     OW 4855   6.789   6.862   0.701
 1319SOL    HW1 4856   6.743   6.948   0.719
 1319SOL    HW2 4857   6.847   6.838   0.779
 1320SOL     OW 4858   3.508   2.800   5.799
 1320SOL    HW1 4859   3.453   2.744   5.736
 1320SOL    HW2 4860   3.496   2.765   5.892
 1321SOL     OW 4861   5.224   2.732   6.848
 1321SOL    HW1 4862   5.261   2.667   6.781
 1321SOL    HW2 4863   5.176   2.805   6.801
 1322SOL     OW 4864   3.135   1.609   0.503
 1322SOL    HW1 4865   3.098   1.701   0.490
 1322SOL    HW2 4866   3.222   1.614   0.550
 1323SOL     OW 4867   4.044   6.783   0.681
 1323SOL    HW1 4868   4.049   6.721   0.602
 1323SOL    HW2 4869   4.115   6.853   0.673
 1324SOL     OW 4870   1.489   3.604   6.977
 1324SOL    HW1 4871   1.507   3.661   6.897
 1324SOL    HW2 4872   1.512   3.655   0.036
 1325SOL     OW 4873   2.558   5.041   5.809
 1325SOL    HW1 4874   2.519   5.045   5.901
 1325SOL    HW2 4875   2.596   5.130   5.785
 1326SOL     OW 4876   5.067   3.059   3.452
 1326SOL    HW1 4877   5.003   3.119   3.500
 1326SOL    HW2 4878   5.065   2.968   3.492
 1327SOL     OW 4879   6.090   5.610   1.484
 1327SOL    HW1 4880   6.066   5.679   1.552
 1327SOL    HW2 4881   6.170   5.639   1.433
 1328SOL     OW 4882   1.717   3.441   5.613
 1328SOL    HW1 4883   1.811   3.408   5.622
 1328SOL    HW2 4884   1.696   3.458   5.517
 1329SOL     OW 4885   0.745   2.787   3.094
 1329SOL    HW1 4886   0.802   2.777   3.012
 1329SOL    HW2 4887   0.718   2.697   3.127
 1330SOL     OW 4888   6.333   3.137   1.550
 1330SOL    HW1 4889   6.354   3.041   1.570
 1330SOL    HW2 4890   6.237   3.145   1.523
 1331SOL     OW 4891   4.615   1.875   3.043
 1331SOL    HW1 4892   4.616   1.851   3.140
 1331SOL    HW2 4893   4.572   1.802   2.990
 1332SOL     OW 4894   1.663   5.895   0.262
 1332SOL    HW1 4895   1.650   5.986   0.302
 1332SOL    HW2 4896   1.649   5.825   0.331
 1333SOL     OW 4897   3.793   4.064   3.112
 1333SOL    HW1 4898   3.853   4.104   3.042
 1333SOL    HW2 4899   3.718   4.015   3.067
 1334SOL     OW 4900   0.127   3.496   2.199
 1334SOL    HW1 4901   0.050   3.482   2.260
 1334SOL    HW2 4902   0.204   3.536   2.250
 1335SOL     OW 4903   1.134   3.258   2.142
 1335SOL    HW1 4904   1.155   3.288   2.235
 1335SOL    HW2 4905   1.217   3.227   2.097
 1336SOL     OW 4906   3.091   0.476   5.262
 1336SOL    HW1 4907   3.067   0.458   5.167
 1336SOL    HW2 4908   3.024   0.538   5.302
 1337SOL     OW 4909   6.958   1.323   3.812
 1337SOL    HW1 4910   7.005   1.369   3.887
 1337SOL    HW2 4911   6.998   1.353   3.725
 1338SOL     OW 4912   6.619   4.372   4.994
 1338SOL    HW1 4913   6.579   4.286   5.026
 1338SOL    HW2 4914   6.605   4.443   5.062
 1339SOL     OW 4915   0.328   0.763   7.004
 1339SOL    HW1 4916   0.349   0.721   6.916
 1339SOL    HW2 4917   0.413   0.777   0.031
 1340SOL     OW 4918   4.386   2.468   1.680
 1340SOL    HW1 4919   4.421   2.407   1.609
 1340SOL    HW2 4920   4.412   2.432   1.770
 1341SOL     OW 4921   4.741   0.053   0.072
 1341SOL    HW1 4922   4.747   6.979   0.093
 1341SOL    HW2 4923   4.787   0.105   0.144
 1342SOL     OW 4924   2.582   6.227   1.418
 1342SOL    HW1 4925   2.596   6.216   1.517
 1342SOL    HW2 4926   2.509   6.294   1.403
 1343SOL     OW 4927   5.818   6.331   3.346
 1343SOL    HW1 4928   5.819   6.422   3.306
 1343SOL    HW2 4929   5.898   6.280   3.315
 1344SOL     OW 4930   0.204   0.201   5.122
 1344SOL    HW1 4931   0.152   0.122   5.152
 1344SOL    HW2 4932   0.255   0.179   5.039
 1345SOL     OW 4933   0.145   6.135   0.833
 1345SOL    HW1 4934   0.194   6.144   0.920
 1345SOL    HW2 4935   0.048   6.154   0.847
 1346SOL     OW 4936   2.997   5.286   5.858
 1346SOL    HW1 4937   2.948   5.370   5.834
 1346SOL    HW2 4938   2.978   5.216   5.790
 1347SOL     OW 4939   1.219   6.947   6.512
 1347SOL    HW1 4940   1.172   6.899   6.438
 1347SOL    HW2 4941   1.300   6.993   6.476
 1348SOL     OW 4942   0.833   6.346   5.420
 1348SOL    HW1 4943   0.874   6.376   5.506
 1348SOL    HW2 4944   0.734   6.362   5.423
 1349SOL     OW 4945   4.814   2.960   3.647
 1349SOL    HW1 4946   4.910   2.930   3.646
 1349SOL    HW2 4947   4.810   3.058   3.661
 1350SOL     OW 4948   3.808   3.896   0.368
 1350SOL    HW1 4949   3.813   3.820   0.302
 1350SOL    HW2 4950   3.713   3.906   0.399
 1351SOL     OW 4951   6.812   2.523   5.709
 1351SOL    HW1 4952   6.720   2.560   5.725
 1351SOL    HW2 4953   6.860   2.515   5.797
 1352SOL     OW 4954   0.099   0.607   2.478
 1352SOL    HW1 4955   0.032   0.608   2.404
 1352SOL    HW2 4956   0.137   0.514   2.487
 1353SOL     OW 4957   0.690   0.971   0.724
 1353SOL    HW1 4958   0.698   0.976   0.624
 1353SOL    HW2 4959   0.743   0.893   0.758
 1354SOL     OW 4960   5.438   5.092   2.403
 1354SOL    HW1 4961   5.490   5.167   2.444
 1354SOL    HW2 4962   5.369   5.060   2.468
 1355SOL     OW 4963   6.260   3.578   5.520
 1355SOL    HW1 4964   6.266   3.524   5.604
 1355SOL    HW2 4965   6.252   3.516   5.442
 1356SOL     OW 4966   3.421   2.976   1.024
 1356SOL    HW1 4967   3.332   2.976   1.069
 1356SOL    HW2 4968   3.490   2.938   1.086
 1357SOL     OW 4969   6.890   3.402   5.478
 1357SOL    HW1 4970   6.888   3.501   5.464
 1357SOL    HW2 4971   6.903   3.383   5.576
 1358SOL     OW 4972   1.482   6.580   6.807
 1358SOL    HW1 4973   1.472   6.481   6.807
 1358SOL    HW2 4974   1.417   6.621   6.744
 1359SOL     OW 4975   6.662   4.487   1.781
 1359SOL    HW1 4976   6.632   4.582   1.776
 1359SOL    HW2 4977   6.760   4.483   1.801
 1360SOL     OW 4978   2.224   2.299   6.899
 1360SOL    HW1 4979   2.150   2.319   6.834
 1360SOL    HW2 4980   2.206   2.348   6.985
 1361SOL     OW 4981   6.526   5.074   4.807
 1361SOL    HW1 4982   6.611   5.059   4.758
 1361SOL    HW2 4983   6.495   4.988   4.848
 1362SOL     OW 4984   3.168   2.987   2.987
 1362SOL    HW1 4985   3.266   2.978   2.970
 1362SOL    HW2 4986   3.117   2.921   2.932
 1363SOL     OW 4987   0.992   5.721   5.234
 1363SOL    HW1 4988   0.961   5.628   5.251
 1363SOL    HW2 4989   1.055   5.722   5.157
 1364SOL     OW 4990   3.355   4.077   1.167
 1364SOL    HW1 4991   3.425   4.115   1.106
 1364SOL    HW2 4992   3.391   4.071   1.260
 1365SOL     OW 4993   0.151   3.842   6.596
 1365SOL    HW1 4994   0.096   3.759   6.591
 1365SOL    HW2 4995   0.094   3.918   6.628
 1366SOL     OW 4996   2.673   0.086   5.217
 1366SOL    HW1 4997   2.763   0.093   5.175
 1366SOL    HW2 4998   2.642   7.015   5.214
 1367SOL     OW 4999   2.115   0.796   2.685
 1367SOL    HW1 5000   2.029   0.789   2.736
 1367SOL    HW2 5001   2.118   0.885   2.639
 1368SOL     OW 5002   5.754   6.851   4.252
 1368SOL    HW1 5003   5.804   6.862   4.338
 1368SOL    HW2 5004   5.716   6.759   4.246
 1369SOL     OW 5005   0.731   0.768   3.217
 1369SOL    HW1 5006   0.660   0.719   3.268
 1369SOL    HW2 5007   0.688   0.828   3.150
 1370SOL     OW 5008   2.699   0.670   1.693
 1370SOL    HW1 5009   2.610   0.641   1.661
 1370SOL    HW2 5010   2.770   0.608   1.659
 1371SOL     OW 5011   4.169   0.785   6.648
 1371SOL    HW1 5012   4.248   0.826   6.602
 1371SOL    HW2 5013   4.086   0.834   6.620
 1372SOL     OW 5014   3.326   2.128   1.902
 1372SOL    HW1 5015   3.235   2.093   1.923
 1372SOL    HW2 5016   3.380   2.135   1.986
 1373SOL     OW 5017   1.658   5.957   1.155
 1373SOL    HW1 5018   1.580   5.901   1.127
 1373SOL    HW2 5019   1.703   5.994   1.074
 1374SOL     OW 5020   4.769   2.624   0.465
 1374SOL    HW1 5021   4.851   2.636   0.409
 1374SOL    HW2 5022   4.690   2.664   0.418
 1375SOL     OW 5023   0.439   4.241   5.775
 1375SOL    HW1 5024   0.443   4.338   5.751
 1375SOL    HW2 5025   0.368   4.196   5.721
 1376SOL     OW 5026   4.746   1.721   1.904
 1376SOL    HW1 5027   4.718   1.722   2.000
 1376SOL    HW2 5028   4.845   1.736   1.898
 1377SOL     OW 5029   0.626   5.294   4.992
 1377SOL    HW1 5030   0.579   5.229   5.051
 1377SOL    HW2 5031   0.608   5.387   5.023
 1378SOL     OW 5032   1.444   2.379   0.042
 1378SOL    HW1 5033   1.373   2.393   6.998
 1378SOL    HW2 5034   1.419   2.426   0.126
 1379SOL     OW 5035   3.827   5.977   1.594
 1379SOL    HW1 5036   3.880   6.055   1.626
 1379SOL    HW2 5037   3.730   5.990   1.615
 1380SOL     OW 5038   6.482   6.799   2.865
 1380SOL    HW1 5039   6.460   6.891   2.895
 1380SOL    HW2 5040   6.473   6.736   2.942
 1381SOL     OW 5041   6.109   1.374   1.424
 1381SOL    HW1 5042   6.039   1.367   1.353
 1381SOL    HW2 5043   6.200   1.378   1.382
 1382SOL     OW 5044   6.343   4.800   6.645
 1382SOL    HW1 5045   6.279   4.852   6.701
 1382SOL    HW2 5046   6.299   4.776   6.559
 1383SOL     OW 5047   2.607   6.884   0.650
 1383SOL    HW1 5048   2.597   6.905   0.553
 1383SOL    HW2 5049   2.692   6.834   0.665
 1384SOL     OW 5050   2.802   1.868   2.271
 1384SOL    HW1 5051   2.863   1.946   2.258
 1384SOL    HW2 5052   2.796   1.845   2.368
 1385SOL     OW 5053   5.830   3.083   2.666
 1385SOL    HW1 5054   5.784   3.090   2.755
 1385SOL    HW2 5055   5.808   3.163   2.611
 1386SOL     OW 5056   2.293   2.460   3.991
 1386SOL    HW1 5057   2.233   2.395   3.943
 1386SOL    HW2 5058   2.388   2.442   3.966
 1387SOL     OW 5059   2.515   0.938   5.299
 1387SOL    HW1 5060   2.604   0.963   5.259
 1387SOL    HW2 5061   2.458   0.895   5.229
 1388SOL     OW 5062   6.438   0.697   5.438
 1388SOL    HW1 5063   6.477   0.642   5.512
 1388SOL    HW2 5064   6.368   0.758   5.475
 1389SOL     OW 5065   6.770   0.659   5.118
 1389SOL    HW1 5066   6.778   0.562   5.092
 1389SOL    HW2 5067   6.824   0.714   5.055
 1390SOL     OW 5068   4.829   2.641   2.462
 1390SOL    HW1 5069   4.788   2.658   2.373
 1390SOL    HW2 5070   4.837   2.542   2.476
 1391SOL     OW 5071   6.133   1.191   4.770
 1391SOL    HW1 5072   6.118   1.195   4.671
 1391SOL    HW2 5073   6.230   1.206   4.790
 1392SOL     OW 5074   4.574   5.621   6.197
 1392SOL    HW1 5075   4.573   5.546   6.132
 1392SOL    HW2 5076   4.521   5.698   6.160
 1393SOL     OW 5077   6.008   0.276   6.289
 1393SOL    HW1 5078   5.995   0.185   6.327
 1393SOL    HW2 5079   6.039   0.269   6.194
 1394SOL     OW 5080   4.109   0.061   3.954
 1394SOL    HW1 5081   4.139   0.110   3.873
 1394SOL    HW2 5082   4.129   0.115   4.036
 1395SOL     OW 5083   1.090   5.248   2.437
 1395SOL    HW1 5084   1.134   5.158   2.429
 1395SOL    HW2 5085   1.145   5.317   2.389
 1396SOL     OW 5086   2.147   1.597   3.808
 1396SOL    HW1 5087   2.056   1.637   3.798
 1396SOL    HW2 5088   2.176   1.604   3.903
 1397SOL     OW 5089   0.914   5.620   4.734
 1397SOL    HW1 5090   0.958   5.695   4.685
 1397SOL    HW2 5091   0.815   5.625   4.721
 1398SOL     OW 5092   1.284   6.272   0.653
 1398SOL    HW1 5093   1.237   6.358   0.668
 1398SOL    HW2 5094   1.379   6.290   0.627
 1399SOL     OW 5095   4.143   0.482   0.264
 1399SOL    HW1 5096   4.094   0.480   0.177
 1399SOL    HW2 5097   4.101   0.417   0.328
 1400SOL     OW 5098   0.014   0.340   4.958
 1400SOL    HW1 5099   0.083   0.305   5.022
 1400SOL    HW2 5100   6.950   0.347   5.005
 1401SOL     OW 5101   5.311   0.200   2.417
 1401SOL    HW1 5102   5.221   0.241   2.431
 1401SOL    HW2 5103   5.329   0.134   2.490
 1402SOL     OW 5104   0.065   4.660   2.676
 1402SOL    HW1 5105   0.034   4.569   2.702
 1402SOL    HW2 5106   0.004   4.729   2.714
 1403SOL     OW 5107   3.261   3.566   6.009
 1403SOL    HW1 5108   3.240   3.516   6.093
 1403SOL    HW2 5109   3.360   3.584   6.006
 1404SOL     OW 5110   3.675   6.535   0.740
 1404SOL    HW1 5111   3.768   6.560   0.767
 1404SOL    HW2 5112   3.643   6.460   0.799
 1405SOL     OW 5113   0.750   3.953   1.282
 1405SOL    HW1 5114   0.702   3.875   1.242
 1405SOL    HW2 5115   0.736   4.034   1.225
 1406SOL     OW 5116   2.095   3.073   0.254
 1406SOL    HW1 5117   1.999   3.102   0.260
 1406SOL    HW2 5118   2.150   3.126   0.318
 1407SOL     OW 5119   0.134   2.962   1.272
 1407SOL    HW1 5120   0.199   2.900   1.317
 1407SOL    HW2 5121   0.174   3.052   1.262
 1408SOL     OW 5122   5.803   6.420   0.926
 1408SOL    HW1 5123   5.712   6.460   0.942
 1408SOL    HW2 5124   5.793   6.335   0.874
 1409SOL     OW 5125   6.629   1.172   5.928
 1409SOL    HW1 5126   6.615   1.189   5.830
 1409SOL    HW2 5127   6.665   1.255   5.971
 1410SOL     OW 5128   3.445   0.644   6.125
 1410SOL    HW1 5129   3.370   0.675   6.067
 1410SOL    HW2 5130   3.452   0.704   6.205
 1411SOL     OW 5131   3.715   5.103   6.902
 1411SOL    HW1 5132   3.737   5.199   6.883
 1411SOL    HW2 5133   3.770   5.072   6.980
 1412SOL     OW 5134   2.631   2.702   6.647
 1412SOL    HW1 5135   2.651   2.790   6.603
 1412SOL    HW2 5136   2.623   2.716   6.746
 1413SOL     OW 5137   1.423   2.302   4.618
 1413SOL    HW1 5138   1.399   2.210   4.651
 1413SOL    HW2 5139   1.521   2.317   4.630
 1414SOL     OW 5140   0.748   4.489   2.839
 1414SOL    HW1 5141   0.751   4.583   2.807
 1414SOL    HW2 5142   0.755   4.427   2.761
 1415SOL     OW 5143   2.681   1.533   4.862
 1415SOL    HW1 5144   2.602   1.592   4.878
 1415SOL    HW2 5145   2.706   1.487   4.948
 1416SOL     OW 5146   4.640   0.712   4.797
 1416SOL    HW1 5147   4.655   0.688   4.893
 1416SOL    HW2 5148   4.589   0.639   4.752
 1417SOL     OW 5149   3.538   3.643   5.706
 1417SOL    HW1 5150   3.478   3.585   5.652
 1417SOL    HW2 5151   3.630   3.603   5.709
 1418SOL     OW 5152   3.953   4.288   5.715
 1418SOL    HW1 5153   3.867   4.242   5.739
 1418SOL    HW2 5154   3.947   4.385   5.738
 1419SOL     OW 5155   1.355   5.860   2.109
 1419SOL    HW1 5156   1.361   5.830   2.013
 1419SOL    HW2 5157   1.301   5.944   2.114
 1420SOL     OW 5158   2.741   6.271   2.812
 1420SOL    HW1 5159   2.736   6.371   2.818
 1420SOL    HW2 5160   2.654   6.232   2.842
 1421SOL     OW 5161   1.325   4.901   6.291
 1421SOL    HW1 5162   1.334   4.840   6.212
 1421SOL    HW2 5163   1.229   4.921   6.307
 1422SOL     OW 5164   2.168   3.322   6.507
 1422SOL    HW1 5165   2.169   3.224   6.522
 1422SOL    HW2 5166   2.230   3.367   6.570
 1423SOL     OW 5167   4.199   0.967   4.792
 1423SOL    HW1 5168   4.149   1.040   4.838
 1423SOL    HW2 5169   4.224   0.897   4.859
 1424SOL     OW 5170   6.034   2.911   0.809
 1424SOL    HW1 5171   6.106   2.977   0.831
 1424SOL    HW2 5172   5.946   2.949   0.835
 1425SOL     OW 5173   5.421   0.196   3.277
 1425SOL    HW1 5174   5.463   0.184   3.367
 1425SOL    HW2 5175   5.347   0.262   3.283
 1426SOL     OW 5176   3.787   1.130   0.234
 1426SOL    HW1 5177   3.868   1.075   0.212
 1426SOL    HW2 5178   3.815   1.226   0.242
 1427SOL     OW 5179   1.889   0.536   3.472
 1427SOL    HW1 5180   1.809   0.596   3.471
 1427SOL    HW2 5181   1.968   0.585   3.433
 1428SOL     OW 5182   0.801   2.756   3.856
 1428SOL    HW1 5183   0.822   2.712   3.769
 1428SOL    HW2 5184   0.886   2.772   3.906
 1429SOL     OW 5185   6.424   0.962   2.220
 1429SOL    HW1 5186   6.487   0.952   2.297
 1429SOL    HW2 5187   6.353   0.893   2.227
 1430SOL     OW 5188   2.146   3.492   4.307
 1430SOL    HW1 5189   2.160   3.567   4.241
 1430SOL    HW2 5190   2.144   3.529   4.399
 1431SOL     OW 5191   2.987   1.214   0.378
 1431SOL    HW1 5192   3.020   1.120   0.365
 1431SOL    HW2 5193   3.059   1.278   0.355
 1432SOL     OW 5194   3.220   0.139   2.588
 1432SOL    HW1 5195   3.178   0.051   2.612
 1432SOL    HW2 5196   3.207   0.155   2.490
 1433SOL     OW 5197   2.782   0.536   4.030
 1433SOL    HW1 5198   2.811   0.598   3.957
 1433SOL    HW2 5199   2.860   0.515   4.089
 1434SOL     OW 5200   6.125   4.074   0.336
 1434SOL    HW1 5201   6.135   3.977   0.358
 1434SOL    HW2 5202   6.208   4.107   0.292
 1435SOL     OW 5203   1.193   0.164   3.811
 1435SOL    HW1 5204   1.164   0.076   3.774
 1435SOL    HW2 5205   1.293   0.172   3.802
 1436SOL     OW 5206   5.348   1.000   0.575
 1436SOL    HW1 5207   5.270   1.043   0.621
 1436SOL    HW2 5208   5.424   1.065   0.570
 1437SOL     OW 5209   3.703   0.795   0.099
 1437SOL    HW1 5210   3.604   0.808   0.089
 1437SOL    HW2 5211   3.721   0.738   0.179
 1438SOL     OW 5212   2.134   0.261   2.608
 1438SOL    HW1 5213   2.154   0.192   2.678
 1438SOL    HW2 5214   2.052   0.311   2.634
 1439SOL     OW 5215   0.107   4.494   6.871
 1439SOL    HW1 5216   0.048   4.540   6.804
 1439SOL    HW2 5217   0.051   4.443   6.936
 1440SOL     OW 5218   3.403   2.897   2.879
 1440SOL    HW1 5219   3.500   2.919   2.875
 1440SOL    HW2 5220   3.373   2.863   2.790
 1441SOL     OW 5221   6.509   2.932   4.170
 1441SOL    HW1 5222   6.435   2.951   4.234
 1441SOL    HW2 5223   6.585   2.888   4.218
 1442SOL     OW 5224   5.331   6.790   6.870
 1442SOL    HW1 5225   5.250   6.764   6.923
 1442SOL    HW2 5226   5.302   6.823   6.780
 1443SOL     OW 5227   1.138   2.492   2.761
 1443SOL    HW1 5228   1.067   2.520   2.697
 1443SOL    HW2 5229   1.200   2.569   2.779
 1444SOL     OW 5230   5.576   0.607   5.133
 1444SOL    HW1 5231   5.601   0.688   5.079
 1444SOL    HW2 5232   5.547   0.636   5.224
 1445SOL     OW 5233   6.226   2.118   0.497
 1445SOL    HW1 5234   6.183   2.187   0.556
 1445SOL    HW2 5235   6.324   2.115   0.516
 1446SOL     OW 5236   3.966   0.122   0.939
 1446SOL    HW1 5237   3.990   0.186   1.013
 1446SOL    HW2 5238   3.997   0.030   0.963
 1447SOL     OW 5239   5.295   1.452   4.882
 1447SOL    HW1 5240   5.366   1.414   4.823
 1447SOL    HW2 5241   5.310   1.550   4.894
 1448SOL     OW 5242   5.602   0.080   6.710
 1448SOL    HW1 5243   5.578   0.009   6.644
 1448SOL    HW2 5244   5.666   0.042   6.777
 1449SOL     OW 5245   4.553   5.423   0.645
 1449SOL    HW1 5246   4.549   5.430   0.745
 1449SOL    HW2 5247   4.477   5.474   0.606
 1450SOL     OW 5248   5.847   2.221   3.904
 1450SOL    HW1 5249   5.846   2.124   3.931
 1450SOL    HW2 5250   5.829   2.229   3.806
 1451SOL     OW 5251   1.717   6.944   1.992
 1451SOL    HW1 5252   1.796   6.884   2.005
 1451SOL    HW2 5253   1.726   0.000   2.051
 1452SOL     OW 5254   4.303   0.614   4.941
 1452SOL    HW1 5255   4.298   0.624   4.841
 1452SOL    HW2 5256   4.211   0.602   4.978
 1453SOL     OW 5257   4.708   4.326   4.134
 1453SOL    HW1 5258   4.641   4.378   4.185
 1453SOL    HW2 5259   4.735   4.245   4.186
 1454SOL     OW 5260   4.888   4.472   1.399
 1454SOL    HW1 5261   4.877   4.559   1.447
 1454SOL    HW2 5262   4.980   4.436   1.414
 1455SOL     OW 5263   2.417   1.972   1.279
 1455SOL    HW1 5264   2.412   2.003   1.184
 1455SOL    HW2 5265   2.382   2.043   1.340
 1456SOL     OW 5266   6.490   5.596   4.114
 1456SOL    HW1 5267   6.574   5.563   4.158
 1456SOL    HW2 5268   6.449   5.668   4.169
 1457SOL     OW 5269   1.986   0.011   3.521
 1457SOL    HW1 5270   1.916   7.011   3.453
 1457SOL    HW2 5271   1.955   0.091   3.572
 1458SOL     OW 5272   6.904   5.329   0.541
 1458SOL    HW1 5273   6.839   5.253   0.527
 1458SOL    HW2 5274   6.896   5.394   0.466
 1459SOL     OW 5275   2.684   0.160   1.493
 1459SOL    HW1 5276   2.769   0.171   1.441
 1459SOL    HW2 5277   2.661   0.247   1.538
 1460SOL     OW 5278   0.594   6.348   0.566
 1460SOL    HW1 5279   0.531   6.310   0.499
 1460SOL    HW2 5280   0.633   6.274   0.621
 1461SOL     OW 5281   4.376   4.673   1.567
 1461SOL    HW1 5282   4.361   4.704   1.473
 1461SOL    HW2 5283   4.453   4.609   1.569
 1462SOL     OW 5284   4.999   0.541   5.130
 1462SOL    HW1 5285   4.903   0.565   5.142
 1462SOL    HW2 5286   5.054   0.625   5.123
 1463SOL     OW 5287   0.446   1.309   5.065
 1463SOL    HW1 5288   0.401   1.220   5.066
 1463SOL    HW2 5289   0.423   1.359   5.149
 1464SOL     OW 5290   0.146   0.030   1.605
 1464SOL    HW1 5291   0.215   6.983   1.615
 1464SOL    HW2 5292   0.076   7.024   1.540
 1465SOL     OW 5293   0.533   6.724   4.804
 1465SOL    HW1 5294   0.569   6.712   4.712
 1465SOL    HW2 5295   0.438   6.693   4.807
 1466SOL     OW 5296   5.511   4.545   4.309
 1466SOL    HW1 5297   5.449   4.491   4.366
 1466SOL    HW2 5298   5.480   4.542   4.214
 1467SOL     OW 5299   6.091   3.860   2.497
 1467SOL    HW1 5300   6.145   3.937   2.463
 1467SOL    HW2 5301   6.018   3.839   2.431
 1468SOL     OW 5302   5.344   6.456   3.181
 1468SOL    HW1 5303   5.303   6.399   3.252
 1468SOL    HW2 5304   5.439   6.428   3.167
 1469SOL     OW 5305   0.069   1.014   2.687
 1469SOL    HW1 5306   0.143   1.076   2.664
 1469SOL    HW2 5307   0.100   0.949   2.757
 1470SOL     OW 5308   0.235   0.869   3.499
 1470SOL    HW1 5309   0.183   0.909   3.424
 1470SOL    HW2 5310   0.211   0.772   3.508
 1471SOL     OW 5311   6.576   0.934   0.463
 1471SOL    HW1 5312   6.520   0.949   0.545
 1471SOL    HW2 5313   6.606   0.839   0.460
 1472SOL     OW 5314   4.682   5.550   5.202
 1472SOL    HW1 5315   4.626   5.494   5.262
 1472SOL    HW2 5316   4.679   5.645   5.232
 1473SOL     OW 5317   5.842   4.463   3.023
 1473SOL    HW1 5318   5.917   4.461   3.089
 1473SOL    HW2 5319   5.878   4.447   2.931
 1474SOL     OW 5320   4.749   4.991   3.838
 1474SOL    HW1 5321   4.710   5.082   3.826
 1474SOL    HW2 5322   4.675   4.924   3.849
 1475SOL     OW 5323   6.862   1.153   3.029
 1475SOL    HW1 5324   6.854   1.243   3.072
 1475SOL    HW2 5325   6.788   1.094   3.061
 1476SOL     OW 5326   6.268   2.391   1.324
 1476SOL    HW1 5327   6.315   2.344   1.398
 1476SOL    HW2 5328   6.184   2.341   1.302
 1477SOL     OW 5329   3.016   6.303   3.609
 1477SOL    HW1 5330   3.032   6.394   3.648
 1477SOL    HW2 5331   3.021   6.309   3.509
 1478SOL     OW 5332   6.978   4.904   1.868
 1478SOL    HW1 5333   6.947   4.918   1.774
 1478SOL    HW2 5334   6.955   4.983   1.924
 1479SOL     OW 5335   0.881   5.176   0.705
 1479SOL    HW1 5336   0.858   5.236   0.782
 1479SOL    HW2 5337   0.832   5.205   0.624
 1480SOL     OW 5338   3.038   0.952   0.382
 1480SOL    HW1 5339   3.032   0.883   0.454
 1480SOL    HW2 5340   3.015   0.910   0.294
 1481SOL     OW 5341   0.066   2.068   6.056
 1481SOL    HW1 5342   0.161   2.090   6.076
 1481SOL    HW2 5343   0.015   2.060   6.142
 1482SOL     OW 5344   5.614   1.362   6.465
 1482SOL    HW1 5345   5.694   1.302   6.454
 1482SOL    HW2 5346   5.531   1.306   6.466
 1483SOL     OW 5347   6.263   2.254   0.119
 1483SOL    HW1 5348   6.332   2.325   0.105
 1483SOL    HW2 5349   6.256   2.231   0.216
 1484SOL     OW 5350   0.082   6.903   3.170
 1484SOL    HW1 5351   7.017   6.948   3.170
 1484SOL    HW2 5352   0.154   6.972   3.175
 1485SOL     OW 5353   5.879   2.852   3.629
 1485SOL    HW1 5354   5.801   2.843   3.691
 1485SOL    HW2 5355   5.961   2.877   3.681
 1486SOL     OW 5356   5.103   2.749   1.590
 1486SOL    HW1 5357   5.039   2.769   1.515
 1486SOL    HW2 5358   5.118   2.832   1.644
 1487SOL     OW 5359   6.333   1.221   5.749
 1487SOL    HW1 5360   6.375   1.172   5.673
 1487SOL    HW2 5361   6.392   1.214   5.830
 1488SOL     OW 5362   4.507   2.081   2.620
 1488SOL    HW1 5363   4.473   1.990   2.596
 1488SOL    HW2 5364   4.478   2.147   2.551
 1489SOL     OW 5365   4.130   4.994   4.946
 1489SOL    HW1 5366   4.039   4.951   4.948
 1489SOL    HW2 5367   4.188   4.947   4.880
 1490SOL     OW 5368   2.244   2.255   1.223
 1490SOL    HW1 5369   2.284   2.315   1.292
 1490SOL    HW2 5370   2.315   2.195   1.185
 1491SOL     OW 5371   6.879   2.177   5.632
 1491SOL    HW1 5372   6.852   2.193   5.727
 1491SOL    HW2 5373   6.886   2.264   5.584
 1492SOL     OW 5374   5.612   2.726   1.886
 1492SOL    HW1 5375   5.586   2.805   1.831
 1492SOL    HW2 5376   5.531   2.691   1.935
 1493SOL     OW 5377   5.481   1.021   5.336
 1493SOL    HW1 5378   5.485   0.921   5.336
 1493SOL    HW2 5379   5.422   1.052   5.412
 1494SOL     OW 5380   5.382   2.242   3.848
 1494SOL    HW1 5381   5.370   2.338   3.874
 1494SOL    HW2 5382   5.316   2.218   3.777
 1495SOL     OW 5383   1.662   2.105   2.442
 1495SOL    HW1 5384   1.649   2.006   2.452
 1495SOL    HW2 5385   1.753   2.130   2.474
 1496SOL     OW 5386   1.144   1.294   3.274
 1496SOL    HW1 5387   1.065   1.354   3.260
 1496SOL    HW2 5388   1.134   1.213   3.216
 1497SOL     OW 5389   5.227   4.423   5.882
 1497SOL    HW1 5390   5.257   4.472   5.800
 1497SOL    HW2 5391   5.290   4.347   5.900
 1498SOL     OW 5392   1.838   5.570   0.075
 1498SOL    HW1 5393   1.879   5.635   0.011
 1498SOL    HW2 5394   1.740   5.591   0.085
 1499SOL     OW 5395   0.555   4.598   4.943
 1499SOL    HW1 5396   0.542   4.540   4.863
 1499SOL    HW2 5397   0.652   4.600   4.967
 1500SOL     OW 5398   3.980   6.563   5.371
 1500SOL    HW1 5399   4.060   6.621   5.355
 1500SOL    HW2 5400   3.963   6.558   5.470
 1501SOL     OW 5401   4.324   0.471   6.402
 1501SOL    HW1 5402   4.277   0.472   6.491
 1501SOL    HW2 5403   4.401   0.408   6.406
 1502SOL     OW 5404   6.879   6.392   0.346
 1502SOL    HW1 5405   6.978   6.384   0.356
 1502SOL    HW2 5406   6.834   6.323   0.403
 1503SOL     OW 5407   3.477   4.171   5.279
 1503SOL    HW1 5408   3.407   4.139   5.343
 1503SOL    HW2 5409   3.434   4.195   5.192
 1504SOL     OW 5410   2.739   6.240   4.486
 1504SOL    HW1 5411   2.670   6.221   4.416
 1504SOL    HW2 5412   2.778   6.331   4.470
 1505SOL     OW 5413   4.586   5.369   2.212
 1505SOL    HW1 5414   4.501   5.421   2.202
 1505SOL    HW2 5415   4.588   5.295   2.145
 1506SOL     OW 5416   0.859   6.312   2.968
 1506SOL    HW1 5417   0.809   6.376   3.026
 1506SOL    HW2 5418   0.954   6.341   2.960
 1507SOL     OW 5419   2.268   1.281   6.439
 1507SOL    HW1 5420   2.343   1.345   6.422
 1507SOL    HW2 5421   2.260   1.217   6.363
 1508SOL     OW 5422   4.377   0.322   0.233
 1508SOL    HW1 5423   4.284   0.356   0.246
 1508SOL    HW2 5424   4.390   0.240   0.289
 1509SOL     OW 5425   5.290   1.419   0.614
 1509SOL    HW1 5426   5.231   1.468   0.679
 1509SOL    HW2 5427   5.317   1.482   0.541
 1510SOL     OW 5428   0.008   2.233   3.814
 1510SOL    HW1 5429   0.102   2.250   3.785
 1510SOL    HW2 5430   6.971   2.243   3.736
 1511SOL     OW 5431   1.422   2.569   0.280
 1511SOL    HW1 5432   1.450   2.651   0.330
 1511SOL    HW2 5433   1.428   2.490   0.340
 1512SOL     OW 5434   5.522   0.167   2.202
 1512SOL    HW1 5435   5.438   0.149   2.253
 1512SOL    HW2 5436   5.597   0.186   2.266
 1513SOL     OW 5437   3.778   1.280   2.353
 1513SOL    HW1 5438   3.693   1.229   2.365
 1513SOL    HW2 5439   3.774   1.331   2.266
 1514SOL     OW 5440   5.481   1.193   5.846
 1514SOL    HW1 5441   5.437   1.263   5.903
 1514SOL    HW2 5442   5.555   1.150   5.897
 1515SOL     OW 5443   6.626   5.367   4.799
 1515SOL    HW1 5444   6.662   5.368   4.706
 1515SOL    HW2 5445   6.615   5.273   4.830
 1516SOL     OW 5446   0.680   1.344   0.720
 1516SOL    HW1 5447   0.673   1.442   0.735
 1516SOL    HW2 5448   0.716   1.300   0.802
 1517SOL     OW 5449   3.742   4.998   3.769
 1517SOL    HW1 5450   3.685   4.976   3.849
 1517SOL    HW2 5451   3.774   5.092   3.777
 1518SOL     OW 5452   1.352   4.278   1.390
 1518SOL    HW1 5453   1.375   4.314   1.481
 1518SOL    HW2 5454   1.252   4.279   1.379
 1519SOL     OW 5455   0.112   4.530   1.224
 1519SOL    HW1 5456   0.089   4.442   1.181
 1519SOL    HW2 5457   0.090   4.525   1.322
 1520SOL     OW 5458   1.642   2.832   2.415
 1520SOL    HW1 5459   1.668   2.908   2.355
 1520SOL    HW2 5460   1.706   2.826   2.491
 1521SOL     OW 5461   2.617   4.051   5.995
 1521SOL    HW1 5462   2.692   4.117   5.990
 1521SOL    HW2 5463   2.635   3.975   5.932
 1522SOL     OW 5464   0.616   2.546   6.553
 1522SOL    HW1 5465   0.541   2.557   6.619
 1522SOL    HW2 5466   0.612   2.618   6.485
 1523SOL     OW 5467   6.683   1.479   0.424
 1523SOL    HW1 5468   6.732   1.451   0.342
 1523SOL    HW2 5469   6.737   1.455   0.505
 1524SOL     OW 5470   6.249   0.961   3.043
 1524SOL    HW1 5471   6.190   0.944   3.122
 1524SOL    HW2 5472   6.197   0.948   2.959
 1525SOL     OW 5473   4.668   1.797   5.949
 1525SOL    HW1 5474   4.586   1.851   5.968
 1525SOL    HW2 5475   4.748   1.857   5.949
 1526SOL     OW 5476   6.821   1.719   0.468
 1526SOL    HW1 5477   6.766   1.659   0.410
 1526SOL    HW2 5478   6.917   1.691   0.462
 1527SOL     OW 5479   2.958   1.901   5.514
 1527SOL    HW1 5480   2.882   1.961   5.488
 1527SOL    HW2 5481   3.021   1.891   5.438
 1528SOL     OW 5482   4.949   5.798   3.528
 1528SOL    HW1 5483   5.044   5.767   3.526
 1528SOL    HW2 5484   4.916   5.810   3.435
 1529SOL     OW 5485   3.197   0.823   5.123
 1529SOL    HW1 5486   3.115   0.786   5.080
 1529SOL    HW2 5487   3.263   0.850   5.052
 1530SOL     OW 5488   2.969   7.011   2.216
 1530SOL    HW1 5489   2.988   6.948   2.141
 1530SOL    HW2 5490   2.896   0.049   2.190
 1531SOL     OW 5491   6.554   0.109   6.001
 1531SOL    HW1 5492   6.560   0.070   6.093
 1531SOL    HW2 5493   6.517   0.040   5.938
 1532SOL     OW 5494   3.490   2.122   5.362
 1532SOL    HW1 5495   3.402   2.150   5.322
 1532SOL    HW2 5496   3.549   2.203   5.370
 1533SOL     OW 5497   5.801   2.725   0.002
 1533SOL    HW1 5498   5.893   2.686   0.004
 1533SOL    HW2 5499   5.784   2.765   6.936
 1534SOL     OW 5500   6.738   6.833   1.459
 1534SOL    HW1 5501   6.653   6.878   1.486
 1534SOL    HW2 5502   6.719   6.762   1.392
 1535SOL     OW 5503   4.768   5.303   3.988
 1535SOL    HW1 5504   4.721   5.390   3.971
 1535SOL    HW2 5505   4.709   5.228   3.959
 1536SOL     OW 5506   2.862   5.548   3.487
 1536SOL    HW1 5507   2.951   5.520   3.453
 1536SOL    HW2 5508   2.794   5.476   3.469
 1537SOL     OW 5509   2.402   5.349   4.523
 1537SOL    HW1 5510   2.423   5.272   4.584
 1537SOL    HW2 5511   2.475   5.358   4.455
 1538SOL     OW 5512   3.267   4.947   6.703
 1538SOL    HW1 5513   3.183   4.991   6.672
 1538SOL    HW2 5514   3.262   4.849   6.683
 1539SOL     OW 5515   3.467   5.054   1.652
 1539SOL    HW1 5516   3.463   5.153   1.667
 1539SOL    HW2 5517   3.485   5.035   1.556
 1540SOL     OW 5518   6.558   6.988   5.505
 1540SOL    HW1 5519   6.530   0.021   5.582
 1540SOL    HW2 5520   6.551   6.892   5.532
 1541SOL     OW 5521   4.825   1.999   0.652
 1541SOL    HW1 5522   4.864   2.037   0.735
 1541SOL    HW2 5523   4.875   2.034   0.573
 1542SOL     OW 5524   0.868   6.380   1.115
 1542SOL    HW1 5525   0.858   6.292   1.162
 1542SOL    HW2 5526   0.921   6.442   1.173
 1543SOL     OW 5527   2.907   3.813   4.266
 1543SOL    HW1 5528   2.826   3.863   4.234
 1543SOL    HW2 5529   2.886   3.769   4.354
 1544SOL     OW 5530   3.605   4.036   2.625
 1544SOL    HW1 5531   3.675   3.972   2.657
 1544SOL    HW2 5532   3.568   4.087   2.703
 1545SOL     OW 5533   6.807   0.368   4.589
 1545SOL    HW1 5534   6.885   0.429   4.605
 1545SOL    HW2 5535   6.840   0.279   4.557
 1546SOL     OW 5536   0.122   6.594   6.134
 1546SOL    HW1 5537   0.082   6.521   6.190
 1546SOL    HW2 5538   0.151   6.669   6.194
 1547SOL     OW 5539   3.834   6.324   6.969
 1547SOL    HW1 5540   3.884   6.267   6.905
 1547SOL    HW2 5541   3.885   6.331   0.031
 1548SOL     OW 5542   6.216   4.659   3.724
 1548SOL    HW1 5543   6.255   4.593   3.788
 1548SOL    HW2 5544   6.119   4.640   3.711
 1549SOL     OW 5545   6.565   1.848   1.468
 1549SOL    HW1 5546   6.468   1.823   1.476
 1549SOL    HW2 5547   6.574   1.947   1.478
 1550SOL     OW 5548   2.293   5.974   3.210
 1550SOL    HW1 5549   2.219   5.909   3.192
 1550SOL    HW2 5550   2.254   6.063   3.235
 1551SOL     OW 5551   0.561   3.237   1.132
 1551SOL    HW1 5552   0.585   3.156   1.079
 1551SOL    HW2 5553   0.633   3.305   1.122
 1552SOL     OW 5554   1.154   6.890   1.015
 1552SOL    HW1 5555   1.217   6.880   0.938
 1552SOL    HW2 5556   1.080   6.823   1.007
 1553SOL     OW 5557   5.631   1.710   5.740
 1553SOL    HW1 5558   5.581   1.781   5.691
 1553SOL    HW2 5559   5.708   1.678   5.684
 1554SOL     OW 5560   2.853   1.802   1.307
 1554SOL    HW1 5561   2.792   1.863   1.356
 1554SOL    HW2 5562   2.948   1.827   1.325
 1555SOL     OW 5563   4.213   0.919   6.287
 1555SOL    HW1 5564   4.155   0.874   6.354
 1555SOL    HW2 5565   4.248   0.852   6.222
 1556SOL     OW 5566   3.332   1.854   6.719
 1556SOL    HW1 5567   3.391   1.935   6.717
 1556SOL    HW2 5568   3.384   1.776   6.755
 1557SOL     OW 5569   1.736   2.944   0.272
 1557SOL    HW1 5570   1.760   3.039   0.251
 1557SOL    HW2 5571   1.771   2.919   0.362
 1558SOL     OW 5572   5.311   3.212   6.064
 1558SOL    HW1 5573   5.254   3.293   6.069
 1558SOL    HW2 5574   5.407   3.239   6.051
 1559SOL     OW 5575   2.845   5.018   3.618
 1559SOL    HW1 5576   2.865   5.092   3.553
 1559SOL    HW2 5577   2.788   5.054   3.692
 1560SOL     OW 5578   3.951   1.990   0.758
 1560SOL    HW1 5579   3.929   1.970   0.663
 1560SOL    HW2 5580   3.968   2.088   0.768
 1561SOL     OW 5581   6.091   5.973   1.165
 1561SOL    HW1 5582   6.073   6.012   1.256
 1561SOL    HW2 5583   6.132   6.042   1.106
 1562SOL     OW 5584   3.339   0.041   2.857
 1562SOL    HW1 5585   3.308   0.092   2.776
 1562SOL    HW2 5586   3.302   6.973   2.854
 1563SOL     OW 5587   2.675   2.189   3.952
 1563SOL    HW1 5588   2.721   2.216   3.867
 1563SOL    HW2 5589   2.671   2.090   3.957
 1564SOL     OW 5590   0.708   1.288   3.008
 1564SOL    HW1 5591   0.627   1.296   2.950
 1564SOL    HW2 5592   0.787   1.325   2.960
 1565SOL     OW 5593   4.137   1.527   4.951
 1565SOL    HW1 5594   4.219   1.563   4.908
 1565SOL    HW2 5595   4.058   1.542   4.892
 1566SOL     OW 5596   5.685   4.485   3.281
 1566SOL    HW1 5597   5.750   4.421   3.321
 1566SOL    HW2 5598   5.720   4.515   3.191
 1567SOL     OW 5599   5.331   0.829   4.784
 1567SOL    HW1 5600   5.254   0.869   4.834
 1567SOL    HW2 5601   5.301   0.746   4.737
 1568SOL     OW 5602   3.041   5.033   1.118
 1568SOL    HW1 5603   3.090   4.946   1.123
 1568SOL    HW2 5604   2.978   5.031   1.040
 1569SOL     OW 5605   2.914   1.207   2.768
 1569SOL    HW1 5606   2.962   1.244   2.848
 1569SOL    HW2 5607   2.962   1.235   2.685
 1570SOL     OW 5608   3.084   5.974   6.351
 1570SOL    HW1 5609   3.038   5.970   6.262
 1570SOL    HW2 5610   3.128   6.063   6.361
 1571SOL     OW 5611   0.379   3.291   3.649
 1571SOL    HW1 5612   0.363   3.380   3.606
 1571SOL    HW2 5613   0.463   3.295   3.703
 1572SOL     OW 5614   2.952   5.316   2.391
 1572SOL    HW1 5615   2.908   5.403   2.367
 1572SOL    HW2 5616   2.885   5.243   2.390
 1573SOL     OW 5617   5.583   5.970   6.986
 1573SOL    HW1 5618   5.548   6.051   0.010
 1573SOL    HW2 5619   5.511   5.932   6.928
 1574SOL     OW 5620   0.264   4.110   3.152
 1574SOL    HW1 5621   0.362   4.091   3.150
 1574SOL    HW2 5622   0.213   4.031   3.118
 1575SOL     OW 5623   6.649   2.244   0.282
 1575SOL    HW1 5624   6.618   2.151   0.298
 1575SOL    HW2 5625   6.614   2.304   0.353
 1576SOL     OW 5626   1.157   6.992   1.656
 1576SOL    HW1 5627   1.237   6.935   1.674
 1576SOL    HW2 5628   1.128   6.980   1.561
 1577SOL     OW 5629   3.550   5.827   5.319
 1577SOL    HW1 5630   3.488   5.758   5.357
 1577SOL    HW2 5631   3.583   5.797   5.230
 1578SOL     OW 5632   5.011   1.090   1.282
 1578SOL    HW1 5633   4.985   0.997   1.309
 1578SOL    HW2 5634   5.107   1.106   1.307
 1579SOL     OW 5635   1.915   2.439   1.360
 1579SOL    HW1 5636   1.924   2.388   1.446
 1579SOL    HW2 5637   1.998   2.492   1.344
 1580SOL     OW 5638   2.896   3.416   2.765
 1580SOL    HW1 5639   2.868   3.446   2.857
 1580SOL    HW2 5640   2.994   3.428   2.755
 1581SOL     OW 5641   6.282   4.716   5.544
 1581SOL    HW1 5642   6.348   4.728   5.469
 1581SOL    HW2 5643   6.193   4.754   5.517
 1582SOL     OW 5644   4.555   6.210   5.031
 1582SOL    HW1 5645   4.523   6.119   5.003
 1582SOL    HW2 5646   4.529   6.226   5.126
 1583SOL     OW 5647   1.357   4.769   4.678
 1583SOL    HW1 5648   1.258   4.784   4.676
 1583SOL    HW2 5649   1.376   4.676   4.707
 1584SOL     OW 5650   0.227   4.486   0.387
 1584SOL    HW1 5651   0.241   4.469   0.485
 1584SOL    HW2 5652   0.275   4.570   0.361
 1585SOL     OW 5653   4.419   6.730   3.591
 1585SOL    HW1 5654   4.427   6.632   3.607
 1585SOL    HW2 5655   4.490   6.758   3.526
 1586SOL     OW 5656   3.486   6.055   3.616
 1586SOL    HW1 5657   3.570   6.027   3.662
 1586SOL    HW2 5658   3.497   6.041   3.517
 1587SOL     OW 5659   2.828   6.481   6.825
 1587SOL    HW1 5660   2.767   6.465   6.903
 1587SOL    HW2 5661   2.923   6.484   6.856
 1588SOL     OW 5662   6.540   1.517   3.813
 1588SOL    HW1 5663   6.603   1.594   3.820
 1588SOL    HW2 5664   6.578   1.438   3.862
 1589SOL     OW 5665   6.607   4.315   3.778
 1589SOL    HW1 5666   6.589   4.323   3.876
 1589SOL    HW2 5667   6.701   4.283   3.764
 1590SOL     OW 5668   6.619   2.448   4.032
 1590SOL    HW1 5669   6.703   2.393   4.040
 1590SOL    HW2 5670   6.607   2.478   3.937
 1591SOL     OW 5671   1.320   6.236   1.315
 1591SOL    HW1 5672   1.346   6.327   1.282
 1591SOL    HW2 5673   1.223   6.236   1.341
 1592SOL     OW 5674   0.080   4.488   5.966
 1592SOL    HW1 5675   0.110   4.393   5.972
 1592SOL    HW2 5676   0.106   4.536   6.050
 1593SOL     OW 5677   3.401   6.973   6.858
 1593SOL    HW1 5678   3.435   6.894   6.807
 1593SOL    HW2 5679   3.302   6.979   6.848
 1594SOL     OW 5680   5.733   0.213   2.372
 1594SOL    HW1 5681   5.833   0.209   2.367
 1594SOL    HW2 5682   5.701   0.304   2.346
 1595SOL     OW 5683   0.348   3.659   0.425
 1595SOL    HW1 5684   0.371   3.583   0.487
 1595SOL    HW2 5685   0.431   3.707   0.399
 1596SOL     OW 5686   4.323   4.730   3.575
 1596SOL    HW1 5687   4.407   4.676   3.573
 1596SOL    HW2 5688   4.256   4.685   3.634
 1597SOL     OW 5689   3.898   6.298   6.680
 1597SOL    HW1 5690   3.922   6.272   6.587
 1597SOL    HW2 5691   3.919   6.394   6.695
 1598SOL     OW 5692   1.405   4.392   6.847
 1598SOL    HW1 5693   1.379   4.478   6.891
 1598SOL    HW2 5694   1.339   4.320   6.871
 1599SOL     OW 5695   4.333   5.460   3.148
 1599SOL    HW1 5696   4.307   5.547   3.107
 1599SOL    HW2 5697   4.432   5.457   3.162
 1600SOL     OW 5698   3.883   0.293   2.200
 1600SOL    HW1 5699   3.799   0.339   2.230
 1600SOL    HW2 5700   3.880   0.197   2.228
 1601SOL     OW 5701   6.199   0.329   5.617
 1601SOL    HW1 5702   6.140   0.262   5.663
 1601SOL    HW2 5703   6.210   0.409   5.675
 1602SOL     OW 5704   3.971   6.073   3.917
 1602SOL    HW1 5705   4.048   6.131   3.890
 1602SOL    HW2 5706   3.982   5.982   3.876
 1603SOL     OW 5707   3.380   5.525   3.287
 1603SOL    HW1 5708   3.429   5.555   3.369
 1603SOL    HW2 5709   3.319   5.449   3.311
 1604SOL     OW 5710   4.151   5.272   1.885
 1604SOL    HW1 5711   4.145   5.358   1.833
 1604SOL    HW2 5712   4.163   5.293   1.982
 1605SOL     OW 5713   4.627   5.354   0.387
 1605SOL    HW1 5714   4.546   5.300   0.364
 1605SOL    HW2 5715   4.636   5.362   0.486
 1606SOL     OW 5716   3.685   5.896   4.764
 1606SOL    HW1 5717   3.750   5.972   4.771
 1606SOL    HW2 5718   3.713   5.835   4.690
 1607SOL     OW 5719   4.488   5.324   2.894
 1607SOL    HW1 5720   4.521   5.348   2.986
 1607SOL    HW2 5721   4.388   5.327   2.892
 1608SOL     OW 5722   5.327   1.583   3.368
 1608SOL    HW1 5723   5.349   1.490   3.338
 1608SOL    HW2 5724   5.294   1.582   3.462
 1609SOL     OW 5725   2.731   6.837   1.354
 1609SOL    HW1 5726   2.712   6.880   1.442
 1609SOL    HW2 5727   2.647   6.831   1.300
 1610SOL     OW 5728   5.491   6.743   1.124
 1610SOL    HW1 5729   5.470   6.779   1.033
 1610SOL    HW2 5730   5.419   6.681   1.153
 1611SOL     OW 5731   1.447   4.484   0.964
 1611SOL    HW1 5732   1.374   4.552   0.954
 1611SOL    HW2 5733   1.526   4.527   1.008
 1612SOL     OW 5734   4.184   0.273   1.748
 1612SOL    HW1 5735   4.181   0.270   1.648
 1612SOL    HW2 5736   4.091   0.275   1.784
 1613SOL     OW 5737   6.681   6.068   2.399
 1613SOL    HW1 5738   6.664   6.158   2.359
 1613SOL    HW2 5739   6.662   6.072   2.497
 1614SOL     OW 5740   6.254   1.378   6.290
 1614SOL    HW1 5741   6.204   1.413   6.369
 1614SOL    HW2 5742   6.330   1.320   6.322
 1615SOL     OW 5743   0.707   4.103   6.229
 1615SOL    HW1 5744   0.704   4.102   6.129
 1615SOL    HW2 5745   0.654   4.180   6.263
 1616SOL     OW 5746   1.409   1.294   4.585
 1616SOL    HW1 5747   1.374   1.332   4.500
 1616SOL    HW2 5748   1.394   1.195   4.586
 1617SOL     OW 5749   6.478   6.841   3.200
 1617SOL    HW1 5750   6.404   6.776   3.215
 1617SOL    HW2 5751   6.487   6.901   3.280
 1618SOL     OW 5752   3.138   5.729   3.253
 1618SOL    HW1 5753   3.124   5.659   3.323
 1618SOL    HW2 5754   3.051   5.774   3.234
 1619SOL     OW 5755   1.570   4.019   0.145
 1619SOL    HW1 5756   1.629   4.094   0.174
 1619SOL    HW2 5757   1.550   4.028   0.047
 1620SOL     OW 5758   3.540   5.210   4.981
 1620SOL    HW1 5759   3.593   5.251   5.055
 1620SOL    HW2 5760   3.563   5.255   4.895
 1621SOL     OW 5761   5.212   6.281   0.471
 1621SOL    HW1 5762   5.306   6.254   0.449
 1621SOL    HW2 5763   5.154   6.264   0.392
 1622SOL     OW 5764   6.707   4.677   4.375
 1622SOL    HW1 5765   6.650   4.615   4.428
 1622SOL    HW2 5766   6.659   4.707   4.293
 1623SOL     OW 5767   0.047   2.123   3.386
 1623SOL    HW1 5768   0.082   2.033   3.411
 1623SOL    HW2 5769   0.012   2.120   3.292
 1624SOL     OW 5770   4.118   2.477   0.981
 1624SOL    HW1 5771   4.075   2.560   0.944
 1624SOL    HW2 5772   4.216   2.478   0.960
 1625SOL     OW 5773   0.217   6.181   1.086
 1625SOL    HW1 5774   0.286   6.122   1.127
 1625SOL    HW2 5775   0.167   6.230   1.158
 1626SOL     OW 5776   2.689   2.173   1.600
 1626SOL    HW1 5777   2.741   2.165   1.685
 1626SOL    HW2 5778   2.740   2.229   1.535
 1627SOL     OW 5779   3.811   1.895   5.384
 1627SOL    HW1 5780   3.839   1.895   5.288
 1627SOL    HW2 5781   3.817   1.987   5.421
 1628SOL     OW 5782   5.551   6.509   0.854
 1628SOL    HW1 5783   5.567   6.493   0.757
 1628SOL    HW2 5784   5.491   6.589   0.865
 1629SOL     OW 5785   1.986   0.552   3.760
 1629SOL    HW1 5786   2.015   0.512   3.673
 1629SOL    HW2 5787   2.013   0.492   3.835
 1630SOL     OW 5788   0.329   4.018   6.823
 1630SOL    HW1 5789   0.366   3.993   6.734
 1630SOL    HW2 5790   0.300   3.936   6.872
 1631SOL     OW 5791   6.728   3.822   0.268
 1631SOL    HW1 5792   6.671   3.852   0.192
 1631SOL    HW2 5793   6.806   3.883   0.277
 1632SOL     OW 5794   6.835   5.943   2.577
 1632SOL    HW1 5795   6.809   5.974   2.485
 1632SOL    HW2 5796   6.923   5.983   2.601
 1633SOL     OW 5797   5.936   3.647   4.444
 1633SOL    HW1 5798   5.952   3.719   4.511
 1633SOL    HW2 5799   5.846   3.659   4.403
 1634SOL     OW 5800   6.630   1.670   4.961
 1634SOL    HW1 5801   6.602   1.578   4.988
 1634SOL    HW2 5802   6.719   1.691   5.003
 1635SOL     OW 5803   4.251   6.110   2.965
 1635SOL    HW1 5804   4.312   6.083   2.891
 1635SOL    HW2 5805   4.229   6.207   2.956
 1636SOL     OW 5806   6.014   5.970   1.438
 1636SOL    HW1 5807   6.104   5.939   1.465
 1636SOL    HW2 5808   5.998   6.063   1.474
 1637SOL     OW 5809   0.815   0.304   2.319
 1637SOL    HW1 5810   0.770   0.216   2.300
 1637SOL    HW2 5811   0.875   0.294   2.398
 1638SOL     OW 5812   6.126   2.218   1.835
 1638SOL    HW1 5813   6.177   2.303   1.821
 1638SOL    HW2 5814   6.030   2.240   1.851
 1639SOL     OW 5815   5.332   2.765   2.615
 1639SOL    HW1 5816   5.237   2.750   2.644
 1639SOL    HW2 5817   5.360   2.858   2.640
 1640SOL     OW 5818   6.954   0.341   6.900
 1640SOL    HW1 5819   0.020   0.383   6.897
 1640SOL    HW2 5820   6.945   0.286   6.983
 1641SOL     OW 5821   6.509   2.577   3.168
 1641SOL    HW1 5822   6.493   2.607   3.262
 1641SOL    HW2 5823   6.454   2.497   3.149
 1642SOL     OW 5824   6.717   2.458   6.277
 1642SOL    HW1 5825   6.639   2.465   6.215
 1642SOL    HW2 5826   6.801   2.479   6.227
 1643SOL     OW 5827   2.164   5.827   4.022
 1643SOL    HW1 5828   2.191   5.776   4.103
 1643SOL    HW2 5829   2.204   5.784   3.941
 1644SOL     OW 5830   5.763   2.892   1.494
 1644SOL    HW1 5831   5.801   2.895   1.401
 1644SOL    HW2 5832   5.768   2.798   1.528
 1645SOL     OW 5833   2.270   0.572   5.355
 1645SOL    HW1 5834   2.290   0.556   5.259
 1645SOL    HW2 5835   2.266   0.671   5.372
 1646SOL     OW 5836   1.242   4.696   0.957
 1646SOL    HW1 5837   1.156   4.709   1.005
 1646SOL    HW2 5838   1.299   4.778   0.966
 1647SOL     OW 5839   5.621   2.575   4.051
 1647SOL    HW1 5840   5.652   2.487   4.085
 1647SOL    HW2 5841   5.571   2.623   4.123
 1648SOL     OW 5842   5.394   5.992   0.836
 1648SOL    HW1 5843   5.388   6.006   0.737
 1648SOL    HW2 5844   5.427   5.900   0.854
 1649SOL     OW 5845   3.727   0.569   3.142
 1649SOL    HW1 5846   3.687   0.477   3.149
 1649SOL    HW2 5847   3.656   0.638   3.155
 1650SOL     OW 5848   2.726   3.943   6.874
 1650SOL    HW1 5849   2.783   4.014   6.914
 1650SOL    HW2 5850   2.767   3.912   6.788
 1651SOL     OW 5851   0.966   2.818   3.348
 1651SOL    HW1 5852   0.933   2.724   3.333
 1651SOL    HW2 5853   0.966   2.868   3.262
 1652SOL     OW 5854   6.862   3.438   1.534
 1652SOL    HW1 5855   6.894   3.400   1.447
 1652SOL    HW2 5856   6.938   3.446   1.598
 1653SOL     OW 5857   0.407   4.521   2.988
 1653SOL    HW1 5858   0.476   4.449   2.992
 1653SOL    HW2 5859   0.342   4.510   3.063
 1654SOL     OW 5860   0.073   3.192   2.598
 1654SOL    HW1 5861   0.085   3.113   2.658
 1654SOL    HW2 5862   0.058   3.274   2.653
 1655SOL     OW 5863   6.682   0.189   5.295
 1655SOL    HW1 5864   6.636   0.277   5.290
 1655SOL    HW2 5865   6.614   0.116   5.285
 1656SOL     OW 5866   1.852   4.371   3.204
 1656SOL    HW1 5867   1.939   4.386   3.157
 1656SOL    HW2 5868   1.804   4.295   3.162
 1657SOL     OW 5869   0.595   6.631   5.259
 1657SOL    HW1 5870   0.534   6.558   5.290
 1657SOL    HW2 5871   0.649   6.664   5.336
 1658SOL     OW 5872   5.764   7.023   6.178
 1658SOL    HW1 5873   5.786   6.973   6.095
 1658SOL    HW2 5874   5.753   0.096   6.158
 1659SOL     OW 5875   4.272   6.914   6.151
 1659SOL    HW1 5876   4.263   7.000   6.200
 1659SOL    HW2 5877   4.213   6.915   6.070
 1660SOL     OW 5878   2.463   0.805   2.409
 1660SOL    HW1 5879   2.553   0.783   2.446
 1660SOL    HW2 5880   2.407   0.844   2.482
 1661SOL     OW 5881   4.544   4.538   2.560
 1661SOL    HW1 5882   4.465   4.593   2.586
 1661SOL    HW2 5883   4.628   4.592   2.570
 1662SOL     OW 5884   0.332   1.595   4.414
 1662SOL    HW1 5885   0.333   1.543   4.500
 1662SOL    HW2 5886   0.392   1.674   4.422
 1663SOL     OW 5887   4.884   4.771   0.154
 1663SOL    HW1 5888   4.837   4.825   0.084
 1663SOL    HW2 5889   4.929   4.833   0.219
 1664SOL     OW 5890   1.153   6.898   5.629
 1664SOL    HW1 5891   1.161   6.997   5.645
 1664SOL    HW2 5892   1.186   6.876   5.538
 1665SOL     OW 5893   2.845   4.374   0.240
 1665SOL    HW1 5894   2.751   4.402   0.219
 1665SOL    HW2 5895   2.900   4.456   0.261
 1666SOL     OW 5896   5.527   6.681   5.961
 1666SOL    HW1 5897   5.598   6.618   5.929
 1666SOL    HW2 5898   5.508   6.749   5.890
 1667SOL     OW 5899   0.389   6.030   1.454
 1667SOL    HW1 5900   0.307   5.974   1.436
 1667SOL    HW2 5901   0.436   6.049   1.368
 1668SOL     OW 5902   5.648   4.826   2.626
 1668SOL    HW1 5903   5.735   4.819   2.674
 1668SOL    HW2 5904   5.576   4.852   2.690
 1669SOL     OW 5905   5.941   3.762   5.438
 1669SOL    HW1 5906   5.893   3.824   5.376
 1669SOL    HW2 5907   6.040   3.766   5.420
 1670SOL     OW 5908   2.371   4.584   6.634
 1670SOL    HW1 5909   2.363   4.519   6.559
 1670SOL    HW2 5910   2.458   4.571   6.681
 1671SOL     OW 5911   6.302   2.392   0.841
 1671SOL    HW1 5912   6.374   2.324   0.854
 1671SOL    HW2 5913   6.343   2.481   0.820
 1672SOL     OW 5914   0.493   3.354   0.274
 1672SOL    HW1 5915   0.489   3.437   0.219
 1672SOL    HW2 5916   0.544   3.284   0.224
 1673SOL     OW 5917   1.568   0.503   4.561
 1673SOL    HW1 5918   1.474   0.533   4.574
 1673SOL    HW2 5919   1.621   0.524   4.643
 1674SOL     OW 5920   4.692   1.742   2.195
 1674SOL    HW1 5921   4.640   1.660   2.219
 1674SOL    HW2 5922   4.780   1.741   2.241
 1675SOL     OW 5923   5.615   0.570   0.942
 1675SOL    HW1 5924   5.702   0.617   0.959
 1675SOL    HW2 5925   5.549   0.635   0.907
 1676SOL     OW 5926   1.207   2.215   2.412
 1676SOL    HW1 5927   1.258   2.229   2.328
 1676SOL    HW2 5928   1.118   2.175   2.391
 1677SOL     OW 5929   3.971   3.216   3.451
 1677SOL    HW1 5930   4.022   3.292   3.492
 1677SOL    HW2 5931   3.890   3.197   3.506
 1678SOL     OW 5932   1.070   6.926   1.409
 1678SOL    HW1 5933   0.984   6.965   1.441
 1678SOL    HW2 5934   1.096   6.969   1.322
 1679SOL     OW 5935   0.648   1.894   6.536
 1679SOL    HW1 5936   0.575   1.865   6.597
 1679SOL    HW2 5937   0.679   1.816   6.481
 1680SOL     OW 5938   5.333   2.555   3.566
 1680SOL    HW1 5939   5.235   2.566   3.548
 1680SOL    HW2 5940   5.351   2.464   3.603
 1681SOL     OW 5941   2.608   6.015   4.577
 1681SOL    HW1 5942   2.661   6.100   4.570
 1681SOL    HW2 5943   2.608   5.984   4.672
 1682SOL     OW 5944   3.556   0.549   4.119
 1682SOL    HW1 5945   3.480   0.518   4.062
 1682SOL    HW2 5946   3.524   0.619   4.183
 1683SOL     OW 5947   6.168   4.879   3.002
 1683SOL    HW1 5948   6.155   4.948   2.931
 1683SOL    HW2 5949   6.085   4.873   3.058
 1684SOL     OW 5950   2.515   4.675   2.018
 1684SOL    HW1 5951   2.604   4.629   2.024
 1684SOL    HW2 5952   2.525   4.762   1.970
 1685SOL     OW 5953   0.028   1.455   5.217
 1685SOL    HW1 5954   0.067   1.406   5.295
 1685SOL    HW2 5955   7.013   1.541   5.249
 1686SOL     OW 5956   4.671   5.646   2.791
 1686SOL    HW1 5957   4.634   5.562   2.830
 1686SOL    HW2 5958   4.614   5.676   2.715
 1687SOL     OW 5959   5.205   4.147   1.607
 1687SOL    HW1 5960   5.128   4.138   1.545
 1687SOL    HW2 5961   5.271   4.074   1.590
 1688SOL     OW 5962   1.198   1.108   2.531
 1688SOL    HW1 5963   1.297   1.102   2.519
 1688SOL    HW2 5964   1.178   1.169   2.608
 1689SOL     OW 5965   4.686   0.693   1.163
 1689SOL    HW1 5966   4.663   0.660   1.255
 1689SOL    HW2 5967   4.716   0.788   1.168
 1690SOL     OW 5968   0.462   4.447   3.663
 1690SOL    HW1 5969   0.537   4.512   3.650
 1690SOL    HW2 5970   0.398   4.454   3.587
 1691SOL     OW 5971   4.809   2.739   5.085
 1691SOL    HW1 5972   4.731   2.698   5.037
 1691SOL    HW2 5973   4.799   2.724   5.184
 1692SOL     OW 5974   4.837   5.167   1.691
 1692SOL    HW1 5975   4.904   5.242   1.689
 1692SOL    HW2 5976   4.745   5.204   1.681
 1693SOL     OW 5977   5.490   0.221   5.126
 1693SOL    HW1 5978   5.519   0.185   5.038
 1693SOL    HW2 5979   5.555   0.290   5.157
 1694SOL     OW 5980   4.734   1.691   5.693
 1694SOL    HW1 5981   4.729   1.592   5.679
 1694SOL    HW2 5982   4.666   1.719   5.761
 1695SOL     OW 5983   4.102   1.113   6.985
 1695SOL    HW1 5984   4.009   1.076   6.979
 1695SOL    HW2 5985   4.107   1.198   6.932
 1696SOL     OW 5986   5.261   6.490   0.608
 1696SOL    HW1 5987   5.180   6.528   0.652
 1696SOL    HW2 5988   5.236   6.406   0.560
 1697SOL     OW 5989   4.925   2.228   2.332
 1697SOL    HW1 5990   4.914   2.297   2.261
 1697SOL    HW2 5991   5.014   2.238   2.376
 1698SOL     OW 5992   4.091   0.640   1.845
 1698SOL    HW1 5993   4.116   0.731   1.814
 1698SOL    HW2 5994   4.162   0.604   1.905
 1699SOL     OW 5995   2.731   6.753   0.105
 1699SOL    HW1 5996   2.735   6.843   0.061
 1699SOL    HW2 5997   2.717   6.764   0.203
 1700SOL     OW 5998   5.797   2.530   2.950
 1700SOL    HW1 5999   5.754   2.526   3.040
 1700SOL    HW2 6000   5.886   2.483   2.954
 1701SOL     OW 6001   6.955   5.785   4.714
 1701SOL    HW1 6002   6.859   5.778   4.742
 1701SOL    HW2 6003   7.008   5.826   4.788
 1702SOL     OW 6004   1.820   2.262   6.217
 1702SOL    HW1 6005   1.914   2.276   6.248
 1702SOL    HW2 6006   1.777   2.189   6.269
 1703SOL     OW 6007   2.213   1.926   1.506
 1703SOL    HW1 6008   2.171   1.988   1.439
 1703SOL    HW2 6009   2.235   1.839   1.462
 1704SOL     OW 6010   3.059   2.438   1.134
 1704SOL    HW1 6011   3.071   2.362   1.198
 1704SOL    HW2 6012   3.109   2.418   1.050
 1705SOL     OW 6013   4.068   2.355   0.477
 1705SOL    HW1 6014   4.086   2.310   0.564
 1705SOL    HW2 6015   4.150   2.403   0.447
 1706SOL     OW 6016   5.337   2.203   6.723
 1706SOL    HW1 6017   5.354   2.112   6.687
 1706SOL    HW2 6018   5.345   2.202   6.823
 1707SOL     OW 6019   4.584   1.503   2.293
 1707SOL    HW1 6020   4.588   1.509   2.392
 1707SOL    HW2 6021   4.550   1.413   2.266
 1708SOL     OW 6022   3.425   4.962   1.946
 1708SOL    HW1 6023   3.434   5.014   1.861
 1708SOL    HW2 6024   3.503   4.901   1.956
 1709SOL     OW 6025   4.803   5.248   0.914
 1709SOL    HW1 6026   4.806   5.322   0.847
 1709SOL    HW2 6027   4.765   5.282   1.000
 1710SOL     OW 6028   4.996   5.071   3.185
 1710SOL    HW1 6029   5.072   5.083   3.121
 1710SOL    HW2 6030   4.919   5.127   3.156
 1711SOL     OW 6031   4.445   5.105   6.726
 1711SOL    HW1 6032   4.386   5.047   6.782
 1711SOL    HW2 6033   4.427   5.201   6.747
 1712SOL     OW 6034   0.676   1.420   2.393
 1712SOL    HW1 6035   0.670   1.402   2.295
 1712SOL    HW2 6036   0.610   1.363   2.442
 1713SOL     OW 6037   3.862   0.918   2.803
 1713SOL    HW1 6038   3.771   0.901   2.841
 1713SOL    HW2 6039   3.932   0.898   2.872
 1714SOL     OW 6040   3.379   3.584   0.464
 1714SOL    HW1 6041   3.291   3.608   0.422
 1714SOL    HW2 6042   3.395   3.643   0.543
 1715SOL     OW 6043   2.267   6.706   2.623
 1715SOL    HW1 6044   2.223   6.794   2.641
 1715SOL    HW2 6045   2.198   6.633   2.630
 1716SOL     OW 6046   4.894   1.297   3.633
 1716SOL    HW1 6047   4.934   1.326   3.546
 1716SOL    HW2 6048   4.932   1.352   3.707
 1717SOL     OW 6049   3.251   6.569   5.331
 1717SOL    HW1 6050   3.294   6.480   5.319
 1717SOL    HW2 6051   3.153   6.557   5.347
 1718SOL     OW 6052   1.275   2.912   1.208
 1718SOL    HW1 6053   1.203   2.972   1.240
 1718SOL    HW2 6054   1.270   2.825   1.257
 1719SOL     OW 6055   0.987   5.432   2.936
 1719SOL    HW1 6056   1.061   5.441   3.003
 1719SOL    HW2 6057   1.015   5.371   2.862
 1720SOL     OW 6058   0.732   3.062   5.995
 1720SOL    HW1 6059   0.749   3.152   6.034
 1720SOL    HW2 6060   0.744   3.066   5.896
 1721SOL     OW 6061   1.229   2.267   0.884
 1721SOL    HW1 6062   1.168   2.337   0.920
 1721SOL    HW2 6063   1.306   2.255   0.946
 1722SOL     OW 6064   2.457   2.517   3.711
 1722SOL    HW1 6065   2.508   2.493   3.794
 1722SOL    HW2 6066   2.381   2.454   3.699
 1723SOL     OW 6067   5.832   4.047   0.580
 1723SOL    HW1 6068   5.925   4.021   0.607
 1723SOL    HW2 6069   5.796   3.979   0.516
 1724SOL     OW 6070   5.769   2.602   0.982
 1724SOL    HW1 6071   5.853   2.550   0.965
 1724SOL    HW2 6072   5.791   2.684   1.035
 1725SOL     OW 6073   1.628   5.969   6.710
 1725SOL    HW1 6074   1.647   5.950   6.806
 1725SOL    HW2 6075   1.589   5.887   6.667
 1726SOL     OW 6076   5.514   4.571   2.510
 1726SOL    HW1 6077   5.432   4.544   2.560
 1726SOL    HW2 6078   5.538   4.665   2.535
 1727SOL     OW 6079   3.154   3.810   3.143
 1727SOL    HW1 6080   3.182   3.859   3.226
 1727SOL    HW2 6081   3.120   3.875   3.076
 1728SOL     OW 6082   5.407   2.514   3.861
 1728SOL    HW1 6083   5.471   2.558   3.923
 1728SOL    HW2 6084   5.442   2.518   3.768
 1729SOL     OW 6085   1.395   2.801   2.532
 1729SOL    HW1 6086   1.457   2.803   2.454
 1729SOL    HW2 6087   1.357   2.893   2.546
 1730SOL     OW 6088   2.196   5.372   4.370
 1730SOL    HW1 6089   2.285   5.372   4.416
 1730SOL    HW2 6090   2.210   5.372   4.271
 1731SOL     OW 6091   6.406   5.443   3.503
 1731SOL    HW1 6092   6.419   5.380   3.579
 1731SOL    HW2 6093   6.494   5.459   3.457
 1732SOL     OW 6094   2.451   3.406   5.784
 1732SOL    HW1 6095   2.360   3.373   5.759
 1732SOL    HW2 6096   2.513   3.394   5.707
 1733SOL     OW 6097   2.196   3.498   6.279
 1733SOL    HW1 6098   2.283   3.478   6.235
 1733SOL    HW2 6099   2.195   3.458   6.371
 1734SOL     OW 6100   6.503   3.061   1.106
 1734SOL    HW1 6101   6.540   3.090   1.195
 1734SOL    HW2 6102   6.543   2.972   1.081
 1735SOL     OW 6103   4.038   5.407   6.049
 1735SOL    HW1 6104   3.992   5.461   6.119
 1735SOL    HW2 6105   3.976   5.335   6.016
 1736SOL     OW 6106   5.183   2.551   0.596
 1736SOL    HW1 6107   5.125   2.556   0.515
 1736SOL    HW2 6108   5.147   2.611   0.667
 1737SOL     OW 6109   4.586   1.742   5.256
 1737SOL    HW1 6110   4.522   1.778   5.188
 1737SOL    HW2 6111   4.620   1.818   5.313
 1738SOL     OW 6112   1.664   3.158   4.223
 1738SOL    HW1 6113   1.722   3.091   4.175
 1738SOL    HW2 6114   1.636   3.121   4.311
 1739SOL     OW 6115   5.716   0.685   3.430
 1739SOL    HW1 6116   5.624   0.686   3.469
 1739SOL    HW2 6117   5.770   0.613   3.474
 1740SOL     OW 6118   6.226   3.333   4.867
 1740SOL    HW1 6119   6.141   3.361   4.912
 1740SOL    HW2 6120   6.241   3.236   4.884
 1741SOL     OW 6121   0.115   1.819   4.612
 1741SOL    HW1 6122   0.072   1.826   4.522
 1741SOL    HW2 6123   0.196   1.878   4.615
 1742SOL     OW 6124   6.554   5.946   6.166
 1742SOL    HW1 6125   6.483   5.968   6.099
 1742SOL    HW2 6126   6.522   5.870   6.224
 1743SOL     OW 6127   1.915   1.355   2.366
 1743SOL    HW1 6128   1.999   1.374   2.316
 1743SOL    HW2 6129   1.845   1.322   2.303
 1744SOL     OW 6130   3.593   2.055   4.794
 1744SOL    HW1 6131   3.622   2.150   4.804
 1744SOL    HW2 6132   3.508   2.041   4.845
 1745SOL     OW 6133   6.185   6.466   1.395
 1745SOL    HW1 6134   6.086   6.473   1.404
 1745SOL    HW2 6135   6.227   6.550   1.431
 1746SOL     OW 6136   2.505   4.412   3.492
 1746SOL    HW1 6137   2.513   4.447   3.399
 1746SOL    HW2 6138   2.434   4.341   3.495
 1747SOL     OW 6139   4.441   0.274   2.456
 1747SOL    HW1 6140   4.444   0.180   2.420
 1747SOL    HW2 6141   4.472   0.274   2.551
 1748SOL     OW 6142   6.629   3.010   5.076
 1748SOL    HW1 6143   6.701   3.031   5.010
 1748SOL    HW2 6144   6.586   3.096   5.106
 1749SOL     OW 6145   0.741   4.919   0.884
 1749SOL    HW1 6146   0.672   4.936   0.954
 1749SOL    HW2 6147   0.806   4.995   0.882
 1750SOL     OW 6148   3.861   0.366   6.283
 1750SOL    HW1 6149   3.882   0.446   6.341
 1750SOL    HW2 6150   3.912   0.373   6.197
 1751SOL     OW 6151   6.062   3.045   5.146
 1751SOL    HW1 6152   6.158   3.039   5.117
 1751SOL    HW2 6153   6.020   3.125   5.103
 1752SOL     OW 6154   6.937   0.424   2.164
 1752SOL    HW1 6155   6.849   0.388   2.196
 1752SOL    HW2 6156   6.951   0.516   2.201
 1753SOL     OW 6157   6.106   1.385   1.992
 1753SOL    HW1 6158   6.109   1.302   1.936
 1753SOL    HW2 6159   6.036   1.375   2.062
 1754SOL     OW 6160   2.818   5.562   4.145
 1754SOL    HW1 6161   2.814   5.647   4.198
 1754SOL    HW2 6162   2.912   5.529   4.141
 1755SOL     OW 6163   6.162   6.724   4.544
 1755SOL    HW1 6164   6.153   6.724   4.643
 1755SOL    HW2 6165   6.102   6.655   4.504
 1756SOL     OW 6166   4.928   6.444   0.422
 1756SOL    HW1 6167   4.905   6.484   0.510
 1756SOL    HW2 6168   4.944   6.345   0.433
 1757SOL     OW 6169   2.426   5.107   4.952
 1757SOL    HW1 6170   2.498   5.163   4.993
 1757SOL    HW2 6171   2.437   5.012   4.982
 1758SOL     OW 6172   1.832   6.194   4.720
 1758SOL    HW1 6173   1.832   6.096   4.737
 1758SOL    HW2 6174   1.755   6.236   4.767
 1759SOL     OW 6175   1.393   6.448   0.305
 1759SOL    HW1 6176   1.417   6.414   0.395
 1759SOL    HW2 6177   1.431   6.388   0.235
 1760SOL     OW 6178   6.915   0.771   4.925
 1760SOL    HW1 6179   7.010   0.741   4.924
 1760SOL    HW2 6180   6.905   0.853   4.869
 1761SOL     OW 6181   5.611   1.296   2.600
 1761SOL    HW1 6182   5.669   1.252   2.532
 1761SOL    HW2 6183   5.656   1.376   2.637
 1762SOL     OW 6184   1.125   1.476   5.609
 1762SOL    HW1 6185   1.117   1.528   5.524
 1762SOL    HW2 6186   1.084   1.528   5.684
 1763SOL     OW 6187   0.544   3.975   3.915
 1763SOL    HW1 6188   0.565   4.041   3.842
 1763SOL    HW2 6189   0.459   4.000   3.960
 1764SOL     OW 6190   1.397   5.414   3.323
 1764SOL    HW1 6191   1.326   5.356   3.284
 1764SOL    HW2 6192   1.483   5.362   3.331
 1765SOL     OW 6193   5.693   3.318   2.570
 1765SOL    HW1 6194   5.604   3.356   2.594
 1765SOL    HW2 6195   5.744   3.384   2.514
 1766SOL     OW 6196   4.327   4.604   3.855
 1766SOL    HW1 6197   4.253   4.566   3.911
 1766SOL    HW2 6198   4.397   4.533   3.842
 1767SOL     OW 6199   0.434   4.809   2.329
 1767SOL    HW1 6200   0.341   4.781   2.351
 1767SOL    HW2 6201   0.435   4.859   2.243
 1768SOL     OW 6202   4.990   5.340   2.186
 1768SOL    HW1 6203   4.944   5.256   2.157
 1768SOL    HW2 6204   5.025   5.329   2.279
 1769SOL     OW 6205   5.965   0.340   0.288
 1769SOL    HW1 6206   5.882   0.289   0.266
 1769SOL    HW2 6207   5.960   0.372   0.383
 1770SOL     OW 6208   1.691   4.924   1.003
 1770SOL    HW1 6209   1.753   4.852   1.034
 1770SOL    HW2 6210   1.654   4.900   0.913
 1771SOL     OW 6211   1.859   2.872   6.021
 1771SOL    HW1 6212   1.882   2.866   5.924
 1771SOL    HW2 6213   1.795   2.948   6.035
 1772SOL     OW 6214   2.254   4.078   2.552
 1772SOL    HW1 6215   2.158   4.100   2.536
 1772SOL    HW2 6216   2.269   3.981   2.534
 1773SOL     OW 6217   2.043   6.289   6.538
 1773SOL    HW1 6218   2.001   6.342   6.465
 1773SOL    HW2 6219   2.121   6.237   6.502
 1774SOL     OW 6220   5.747   5.649   0.859
 1774SOL    HW1 6221   5.648   5.663   0.861
 1774SOL    HW2 6222   5.783   5.683   0.772
 1775SOL     OW 6223   2.101   5.283   0.393
 1775SOL    HW1 6224   2.032   5.327   0.335
 1775SOL    HW2 6225   2.187   5.335   0.387
 1776SOL     OW 6226   4.686   2.375   5.069
 1776SOL    HW1 6227   4.641   2.464   5.062
 1776SOL    HW2 6228   4.642   2.311   5.006
 1777SOL     OW 6229   4.970   6.552   6.925
 1777SOL    HW1 6230   5.044   6.501   6.881
 1777SOL    HW2 6231   5.007   6.631   6.973
 1778SOL     OW 6232   5.935   0.127   3.993
 1778SOL    HW1 6233   5.996   0.165   3.924
 1778SOL    HW2 6234   5.985   0.117   4.079
 1779SOL     OW 6235   5.477   0.344   3.995
 1779SOL    HW1 6236   5.451   0.406   3.921
 1779SOL    HW2 6237   5.448   0.383   4.082
 1780SOL     OW 6238   1.927   5.010   5.225
 1780SOL    HW1 6239   2.013   4.995   5.176
 1780SOL    HW2 6240   1.883   4.922   5.243
 1781SOL     OW 6241   4.010   0.930   5.039
 1781SOL    HW1 6242   3.980   1.005   4.980
 1781SOL    HW2 6243   3.971   0.942   5.130
 1782SOL     OW 6244   6.425   1.414   2.519
 1782SOL    HW1 6245   6.453   1.509   2.530
 1782SOL    HW2 6246   6.408   1.396   2.422
 1783SOL     OW 6247   2.160   3.939   6.543
 1783SOL    HW1 6248   2.187   4.023   6.495
 1783SOL    HW2 6249   2.106   3.881   6.482
 1784SOL     OW 6250   3.007   6.642   1.620
 1784SOL    HW1 6251   2.943   6.700   1.669
 1784SOL    HW2 6252   2.977   6.546   1.626
 1785SOL     OW 6253   1.178   6.608   5.001
 1785SOL    HW1 6254   1.170   6.548   4.922
 1785SOL    HW2 6255   1.089   6.621   5.044
 1786SOL     OW 6256   1.184   6.477   1.078
 1786SOL    HW1 6257   1.277   6.468   1.115
 1786SOL    HW2 6258   1.120   6.486   1.154
 1787SOL     OW 6259   2.237   3.033   6.209
 1787SOL    HW1 6260   2.298   3.105   6.242
 1787SOL    HW2 6261   2.213   2.972   6.285
 1788SOL     OW 6262   4.461   4.047   1.232
 1788SOL    HW1 6263   4.508   3.986   1.168
 1788SOL    HW2 6264   4.520   4.064   1.311
 1789SOL     OW 6265   6.213   3.801   2.131
 1789SOL    HW1 6266   6.247   3.707   2.134
 1789SOL    HW2 6267   6.132   3.810   2.189
 1790SOL     OW 6268   1.752   2.279   4.414
 1790SOL    HW1 6269   1.737   2.304   4.510
 1790SOL    HW2 6270   1.739   2.359   4.357
 1791SOL     OW 6271   4.963   0.273   3.684
 1791SOL    HW1 6272   4.866   0.294   3.691
 1791SOL    HW2 6273   4.979   0.216   3.603
 1792SOL     OW 6274   0.476   2.036   5.914
 1792SOL    HW1 6275   0.574   2.052   5.902
 1792SOL    HW2 6276   0.458   1.938   5.908
 1793SOL     OW 6277   0.159   0.650   5.705
 1793SOL    HW1 6278   0.224   0.655   5.782
 1793SOL    HW2 6279   0.150   0.740   5.664
 1794SOL     OW 6280   1.001   0.463   5.993
 1794SOL    HW1 6281   1.081   0.514   6.024
 1794SOL    HW2 6282   0.954   0.516   5.922
 1795SOL     OW 6283   5.434   4.355   1.052
 1795SOL    HW1 6284   5.435   4.343   0.953
 1795SOL    HW2 6285   5.518   4.400   1.082
 1796SOL     OW 6286   0.307   0.147   6.986
 1796SOL    HW1 6287   0.401   0.162   6.953
 1796SOL    HW2 6288   0.310   0.096   0.047
 1797SOL     OW 6289   2.198   5.007   5.606
 1797SOL    HW1 6290   2.122   5.053   5.562
 1797SOL    HW2 6291   2.209   5.041   5.699
 1798SOL     OW 6292   2.526   3.850   5.300
 1798SOL    HW1 6293   2.472   3.886   5.224
 1798SOL    HW2 6294   2.565   3.926   5.352
 1799SOL     OW 6295   2.818   1.692   0.870
 1799SOL    HW1 6296   2.720   1.673   0.863
 1799SOL    HW2 6297   2.866   1.643   0.797
 1800SOL     OW 6298   5.705   3.245   5.159
 1800SOL    HW1 6299   5.666   3.310   5.224
 1800SOL    HW2 6300   5.646   3.240   5.078
 1801SOL     OW 6301   0.908   0.412   3.377
 1801SOL    HW1 6302   0.996   0.365   3.372
 1801SOL    HW2 6303   0.914   0.499   3.329
 1802SOL     OW 6304   6.983   5.231   4.026
 1802SOL    HW1 6305   6.919   5.295   4.067
 1802SOL    HW2 6306   6.956   5.212   3.932
 1803SOL     OW 6307   0.372   0.119   3.468
 1803SOL    HW1 6308   0.315   0.106   3.550
 1803SOL    HW2 6309   0.469   0.110   3.493
 1804SOL     OW 6310   2.205   2.956   5.963
 1804SOL    HW1 6311   2.114   2.915   5.960
 1804SOL    HW2 6312   2.216   3.006   6.049
 1805SOL     OW 6313   6.672   5.119   0.826
 1805SOL    HW1 6314   6.723   5.045   0.782
 1805SOL    HW2 6315   6.577   5.091   0.838
 1806SOL     OW 6316   0.154   1.587   1.259
 1806SOL    HW1 6317   0.193   1.609   1.349
 1806SOL    HW2 6318   0.163   1.666   1.199
 1807SOL     OW 6319   0.196   2.559   2.269
 1807SOL    HW1 6320   0.188   2.623   2.346
 1807SOL    HW2 6321   0.213   2.467   2.304
 1808SOL     OW 6322   5.393   1.816   6.315
 1808SOL    HW1 6323   5.330   1.856   6.382
 1808SOL    HW2 6324   5.379   1.717   6.311
 1809SOL     OW 6325   4.730   0.289   5.013
 1809SOL    HW1 6326   4.692   0.366   5.064
 1809SOL    HW2 6327   4.656   0.229   4.983
 1810SOL     OW 6328   0.996   0.391   4.554
 1810SOL    HW1 6329   0.960   0.298   4.563
 1810SOL    HW2 6330   0.990   0.420   4.459
 1811SOL     OW 6331   3.669   5.540   2.083
 1811SOL    HW1 6332   3.689   5.467   2.148
 1811SOL    HW2 6333   3.751   5.561   2.029
 1812SOL     OW 6334   4.836   6.380   6.345
 1812SOL    HW1 6335   4.867   6.323   6.269
 1812SOL    HW2 6336   4.875   6.471   6.337
 1813SOL     OW 6337   4.840   4.490   1.925
 1813SOL    HW1 6338   4.762   4.552   1.922
 1813SOL    HW2 6339   4.819   4.407   1.872
 1814SOL     OW 6340   6.619   6.221   0.493
 1814SOL    HW1 6341   6.718   6.206   0.493
 1814SOL    HW2 6342   6.583   6.198   0.403
 1815SOL     OW 6343   5.424   6.112   1.108
 1815SOL    HW1 6344   5.405   6.209   1.093
 1815SOL    HW2 6345   5.433   6.066   1.020
 1816SOL     OW 6346   4.444   4.751   5.178
 1816SOL    HW1 6347   4.521   4.810   5.157
 1816SOL    HW2 6348   4.358   4.799   5.160
 1817SOL     OW 6349   0.031   2.498   3.948
 1817SOL    HW1 6350   7.007   2.412   3.927
 1817SOL    HW2 6351   0.123   2.494   3.910
 1818SOL     OW 6352   2.635   0.927   0.471
 1818SOL    HW1 6353   2.679   1.018   0.467
 1818SOL    HW2 6354   2.699   0.858   0.437
 1819SOL     OW 6355   1.998   4.241   2.544
 1819SOL    HW1 6356   1.900   4.240   2.525
 1819SOL    HW2 6357   2.027   4.334   2.570
 1820SOL     OW 6358   3.222   0.035   5.257
 1820SOL    HW1 6359   3.135   7.016   5.232
 1820SOL    HW2 6360   3.207   0.134   5.270
 1821SOL     OW 6361   3.548   1.870   2.287
 1821SOL    HW1 6362   3.548   1.932   2.366
 1821SOL    HW2 6363   3.630   1.814   2.289
 1822SOL     OW 6364   0.081   3.288   3.097
 1822SOL    HW1 6365   0.124   3.330   3.177
 1822SOL    HW2 6366   0.081   3.189   3.107
 1823SOL     OW 6367   4.327   6.247   1.950
 1823SOL    HW1 6368   4.351   6.226   2.044
 1823SOL    HW2 6369   4.410   6.255   1.895
 1824SOL     OW 6370   4.267   3.124   1.783
 1824SOL    HW1 6371   4.357   3.125   1.827
 1824SOL    HW2 6372   4.240   3.218   1.759
 1825SOL     OW 6373   0.823   2.611   5.241
 1825SOL    HW1 6374   0.918   2.607   5.271
 1825SOL    HW2 6375   0.807   2.697   5.192
 1826SOL     OW 6376   3.560   1.933   1.643
 1826SOL    HW1 6377   3.493   1.954   1.573
 1826SOL    HW2 6378   3.649   1.971   1.617
 1827SOL     OW 6379   5.749   5.464   0.493
 1827SOL    HW1 6380   5.808   5.383   0.502
 1827SOL    HW2 6381   5.786   5.537   0.551
 1828SOL     OW 6382   1.715   3.582   5.130
 1828SOL    HW1 6383   1.638   3.638   5.161
 1828SOL    HW2 6384   1.796   3.640   5.120
 1829SOL     OW 6385   3.909   0.225   1.799
 1829SOL    HW1 6386   3.828   0.256   1.748
 1829SOL    HW2 6387   3.881   0.161   1.870
 1830SOL     OW 6388   5.235   1.027   6.199
 1830SOL    HW1 6389   5.223   1.034   6.298
 1830SOL    HW2 6390   5.330   1.005   6.178
 1831SOL     OW 6391   3.528   5.074   0.338
 1831SOL    HW1 6392   3.479   5.042   0.420
 1831SOL    HW2 6393   3.519   5.006   0.265
 1832SOL     OW 6394   2.679   2.799   6.912
 1832SOL    HW1 6395   2.670   2.802   7.012
 1832SOL    HW2 6396   2.703   2.889   6.878
 1833SOL     OW 6397   5.213   1.451   6.985
 1833SOL    HW1 6398   5.292   1.497   7.024
 1833SOL    HW2 6399   5.223   1.352   6.998
 1834SOL     OW 6400   0.264   2.749   5.245
 1834SOL    HW1 6401   0.306   2.741   5.336
 1834SOL    HW2 6402   0.310   2.687   5.182
 1835SOL     OW 6403   6.588   6.452   1.292
 1835SOL    HW1 6404   6.546   6.368   1.326
 1835SOL    HW2 6405   6.590   6.520   1.365
 1836SOL     OW 6406   5.415   2.442   2.328
 1836SOL    HW1 6407   5.451   2.479   2.414
 1836SOL    HW2 6408   5.334   2.387   2.346
 1837SOL     OW 6409   3.310   2.192   6.505
 1837SOL    HW1 6410   3.265   2.242   6.431
 1837SOL    HW2 6411   3.268   2.102   6.514
 1838SOL     OW 6412   5.121   0.875   0.770
 1838SOL    HW1 6413   5.066   0.912   0.695
 1838SOL    HW2 6414   5.101   0.925   0.854
 1839SOL     OW 6415   0.169   0.276   0.573
 1839SOL    HW1 6416   0.182   0.305   0.479
 1839SOL    HW2 6417   0.229   0.198   0.593
 1840SOL     OW 6418   4.488   6.344   3.996
 1840SOL    HW1 6419   4.543   6.419   4.033
 1840SOL    HW2 6420   4.547   6.285   3.940
 1841SOL     OW 6421   1.463   1.045   1.778
 1841SOL    HW1 6422   1.409   1.088   1.850
 1841SOL    HW2 6423   1.426   0.954   1.758
 1842SOL     OW 6424   1.084   5.657   1.329
 1842SOL    HW1 6425   1.099   5.719   1.406
 1842SOL    HW2 6426   1.101   5.705   1.243
 1843SOL     OW 6427   2.599   1.155   6.465
 1843SOL    HW1 6428   2.686   1.203   6.456
 1843SOL    HW2 6429   2.559   1.140   6.374
 1844SOL     OW 6430   6.081   2.804   6.091
 1844SOL    HW1 6431   6.179   2.806   6.107
 1844SOL    HW2 6432   6.052   2.889   6.047
 1845SOL     OW 6433   1.049   2.101   3.020
 1845SOL    HW1 6434   1.036   2.186   3.072
 1845SOL    HW2 6435   0.998   2.106   2.935
 1846SOL     OW 6436   3.043   1.599   1.127
 1846SOL    HW1 6437   2.968   1.657   1.159
 1846SOL    HW2 6438   3.102   1.651   1.065
 1847SOL     OW 6439   1.679   5.894   6.108
 1847SOL    HW1 6440   1.594   5.842   6.105
 1847SOL    HW2 6441   1.724   5.890   6.019
 1848SOL     OW 6442   4.053   6.500   3.402
 1848SOL    HW1 6443   4.055   6.411   3.448
 1848SOL    HW2 6444   3.976   6.502   3.338
 1849SOL     OW 6445   4.778   2.397   2.166
 1849SOL    HW1 6446   4.717   2.366   2.093
 1849SOL    HW2 6447   4.760   2.493   2.187
 1850SOL     OW 6448   4.332   1.915   0.375
 1850SOL    HW1 6449   4.327   1.973   0.456
 1850SOL    HW2 6450   4.330   1.972   0.293
 1851SOL     OW 6451   6.916   4.474   4.867
 1851SOL    HW1 6452   6.987   4.541   4.887
 1851SOL    HW2 6453   6.911   4.407   4.942
 1852SOL     OW 6454   0.817   0.423   2.917
 1852SOL    HW1 6455   0.914   0.424   2.940
 1852SOL    HW2 6456   0.763   0.435   3.000
 1853SOL     OW 6457   0.351   2.151   6.132
 1853SOL    HW1 6458   0.422   2.141   6.202
 1853SOL    HW2 6459   0.377   2.099   6.051
 1854SOL     OW 6460   0.998   6.621   3.547
 1854SOL    HW1 6461   0.947   6.683   3.606
 1854SOL    HW2 6462   0.948   6.534   3.538
 1855SOL     OW 6463   5.625   2.973   4.562
 1855SOL    HW1 6464   5.668   3.053   4.603
 1855SOL    HW2 6465   5.634   2.895   4.624
 1856SOL     OW 6466   3.988   3.602   0.204
 1856SOL    HW1 6467   3.972   3.595   0.302
 1856SOL    HW2 6468   3.922   3.545   0.155
 1857SOL     OW 6469   3.677   1.144   6.811
 1857SOL    HW1 6470   3.619   1.090   6.750
 1857SOL    HW2 6471   3.619   1.192   6.878
 1858SOL     OW 6472   4.917   2.471   4.205
 1858SOL    HW1 6473   4.852   2.432   4.140
 1858SOL    HW2 6474   4.869   2.527   4.272
 1859SOL     OW 6475   6.169   1.009   4.021
 1859SOL    HW1 6476   6.125   0.971   4.103
 1859SOL    HW2 6477   6.101   1.015   3.948
 1860SOL     OW 6478   2.159   1.097   5.969
 1860SOL    HW1 6479   2.123   1.064   5.882
 1860SOL    HW2 6480   2.195   1.189   5.958
 1861SOL     OW 6481   6.588   6.539   4.616
 1861SOL    HW1 6482   6.621   6.581   4.532
 1861SOL    HW2 6483   6.489   6.529   4.612
 1862SOL     OW 6484   2.841   5.316   5.234
 1862SOL    HW1 6485   2.874   5.411   5.239
 1862SOL    HW2 6486   2.901   5.257   5.287
 1863SOL     OW 6487   0.327   2.439   1.235
 1863SOL    HW1 6488   0.396   2.368   1.219
 1863SOL    HW2 6489   0.368   2.529   1.222
 1864SOL     OW 6490   3.499   5.689   2.257
 1864SOL    HW1 6491   3.545   5.772   2.290
 1864SOL    HW2 6492   3.567   5.625   2.223
 1865SOL     OW 6493   6.178   2.365   5.912
 1865SOL    HW1 6494   6.178   2.318   6.001
 1865SOL    HW2 6495   6.154   2.461   5.926
 1866SOL     OW 6496   0.475   5.048   3.288
 1866SOL    HW1 6497   0.541   5.089   3.352
 1866SOL    HW2 6498   0.394   5.018   3.338
 1867SOL     OW 6499   0.610   2.602   1.471
 1867SOL    HW1 6500   0.704   2.594   1.504
 1867SOL    HW2 6501   0.609   2.651   1.384
 1868SOL     OW 6502   5.697   3.446   6.924
 1868SOL    HW1 6503   5.664   3.352   6.924
 1868SOL    HW2 6504   5.677   3.488   7.013
 1869SOL     OW 6505   4.746   1.110   4.549
 1869SOL    HW1 6506   4.730   1.055   4.631
 1869SOL    HW2 6507   4.826   1.168   4.562
 1870SOL     OW 6508   6.489   6.526   5.711
 1870SOL    HW1 6509   6.539   6.439   5.708
 1870SOL    HW2 6510   6.455   6.542   5.803
 1871SOL     OW 6511   0.356   6.443   6.892
 1871SOL    HW1 6512   0.290   6.518   6.900
 1871SOL    HW2 6513   0.360   6.412   6.797
 1872SOL     OW 6514   2.796   3.069   1.492
 1872SOL    HW1 6515   2.823   3.028   1.579
 1872SOL    HW2 6516   2.717   3.129   1.506
 1873SOL     OW 6517   6.713   1.158   0.764
 1873SOL    HW1 6518   6.627   1.132   0.721
 1873SOL    HW2 6519   6.697   1.233   0.829
 1874SOL     OW 6520   0.736   5.414   0.715
 1874SOL    HW1 6521   0.751   5.400   0.813
 1874SOL    HW2 6522   0.712   5.510   0.699
 1875SOL     OW 6523   0.210   5.714   1.761
 1875SOL    HW1 6524   0.125   5.757   1.791
 1875SOL    HW2 6525   0.213   5.620   1.796
 1876SOL     OW 6526   0.474   5.391   0.977
 1876SOL    HW1 6527   0.510   5.360   1.065
 1876SOL    HW2 6528   0.444   5.313   0.923
 1877SOL     OW 6529   1.022   1.716   1.989
 1877SOL    HW1 6530   1.028   1.725   2.088
 1877SOL    HW2 6531   0.984   1.800   1.950
 1878SOL     OW 6532   5.589   3.827   4.139
 1878SOL    HW1 6533   5.634   3.914   4.119
 1878SOL    HW2 6534   5.584   3.773   4.055
 1879SOL     OW 6535   4.760   6.440   4.485
 1879SOL    HW1 6536   4.707   6.497   4.548
 1879SOL    HW2 6537   4.713   6.352   4.473
 1880SOL     OW 6538   0.126   1.278   4.251
 1880SOL    HW1 6539   0.199   1.224   4.209
 1880SOL    HW2 6540   0.082   1.225   4.323
 1881SOL     OW 6541   2.061   1.705   4.066
 1881SOL    HW1 6542   2.112   1.765   4.127
 1881SOL    HW2 6543   1.964   1.709   4.089
 1882SOL     OW 6544   1.448   5.159   0.386
 1882SOL    HW1 6545   1.448   5.250   0.344
 1882SOL    HW2 6546   1.365   5.148   0.441
 1883SOL     OW 6547   2.011   2.263   2.815
 1883SOL    HW1 6548   2.049   2.301   2.730
 1883SOL    HW2 6549   1.919   2.300   2.829
 1884SOL     OW 6550   4.332   1.192   0.455
 1884SOL    HW1 6551   4.295   1.099   0.457
 1884SOL    HW2 6552   4.418   1.192   0.404
 1885SOL     OW 6553   0.037   1.545   0.427
 1885SOL    HW1 6554   0.081   1.609   0.364
 1885SOL    HW2 6555   0.106   1.499   0.482
 1886SOL     OW 6556   3.471   2.631   6.393
 1886SOL    HW1 6557   3.538   2.628   6.319
 1886SOL    HW2 6558   3.485   2.553   6.455
 1887SOL     OW 6559   0.820   6.380   4.842
 1887SOL    HW1 6560   0.801   6.457   4.902
 1887SOL    HW2 6561   0.837   6.298   4.896
 1888SOL     OW 6562   1.992   1.877   5.351
 1888SOL    HW1 6563   2.091   1.871   5.348
 1888SOL    HW2 6564   1.962   1.891   5.445
 1889SOL     OW 6565   3.101   2.728   6.824
 1889SOL    HW1 6566   3.198   2.751   6.822
 1889SOL    HW2 6567   3.084   2.659   6.895
 1890SOL     OW 6568   6.140   6.115   6.913
 1890SOL    HW1 6569   6.151   6.083   6.819
 1890SOL    HW2 6570   6.065   6.181   6.917
 1891SOL     OW 6571   5.304   3.472   6.275
 1891SOL    HW1 6572   5.218   3.437   6.312
 1891SOL    HW2 6573   5.325   3.560   6.317
 1892SOL     OW 6574   4.122   7.000   1.850
 1892SOL    HW1 6575   4.176   0.059   1.836
 1892SOL    HW2 6576   4.066   7.010   1.932
 1893SOL     OW 6577   3.007   1.472   5.300
 1893SOL    HW1 6578   3.004   1.387   5.247
 1893SOL    HW2 6579   2.916   1.493   5.334
 1894SOL     OW 6580   5.227   3.856   1.475
 1894SOL    HW1 6581   5.166   3.776   1.472
 1894SOL    HW2 6582   5.211   3.913   1.395
 1895SOL     OW 6583   4.252   0.322   3.787
 1895SOL    HW1 6584   4.336   0.377   3.795
 1895SOL    HW2 6585   4.173   0.382   3.790
 1896SOL     OW 6586   6.161   1.949   6.295
 1896SOL    HW1 6587   6.242   1.978   6.244
 1896SOL    HW2 6588   6.089   1.923   6.231
 1897SOL     OW 6589   5.430   5.431   3.489
 1897SOL    HW1 6590   5.529   5.421   3.485
 1897SOL    HW2 6591   5.396   5.462   3.401
 1898SOL     OW 6592   5.931   6.536   6.916
 1898SOL    HW1 6593   5.881   6.596   6.854
 1898SOL    HW2 6594   5.993   6.478   6.864
 1899SOL     OW 6595   1.412   2.412   2.845
 1899SOL    HW1 6596   1.367   2.348   2.783
 1899SOL    HW2 6597   1.496   2.445   2.802
 1900SOL     OW 6598   2.897   6.373   1.870
 1900SOL    HW1 6599   2.948   6.435   1.930
 1900SOL    HW2 6600   2.945   6.362   1.783
 1901SOL     OW 6601   1.358   1.244   6.311
 1901SOL    HW1 6602   1.284   1.184   6.279
 1901SOL    HW2 6603   1.433   1.187   6.347
 1902SOL     OW 6604   1.756   2.129   5.237
 1902SOL    HW1 6605   1.783   2.165   5.327
 1902SOL    HW2 6606   1.778   2.031   5.233
 1903SOL     OW 6607   6.845   4.192   3.675
 1903SOL    HW1 6608   6.784   4.148   3.609
 1903SOL    HW2 6609   6.875   4.124   3.743
 1904SOL     OW 6610   0.654   0.422   4.637
 1904SOL    HW1 6611   0.585   0.457   4.574
 1904SOL    HW2 6612   0.653   0.322   4.637
 1905SOL     OW 6613   6.279   2.921   4.794
 1905SOL    HW1 6614   6.258   2.823   4.793
 1905SOL    HW2 6615   6.325   2.947   4.709
 1906SOL     OW 6616   2.616   6.005   6.711
 1906SOL    HW1 6617   2.554   5.927   6.701
 1906SOL    HW2 6618   2.623   6.029   6.807
 1907SOL     OW 6619   4.293   6.164   3.711
 1907SOL    HW1 6620   4.382   6.207   3.727
 1907SOL    HW2 6621   4.305   6.065   3.701
 1908SOL     OW 6622   4.955   0.151   6.553
 1908SOL    HW1 6623   5.027   0.209   6.590
 1908SOL    HW2 6624   4.872   0.163   6.607
 1909SOL     OW 6625   4.231   5.216   4.719
 1909SOL    HW1 6626   4.280   5.156   4.656
 1909SOL    HW2 6627   4.200   5.297   4.670
 1910SOL     OW 6628   5.115   2.771   4.376
 1910SOL    HW1 6629   5.084   2.848   4.321
 1910SOL    HW2 6630   5.126   2.799   4.471
 1911SOL     OW 6631   0.068   3.583   6.034
 1911SOL    HW1 6632   0.124   3.648   5.983
 1911SOL    HW2 6633   0.082   3.491   5.997
 1912SOL     OW 6634   2.461   5.865   3.399
 1912SOL    HW1 6635   2.429   5.931   3.331
 1912SOL    HW2 6636   2.557   5.883   3.421
 1913SOL     OW 6637   1.326   4.089   5.432
 1913SOL    HW1 6638   1.358   4.035   5.509
 1913SOL    HW2 6639   1.330   4.186   5.454
 1914SOL     OW 6640   4.559   1.209   5.448
 1914SOL    HW1 6641   4.463   1.237   5.449
 1914SOL    HW2 6642   4.572   1.135   5.514
 1915SOL     OW 6643   3.388   0.581   5.232
 1915SOL    HW1 6644   3.371   0.499   5.178
 1915SOL    HW2 6645   3.306   0.638   5.232
 1916SOL     OW 6646   4.001   6.578   1.862
 1916SOL    HW1 6647   4.040   6.490   1.888
 1916SOL    HW2 6648   4.006   6.641   1.940
 1917SOL     OW 6649   3.600   3.092   4.255
 1917SOL    HW1 6650   3.586   3.190   4.243
 1917SOL    HW2 6651   3.621   3.073   4.351
 1918SOL     OW 6652   6.082   6.402   4.799
 1918SOL    HW1 6653   6.065   6.501   4.801
 1918SOL    HW2 6654   6.031   6.357   4.872
 1919SOL     OW 6655   6.548   6.910   1.643
 1919SOL    HW1 6656   6.584   6.824   1.680
 1919SOL    HW2 6657   6.455   6.897   1.611
 1920SOL     OW 6658   0.046   6.293   4.267
 1920SOL    HW1 6659   6.985   6.335   4.299
 1920SOL    HW2 6660   0.026   6.235   4.188
 1921SOL     OW 6661   0.926   6.635   6.506
 1921SOL    HW1 6662   0.863   6.663   6.433
 1921SOL    HW2 6663   0.976   6.716   6.538
 1922SOL     OW 6664   3.699   4.181   1.204
 1922SOL    HW1 6665   3.718   4.214   1.111
 1922SOL    HW2 6666   3.617   4.226   1.239
 1923SOL     OW 6667   1.941   2.603   1.100
 1923SOL    HW1 6668   1.964   2.590   1.197
 1923SOL    HW2 6669   1.843   2.616   1.091
 1924SOL     OW 6670   0.933   3.315   1.943
 1924SOL    HW1 6671   0.953   3.269   1.857
 1924SOL    HW2 6672   1.016   3.323   1.998
 1925SOL     OW 6673   3.547   4.109   0.346
 1925SOL    HW1 6674   3.560   4.144   0.439
 1925SOL    HW2 6675   3.529   4.010   0.350
 1926SOL     OW 6676   0.847   7.003   3.734
 1926SOL    HW1 6677   0.829   0.039   3.812
 1926SOL    HW2 6678   0.910   0.023   3.670
 1927SOL     OW 6679   4.340   3.862   0.311
 1927SOL    HW1 6680   4.256   3.885   0.362
 1927SOL    HW2 6681   4.401   3.941   0.310
 1928SOL     OW 6682   6.904   5.370   5.771
 1928SOL    HW1 6683   6.808   5.350   5.749
 1928SOL    HW2 6684   6.960   5.354   5.691
 1929SOL     OW 6685   1.521   6.979   3.420
 1929SOL    HW1 6686   1.451   6.949   3.355
 1929SOL    HW2 6687   1.550   6.901   3.476
 1930SOL     OW 6688   6.467   4.875   0.075
 1930SOL    HW1 6689   6.440   4.944   0.007
 1930SOL    HW2 6690   6.525   4.807   0.031
 1931SOL     OW 6691   0.598   2.317   4.958
 1931SOL    HW1 6692   0.572   2.404   4.918
 1931SOL    HW2 6693   0.688   2.324   5.000
 1932SOL     OW 6694   5.965   2.870   2.686
 1932SOL    HW1 6695   5.933   2.960   2.657
 1932SOL    HW2 6696   6.065   2.871   2.694
 1933SOL     OW 6697   2.360   4.512   1.160
 1933SOL    HW1 6698   2.321   4.602   1.178
 1933SOL    HW2 6699   2.292   4.442   1.180
 1934SOL     OW 6700   0.351   6.211   4.863
 1934SOL    HW1 6701   0.264   6.259   4.853
 1934SOL    HW2 6702   0.345   6.121   4.819
 1935SOL     OW 6703   2.395   1.115   3.928
 1935SOL    HW1 6704   2.391   1.206   3.887
 1935SOL    HW2 6705   2.308   1.096   3.974
 1936SOL     OW 6706   6.677   6.026   5.686
 1936SOL    HW1 6707   6.742   6.024   5.762
 1936SOL    HW2 6708   6.699   5.952   5.622
 1937SOL     OW 6709   4.536   0.545   2.965
 1937SOL    HW1 6710   4.589   0.465   2.994
 1937SOL    HW2 6711   4.458   0.515   2.909
 1938SOL     OW 6712   5.235   0.393   3.717
 1938SOL    HW1 6713   5.304   0.324   3.696
 1938SOL    HW2 6714   5.145   0.350   3.719
 1939SOL     OW 6715   2.519   0.595   3.028
 1939SOL    HW1 6716   2.434   0.596   2.976
 1939SOL    HW2 6717   2.582   0.526   2.990
 1940SOL     OW 6718   6.500   5.139   6.990
 1940SOL    HW1 6719   6.546   5.150   6.902
 1940SOL    HW2 6720   6.568   5.122   0.037
 1941SOL     OW 6721   5.010   4.911   2.789
 1941SOL    HW1 6722   4.915   4.941   2.785
 1941SOL    HW2 6723   5.041   4.884   2.698
 1942SOL     OW 6724   6.458   5.235   3.184
 1942SOL    HW1 6725   6.427   5.259   3.092
 1942SOL    HW2 6726   6.550   5.274   3.198
 1943SOL     OW 6727   3.194   5.440   2.378
 1943SOL    HW1 6728   3.104   5.398   2.367
 1943SOL    HW2 6729   3.184   5.530   2.421
 1944SOL     OW 6730   6.150   0.241   2.024
 1944SOL    HW1 6731   6.216   0.313   2.045
 1944SOL    HW2 6732   6.153   0.221   1.926
 1945SOL     OW 6733   3.188   4.982   4.054
 1945SOL    HW1 6734   3.105   4.939   4.016
 1945SOL    HW2 6735   3.162   5.063   4.106
 1946SOL     OW 6736   1.989   0.361   0.155
 1946SOL    HW1 6737   1.995   0.387   0.058
 1946SOL    HW2 6738   1.943   0.433   0.206
 1947SOL     OW 6739   5.403   6.934   3.977
 1947SOL    HW1 6740   5.399   6.839   4.009
 1947SOL    HW2 6741   5.476   6.983   4.025
 1948SOL     OW 6742   6.117   4.084   5.885
 1948SOL    HW1 6743   6.194   4.141   5.857
 1948SOL    HW2 6744   6.150   3.993   5.911
 1949SOL     OW 6745   5.420   3.857   6.661
 1949SOL    HW1 6746   5.378   3.798   6.593
 1949SOL    HW2 6747   5.520   3.847   6.657
 1950SOL     OW 6748   2.620   4.714   0.966
 1950SOL    HW1 6749   2.711   4.707   1.006
 1950SOL    HW2 6750   2.603   4.637   0.905
 1951SOL     OW 6751   6.840   2.358   0.120
 1951SOL    HW1 6752   6.891   2.306   0.052
 1951SOL    HW2 6753   6.778   2.297   0.170
 1952SOL     OW 6754   4.058   2.309   5.565
 1952SOL    HW1 6755   4.076   2.240   5.634
 1952SOL    HW2 6756   4.138   2.321   5.507
 1953SOL     OW 6757   0.146   3.312   5.235
 1953SOL    HW1 6758   0.204   3.250   5.183
 1953SOL    HW2 6759   0.187   3.403   5.236
 1954SOL     OW 6760   2.335   2.017   3.990
 1954SOL    HW1 6761   2.385   2.092   3.947
 1954SOL    HW2 6762   2.371   1.930   3.958
 1955SOL     OW 6763   6.480   5.887   2.298
 1955SOL    HW1 6764   6.547   5.961   2.305
 1955SOL    HW2 6765   6.523   5.806   2.259
 1956SOL     OW 6766   5.822   6.649   2.688
 1956SOL    HW1 6767   5.910   6.665   2.734
 1956SOL    HW2 6768   5.838   6.636   2.590
 1957SOL     OW 6769   0.457   6.636   5.584
 1957SOL    HW1 6770   0.549   6.674   5.577
 1957SOL    HW2 6771   0.455   6.546   5.541
 1958SOL     OW 6772   4.954   3.489   5.687
 1958SOL    HW1 6773   4.872   3.452   5.644
 1958SOL    HW2 6774   5.034   3.465   5.632
 1959SOL     OW 6775   1.858   2.198   6.521
 1959SOL    HW1 6776   1.844   2.111   6.474
 1959SOL    HW2 6777   1.774   2.224   6.568
 1960SOL     OW 6778   5.259   6.317   1.929
 1960SOL    HW1 6779   5.166   6.294   1.899
 1960SOL    HW2 6780   5.255   6.387   2.000
 1961SOL     OW 6781   5.680   5.128   4.363
 1961SOL    HW1 6782   5.616   5.176   4.424
 1961SOL    HW2 6783   5.722   5.194   4.301
 1962SOL     OW 6784   0.057   6.671   3.009
 1962SOL    HW1 6785   0.075   6.754   3.063
 1962SOL    HW2 6786   7.001   6.686   2.951
 1963SOL     OW 6787   1.624   6.949   2.718
 1963SOL    HW1 6788   1.634   6.894   2.635
 1963SOL    HW2 6789   1.713   6.986   2.745
 1964SOL     OW 6790   5.280   4.379   2.487
 1964SOL    HW1 6791   5.349   4.359   2.417
 1964SOL    HW2 6792   5.316   4.354   2.577
 1965SOL     OW 6793   2.222   5.328   3.843
 1965SOL    HW1 6794   2.245   5.362   3.934
 1965SOL    HW2 6795   2.305   5.323   3.787
 1966SOL     OW 6796   6.702   5.778   5.856
 1966SOL    HW1 6797   6.799   5.766   5.832
 1966SOL    HW2 6798   6.692   5.769   5.955
 1967SOL     OW 6799   4.801   2.956   4.301
 1967SOL    HW1 6800   4.898   2.980   4.308
 1967SOL    HW2 6801   4.747   3.017   4.359
 1968SOL     OW 6802   3.185   5.293   5.543
 1968SOL    HW1 6803   3.166   5.357   5.468
 1968SOL    HW2 6804   3.102   5.244   5.567
 1969SOL     OW 6805   6.655   2.287   1.602
 1969SOL    HW1 6806   6.594   2.246   1.670
 1969SOL    HW2 6807   6.725   2.341   1.648
 1970SOL     OW 6808   2.145   6.850   3.648
 1970SOL    HW1 6809   2.092   6.912   3.589
 1970SOL    HW2 6810   2.160   6.893   3.737
 1971SOL     OW 6811   0.451   0.057   6.111
 1971SOL    HW1 6812   0.356   0.058   6.140
 1971SOL    HW2 6813   0.503   0.125   6.163
 1972SOL     OW 6814   1.298   4.900   4.206
 1972SOL    HW1 6815   1.347   4.856   4.281
 1972SOL    HW2 6816   1.290   4.836   4.130
 1973SOL     OW 6817   2.706   3.165   0.150
 1973SOL    HW1 6818   2.805   3.157   0.166
 1973SOL    HW2 6819   2.667   3.229   0.216
 1974SOL     OW 6820   5.689   0.670   4.217
 1974SOL    HW1 6821   5.598   0.712   4.214
 1974SOL    HW2 6822   5.707   0.626   4.129
 1975SOL     OW 6823   2.960   1.007   3.439
 1975SOL    HW1 6824   3.056   1.000   3.468
 1975SOL    HW2 6825   2.925   1.098   3.464
 1976SOL     OW 6826   6.979   4.906   0.294
 1976SOL    HW1 6827   0.004   4.827   0.330
 1976SOL    HW2 6828   6.887   4.879   0.267
 1977SOL     OW 6829   1.939   2.528   4.971
 1977SOL    HW1 6830   1.904   2.521   5.064
 1977SOL    HW2 6831   1.891   2.603   4.924
 1978SOL     OW 6832   6.601   1.400   5.030
 1978SOL    HW1 6833   6.697   1.381   5.011
 1978SOL    HW2 6834   6.568   1.339   5.102
 1979SOL     OW 6835   5.983   5.227   3.409
 1979SOL    HW1 6836   5.947   5.138   3.380
 1979SOL    HW2 6837   6.082   5.228   3.398
 1980SOL     OW 6838   4.047   0.123   1.502
 1980SOL    HW1 6839   3.950   0.107   1.482
 1980SOL    HW2 6840   4.075   0.212   1.466
 1981SOL     OW 6841   4.557   3.243   1.629
 1981SOL    HW1 6842   4.550   3.195   1.716
 1981SOL    HW2 6843   4.469   3.285   1.607
 1982SOL     OW 6844   5.686   6.726   4.878
 1982SOL    HW1 6845   5.659   6.774   4.961
 1982SOL    HW2 6846   5.737   6.643   4.902
 1983SOL     OW 6847   1.172   3.713   2.744
 1983SOL    HW1 6848   1.128   3.700   2.832
 1983SOL    HW2 6849   1.221   3.630   2.718
 1984SOL     OW 6850   4.078   0.586   5.757
 1984SOL    HW1 6851   4.073   0.522   5.680
 1984SOL    HW2 6852   4.170   0.626   5.761
 1985SOL     OW 6853   1.532   6.994   1.393
 1985SOL    HW1 6854   1.462   6.925   1.376
 1985SOL    HW2 6855   1.585   7.009   1.309
 1986SOL     OW 6856   1.024   1.819   6.250
 1986SOL    HW1 6857   1.019   1.826   6.151
 1986SOL    HW2 6858   0.957   1.880   6.292
 1987SOL     OW 6859   2.412   3.367   6.954
 1987SOL    HW1 6860   2.419   3.268   6.956
 1987SOL    HW2 6861   2.504   3.407   6.953
 1988SOL     OW 6862   5.013   2.804   0.053
 1988SOL    HW1 6863   5.062   2.747   7.011
 1988SOL    HW2 6864   5.078   2.865   0.099
 1989SOL     OW 6865   2.719   0.612   4.531
 1989SOL    HW1 6866   2.780   0.554   4.475
 1989SOL    HW2 6867   2.644   0.646   4.474
 1990SOL     OW 6868   2.318   1.064   2.551
 1990SOL    HW1 6869   2.229   1.104   2.529
 1990SOL    HW2 6870   2.389   1.131   2.533
 1991SOL     OW 6871   3.989   5.607   4.427
 1991SOL    HW1 6872   4.041   5.690   4.406
 1991SOL    HW2 6873   4.037   5.554   4.497
 1992SOL     OW 6874   2.274   7.010   5.738
 1992SOL    HW1 6875   2.176   0.003   5.746
 1992SOL    HW2 6876   2.324   0.070   5.759
 1993SOL     OW 6877   3.747   3.331   4.844
 1993SOL    HW1 6878   3.799   3.300   4.765
 1993SOL    HW2 6879   3.652   3.348   4.818
 1994SOL     OW 6880   6.309   2.607   2.203
 1994SOL    HW1 6881   6.209   2.615   2.210
 1994SOL    HW2 6882   6.336   2.513   2.226
 1995SOL     OW 6883   4.961   2.567   1.246
 1995SOL    HW1 6884   5.029   2.574   1.174
 1995SOL    HW2 6885   4.998   2.513   1.322
 1996SOL     OW 6886   2.964   4.032   6.928
 1996SOL    HW1 6887   2.937   4.128   6.935
 1996SOL    HW2 6888   3.023   4.019   6.848
 1997SOL     OW 6889   5.384   0.682   3.954
 1997SOL    HW1 6890   5.290   0.685   3.923
 1997SOL    HW2 6891   5.440   0.633   3.887
 1998SOL     OW 6892   3.147   4.712   5.234
 1998SOL    HW1 6893   3.076   4.644   5.217
 1998SOL    HW2 6894   3.120   4.769   5.311
 1999SOL     OW 6895   1.776   0.911   2.405
 1999SOL    HW1 6896   1.866   0.915   2.362
 1999SOL    HW2 6897   1.722   0.991   2.378
 2000SOL     OW 6898   4.026   2.017   4.831
 2000SOL    HW1 6899   3.932   1.983   4.826
 2000SOL    HW2 6900   4.041   2.061   4.919
 2001SOL     OW 6901   3.261   2.812   0.414
 2001SOL    HW1 6902   3.272   2.855   0.324
 2001SOL    HW2 6903   3.164   2.788   0.427
 2002SOL     OW 6904   1.919   4.643   5.137
 2002SOL    HW1 6905   2.010   4.679   5.116
 2002SOL    HW2 6906   1.919   4.544   5.123
 2003SOL     OW 6907   6.255   5.859   3.525
 2003SOL    HW1 6908   6.202   5.845   3.609
 2003SOL    HW2 6909   6.352   5.870   3.549
 2004SOL     OW 6910   3.244   0.828   6.051
 2004SOL    HW1 6911   3.191   0.843   6.134
 2004SOL    HW2 6912   3.271   0.917   6.012
 2005SOL     OW 6913   3.026   6.296   6.165
 2005SOL    HW1 6914   3.068   6.276   6.254
 2005SOL    HW2 6915   3.094   6.287   6.093
 2006SOL     OW 6916   3.910   5.159   3.968
 2006SOL    HW1 6917   3.917   5.255   3.998
 2006SOL    HW2 6918   3.877   5.103   4.044
 2007SOL     OW 6919   6.044   4.912   0.439
 2007SOL    HW1 6920   5.993   4.936   0.522
 2007SOL    HW2 6921   6.113   4.844   0.461
 2008SOL     OW 6922   0.423   5.696   4.022
 2008SOL    HW1 6923   0.463   5.611   3.989
 2008SOL    HW2 6924   0.369   5.678   4.105
 2009SOL     OW 6925   0.573   0.203   1.666
 2009SOL    HW1 6926   0.511   0.172   1.594
 2009SOL    HW2 6927   0.653   0.246   1.625
 2010SOL     OW 6928   1.615   0.090   0.814
 2010SOL    HW1 6929   1.542   0.126   0.872
 2010SOL    HW2 6930   1.685   0.160   0.801
 2011SOL     OW 6931   6.820   2.612   5.259
 2011SOL    HW1 6932   6.833   2.650   5.350
 2011SOL    HW2 6933   6.792   2.684   5.196
 2012SOL     OW 6934   0.623   3.758   1.497
 2012SOL    HW1 6935   0.682   3.839   1.496
 2012SOL    HW2 6936   0.663   3.686   1.441
 2013SOL     OW 6937   4.398   1.323   2.216
 2013SOL    HW1 6938   4.371   1.232   2.246
 2013SOL    HW2 6939   4.383   1.332   2.117
 2014SOL     OW 6940   2.479   5.626   3.586
 2014SOL    HW1 6941   2.434   5.703   3.540
 2014SOL    HW2 6942   2.553   5.661   3.643
 2015SOL     OW 6943   2.927   6.771   6.839
 2015SOL    HW1 6944   2.929   6.686   6.787
 2015SOL    HW2 6945   2.847   6.772   6.898
 2016SOL     OW 6946   6.559   5.141   3.903
 2016SOL    HW1 6947   6.614   5.085   3.842
 2016SOL    HW2 6948   6.477   5.091   3.932
 2017SOL     OW 6949   2.926   5.799   2.353
 2017SOL    HW1 6950   3.026   5.791   2.347
 2017SOL    HW2 6951   2.902   5.854   2.433
 2018SOL     OW 6952   0.795   5.150   5.730
 2018SOL    HW1 6953   0.699   5.171   5.712
 2018SOL    HW2 6954   0.845   5.235   5.747
 2019SOL     OW 6955   6.342   1.733   2.428
 2019SOL    HW1 6956   6.253   1.774   2.446
 2019SOL    HW2 6957   6.408   1.764   2.497
 2020SOL     OW 6958   1.944   5.999   3.173
 2020SOL    HW1 6959   1.957   5.927   3.241
 2020SOL    HW2 6960   1.850   5.996   3.139
 2021SOL     OW 6961   0.840   6.708   1.767
 2021SOL    HW1 6962   0.938   6.690   1.761
 2021SOL    HW2 6963   0.821   6.761   1.849
 2022SOL     OW 6964   2.366   4.138   1.100
 2022SOL    HW1 6965   2.302   4.097   1.165
 2022SOL    HW2 6966   2.444   4.176   1.150
 2023SOL     OW 6967   6.643   0.925   6.021
 2023SOL    HW1 6968   6.630   1.018   5.986
 2023SOL    HW2 6969   6.556   0.875   6.016
 2024SOL     OW 6970   5.785   0.941   3.508
 2024SOL    HW1 6971   5.780   0.847   3.473
 2024SOL    HW2 6972   5.751   0.944   3.602
 2025SOL     OW 6973   7.013   1.105   1.610
 2025SOL    HW1 6974   7.014   1.202   1.585
 2025SOL    HW2 6975   7.014   1.096   1.709
 2026SOL     OW 6976   1.694   1.381   5.392
 2026SOL    HW1 6977   1.690   1.336   5.481
 2026SOL    HW2 6978   1.604   1.419   5.371
 2027SOL     OW 6979   0.429   1.586   2.695
 2027SOL    HW1 6980   0.529   1.583   2.689
 2027SOL    HW2 6981   0.391   1.501   2.661
 2028SOL     OW 6982   4.278   3.168   6.648
 2028SOL    HW1 6983   4.295   3.192   6.553
 2028SOL    HW2 6984   4.184   3.135   6.658
 2029SOL     OW 6985   1.655   0.441   0.252
 2029SOL    HW1 6986   1.624   0.351   0.220
 2029SOL    HW2 6987   1.576   0.499   0.270
 2030SOL     OW 6988   1.543   0.948   3.399
 2030SOL    HW1 6989   1.577   1.015   3.333
 2030SOL    HW2 6990   1.446   0.930   3.382
 2031SOL     OW 6991   5.079   6.989   2.430
 2031SOL    HW1 6992   5.165   6.940   2.443
 2031SOL    HW2 6993   5.033   6.999   2.519
 2032SOL     OW 6994   4.910   6.408   1.409
 2032SOL    HW1 6995   4.895   6.310   1.397
 2032SOL    HW2 6996   4.842   6.459   1.357
 2033SOL     OW 6997   5.792   5.058   0.206
 2033SOL    HW1 6998   5.762   5.132   0.145
 2033SOL    HW2 6999   5.776   4.970   0.161
 2034SOL     OW 7000   2.156   0.134   2.852
 2034SOL    HW1 7001   2.141   0.091   2.941
 2034SOL    HW2 7002   2.240   0.189   2.856
 2035SOL     OW 7003   1.199   2.959   1.912
 2035SOL    HW1 7004   1.231   3.046   1.873
 2035SOL    HW2 7005   1.173   2.972   2.007
 2036SOL     OW 7006   1.613   4.648   0.514
 2036SOL    HW1 7007   1.575   4.649   0.607
 2036SOL    HW2 7008   1.545   4.682   0.450
 2037SOL     OW 7009   0.140   1.178   6.203
 2037SOL    HW1 7010   0.143   1.277   6.186
 2037SOL    HW2 7011   0.207   1.154   6.272
 2038SOL     OW 7012   0.753   0.568   4.835
 2038SOL    HW1 7013   0.720   0.523   4.752
 2038SOL    HW2 7014   0.684   0.558   4.907
 2039SOL     OW 7015   0.916   5.874   2.462
 2039SOL    HW1 7016   0.989   5.920   2.412
 2039SOL    HW2 7017   0.921   5.898   2.558
 2040SOL     OW 7018   3.724   3.634   4.609
 2040SOL    HW1 7019   3.707   3.660   4.514
 2040SOL    HW2 7020   3.710   3.536   4.620
 2041SOL     OW 7021   5.953   4.386   6.246
 2041SOL    HW1 7022   5.934   4.288   6.247
 2041SOL    HW2 7023   6.020   4.406   6.175
 2042SOL     OW 7024   3.964   5.644   6.520
 2042SOL    HW1 7025   3.988   5.741   6.517
 2042SOL    HW2 7026   4.029   5.595   6.578
 2043SOL     OW 7027   4.784   4.675   2.293
 2043SOL    HW1 7028   4.738   4.606   2.236
 2043SOL    HW2 7029   4.840   4.630   2.362
 2044SOL     OW 7030   6.403   0.412   1.970
 2044SOL    HW1 7031   6.394   0.407   1.871
 2044SOL    HW2 7032   6.332   0.472   2.008
 2045SOL     OW 7033   1.712   5.343   6.214
 2045SOL    HW1 7034   1.682   5.254   6.251
 2045SOL    HW2 7035   1.804   5.363   6.247
 2046SOL     OW 7036   6.243   0.458   4.899
 2046SOL    HW1 7037   6.147   0.475   4.877
 2046SOL    HW2 7038   6.250   0.422   4.992
 2047SOL     OW 7039   5.666   2.548   0.215
 2047SOL    HW1 7040   5.739   2.604   0.176
 2047SOL    HW2 7041   5.590   2.607   0.243
 2048SOL     OW 7042   4.468   0.134   5.477
 2048SOL    HW1 7043   4.460   0.127   5.377
 2048SOL    HW2 7044   4.564   0.141   5.502
 2049SOL     OW 7045   5.197   0.273   0.360
 2049SOL    HW1 7046   5.221   0.370   0.353
 2049SOL    HW2 7047   5.158   0.254   0.450
 2050SOL     OW 7048   5.831   1.949   3.940
 2050SOL    HW1 7049   5.784   1.867   3.974
 2050SOL    HW2 7050   5.915   1.922   3.893
 2051SOL     OW 7051   1.780   5.123   0.729
 2051SOL    HW1 7052   1.835   5.137   0.811
 2051SOL    HW2 7053   1.686   5.154   0.747
 2052SOL     OW 7054   1.115   3.429   0.616
 2052SOL    HW1 7055   1.087   3.525   0.609
 2052SOL    HW2 7056   1.131   3.406   0.712
 2053SOL     OW 7057   5.410   0.592   0.435
 2053SOL    HW1 7058   5.467   0.591   0.353
 2053SOL    HW2 7059   5.446   0.658   0.501
 2054SOL     OW 7060   6.289   3.117   0.856
 2054SOL    HW1 7061   6.352   3.068   0.797
 2054SOL    HW2 7062   6.338   3.188   0.907
 2055SOL     OW 7063   6.107   2.846   3.800
 2055SOL    HW1 7064   6.054   2.836   3.883
 2055SOL    HW2 7065   6.185   2.782   3.802
 2056SOL     OW 7066   1.284   0.863   3.341
 2056SOL    HW1 7067   1.196   0.909   3.349
 2056SOL    HW2 7068   1.280   0.794   3.268
 2057SOL     OW 7069   6.972   2.888   4.187
 2057SOL    HW1 7070   6.891   2.883   4.128
 2057SOL    HW2 7071   0.029   2.861   4.135
 2058SOL     OW 7072   6.994   2.332   2.004
 2058SOL    HW1 7073   6.984   2.413   1.946
 2058SOL    HW2 7074   0.022   2.262   1.955
 2059SOL     OW 7075   1.717   1.490   6.738
 2059SOL    HW1 7076   1.660   1.419   6.778
 2059SOL    HW2 7077   1.779   1.526   6.807
 2060SOL     OW 7078   0.727   5.193   2.626
 2060SOL    HW1 7079   0.669   5.125   2.671
 2060SOL    HW2 7080   0.680   5.281   2.624
 2061SOL     OW 7081   6.648   1.379   1.910
 2061SOL    HW1 7082   6.704   1.392   1.992
 2061SOL    HW2 7083   6.568   1.439   1.914
 2062SOL     OW 7084   4.205   0.931   3.318
 2062SOL    HW1 7085   4.193   1.029   3.335
 2062SOL    HW2 7086   4.127   0.896   3.267
 2063SOL     OW 7087   2.006   2.275   6.732
 2063SOL    HW1 7088   1.957   2.241   6.652
 2063SOL    HW2 7089   1.976   2.368   6.751
 2064SOL     OW 7090   0.702   2.391   0.093
 2064SOL    HW1 7091   0.616   2.341   0.082
 2064SOL    HW2 7092   0.775   2.327   0.118
 2065SOL     OW 7093   6.434   3.216   2.174
 2065SOL    HW1 7094   6.481   3.303   2.163
 2065SOL    HW2 7095   6.432   3.167   2.087
 2066SOL     OW 7096   1.688   6.392   4.342
 2066SOL    HW1 7097   1.670   6.456   4.417
 2066SOL    HW2 7098   1.665   6.435   4.255
 2067SOL     OW 7099   6.739   0.273   1.098
 2067SOL    HW1 7100   6.692   0.215   1.165
 2067SOL    HW2 7101   6.836   0.276   1.119
 2068SOL     OW 7102   1.699   1.856   4.947
 2068SOL    HW1 7103   1.619   1.805   4.978
 2068SOL    HW2 7104   1.780   1.823   4.994
 2069SOL     OW 7105   0.507   1.907   1.675
 2069SOL    HW1 7106   0.546   1.993   1.705
 2069SOL    HW2 7107   0.549   1.831   1.725
 2070SOL     OW 7108   0.689   1.001   2.846
 2070SOL    HW1 7109   0.718   1.091   2.815
 2070SOL    HW2 7110   0.601   0.977   2.805
 2071SOL     OW 7111   1.556   6.602   4.495
 2071SOL    HW1 7112   1.488   6.529   4.502
 2071SOL    HW2 7113   1.533   6.662   4.419
 2072SOL     OW 7114   4.990   5.431   1.724
 2072SOL    HW1 7115   5.040   5.422   1.637
 2072SOL    HW2 7116   5.029   5.507   1.776
 2073SOL     OW 7117   2.630   0.036   6.012
 2073SOL    HW1 7118   2.669   0.040   6.104
 2073SOL    HW2 7119   2.639   6.967   5.977
 2074SOL     OW 7120   5.628   1.337   2.123
 2074SOL    HW1 7121   5.556   1.296   2.180
 2074SOL    HW2 7122   5.585   1.393   2.051
 2075SOL     OW 7123   4.445   3.486   6.537
 2075SOL    HW1 7124   4.512   3.420   6.502
 2075SOL    HW2 7125   4.418   3.547   6.463
 2076SOL     OW 7126   5.025   0.414   1.218
 2076SOL    HW1 7127   4.954   0.445   1.155
 2076SOL    HW2 7128   5.093   0.361   1.168
 2077SOL     OW 7129   5.590   0.736   2.536
 2077SOL    HW1 7130   5.502   0.783   2.534
 2077SOL    HW2 7131   5.595   0.679   2.618
 2078SOL     OW 7132   3.201   5.400   5.282
 2078SOL    HW1 7133   3.193   5.447   5.194
 2078SOL    HW2 7134   3.243   5.311   5.269
 2079SOL     OW 7135   5.420   1.442   3.849
 2079SOL    HW1 7136   5.485   1.372   3.878
 2079SOL    HW2 7137   5.359   1.465   3.925
 2080SOL     OW 7138   2.747   2.387   4.366
 2080SOL    HW1 7139   2.727   2.461   4.301
 2080SOL    HW2 7140   2.839   2.353   4.350
 2081SOL     OW 7141   0.403   6.433   5.241
 2081SOL    HW1 7142   0.352   6.498   5.184
 2081SOL    HW2 7143   0.340   6.382   5.299
 2082SOL     OW 7144   5.227   0.626   1.096
 2082SOL    HW1 7145   5.222   0.709   1.152
 2082SOL    HW2 7146   5.197   0.646   1.003
 2083SOL     OW 7147   2.941   5.494   5.685
 2083SOL    HW1 7148   2.976   5.578   5.724
 2083SOL    HW2 7149   2.904   5.512   5.594
 2084SOL     OW 7150   0.130   3.033   3.155
 2084SOL    HW1 7151   0.225   3.053   3.132
 2084SOL    HW2 7152   0.127   2.984   3.243
 2085SOL     OW 7153   5.402   0.070   5.941
 2085SOL    HW1 7154   5.448   0.157   5.956
 2085SOL    HW2 7155   5.336   0.080   5.867
 2086SOL     OW 7156   3.020   5.273   0.530
 2086SOL    HW1 7157   2.999   5.348   0.592
 2086SOL    HW2 7158   2.939   5.216   0.518
 2087SOL     OW 7159   5.139   6.833   3.760
 2087SOL    HW1 7160   5.042   6.811   3.763
 2087SOL    HW2 7161   5.152   6.930   3.744
 2088SOL     OW 7162   3.344   0.130   0.100
 2088SOL    HW1 7163   3.429   0.078   0.090
 2088SOL    HW2 7164   3.276   0.075   0.149
 2089SOL     OW 7165   3.723   0.574   6.885
 2089SOL    HW1 7166   3.784   0.646   6.851
 2089SOL    HW2 7167   3.665   0.610   6.957
 2090SOL     OW 7168   3.355   3.491   4.351
 2090SOL    HW1 7169   3.401   3.540   4.426
 2090SOL    HW2 7170   3.306   3.558   4.294
 2091SOL     OW 7171   2.166   4.741   0.724
 2091SOL    HW1 7172   2.162   4.642   0.735
 2091SOL    HW2 7173   2.092   4.770   0.663
 2092SOL     OW 7174   6.316   6.071   0.778
 2092SOL    HW1 7175   6.265   6.100   0.858
 2092SOL    HW2 7176   6.396   6.130   0.766
 2093SOL     OW 7177   1.205   2.428   1.899
 2093SOL    HW1 7178   1.127   2.387   1.851
 2093SOL    HW2 7179   1.212   2.525   1.875
 2094SOL     OW 7180   5.926   6.900   2.409
 2094SOL    HW1 7181   6.008   6.921   2.355
 2094SOL    HW2 7182   5.927   6.803   2.434
 2095SOL     OW 7183   6.204   5.023   4.851
 2095SOL    HW1 7184   6.258   5.042   4.769
 2095SOL    HW2 7185   6.183   5.109   4.897
 2096SOL     OW 7186   4.503   4.451   2.834
 2096SOL    HW1 7187   4.520   4.481   2.740
 2096SOL    HW2 7188   4.556   4.368   2.853
 2097SOL     OW 7189   0.177   2.623   0.226
 2097SOL    HW1 7190   0.239   2.563   0.277
 2097SOL    HW2 7191   0.193   2.718   0.252
 2098SOL     OW 7192   4.357   0.611   4.244
 2098SOL    HW1 7193   4.271   0.614   4.194
 2098SOL    HW2 7194   4.366   0.524   4.292
 2099SOL     OW 7195   3.343   1.703   4.124
 2099SOL    HW1 7196   3.365   1.674   4.031
 2099SOL    HW2 7197   3.246   1.683   4.143
 2100SOL     OW 7198   4.422   3.730   6.695
 2100SOL    HW1 7199   4.437   3.806   6.633
 2100SOL    HW2 7200   4.451   3.645   6.651
 2101SOL     OW 7201   6.981   6.963   3.727
 2101SOL    HW1 7202   7.007   6.973   3.631
 2101SOL    HW2 7203   6.905   0.001   3.748
 2102SOL     OW 7204   0.109   4.886   2.130
 2102SOL    HW1 7205   0.096   4.787   2.123
 2102SOL    HW2 7206   0.027   4.932   2.097
 2103SOL     OW 7207   3.495   4.161   6.378
 2103SOL    HW1 7208   3.473   4.163   6.475
 2103SOL    HW2 7209   3.495   4.066   6.346
 2104SOL     OW 7210   1.128   3.531   5.615
 2104SOL    HW1 7211   1.140   3.613   5.559
 2104SOL    HW2 7212   1.034   3.528   5.649
 2105SOL     OW 7213   5.754   5.664   1.700
 2105SOL    HW1 7214   5.706   5.640   1.615
 2105SOL    HW2 7215   5.843   5.703   1.678
 2106SOL     OW 7216   4.959   5.675   6.827
 2106SOL    HW1 7217   4.966   5.585   6.786
 2106SOL    HW2 7218   4.908   5.669   6.913
 2107SOL     OW 7219   4.141   3.938   6.259
 2107SOL    HW1 7220   4.229   3.971   6.224
 2107SOL    HW2 7221   4.109   3.863   6.201
 2108SOL     OW 7222   5.346   5.133   6.150
 2108SOL    HW1 7223   5.444   5.114   6.156
 2108SOL    HW2 7224   5.300   5.057   6.104
 2109SOL     OW 7225   5.634   6.998   3.044
 2109SOL    HW1 7226   5.659   6.913   2.998
 2109SOL    HW2 7227   5.694   7.012   3.123
 2110SOL     OW 7228   2.553   4.683   6.356
 2110SOL    HW1 7229   2.567   4.716   6.263
 2110SOL    HW2 7230   2.474   4.730   6.397
 2111SOL     OW 7231   1.115   2.846   6.952
 2111SOL    HW1 7232   1.128   2.944   6.968
 2111SOL    HW2 7233   1.178   2.816   6.880
 2112SOL     OW 7234   4.644   3.066   1.372
 2112SOL    HW1 7235   4.618   3.125   1.449
 2112SOL    HW2 7236   4.564   3.013   1.343
 2113SOL     OW 7237   6.736   0.941   2.632
 2113SOL    HW1 7238   6.822   0.989   2.617
 2113SOL    HW2 7239   6.716   0.937   2.730
 2114SOL     OW 7240   2.129   4.065   6.799
 2114SOL    HW1 7241   2.204   4.121   6.833
 2114SOL    HW2 7242   2.163   4.002   6.729
 2115SOL     OW 7243   2.633   4.925   2.487
 2115SOL    HW1 7244   2.688   4.842   2.496
 2115SOL    HW2 7245   2.542   4.909   2.524
 2116SOL     OW 7246   0.043   4.112   3.344
 2116SOL    HW1 7247   7.012   4.063   3.277
 2116SOL    HW2 7248   0.131   4.138   3.303
 2117SOL     OW 7249   0.324   4.917   0.978
 2117SOL    HW1 7250   0.234   4.925   0.935
 2117SOL    HW2 7251   0.318   4.852   1.054
 2118SOL     OW 7252   6.633   3.962   2.168
 2118SOL    HW1 7253   6.662   3.910   2.248
 2118SOL    HW2 7254   6.637   3.904   2.087
 2119SOL     OW 7255   2.938   6.252   1.380
 2119SOL    HW1 7256   2.969   6.296   1.296
 2119SOL    HW2 7257   2.888   6.169   1.358
 2120SOL     OW 7258   6.962   5.093   2.063
 2120SOL    HW1 7259   6.917   5.114   2.150
 2120SOL    HW2 7260   6.919   5.146   1.990
 2121SOL     OW 7261   0.847   4.956   4.720
 2121SOL    HW1 7262   0.843   4.958   4.820
 2121SOL    HW2 7263   0.773   5.010   4.683
 2122SOL     OW 7264   4.684   4.181   4.933
 2122SOL    HW1 7265   4.651   4.240   4.858
 2122SOL    HW2 7266   4.614   4.177   5.005
 2123SOL     OW 7267   6.186   4.989   3.366
 2123SOL    HW1 7268   6.094   4.968   3.334
 2123SOL    HW2 7269   6.206   5.085   3.349
 2124SOL     OW 7270   2.015   1.981   0.567
 2124SOL    HW1 7271   1.943   1.961   0.633
 2124SOL    HW2 7272   2.078   2.048   0.606
 2125SOL     OW 7273   3.251   6.965   0.496
 2125SOL    HW1 7274   3.207   6.875   0.508
 2125SOL    HW2 7275   3.240   6.994   0.401
 2126SOL     OW 7276   2.851   0.887   0.856
 2126SOL    HW1 7277   2.876   0.810   0.915
 2126SOL    HW2 7278   2.911   0.890   0.777
 2127SOL     OW 7279   5.258   3.388   5.073
 2127SOL    HW1 7280   5.197   3.311   5.091
 2127SOL    HW2 7281   5.205   3.473   5.072
 2128SOL     OW 7282   0.422   5.073   4.470
 2128SOL    HW1 7283   0.413   5.165   4.429
 2128SOL    HW2 7284   0.514   5.062   4.507
 2129SOL     OW 7285   3.849   1.979   5.751
 2129SOL    HW1 7286   3.934   1.938   5.784
 2129SOL    HW2 7287   3.773   1.918   5.769
 2130SOL     OW 7288   4.231   6.384   2.925
 2130SOL    HW1 7289   4.164   6.449   2.962
 2130SOL    HW2 7290   4.289   6.430   2.858
 2131SOL     OW 7291   6.699   1.808   0.235
 2131SOL    HW1 7292   6.660   1.719   0.210
 2131SOL    HW2 7293   6.758   1.796   0.314
 2132SOL     OW 7294   2.188   3.074   0.763
 2132SOL    HW1 7295   2.177   2.987   0.714
 2132SOL    HW2 7296   2.133   3.072   0.847
 2133SOL     OW 7297   3.211   2.453   5.650
 2133SOL    HW1 7298   3.224   2.355   5.632
 2133SOL    HW2 7299   3.127   2.466   5.701
 2134SOL     OW 7300   1.047   0.118   0.866
 2134SOL    HW1 7301   1.027   0.114   0.768
 2134SOL    HW2 7302   1.068   0.026   0.899
 2135SOL     OW 7303   0.673   3.890   4.142
 2135SOL    HW1 7304   0.626   3.911   4.056
 2135SOL    HW2 7305   0.734   3.812   4.128
 2136SOL     OW 7306   1.974   5.579   1.936
 2136SOL    HW1 7307   1.969   5.544   2.030
 2136SOL    HW2 7308   1.945   5.675   1.935
 2137SOL     OW 7309   2.155   5.648   4.248
 2137SOL    HW1 7310   2.162   5.670   4.345
 2137SOL    HW2 7311   2.080   5.583   4.234
 2138SOL     OW 7312   5.010   1.668   1.955
 2138SOL    HW1 7313   5.022   1.741   2.022
 2138SOL    HW2 7314   5.086   1.670   1.890
 2139SOL     OW 7315   2.610   0.757   5.526
 2139SOL    HW1 7316   2.558   0.812   5.460
 2139SOL    HW2 7317   2.548   0.693   5.573
 2140SOL     OW 7318   2.352   1.038   5.488
 2140SOL    HW1 7319   2.420   1.097   5.533
 2140SOL    HW2 7320   2.394   0.994   5.409
 2141SOL     OW 7321   6.467   4.482   2.485
 2141SOL    HW1 7322   6.536   4.413   2.464
 2141SOL    HW2 7323   6.489   4.527   2.572
 2142SOL     OW 7324   1.774   1.633   2.850
 2142SOL    HW1 7325   1.757   1.728   2.825
 2142SOL    HW2 7326   1.689   1.581   2.846
 2143SOL     OW 7327   1.642   4.759   0.179
 2143SOL    HW1 7328   1.700   4.727   0.253
 2143SOL    HW2 7329   1.563   4.807   0.217
 2144SOL     OW 7330   5.684   5.770   4.261
 2144SOL    HW1 7331   5.776   5.744   4.291
 2144SOL    HW2 7332   5.667   5.736   4.169
 2145SOL     OW 7333   4.185   0.085   3.656
 2145SOL    HW1 7334   4.227   0.174   3.674
 2145SOL    HW2 7335   4.087   0.098   3.638
 2146SOL     OW 7336   2.223   2.856   0.602
 2146SOL    HW1 7337   2.255   2.762   0.612
 2146SOL    HW2 7338   2.153   2.860   0.530
 2147SOL     OW 7339   5.899   0.725   4.954
 2147SOL    HW1 7340   5.931   0.633   4.932
 2147SOL    HW2 7341   5.799   0.728   4.948
 2148SOL     OW 7342   0.361   3.479   6.662
 2148SOL    HW1 7343   0.336   3.559   6.609
 2148SOL    HW2 7344   0.418   3.418   6.606
 2149SOL     OW 7345   0.550   0.006   0.222
 2149SOL    HW1 7346   0.483   6.958   0.211
 2149SOL    HW2 7347   0.510   0.081   0.275
 2150SOL     OW 7348   2.088   3.199   1.013
 2150SOL    HW1 7349   2.060   3.170   1.105
 2150SOL    HW2 7350   2.164   3.263   1.020
 2151SOL     OW 7351   1.196   5.516   0.452
 2151SOL    HW1 7352   1.192   5.571   0.535
 2151SOL    HW2 7353   1.103   5.501   0.418
 2152SOL     OW 7354   4.231   6.020   4.023
 2152SOL    HW1 7355   4.318   5.987   3.987
 2152SOL    HW2 7356   4.248   6.088   4.094
 2153SOL     OW 7357   4.428   1.243   3.362
 2153SOL    HW1 7358   4.476   1.182   3.299
 2153SOL    HW2 7359   4.489   1.269   3.437
 2154SOL     OW 7360   2.923   0.134   3.165
 2154SOL    HW1 7361   2.915   0.045   3.210
 2154SOL    HW2 7362   2.998   0.131   3.100
 2155SOL     OW 7363   4.904   6.821   1.326
 2155SOL    HW1 7364   4.847   6.902   1.318
 2155SOL    HW2 7365   5.000   6.847   1.313
 2156SOL     OW 7366   5.738   1.688   4.164
 2156SOL    HW1 7367   5.640   1.679   4.185
 2156SOL    HW2 7368   5.758   1.639   4.079
 2157SOL     OW 7369   3.343   6.041   3.862
 2157SOL    HW1 7370   3.308   5.948   3.876
 2157SOL    HW2 7371   3.399   6.044   3.780
 2158SOL     OW 7372   3.554   0.549   0.196
 2158SOL    HW1 7373   3.497   0.582   0.272
 2158SOL    HW2 7374   3.626   0.490   0.231
 2159SOL     OW 7375   0.899   0.820   5.596
 2159SOL    HW1 7376   0.927   0.885   5.666
 2159SOL    HW2 7377   0.958   0.829   5.516
 2160SOL     OW 7378   5.786   6.513   0.146
 2160SOL    HW1 7379   5.793   6.424   0.191
 2160SOL    HW2 7380   5.798   6.501   0.047
 2161SOL     OW 7381   0.952   2.509   2.282
 2161SOL    HW1 7382   1.042   2.510   2.326
 2161SOL    HW2 7383   0.923   2.603   2.264
 2162SOL     OW 7384   0.959   0.254   1.938
 2162SOL    HW1 7385   0.894   0.323   1.905
 2162SOL    HW2 7386   1.039   0.253   1.877
 2163SOL     OW 7387   1.592   3.402   2.248
 2163SOL    HW1 7388   1.511   3.408   2.306
 2163SOL    HW2 7389   1.634   3.312   2.259
 2164SOL     OW 7390   1.803   2.836   2.638
 2164SOL    HW1 7391   1.753   2.874   2.716
 2164SOL    HW2 7392   1.901   2.837   2.658
 2165SOL     OW 7393   0.071   1.502   3.974
 2165SOL    HW1 7394   7.013   1.551   3.948
 2165SOL    HW2 7395   0.086   1.511   4.073
 2166SOL     OW 7396   6.874   3.973   2.577
 2166SOL    HW1 7397   6.801   3.983   2.644
 2166SOL    HW2 7398   6.942   4.046   2.590
 2167SOL     OW 7399   2.991   1.915   3.644
 2167SOL    HW1 7400   3.005   1.892   3.740
 2167SOL    HW2 7401   3.027   1.842   3.586
 2168SOL     OW 7402   1.530   2.142   2.866
 2168SOL    HW1 7403   1.439   2.100   2.870
 2168SOL    HW2 7404   1.525   2.226   2.812
 2169SOL     OW 7405   0.566   0.241   1.925
 2169SOL    HW1 7406   0.482   0.206   1.964
 2169SOL    HW2 7407   0.583   0.197   1.837
 2170SOL     OW 7408   0.692   3.532   5.493
 2170SOL    HW1 7409   0.747   3.603   5.450
 2170SOL    HW2 7410   0.701   3.446   5.443
 2171SOL     OW 7411   0.658   5.445   1.450
 2171SOL    HW1 7412   0.756   5.465   1.451
 2171SOL    HW2 7413   0.612   5.500   1.520
 2172SOL     OW 7414   1.285   1.523   4.668
 2172SOL    HW1 7415   1.270   1.593   4.599
 2172SOL    HW2 7416   1.346   1.452   4.633
 2173SOL     OW 7417   5.951   0.196   5.080
 2173SOL    HW1 7418   5.857   0.221   5.107
 2173SOL    HW2 7419   6.016   0.253   5.131
 2174SOL     OW 7420   6.700   6.361   5.662
 2174SOL    HW1 7421   6.648   6.322   5.586
 2174SOL    HW2 7422   6.757   6.436   5.629
 2175SOL     OW 7423   2.852   3.805   5.281
 2175SOL    HW1 7424   2.758   3.820   5.311
 2175SOL    HW2 7425   2.865   3.847   5.190
 2176SOL     OW 7426   5.470   2.407   1.386
 2176SOL    HW1 7427   5.460   2.375   1.480
 2176SOL    HW2 7428   5.453   2.332   1.322
 2177SOL     OW 7429   0.218   0.195   3.726
 2177SOL    HW1 7430   0.221   0.122   3.795
 2177SOL    HW2 7431   0.301   0.250   3.735
 2178SOL     OW 7432   0.671   1.943   2.804
 2178SOL    HW1 7433   0.609   1.895   2.866
 2178SOL    HW2 7434   0.723   1.877   2.750
 2179SOL     OW 7435   1.656   4.013   6.236
 2179SOL    HW1 7436   1.572   4.065   6.250
 2179SOL    HW2 7437   1.651   3.965   6.148
 2180SOL     OW 7438   0.880   6.447   2.200
 2180SOL    HW1 7439   0.938   6.433   2.120
 2180SOL    HW2 7440   0.861   6.359   2.243
 2181SOL     OW 7441   4.229   4.835   4.457
 2181SOL    HW1 7442   4.237   4.854   4.359
 2181SOL    HW2 7443   4.155   4.891   4.495
 2182SOL     OW 7444   0.173   5.480   2.429
 2182SOL    HW1 7445   0.190   5.403   2.367
 2182SOL    HW2 7446   0.256   5.536   2.435
 2183SOL     OW 7447   3.423   2.658   0.091
 2183SOL    HW1 7448   3.345   2.611   0.133
 2183SOL    HW2 7449   3.415   2.756   0.106
 2184SOL     OW 7450   5.996   1.199   6.573
 2184SOL    HW1 7451   5.967   1.218   6.667
 2184SOL    HW2 7452   6.083   1.151   6.573
 2185SOL     OW 7453   0.725   0.506   6.937
 2185SOL    HW1 7454   0.823   0.488   6.942
 2185SOL    HW2 7455   0.676   0.442   6.995
 2186SOL     OW 7456   6.735   4.757   5.368
 2186SOL    HW1 7457   6.742   4.658   5.377
 2186SOL    HW2 7458   6.819   4.800   5.401
 2187SOL     OW 7459   0.595   5.824   3.207
 2187SOL    HW1 7460   0.689   5.804   3.180
 2187SOL    HW2 7461   0.539   5.741   3.195
 2188SOL     OW 7462   2.267   0.536   1.082
 2188SOL    HW1 7463   2.219   0.495   1.004
 2188SOL    HW2 7464   2.265   0.635   1.074
 2189SOL     OW 7465   2.703   1.639   1.169
 2189SOL    HW1 7466   2.771   1.665   1.238
 2189SOL    HW2 7467   2.749   1.611   1.085
 2190SOL     OW 7468   6.339   4.025   2.245
 2190SOL    HW1 7469   6.417   4.021   2.183
 2190SOL    HW2 7470   6.265   3.968   2.209
 2191SOL     OW 7471   2.853   0.040   0.297
 2191SOL    HW1 7472   2.755   0.024   0.310
 2191SOL    HW2 7473   2.890   0.084   0.379
 2192SOL     OW 7474   4.620   1.436   1.013
 2192SOL    HW1 7475   4.605   1.490   0.930
 2192SOL    HW2 7476   4.548   1.367   1.021
 2193SOL     OW 7477   1.402   6.374   6.248
 2193SOL    HW1 7478   1.312   6.389   6.290
 2193SOL    HW2 7479   1.389   6.348   6.152
 2194SOL     OW 7480   0.909   3.608   6.120
 2194SOL    HW1 7481   0.903   3.678   6.049
 2194SOL    HW2 7482   0.893   3.518   6.079
 2195SOL     OW 7483   0.415   3.863   6.546
 2195SOL    HW1 7484   0.316   3.847   6.548
 2195SOL    HW2 7485   0.460   3.785   6.503
 2196SOL     OW 7486   2.771   6.798   5.679
 2196SOL    HW1 7487   2.871   6.792   5.682
 2196SOL    HW2 7488   2.734   6.796   5.772
 2197SOL     OW 7489   2.971   5.106   5.662
 2197SOL    HW1 7490   2.874   5.096   5.638
 2197SOL    HW2 7491   3.023   5.034   5.616
 2198SOL     OW 7492   0.520   0.567   6.752
 2198SOL    HW1 7493   0.540   0.531   6.661
 2198SOL    HW2 7494   0.586   0.529   6.818
 2199SOL     OW 7495   4.401   6.648   4.528
 2199SOL    HW1 7496   4.414   6.702   4.444
 2199SOL    HW2 7497   4.486   6.599   4.549
 2200SOL     OW 7498   2.905   2.030   4.098
 2200SOL    HW1 7499   2.909   2.123   4.133
 2200SOL    HW2 7500   2.842   1.975   4.154
 2201SOL     OW 7501   6.068   4.059   3.557
 2201SOL    HW1 7502   6.025   3.977   3.596
 2201SOL    HW2 7503   6.041   4.139   3.611
 2202SOL     OW 7504   3.844   5.806   2.283
 2202SOL    HW1 7505   3.863   5.904   2.290
 2202SOL    HW2 7506   3.774   5.791   2.212
 2203SOL     OW 7507   2.014   3.293   0.692
 2203SOL    HW1 7508   2.101   3.257   0.726
 2203SOL    HW2 7509   1.950   3.217   0.681
 2204SOL     OW 7510   5.481   3.262   0.982
 2204SOL    HW1 7511   5.395   3.253   0.932
 2204SOL    HW2 7512   5.473   3.215   1.070
 2205SOL     OW 7513   0.659   4.974   0.397
 2205SOL    HW1 7514   0.650   4.922   0.482
 2205SOL    HW2 7515   0.675   4.911   0.321
 2206SOL     OW 7516   2.838   2.657   6.042
 2206SOL    HW1 7517   2.760   2.719   6.032
 2206SOL    HW2 7518   2.823   2.597   6.120
 2207SOL     OW 7519   4.963   6.095   0.792
 2207SOL    HW1 7520   5.017   6.043   0.726
 2207SOL    HW2 7521   4.915   6.032   0.853
 2208SOL     OW 7522   0.489   5.890   4.415
 2208SOL    HW1 7523   0.497   5.978   4.460
 2208SOL    HW2 7524   0.435   5.828   4.473
 2209SOL     OW 7525   3.157   5.822   4.154
 2209SOL    HW1 7526   3.196   5.852   4.241
 2209SOL    HW2 7527   3.066   5.860   4.142
 2210SOL     OW 7528   4.689   6.345   1.158
 2210SOL    HW1 7529   4.724   6.433   1.188
 2210SOL    HW2 7530   4.714   6.331   1.062
 2211SOL     OW 7531   0.024   1.514   0.801
 2211SOL    HW1 7532   0.108   1.544   0.848
 2211SOL    HW2 7533   6.987   1.470   0.867
 2212SOL     OW 7534   2.552   6.264   6.683
 2212SOL    HW1 7535   2.601   6.278   6.597
 2212SOL    HW2 7536   2.568   6.171   6.715
 2213SOL     OW 7537   3.522   2.093   4.335
 2213SOL    HW1 7538   3.485   2.179   4.371
 2213SOL    HW2 7539   3.448   2.040   4.292
 2214SOL     OW 7540   4.082   3.762   6.464
 2214SOL    HW1 7541   4.097   3.836   6.398
 2214SOL    HW2 7542   4.154   3.693   6.453
 2215SOL     OW 7543   4.459   0.027   6.724
 2215SOL    HW1 7544   4.479   0.074   6.810
 2215SOL    HW2 7545   4.451   0.095   6.651
 2216SOL     OW 7546   0.719   6.755   6.327
 2216SOL    HW1 7547   0.745   6.808   6.246
 2216SOL    HW2 7548   0.742   6.808   6.409
 2217SOL     OW 7549   4.098   0.510   3.460
 2217SOL    HW1 7550   4.051   0.423   3.441
 2217SOL    HW2 7551   4.048   0.585   3.416
 2218SOL     OW 7552   0.677   5.407   5.934
 2218SOL    HW1 7553   0.684   5.405   6.033
 2218SOL    HW2 7554   0.588   5.371   5.906
 2219SOL     OW 7555   5.545   1.173   0.579
 2219SOL    HW1 7556   5.596   1.115   0.642
 2219SOL    HW2 7557   5.609   1.218   0.517
 2220SOL     OW 7558   0.870   5.891   5.596
 2220SOL    HW1 7559   0.886   5.973   5.542
 2220SOL    HW2 7560   0.939   5.822   5.573
 2221SOL     OW 7561   6.852   1.100   4.242
 2221SOL    HW1 7562   6.886   1.008   4.265
 2221SOL    HW2 7563   6.811   1.098   4.151
 2222SOL     OW 7564   4.476   5.957   1.810
 2222SOL    HW1 7565   4.390   5.909   1.790
 2222SOL    HW2 7566   4.511   5.999   1.726
 2223SOL     OW 7567   6.634   6.246   5.418
 2223SOL    HW1 7568   6.707   6.178   5.416
 2223SOL    HW2 7569   6.657   6.321   5.356
 2224SOL     OW 7570   5.463   4.009   0.842
 2224SOL    HW1 7571   5.484   3.917   0.873
 2224SOL    HW2 7572   5.548   4.056   0.816
 2225SOL     OW 7573   0.758   6.753   3.217
 2225SOL    HW1 7574   0.691   6.804   3.162
 2225SOL    HW2 7575   0.710   6.700   3.287
 2226SOL     OW 7576   2.033   5.290   0.643
 2226SOL    HW1 7577   2.076   5.270   0.555
 2226SOL    HW2 7578   2.077   5.236   0.714
 2227SOL     OW 7579   4.124   1.926   1.871
 2227SOL    HW1 7580   4.207   1.980   1.887
 2227SOL    HW2 7581   4.050   1.987   1.843
 2228SOL     OW 7582   5.450   4.625   0.068
 2228SOL    HW1 7583   5.459   4.722   0.090
 2228SOL    HW2 7584   5.524   4.574   0.110
 2229SOL     OW 7585   3.695   3.696   4.244
 2229SOL    HW1 7586   3.596   3.685   4.241
 2229SOL    HW2 7587   3.738   3.646   4.169
 2230SOL     OW 7588   5.379   6.759   0.868
 2230SOL    HW1 7589   5.467   6.790   0.832
 2230SOL    HW2 7590   5.306   6.788   0.807
 2231SOL     OW 7591   1.304   0.303   6.747
 2231SOL    HW1 7592   1.317   0.402   6.755
 2231SOL    HW2 7593   1.207   0.281   6.757
 2232SOL     OW 7594   1.493   0.617   5.695
 2232SOL    HW1 7595   1.448   0.531   5.671
 2232SOL    HW2 7596   1.441   0.664   5.766
 2233SOL     OW 7597   2.756   3.998   0.782
 2233SOL    HW1 7598   2.801   3.943   0.852
 2233SOL    HW2 7599   2.698   4.067   0.825
 2234SOL     OW 7600   4.504   1.536   0.777
 2234SOL    HW1 7601   4.458   1.487   0.702
 2234SOL    HW2 7602   4.479   1.633   0.773
 2235SOL     OW 7603   2.103   1.392   3.150
 2235SOL    HW1 7604   2.026   1.453   3.130
 2235SOL    HW2 7605   2.146   1.364   3.064
 2236SOL     OW 7606   2.009   4.023   5.338
 2236SOL    HW1 7607   2.060   4.068   5.264
 2236SOL    HW2 7608   1.912   4.047   5.332
 2237SOL     OW 7609   6.587   5.001   5.279
 2237SOL    HW1 7610   6.599   5.041   5.188
 2237SOL    HW2 7611   6.675   4.998   5.326
 2238SOL     OW 7612   5.030   4.544   2.079
 2238SOL    HW1 7613   4.944   4.505   2.047
 2238SOL    HW2 7614   5.044   4.634   2.036
 2239SOL     OW 7615   3.941   6.827   3.526
 2239SOL    HW1 7616   4.017   6.846   3.464
 2239SOL    HW2 7617   3.932   6.901   3.593
 2240SOL     OW 7618   4.393   5.058   3.558
 2240SOL    HW1 7619   4.375   4.964   3.585
 2240SOL    HW2 7620   4.311   5.098   3.518
 2241SOL     OW 7621   0.422   0.468   1.828
 2241SOL    HW1 7622   0.504   0.414   1.845
 2241SOL    HW2 7623   0.361   0.417   1.768
 2242SOL     OW 7624   4.895   3.106   2.933
 2242SOL    HW1 7625   4.927   3.200   2.923
 2242SOL    HW2 7626   4.970   3.043   2.912
 2243SOL     OW 7627   1.193   6.240   0.933
 2243SOL    HW1 7628   1.247   6.237   0.849
 2243SOL    HW2 7629   1.171   6.335   0.955
 2244SOL     OW 7630   2.450   0.316   0.387
 2244SOL    HW1 7631   2.412   0.325   0.479
 2244SOL    HW2 7632   2.377   0.322   0.320
 2245SOL     OW 7633   0.616   0.301   0.058
 2245SOL    HW1 7634   0.591   0.261   0.146
 2245SOL    HW2 7635   0.618   0.230   7.012
 2246SOL     OW 7636   2.001   0.879   5.405
 2246SOL    HW1 7637   2.044   0.968   5.420
 2246SOL    HW2 7638   1.956   0.878   5.316
 2247SOL     OW 7639   3.141   4.093   2.663
 2247SOL    HW1 7640   3.096   4.182   2.674
 2247SOL    HW2 7641   3.127   4.060   2.570
 2248SOL     OW 7642   5.260   4.302   5.260
 2248SOL    HW1 7643   5.208   4.250   5.192
 2248SOL    HW2 7644   5.241   4.399   5.249
 2249SOL     OW 7645   2.218   6.940   3.888
 2249SOL    HW1 7646   2.244   6.865   3.949
 2249SOL    HW2 7647   2.173   7.012   3.942
 2250SOL     OW 7648   4.444   4.205   6.513
 2250SOL    HW1 7649   4.386   4.270   6.463
 2250SOL    HW2 7650   4.399   4.180   6.598
 2251SOL     OW 7651   5.099   6.823   5.759
 2251SOL    HW1 7652   5.190   6.785   5.740
 2251SOL    HW2 7653   5.029   6.764   5.720
 2252SOL     OW 7654   4.471   1.821   2.552
 2252SOL    HW1 7655   4.498   1.728   2.576
 2252SOL    HW2 7656   4.477   1.833   2.453
 2253SOL     OW 7657   0.789   3.753   0.535
 2253SOL    HW1 7658   0.752   3.661   0.527
 2253SOL    HW2 7659   0.887   3.748   0.553
 2254SOL     OW 7660   3.733   3.332   2.899
 2254SOL    HW1 7661   3.687   3.283   2.973
 2254SOL    HW2 7662   3.830   3.309   2.899
 2255SOL     OW 7663   3.242   3.918   5.815
 2255SOL    HW1 7664   3.275   3.976   5.741
 2255SOL    HW2 7665   3.295   3.937   5.898
 2256SOL     OW 7666   5.078   6.746   2.059
 2256SOL    HW1 7667   5.084   6.792   1.971
 2256SOL    HW2 7668   5.014   6.669   2.053
 2257SOL     OW 7669   7.020   1.244   4.740
 2257SOL    HW1 7670   6.939   1.303   4.747
 2257SOL    HW2 7671   0.055   1.260   4.819
 2258SOL     OW 7672   2.451   6.234   4.014
 2258SOL    HW1 7673   2.521   6.287   3.965
 2258SOL    HW2 7674   2.367   6.288   4.020
 2259SOL     OW 7675   6.134   2.060   4.581
 2259SOL    HW1 7676   6.178   2.122   4.517
 2259SOL    HW2 7677   6.120   1.971   4.538
 2260SOL     OW 7678   1.242   3.687   1.829
 2260SOL    HW1 7679   1.289   3.600   1.819
 2260SOL    HW2 7680   1.184   3.702   1.748
 2261SOL     OW 7681   5.632   3.922   6.960
 2261SOL    HW1 7682   5.711   3.876   6.921
 2261SOL    HW2 7683   5.644   4.021   6.953
 2262SOL     OW 7684   6.445   0.270   4.361
 2262SOL    HW1 7685   6.401   0.266   4.450
 2262SOL    HW2 7686   6.507   0.348   4.357
 2263SOL     OW 7687   1.509   4.532   0.160
 2263SOL    HW1 7688   1.561   4.609   0.124
 2263SOL    HW2 7689   1.413   4.540   0.132
 2264SOL     OW 7690   1.704   6.957   6.008
 2264SOL    HW1 7691   1.650   6.947   5.924
 2264SOL    HW2 7692   1.746   0.023   6.010
 2265SOL     OW 7693   0.705   6.154   4.308
 2265SOL    HW1 7694   0.710   6.240   4.258
 2265SOL    HW2 7695   0.791   6.138   4.357
 2266SOL     OW 7696   4.668   1.836   6.557
 2266SOL    HW1 7697   4.683   1.935   6.560
 2266SOL    HW2 7698   4.634   1.810   6.467
 2267SOL     OW 7699   5.076   3.029   4.252
 2267SOL    HW1 7700   5.131   3.098   4.299
 2267SOL    HW2 7701   5.064   3.055   4.156
 2268SOL     OW 7702   6.982   4.777   5.774
 2268SOL    HW1 7703   6.958   4.766   5.870
 2268SOL    HW2 7704   6.948   4.699   5.722
 2269SOL     OW 7705   2.069   2.914   4.997
 2269SOL    HW1 7706   2.105   3.007   4.999
 2269SOL    HW2 7707   2.142   2.850   5.023
 2270SOL     OW 7708   4.865   1.941   6.204
 2270SOL    HW1 7709   4.863   1.963   6.107
 2270SOL    HW2 7710   4.906   2.016   6.255
 2271SOL     OW 7711   5.814   4.954   5.914
 2271SOL    HW1 7712   5.718   4.927   5.917
 2271SOL    HW2 7713   5.861   4.917   5.994
 2272SOL     OW 7714   5.945   0.927   5.990
 2272SOL    HW1 7715   5.978   1.001   5.932
 2272SOL    HW2 7716   5.912   0.965   6.077
 2273SOL     OW 7717   1.860   2.593   2.063
 2273SOL    HW1 7718   1.915   2.635   1.992
 2273SOL    HW2 7719   1.917   2.572   2.142
 2274SOL     OW 7720   0.631   0.839   0.240
 2274SOL    HW1 7721   0.584   0.879   0.161
 2274SOL    HW2 7722   0.688   0.762   0.209
 2275SOL     OW 7723   5.656   4.933   2.382
 2275SOL    HW1 7724   5.645   4.878   2.465
 2275SOL    HW2 7725   5.577   4.992   2.370
 2276SOL     OW 7726   1.421   1.447   1.425
 2276SOL    HW1 7727   1.321   1.452   1.413
 2276SOL    HW2 7728   1.451   1.353   1.410
 2277SOL     OW 7729   3.288   4.115   3.304
 2277SOL    HW1 7730   3.228   4.134   3.382
 2277SOL    HW2 7731   3.383   4.120   3.334
 2278SOL     OW 7732   0.753   2.115   4.081
 2278SOL    HW1 7733   0.688   2.191   4.077
 2278SOL    HW2 7734   0.843   2.146   4.052
 2279SOL     OW 7735   0.331   5.750   5.235
 2279SOL    HW1 7736   0.426   5.757   5.205
 2279SOL    HW2 7737   0.324   5.779   5.330
 2280SOL     OW 7738   4.802   1.678   4.732
 2280SOL    HW1 7739   4.737   1.679   4.808
 2280SOL    HW2 7740   4.882   1.625   4.758
 2281SOL     OW 7741   5.250   6.600   2.428
 2281SOL    HW1 7742   5.156   6.567   2.430
 2281SOL    HW2 7743   5.261   6.674   2.495
 2282SOL     OW 7744   4.064   5.727   5.626
 2282SOL    HW1 7745   4.089   5.631   5.618
 2282SOL    HW2 7746   3.973   5.741   5.586
 2283SOL     OW 7747   0.912   0.687   3.774
 2283SOL    HW1 7748   0.969   0.622   3.723
 2283SOL    HW2 7749   0.892   0.766   3.716
 2284SOL     OW 7750   1.325   3.402   6.249
 2284SOL    HW1 7751   1.369   3.313   6.258
 2284SOL    HW2 7752   1.261   3.416   6.325
 2285SOL     OW 7753   1.556   3.992   6.845
 2285SOL    HW1 7754   1.557   3.907   6.793
 2285SOL    HW2 7755   1.487   4.054   6.806
 2286SOL     OW 7756   4.925   6.058   4.229
 2286SOL    HW1 7757   4.981   6.138   4.250
 2286SOL    HW2 7758   4.831   6.088   4.209
 2287SOL     OW 7759   1.657   1.276   3.375
 2287SOL    HW1 7760   1.628   1.254   3.282
 2287SOL    HW2 7761   1.583   1.321   3.424
 2288SOL     OW 7762   0.259   5.789   3.757
 2288SOL    HW1 7763   0.319   5.735   3.699
 2288SOL    HW2 7764   0.313   5.858   3.806
 2289SOL     OW 7765   0.849   6.160   1.923
 2289SOL    HW1 7766   0.752   6.137   1.914
 2289SOL    HW2 7767   0.904   6.090   1.879
 2290SOL     OW 7768   1.068   5.133   1.255
 2290SOL    HW1 7769   1.015   5.174   1.329
 2290SOL    HW2 7770   1.126   5.203   1.212
 2291SOL     OW 7771   3.084   1.604   5.759
 2291SOL    HW1 7772   3.037   1.681   5.803
 2291SOL    HW2 7773   3.017   1.539   5.723
 2292SOL     OW 7774   1.276   0.774   4.714
 2292SOL    HW1 7775   1.244   0.680   4.702
 2292SOL    HW2 7776   1.261   0.802   4.809
 2293SOL     OW 7777   5.174   5.457   2.024
 2293SOL    HW1 7778   5.097   5.437   2.085
 2293SOL    HW2 7779   5.163   5.548   1.986
 2294SOL     OW 7780   4.363   6.555   6.673
 2294SOL    HW1 7781   4.303   6.622   6.631
 2294SOL    HW2 7782   4.458   6.584   6.663
 2295SOL     OW 7783   0.480   2.202   1.220
 2295SOL    HW1 7784   0.399   2.143   1.210
 2295SOL    HW2 7785   0.519   2.221   1.130
 2296SOL     OW 7786   3.030   6.791   0.103
 2296SOL    HW1 7787   2.951   6.778   0.044
 2296SOL    HW2 7788   3.114   6.781   0.050
 2297SOL     OW 7789   4.257   4.981   5.466
 2297SOL    HW1 7790   4.185   4.944   5.525
 2297SOL    HW2 7791   4.341   4.929   5.481
 2298SOL     OW 7792   3.728   2.213   1.387
 2298SOL    HW1 7793   3.739   2.172   1.477
 2298SOL    HW2 7794   3.759   2.308   1.390
 2299SOL     OW 7795   5.255   6.134   6.793
 2299SOL    HW1 7796   5.354   6.123   6.782
 2299SOL    HW2 7797   5.214   6.047   6.818
 2300SOL     OW 7798   1.660   5.158   1.315
 2300SOL    HW1 7799   1.691   5.221   1.243
 2300SOL    HW2 7800   1.681   5.197   1.404
 2301SOL     OW 7801   4.085   3.233   2.694
 2301SOL    HW1 7802   4.038   3.210   2.609
 2301SOL    HW2 7803   4.182   3.248   2.676
 2302SOL     OW 7804   3.234   5.670   2.989
 2302SOL    HW1 7805   3.232   5.748   2.927
 2302SOL    HW2 7806   3.228   5.703   3.084
 2303SOL     OW 7807   1.110   2.973   4.474
 2303SOL    HW1 7808   1.132   2.953   4.570
 2303SOL    HW2 7809   1.018   3.012   4.469
 2304SOL     OW 7810   2.079   0.998   3.611
 2304SOL    HW1 7811   2.025   0.935   3.554
 2304SOL    HW2 7812   2.021   1.074   3.641
 2305SOL     OW 7813   3.430   5.369   2.273
 2305SOL    HW1 7814   3.395   5.340   2.184
 2305SOL    HW2 7815   3.355   5.402   2.330
 2306SOL     OW 7816   1.872   4.362   1.551
 2306SOL    HW1 7817   1.938   4.353   1.625
 2306SOL    HW2 7818   1.815   4.280   1.547
 2307SOL     OW 7819   0.624   2.194   3.261
 2307SOL    HW1 7820   0.676   2.251   3.325
 2307SOL    HW2 7821   0.665   2.201   3.170
 2308SOL     OW 7822   0.524   0.237   6.788
 2308SOL    HW1 7823   0.616   0.246   6.749
 2308SOL    HW2 7824   0.456   0.260   6.718
 2309SOL     OW 7825   3.704   5.567   6.544
 2309SOL    HW1 7826   3.677   5.522   6.459
 2309SOL    HW2 7827   3.797   5.602   6.535
 2310SOL     OW 7828   5.604   0.892   1.603
 2310SOL    HW1 7829   5.584   0.843   1.518
 2310SOL    HW2 7830   5.665   0.969   1.584
 2311SOL     OW 7831   2.489   0.570   2.715
 2311SOL    HW1 7832   2.398   0.555   2.678
 2311SOL    HW2 7833   2.517   0.664   2.697
 2312SOL     OW 7834   4.095   0.112   2.793
 2312SOL    HW1 7835   4.046   0.037   2.839
 2312SOL    HW2 7836   4.029   0.169   2.744
 2313SOL     OW 7837   4.711   4.383   2.214
 2313SOL    HW1 7838   4.667   4.334   2.139
 2313SOL    HW2 7839   4.691   4.336   2.300
 2314SOL     OW 7840   6.345   0.713   3.835
 2314SOL    HW1 7841   6.254   0.672   3.837
 2314SOL    HW2 7842   6.339   0.805   3.796
 2315SOL     OW 7843   4.419   4.204   6.056
 2315SOL    HW1 7844   4.419   4.109   6.025
 2315SOL    HW2 7845   4.339   4.220   6.114
 2316SOL     OW 7846   2.962   1.303   5.957
 2316SOL    HW1 7847   3.025   1.274   5.885
 2316SOL    HW2 7848   3.002   1.378   6.009
 2317SOL     OW 7849   6.031   6.565   4.346
 2317SOL    HW1 7850   6.030   6.621   4.263
 2317SOL    HW2 7851   6.012   6.470   4.322
 2318SOL     OW 7852   2.268   4.239   4.551
 2318SOL    HW1 7853   2.265   4.278   4.643
 2318SOL    HW2 7854   2.324   4.297   4.492
 2319SOL     OW 7855   2.054   5.353   4.893
 2319SOL    HW1 7856   2.072   5.265   4.936
 2319SOL    HW2 7857   1.982   5.341   4.824
 2320SOL     OW 7858   1.105   3.259   5.545
 2320SOL    HW1 7859   1.180   3.193   5.550
 2320SOL    HW2 7860   1.141   3.351   5.561
 2321SOL     OW 7861   2.812   4.979   5.977
 2321SOL    HW1 7862   2.795   4.967   5.879
 2321SOL    HW2 7863   2.901   5.023   5.990
 2322SOL     OW 7864   2.152   3.615   2.372
 2322SOL    HW1 7865   2.141   3.635   2.275
 2322SOL    HW2 7866   2.172   3.518   2.384
 2323SOL     OW 7867   2.640   4.731   1.362
 2323SOL    HW1 7868   2.653   4.632   1.371
 2323SOL    HW2 7869   2.681   4.778   1.440
 2324SOL     OW 7870   0.396   5.598   2.351
 2324SOL    HW1 7871   0.406   5.653   2.433
 2324SOL    HW2 7872   0.486   5.568   2.319
 2325SOL     OW 7873   6.805   4.937   1.677
 2325SOL    HW1 7874   6.730   4.871   1.689
 2325SOL    HW2 7875   6.791   4.988   1.592
 2326SOL     OW 7876   1.192   6.839   0.120
 2326SOL    HW1 7877   1.173   6.897   0.042
 2326SOL    HW2 7878   1.275   6.786   0.103
 2327SOL     OW 7879   6.973   0.554   2.872
 2327SOL    HW1 7880   6.925   0.620   2.930
 2327SOL    HW2 7881   0.045   0.578   2.866
 2328SOL     OW 7882   1.731   1.973   2.089
 2328SOL    HW1 7883   1.770   2.060   2.061
 2328SOL    HW2 7884   1.790   1.898   2.057
 2329SOL     OW 7885   0.901   4.487   3.808
 2329SOL    HW1 7886   0.813   4.521   3.841
 2329SOL    HW2 7887   0.930   4.410   3.864
 2330SOL     OW 7888   6.680   3.106   0.415
 2330SOL    HW1 7889   6.702   3.203   0.408
 2330SOL    HW2 7890   6.736   3.063   0.486
 2331SOL     OW 7891   3.708   6.033   0.055
 2331SOL    HW1 7892   3.717   5.936   0.029
 2331SOL    HW2 7893   3.799   6.069   0.077
 2332SOL     OW 7894   6.182   6.925   6.160
 2332SOL    HW1 7895   6.279   6.904   6.146
 2332SOL    HW2 7896   6.138   6.848   6.206
 2333SOL     OW 7897   6.949   4.855   2.843
 2333SOL    HW1 7898   6.949   4.815   2.935
 2333SOL    HW2 7899   6.957   4.954   2.850
 2334SOL     OW 7900   1.967   1.354   6.390
 2334SOL    HW1 7901   2.036   1.309   6.447
 2334SOL    HW2 7902   1.958   1.450   6.418
 2335SOL     OW 7903   6.159   1.322   4.020
 2335SOL    HW1 7904   6.111   1.405   4.049
 2335SOL    HW2 7905   6.200   1.278   4.100
 2336SOL     OW 7906   2.436   1.766   3.948
 2336SOL    HW1 7907   2.389   1.688   3.990
 2336SOL    HW2 7908   2.453   1.746   3.851
 2337SOL     OW 7909   4.218   1.757   1.500
 2337SOL    HW1 7910   4.286   1.727   1.567
 2337SOL    HW2 7911   4.191   1.679   1.443
 2338SOL     OW 7912   1.007   3.528   4.101
 2338SOL    HW1 7913   1.071   3.605   4.102
 2338SOL    HW2 7914   0.914   3.562   4.112
 2339SOL     OW 7915   3.184   3.408   2.802
 2339SOL    HW1 7916   3.276   3.370   2.816
 2339SOL    HW2 7917   3.123   3.373   2.874
 2340SOL     OW 7918   0.524   5.189   6.799
 2340SOL    HW1 7919   0.544   5.116   6.735
 2340SOL    HW2 7920   0.425   5.192   6.817
 2341SOL     OW 7921   2.365   4.367   2.949
 2341SOL    HW1 7922   2.385   4.435   2.879
 2341SOL    HW2 7923   2.350   4.278   2.906
 2342SOL     OW 7924   2.723   6.578   4.250
 2342SOL    HW1 7925   2.693   6.484   4.230
 2342SOL    HW2 7926   2.652   6.642   4.222
 2343SOL     OW 7927   2.313   6.329   3.136
 2343SOL    HW1 7928   2.281   6.280   3.217
 2343SOL    HW2 7929   2.343   6.264   3.067
 2344SOL     OW 7930   6.879   5.160   1.033
 2344SOL    HW1 7931   6.928   5.075   1.015
 2344SOL    HW2 7932   6.800   5.167   0.971
 2345SOL     OW 7933   2.328   5.452   4.835
 2345SOL    HW1 7934   2.244   5.408   4.867
 2345SOL    HW2 7935   2.342   5.430   4.739
 2346SOL     OW 7936   4.298   3.268   5.992
 2346SOL    HW1 7937   4.300   3.186   6.048
 2346SOL    HW2 7938   4.390   3.291   5.962
 2347SOL     OW 7939   1.363   2.234   1.126
 2347SOL    HW1 7940   1.332   2.146   1.161
 2347SOL    HW2 7941   1.461   2.246   1.147
 2348SOL     OW 7942   1.840   6.342   3.719
 2348SOL    HW1 7943   1.781   6.265   3.695
 2348SOL    HW2 7944   1.933   6.324   3.688
 2349SOL     OW 7945   1.058   4.105   6.594
 2349SOL    HW1 7946   1.139   4.146   6.635
 2349SOL    HW2 7947   0.976   4.153   6.624
 2350SOL     OW 7948   5.889   3.391   5.659
 2350SOL    HW1 7949   5.896   3.413   5.562
 2350SOL    HW2 7950   5.802   3.345   5.677
 2351SOL     OW 7951   3.155   4.963   3.109
 2351SOL    HW1 7952   3.159   5.030   3.035
 2351SOL    HW2 7953   3.059   4.938   3.125
 2352SOL     OW 7954   6.622   3.018   3.706
 2352SOL    HW1 7955   6.643   3.016   3.804
 2352SOL    HW2 7956   6.705   2.999   3.654
 2353SOL     OW 7957   4.418   5.204   5.499
 2353SOL    HW1 7958   4.336   5.150   5.484
 2353SOL    HW2 7959   4.442   5.201   5.596
 2354SOL     OW 7960   2.621   2.462   4.604
 2354SOL    HW1 7961   2.651   2.402   4.677
 2354SOL    HW2 7962   2.665   2.436   4.518
 2355SOL     OW 7963   2.331   6.059   5.121
 2355SOL    HW1 7964   2.270   5.979   5.127
 2355SOL    HW2 7965   2.372   6.063   5.030
 2356SOL     OW 7966   1.071   3.156   6.881
 2356SOL    HW1 7967   1.016   3.171   6.799
 2356SOL    HW2 7968   1.148   3.219   6.882
 2357SOL     OW 7969   3.565   1.465   1.522
 2357SOL    HW1 7970   3.557   1.485   1.425
 2357SOL    HW2 7971   3.577   1.366   1.535
 2358SOL     OW 7972   2.556   4.707   5.681
 2358SOL    HW1 7973   2.513   4.677   5.766
 2358SOL    HW2 7974   2.506   4.785   5.644
 2359SOL     OW 7975   0.771   0.172   5.310
 2359SOL    HW1 7976   0.728   0.085   5.285
 2359SOL    HW2 7977   0.801   0.219   5.227
 2360SOL     OW 7978   6.613   3.658   0.847
 2360SOL    HW1 7979   6.696   3.604   0.835
 2360SOL    HW2 7980   6.538   3.617   0.795
 2361SOL     OW 7981   2.849   1.273   6.384
 2361SOL    HW1 7982   2.943   1.284   6.415
 2361SOL    HW2 7983   2.843   1.194   6.322
 2362SOL     OW 7984   3.378   4.969   3.844
 2362SOL    HW1 7985   3.463   4.941   3.889
 2362SOL    HW2 7986   3.310   4.994   3.913
 2363SOL     OW 7987   3.656   2.053   3.432
 2363SOL    HW1 7988   3.723   2.047   3.505
 2363SOL    HW2 7989   3.703   2.065   3.344
 2364SOL     OW 7990   1.235   2.545   2.203
 2364SOL    HW1 7991   1.304   2.610   2.235
 2364SOL    HW2 7992   1.202   2.574   2.113
 2365SOL     OW 7993   6.441   1.788   6.635
 2365SOL    HW1 7994   6.424   1.865   6.574
 2365SOL    HW2 7995   6.485   1.714   6.585
 2366SOL     OW 7996   3.425   5.038   0.942
 2366SOL    HW1 7997   3.488   4.969   0.907
 2366SOL    HW2 7998   3.473   5.125   0.952
 2367SOL     OW 7999   2.016   3.340   0.091
 2367SOL    HW1 8000   2.096   3.399   0.097
 2367SOL    HW2 8001   1.985   3.315   0.183
 2368SOL     OW 8002   5.741   0.304   3.834
 2368SOL    HW1 8003   5.654   0.330   3.876
 2368SOL    HW2 8004   5.793   0.247   3.899
 2369SOL     OW 8005   2.148   6.969   4.456
 2369SOL    HW1 8006   2.236   6.982   4.411
 2369SOL    HW2 8007   2.163   6.929   4.547
 2370SOL     OW 8008   5.797   2.898   6.811
 2370SOL    HW1 8009   5.739   2.898   6.729
 2370SOL    HW2 8010   5.830   2.991   6.829
 2371SOL     OW 8011   2.484   6.662   2.179
 2371SOL    HW1 8012   2.430   6.707   2.250
 2371SOL    HW2 8013   2.567   6.716   2.161
 2372SOL     OW 8014   6.971   2.655   2.162
 2372SOL    HW1 8015   6.974   2.615   2.070
 2372SOL    HW2 8016   0.032   2.634   2.209
 2373SOL     OW 8017   1.818   3.838   5.730
 2373SOL    HW1 8018   1.817   3.937   5.711
 2373SOL    HW2 8019   1.831   3.824   5.828
 2374SOL     OW 8020   6.472   1.830   5.116
 2374SOL    HW1 8021   6.525   1.795   5.039
 2374SOL    HW2 8022   6.534   1.859   5.189
 2375SOL     OW 8023   3.223   5.437   5.960
 2375SOL    HW1 8024   3.271   5.359   5.920
 2375SOL    HW2 8025   3.128   5.410   5.981
 2376SOL     OW 8026   5.857   3.735   3.993
 2376SOL    HW1 8027   5.860   3.829   4.028
 2376SOL    HW2 8028   5.768   3.695   4.013
 2377SOL     OW 8029   3.021   3.907   3.757
 2377SOL    HW1 8030   3.031   3.946   3.849
 2377SOL    HW2 8031   2.965   3.824   3.762
 2378SOL     OW 8032   5.060   2.024   6.895
 2378SOL    HW1 8033   5.091   2.073   6.814
 2378SOL    HW2 8034   5.006   2.086   6.953
 2379SOL     OW 8035   6.564   1.316   0.149
 2379SOL    HW1 8036   6.652   1.311   0.100
 2379SOL    HW2 8037   6.573   1.269   0.236
 2380SOL     OW 8038   6.775   2.684   0.501
 2380SOL    HW1 8039   6.703   2.621   0.531
 2380SOL    HW2 8040   6.860   2.632   0.489
 2381SOL     OW 8041   2.022   5.878   3.682
 2381SOL    HW1 8042   2.005   5.862   3.585
 2381SOL    HW2 8043   2.089   5.812   3.716
 2382SOL     OW 8044   1.920   3.191   4.458
 2382SOL    HW1 8045   1.906   3.187   4.359
 2382SOL    HW2 8046   2.015   3.170   4.480
 2383SOL     OW 8047   6.478   6.640   1.115
 2383SOL    HW1 8048   6.381   6.634   1.141
 2383SOL    HW2 8049   6.528   6.565   1.157
 2384SOL     OW 8050   5.017   2.029   2.133
 2384SOL    HW1 8051   5.090   1.975   2.174
 2384SOL    HW2 8052   4.971   2.083   2.204
 2385SOL     OW 8053   0.208   0.594   0.162
 2385SOL    HW1 8054   0.160   0.652   0.228
 2385SOL    HW2 8055   0.251   0.651   0.092
 2386SOL     OW 8056   5.167   5.972   4.630
 2386SOL    HW1 8057   5.112   6.017   4.701
 2386SOL    HW2 8058   5.208   6.042   4.572
 2387SOL     OW 8059   1.797   1.041   4.510
 2387SOL    HW1 8060   1.736   1.003   4.580
 2387SOL    HW2 8061   1.871   0.976   4.492
 2388SOL     OW 8062   6.706   3.017   3.973
 2388SOL    HW1 8063   6.721   3.112   4.000
 2388SOL    HW2 8064   6.645   2.973   4.039
 2389SOL     OW 8065   4.554   4.567   3.626
 2389SOL    HW1 8066   4.590   4.474   3.629
 2389SOL    HW2 8067   4.624   4.631   3.660
 2390SOL     OW 8068   4.106   3.567   2.691
 2390SOL    HW1 8069   4.094   3.546   2.788
 2390SOL    HW2 8070   4.112   3.482   2.639
 2391SOL     OW 8071   5.077   4.588   6.013
 2391SOL    HW1 8072   5.140   4.516   5.982
 2391SOL    HW2 8073   5.114   4.632   6.094
 2392SOL     OW 8074   2.292   0.130   6.522
 2392SOL    HW1 8075   2.379   0.174   6.499
 2392SOL    HW2 8076   2.304   0.074   6.604
 2393SOL     OW 8077   4.870   4.710   6.149
 2393SOL    HW1 8078   4.952   4.667   6.111
 2393SOL    HW2 8079   4.814   4.640   6.193
 2394SOL     OW 8080   6.736   4.053   4.903
 2394SOL    HW1 8081   6.769   4.015   4.816
 2394SOL    HW2 8082   6.653   4.107   4.887
 2395SOL     OW 8083   4.621   6.869   5.799
 2395SOL    HW1 8084   4.553   6.934   5.834
 2395SOL    HW2 8085   4.712   6.903   5.821
 2396SOL     OW 8086   3.853   5.418   0.857
 2396SOL    HW1 8087   3.879   5.324   0.879
 2396SOL    HW2 8088   3.868   5.434   0.759
 2397SOL     OW 8089   7.024   4.268   4.486
 2397SOL    HW1 8090   0.077   4.313   4.443
 2397SOL    HW2 8091   6.976   4.333   4.545
 2398SOL     OW 8092   5.393   4.116   0.054
 2398SOL    HW1 8093   5.432   4.095   6.989
 2398SOL    HW2 8094   5.294   4.103   0.051
 2399SOL     OW 8095   4.128   1.069   1.235
 2399SOL    HW1 8096   4.199   1.016   1.189
 2399SOL    HW2 8097   4.167   1.154   1.271
 2400SOL     OW 8098   2.245   4.206   0.860
 2400SOL    HW1 8099   2.147   4.183   0.865
 2400SOL    HW2 8100   2.285   4.199   0.951
 2401SOL     OW 8101   5.972   5.778   6.617
 2401SOL    HW1 8102   5.970   5.878   6.621
 2401SOL    HW2 8103   5.953   5.741   6.708
 2402SOL     OW 8104   0.872   0.065   4.199
 2402SOL    HW1 8105   0.784   0.107   4.174
 2402SOL    HW2 8106   0.858   6.992   4.215
 2403SOL     OW 8107   0.947   2.526   5.604
 2403SOL    HW1 8108   0.952   2.572   5.692
 2403SOL    HW2 8109   1.039   2.516   5.566
 2404SOL     OW 8110   2.133   1.141   1.194
 2404SOL    HW1 8111   2.157   1.115   1.288
 2404SOL    HW2 8112   2.211   1.185   1.151
 2405SOL     OW 8113   3.177   4.052   2.368
 2405SOL    HW1 8114   3.250   4.076   2.304
 2405SOL    HW2 8115   3.111   3.993   2.323
 2406SOL     OW 8116   3.715   1.298   1.263
 2406SOL    HW1 8117   3.739   1.249   1.179
 2406SOL    HW2 8118   3.711   1.233   1.339
 2407SOL     OW 8119   5.650   2.029   3.685
 2407SOL    HW1 8120   5.746   2.059   3.689
 2407SOL    HW2 8121   5.602   2.061   3.766
 2408SOL     OW 8122   4.463   4.560   2.170
 2408SOL    HW1 8123   4.489   4.571   2.266
 2408SOL    HW2 8124   4.493   4.471   2.137
 2409SOL     OW 8125   2.366   3.831   1.461
 2409SOL    HW1 8126   2.371   3.929   1.442
 2409SOL    HW2 8127   2.452   3.801   1.502
 2410SOL     OW 8128   4.124   3.604   4.179
 2410SOL    HW1 8129   4.213   3.610   4.223
 2410SOL    HW2 8130   4.128   3.540   4.102
 2411SOL     OW 8131   5.208   6.492   5.033
 2411SOL    HW1 8132   5.220   6.455   4.941
 2411SOL    HW2 8133   5.296   6.496   5.079
 2412SOL     OW 8134   5.726   3.719   1.293
 2412SOL    HW1 8135   5.775   3.789   1.347
 2412SOL    HW2 8136   5.633   3.750   1.276
 2413SOL     OW 8137   5.625   0.278   1.595
 2413SOL    HW1 8138   5.607   0.281   1.496
 2413SOL    HW2 8139   5.721   0.255   1.610
 2414SOL     OW 8140   5.042   3.971   3.514
 2414SOL    HW1 8141   5.064   4.000   3.421
 2414SOL    HW2 8142   4.960   4.020   3.545
 2415SOL     OW 8143   5.898   1.433   2.551
 2415SOL    HW1 8144   5.994   1.454   2.567
 2415SOL    HW2 8145   5.890   1.350   2.495
 2416SOL     OW 8146   5.348   1.775   5.880
 2416SOL    HW1 8147   5.427   1.834   5.897
 2416SOL    HW2 8148   5.303   1.754   5.967
 2417SOL     OW 8149   2.939   3.246   4.945
 2417SOL    HW1 8150   2.918   3.344   4.944
 2417SOL    HW2 8151   2.935   3.210   4.852
 2418SOL     OW 8152   3.556   3.386   4.208
 2418SOL    HW1 8153   3.534   3.424   4.118
 2418SOL    HW2 8154   3.493   3.421   4.276
 2419SOL     OW 8155   0.662   6.403   3.146
 2419SOL    HW1 8156   0.595   6.458   3.096
 2419SOL    HW2 8157   0.642   6.406   3.244
 2420SOL     OW 8158   2.879   0.183   1.745
 2420SOL    HW1 8159   2.800   0.185   1.683
 2420SOL    HW2 8160   2.860   0.242   1.824
 2421SOL     OW 8161   1.575   2.997   4.749
 2421SOL    HW1 8162   1.516   2.952   4.815
 2421SOL    HW2 8163   1.558   3.096   4.750
 2422SOL     OW 8164   4.896   2.121   0.900
 2422SOL    HW1 8165   4.919   2.216   0.881
 2422SOL    HW2 8166   4.874   2.111   0.997
 2423SOL     OW 8167   2.608   6.187   2.552
 2423SOL    HW1 8168   2.671   6.117   2.517
 2423SOL    HW2 8169   2.650   6.277   2.544
 2424SOL     OW 8170   5.550   1.402   0.370
 2424SOL    HW1 8171   5.562   1.500   0.382
 2424SOL    HW2 8172   5.639   1.357   0.380
 2425SOL     OW 8173   6.247   0.464   4.059
 2425SOL    HW1 8174   6.256   0.541   4.123
 2425SOL    HW2 8175   6.327   0.404   4.067
 2426SOL     OW 8176   2.672   4.932   4.570
 2426SOL    HW1 8177   2.694   4.934   4.667
 2426SOL    HW2 8178   2.708   4.848   4.529
 2427SOL     OW 8179   6.096   6.576   5.172
 2427SOL    HW1 8180   6.018   6.628   5.208
 2427SOL    HW2 8181   6.063   6.490   5.133
 2428SOL     OW 8182   0.464   0.664   1.546
 2428SOL    HW1 8183   0.467   0.697   1.641
 2428SOL    HW2 8184   0.550   0.617   1.525
 2429SOL     OW 8185   5.398   5.505   1.087
 2429SOL    HW1 8186   5.482   5.456   1.107
 2429SOL    HW2 8187   5.328   5.440   1.056
 2430SOL     OW 8188   5.699   0.795   2.266
 2430SOL    HW1 8189   5.653   0.780   2.354
 2430SOL    HW2 8190   5.631   0.795   2.193
 2431SOL     OW 8191   3.965   0.580   2.240
 2431SOL    HW1 8192   3.942   0.494   2.195
 2431SOL    HW2 8193   3.926   0.657   2.189
 2432SOL     OW 8194   4.366   6.251   2.280
 2432SOL    HW1 8195   4.291   6.289   2.226
 2432SOL    HW2 8196   4.334   6.232   2.373
 2433SOL     OW 8197   4.238   0.515   6.667
 2433SOL    HW1 8198   4.332   0.495   6.696
 2433SOL    HW2 8199   4.214   0.608   6.694
 2434SOL     OW 8200   3.873   1.344   6.196
 2434SOL    HW1 8201   3.836   1.317   6.107
 2434SOL    HW2 8202   3.935   1.272   6.228
 2435SOL     OW 8203   6.273   5.615   5.101
 2435SOL    HW1 8204   6.177   5.642   5.114
 2435SOL    HW2 8205   6.304   5.563   5.181
 2436SOL     OW 8206   2.568   5.725   0.040
 2436SOL    HW1 8207   2.539   5.710   6.969
 2436SOL    HW2 8208   2.630   5.651   0.068
 2437SOL     OW 8209   0.185   6.395   5.930
 2437SOL    HW1 8210   0.091   6.360   5.922
 2437SOL    HW2 8211   0.192   6.452   6.012
 2438SOL     OW 8212   3.181   2.519   0.690
 2438SOL    HW1 8213   3.086   2.515   0.658
 2438SOL    HW2 8214   3.205   2.614   0.710
 2439SOL     OW 8215   5.940   4.020   5.354
 2439SOL    HW1 8216   5.855   4.071   5.338
 2439SOL    HW2 8217   5.987   4.057   5.434
 2440SOL     OW 8218   5.748   5.478   5.954
 2440SOL    HW1 8219   5.780   5.391   5.991
 2440SOL    HW2 8220   5.661   5.465   5.908
 2441SOL     OW 8221   5.983   2.441   0.881
 2441SOL    HW1 8222   5.926   2.436   0.800
 2441SOL    HW2 8223   5.978   2.354   0.931
 2442SOL     OW 8224   0.886   3.684   4.742
 2442SOL    HW1 8225   0.984   3.681   4.726
 2442SOL    HW2 8226   0.845   3.595   4.719
 2443SOL     OW 8227   2.648   4.465   6.235
 2443SOL    HW1 8228   2.591   4.519   6.296
 2443SOL    HW2 8229   2.617   4.477   6.140
 2444SOL     OW 8230   2.654   3.415   5.974
 2444SOL    HW1 8231   2.584   3.422   5.902
 2444SOL    HW2 8232   2.721   3.346   5.948
 2445SOL     OW 8233   0.519   0.794   1.074
 2445SOL    HW1 8234   0.443   0.768   1.013
 2445SOL    HW2 8235   0.486   0.795   1.168
 2446SOL     OW 8236   6.313   4.336   5.415
 2446SOL    HW1 8237   6.409   4.355   5.434
 2446SOL    HW2 8238   6.306   4.263   5.346
 2447SOL     OW 8239   0.667   1.284   0.037
 2447SOL    HW1 8240   0.721   1.285   0.121
 2447SOL    HW2 8241   0.570   1.278   0.060
 2448SOL     OW 8242   1.307   0.199   4.591
 2448SOL    HW1 8243   1.375   0.126   4.578
 2448SOL    HW2 8244   1.219   0.170   4.552
 2449SOL     OW 8245   0.269   3.554   5.279
 2449SOL    HW1 8246   0.309   3.531   5.367
 2449SOL    HW2 8247   0.324   3.624   5.234
 2450SOL     OW 8248   2.007   3.753   2.993
 2450SOL    HW1 8249   2.040   3.678   2.935
 2450SOL    HW2 8250   2.029   3.734   3.088
 2451SOL     OW 8251   1.973   6.035   4.083
 2451SOL    HW1 8252   2.035   5.960   4.061
 2451SOL    HW2 8253   1.992   6.068   4.176
 2452SOL     OW 8254   0.861   2.042   4.325
 2452SOL    HW1 8255   0.846   2.074   4.232
 2452SOL    HW2 8256   0.959   2.033   4.342
 2453SOL     OW 8257   0.113   4.023   1.745
 2453SOL    HW1 8258   0.172   4.094   1.704
 2453SOL    HW2 8259   0.065   3.974   1.672
 2454SOL     OW 8260   2.783   0.829   2.498
 2454SOL    HW1 8261   2.792   0.857   2.403
 2454SOL    HW2 8262   2.750   0.905   2.553
 2455SOL     OW 8263   5.786   6.021   0.189
 2455SOL    HW1 8264   5.806   5.977   0.102
 2455SOL    HW2 8265   5.854   5.992   0.257
 2456SOL     OW 8266   4.421   6.916   1.313
 2456SOL    HW1 8267   4.420   7.015   1.325
 2456SOL    HW2 8268   4.390   6.872   1.397
 2457SOL     OW 8269   5.370   6.235   1.424
 2457SOL    HW1 8270   5.292   6.175   1.443
 2457SOL    HW2 8271   5.374   6.256   1.327
 2458SOL     OW 8272   0.481   5.305   3.754
 2458SOL    HW1 8273   0.529   5.227   3.713
 2458SOL    HW2 8274   0.417   5.344   3.688
 2459SOL     OW 8275   2.141   0.423   0.879
 2459SOL    HW1 8276   2.056   0.437   0.827
 2459SOL    HW2 8277   2.203   0.364   0.826
 2460SOL     OW 8278   3.175   5.644   1.526
 2460SOL    HW1 8279   3.274   5.637   1.541
 2460SOL    HW2 8280   3.156   5.643   1.427
 2461SOL     OW 8281   5.343   1.115   2.542
 2461SOL    HW1 8282   5.251   1.123   2.579
 2461SOL    HW2 8283   5.408   1.156   2.607
 2462SOL     OW 8284   2.085   4.785   6.185
 2462SOL    HW1 8285   1.996   4.766   6.143
 2462SOL    HW2 8286   2.127   4.699   6.214
 2463SOL     OW 8287   6.905   1.707   3.972
 2463SOL    HW1 8288   6.822   1.724   3.919
 2463SOL    HW2 8289   6.882   1.664   4.059
 2464SOL     OW 8290   1.504   3.061   1.177
 2464SOL    HW1 8291   1.422   3.015   1.213
 2464SOL    HW2 8292   1.487   3.091   1.083
 2465SOL     OW 8293   6.185   5.590   3.493
 2465SOL    HW1 8294   6.204   5.687   3.480
 2465SOL    HW2 8295   6.272   5.541   3.505
 2466SOL     OW 8296   3.438   1.484   2.289
 2466SOL    HW1 8297   3.525   1.502   2.335
 2466SOL    HW2 8298   3.428   1.545   2.210
 2467SOL     OW 8299   6.919   1.284   5.721
 2467SOL    HW1 8300   6.883   1.191   5.719
 2467SOL    HW2 8301   6.886   1.334   5.641
 2468SOL     OW 8302   0.483   4.332   0.648
 2468SOL    HW1 8303   0.411   4.314   0.580
 2468SOL    HW2 8304   0.520   4.246   0.680
 2469SOL     OW 8305   2.631   3.105   5.660
 2469SOL    HW1 8306   2.606   3.139   5.570
 2469SOL    HW2 8307   2.548   3.096   5.716
 2470SOL     OW 8308   5.472   2.974   6.836
 2470SOL    HW1 8309   5.379   2.960   6.870
 2470SOL    HW2 8310   5.537   2.967   6.912
 2471SOL     OW 8311   1.092   0.627   3.551
 2471SOL    HW1 8312   1.178   0.676   3.565
 2471SOL    HW2 8313   1.054   0.651   3.462
 2472SOL     OW 8314   5.754   1.351   2.935
 2472SOL    HW1 8315   5.758   1.399   3.023
 2472SOL    HW2 8316   5.677   1.287   2.936
 2473SOL     OW 8317   0.690   6.603   4.978
 2473SOL    HW1 8318   0.643   6.600   5.066
 2473SOL    HW2 8319   0.636   6.656   4.912
 2474SOL     OW 8320   5.616   5.353   4.769
 2474SOL    HW1 8321   5.521   5.381   4.777
 2474SOL    HW2 8322   5.645   5.359   4.673
 2475SOL     OW 8323   4.157   2.560   0.029
 2475SOL    HW1 8324   4.080   2.507   0.064
 2475SOL    HW2 8325   4.124   2.631   6.993
 2476SOL     OW 8326   0.241   2.177   4.259
 2476SOL    HW1 8327   0.267   2.082   4.246
 2476SOL    HW2 8328   0.196   2.188   4.347
 2477SOL     OW 8329   4.189   4.876   1.682
 2477SOL    HW1 8330   4.266   4.820   1.653
 2477SOL    HW2 8331   4.107   4.847   1.632
 2478SOL     OW 8332   6.501   6.876   3.572
 2478SOL    HW1 8333   6.592   6.836   3.565
 2478SOL    HW2 8334   6.507   6.976   3.567
 2479SOL     OW 8335   0.763   3.582   0.208
 2479SOL    HW1 8336   0.859   3.579   0.236
 2479SOL    HW2 8337   0.712   3.637   0.274
 2480SOL     OW 8338   0.872   3.878   1.756
 2480SOL    HW1 8339   0.904   3.875   1.851
 2480SOL    HW2 8340   0.854   3.973   1.730
 2481SOL     OW 8341   4.401   5.392   2.480
 2481SOL    HW1 8342   4.346   5.405   2.562
 2481SOL    HW2 8343   4.353   5.331   2.417
 2482SOL     OW 8344   4.611   2.568   4.189
 2482SOL    HW1 8345   4.582   2.638   4.124
 2482SOL    HW2 8346   4.598   2.477   4.148
 2483SOL     OW 8347   0.696   1.676   6.370
 2483SOL    HW1 8348   0.776   1.640   6.321
 2483SOL    HW2 8349   0.638   1.600   6.400
 2484SOL     OW 8350   3.177   2.012   6.107
 2484SOL    HW1 8351   3.231   2.093   6.130
 2484SOL    HW2 8352   3.117   1.990   6.184
 2485SOL     OW 8353   0.417   6.075   2.104
 2485SOL    HW1 8354   0.340   6.013   2.089
 2485SOL    HW2 8355   0.384   6.163   2.139
 2486SOL     OW 8356   0.844   4.769   3.379
 2486SOL    HW1 8357   0.877   4.856   3.414
 2486SOL    HW2 8358   0.809   4.714   3.456
 2487SOL     OW 8359   2.872   0.721   1.088
 2487SOL    HW1 8360   2.895   0.772   1.171
 2487SOL    HW2 8361   2.812   0.644   1.112
 2488SOL     OW 8362   3.516   6.494   6.578
 2488SOL    HW1 8363   3.572   6.414   6.555
 2488SOL    HW2 8364   3.570   6.577   6.565
 2489SOL     OW 8365   0.244   5.680   4.246
 2489SOL    HW1 8366   0.193   5.597   4.224
 2489SOL    HW2 8367   0.188   5.760   4.223
 2490SOL     OW 8368   5.321   3.612   1.648
 2490SOL    HW1 8369   5.403   3.584   1.597
 2490SOL    HW2 8370   5.250   3.639   1.583
 2491SOL     OW 8371   0.971   4.713   3.074
 2491SOL    HW1 8372   0.928   4.636   3.026
 2491SOL    HW2 8373   0.972   4.695   3.172
 2492SOL     OW 8374   4.528   2.696   5.892
 2492SOL    HW1 8375   4.436   2.708   5.930
 2492SOL    HW2 8376   4.524   2.635   5.813
 2493SOL     OW 8377   6.234   1.686   3.919
 2493SOL    HW1 8378   6.251   1.588   3.925
 2493SOL    HW2 8379   6.317   1.733   3.890
 2494SOL     OW 8380   4.900   4.055   1.365
 2494SOL    HW1 8381   4.992   4.062   1.327
 2494SOL    HW2 8382   4.900   4.089   1.460
 2495SOL     OW 8383   5.955   1.201   3.881
 2495SOL    HW1 8384   5.893   1.278   3.868
 2495SOL    HW2 8385   6.031   1.228   3.940
 2496SOL     OW 8386   1.361   6.024   6.629
 2496SOL    HW1 8387   1.311   6.069   6.703
 2496SOL    HW2 8388   1.455   6.007   6.659
 2497SOL     OW 8389   5.375   1.957   6.085
 2497SOL    HW1 8390   5.461   1.968   6.036
 2497SOL    HW2 8391   5.390   1.899   6.165
 2498SOL     OW 8392   1.181   3.719   4.725
 2498SOL    HW1 8393   1.253   3.759   4.782
 2498SOL    HW2 8394   1.197   3.621   4.714
 2499SOL     OW 8395   6.172   0.147   6.033
 2499SOL    HW1 8396   6.135   0.127   5.943
 2499SOL    HW2 8397   6.187   0.061   6.083
 2500SOL     OW 8398   4.593   3.276   6.382
 2500SOL    HW1 8399   4.625   3.237   6.296
 2500SOL    HW2 8400   4.630   3.223   6.458
 2501SOL     OW 8401   6.307   4.817   0.647
 2501SOL    HW1 8402   6.405   4.837   0.648
 2501SOL    HW2 8403   6.289   4.734   0.701
 2502SOL     OW 8404   2.083   6.584   3.198
 2502SOL    HW1 8405   2.118   6.504   3.149
 2502SOL    HW2 8406   2.014   6.554   3.265
 2503SOL     OW 8407   4.907   6.298   4.840
 2503SOL    HW1 8408   4.960   6.344   4.769
 2503SOL    HW2 8409   4.857   6.366   4.893
 2504SOL     OW 8410   1.819   4.140   3.033
 2504SOL    HW1 8411   1.761   4.059   3.021
 2504SOL    HW2 8412   1.915   4.114   3.019
 2505SOL     OW 8413   4.558   4.776   3.920
 2505SOL    HW1 8414   4.486   4.719   3.882
 2505SOL    HW2 8415   4.643   4.723   3.925
 2506SOL     OW 8416   0.063   1.913   0.855
 2506SOL    HW1 8417   0.054   1.989   0.792
 2506SOL    HW2 8418   6.998   1.867   0.865
 2507SOL     OW 8419   6.223   5.750   1.247
 2507SOL    HW1 8420   6.160   5.811   1.199
 2507SOL    HW2 8421   6.291   5.805   1.295
 2508SOL     OW 8422   2.500   2.498   2.200
 2508SOL    HW1 8423   2.416   2.461   2.159
 2508SOL    HW2 8424   2.577   2.438   2.180
 2509SOL     OW 8425   5.149   1.705   3.202
 2509SOL    HW1 8426   5.216   1.650   3.252
 2509SOL    HW2 8427   5.186   1.730   3.113
 2510SOL     OW 8428   3.718   5.839   0.780
 2510SOL    HW1 8429   3.655   5.765   0.757
 2510SOL    HW2 8430   3.696   5.920   0.726
 2511SOL     OW 8431   0.871   6.491   4.281
 2511SOL    HW1 8432   0.958   6.536   4.299
 2511SOL    HW2 8433   0.841   6.443   4.363
 2512SOL     OW 8434   5.376   2.874   3.861
 2512SOL    HW1 8435   5.365   2.806   3.934
 2512SOL    HW2 8436   5.404   2.962   3.901
 2513SOL     OW 8437   0.365   4.900   1.558
 2513SOL    HW1 8438   0.461   4.915   1.537
 2513SOL    HW2 8439   0.308   4.947   1.491
 2514SOL     OW 8440   1.044   1.742   4.210
 2514SOL    HW1 8441   1.048   1.738   4.110
 2514SOL    HW2 8442   0.980   1.674   4.244
 2515SOL     OW 8443   0.855   4.824   0.024
 2515SOL    HW1 8444   0.755   4.819   0.036
 2515SOL    HW2 8445   0.891   4.898   0.080
 2516SOL     OW 8446   5.129   6.247   4.296
 2516SOL    HW1 8447   5.189   6.199   4.360
 2516SOL    HW2 8448   5.179   6.323   4.254
 2517SOL     OW 8449   2.736   5.180   0.567
 2517SOL    HW1 8450   2.649   5.179   0.617
 2517SOL    HW2 8451   2.766   5.087   0.550
 2518SOL     OW 8452   2.805   2.203   5.743
 2518SOL    HW1 8453   2.737   2.199   5.816
 2518SOL    HW2 8454   2.895   2.219   5.782
 2519SOL     OW 8455   5.183   4.255   4.725
 2519SOL    HW1 8456   5.137   4.166   4.735
 2519SOL    HW2 8457   5.120   4.320   4.682
 2520SOL     OW 8458   2.857   4.946   2.319
 2520SOL    HW1 8459   2.780   4.967   2.380
 2520SOL    HW2 8460   2.836   4.865   2.265
 2521SOL     OW 8461   5.866   6.943   5.923
 2521SOL    HW1 8462   5.810   7.011   5.875
 2521SOL    HW2 8463   5.962   6.970   5.917
 2522SOL     OW 8464   0.797   3.134   5.150
 2522SOL    HW1 8465   0.832   3.222   5.182
 2522SOL    HW2 8466   0.860   3.096   5.083
 2523SOL     OW 8467   6.740   2.779   6.398
 2523SOL    HW1 8468   6.790   2.837   6.462
 2523SOL    HW2 8469   6.759   2.683   6.417
 2524SOL     OW 8470   0.523   6.972   4.904
 2524SOL    HW1 8471   0.532   6.886   4.854
 2524SOL    HW2 8472   0.517   6.954   5.002
 2525SOL     OW 8473   1.601   4.296   2.830
 2525SOL    HW1 8474   1.620   4.386   2.791
 2525SOL    HW2 8475   1.641   4.290   2.921
 2526SOL     OW 8476   0.583   2.289   5.672
 2526SOL    HW1 8477   0.559   2.294   5.575
 2526SOL    HW2 8478   0.631   2.202   5.690
 2527SOL     OW 8479   5.749   6.953   3.725
 2527SOL    HW1 8480   5.675   6.894   3.694
 2527SOL    HW2 8481   5.778   6.925   3.817
 2528SOL     OW 8482   6.177   5.260   0.849
 2528SOL    HW1 8483   6.164   5.167   0.816
 2528SOL    HW2 8484   6.093   5.312   0.837
 2529SOL     OW 8485   5.504   3.901   5.247
 2529SOL    HW1 8486   5.463   3.987   5.279
 2529SOL    HW2 8487   5.431   3.841   5.214
 2530SOL     OW 8488   1.415   6.527   3.881
 2530SOL    HW1 8489   1.496   6.572   3.842
 2530SOL    HW2 8490   1.332   6.570   3.847
 2531SOL     OW 8491   4.981   1.284   0.677
 2531SOL    HW1 8492   5.022   1.374   0.695
 2531SOL    HW2 8493   4.882   1.292   0.679
 2532SOL     OW 8494   1.454   4.309   5.911
 2532SOL    HW1 8495   1.373   4.324   5.968
 2532SOL    HW2 8496   1.453   4.373   5.835
 2533SOL     OW 8497   5.809   6.589   5.279
 2533SOL    HW1 8498   5.807   6.668   5.340
 2533SOL    HW2 8499   5.715   6.567   5.250
 2534SOL     OW 8500   6.776   2.082   3.856
 2534SOL    HW1 8501   6.851   2.128   3.903
 2534SOL    HW2 8502   6.812   2.022   3.785
 2535SOL     OW 8503   1.896   1.050   3.082
 2535SOL    HW1 8504   1.838   1.123   3.117
 2535SOL    HW2 8505   1.840   0.971   3.058
 2536SOL     OW 8506   6.565   0.578   3.836
 2536SOL    HW1 8507   6.540   0.481   3.839
 2536SOL    HW2 8508   6.484   0.633   3.857
 2537SOL     OW 8509   4.316   5.213   1.634
 2537SOL    HW1 8510   4.291   5.306   1.664
 2537SOL    HW2 8511   4.232   5.162   1.612
 2538SOL     OW 8512   1.438   4.338   5.117
 2538SOL    HW1 8513   1.401   4.412   5.061
 2538SOL    HW2 8514   1.498   4.376   5.187
 2539SOL     OW 8515   2.643   0.646   5.943
 2539SOL    HW1 8516   2.725   0.695   5.915
 2539SOL    HW2 8517   2.562   0.693   5.907
 2540SOL     OW 8518   5.811   2.025   2.346
 2540SOL    HW1 8519   5.810   2.004   2.444
 2540SOL    HW2 8520   5.896   1.991   2.306
 2541SOL     OW 8521   0.144   6.915   5.866
 2541SOL    HW1 8522   0.217   6.877   5.809
 2541SOL    HW2 8523   0.167   7.009   5.891
 2542SOL     OW 8524   3.707   1.399   3.775
 2542SOL    HW1 8525   3.724   1.300   3.772
 2542SOL    HW2 8526   3.619   1.417   3.817
 2543SOL     OW 8527   0.205   2.327   4.825
 2543SOL    HW1 8528   0.108   2.328   4.849
 2543SOL    HW2 8529   0.219   2.382   4.742
 2544SOL     OW 8530   6.376   5.916   2.707
 2544SOL    HW1 8531   6.435   5.997   2.697
 2544SOL    HW2 8532   6.422   5.849   2.766
 2545SOL     OW 8533   6.592   1.589   0.091
 2545SOL    HW1 8534   6.573   1.498   0.126
 2545SOL    HW2 8535   6.510   1.645   0.096
 2546SOL     OW 8536   6.477   4.047   2.493
 2546SOL    HW1 8537   6.523   4.135   2.501
 2546SOL    HW2 8538   6.417   4.047   2.413
 2547SOL     OW 8539   5.623   3.743   0.942
 2547SOL    HW1 8540   5.708   3.795   0.951
 2547SOL    HW2 8541   5.637   3.651   0.976
 2548SOL     OW 8542   6.945   6.302   5.863
 2548SOL    HW1 8543   6.879   6.230   5.882
 2548SOL    HW2 8544   6.899   6.382   5.826
 2549SOL     OW 8545   2.956   3.142   0.240
 2549SOL    HW1 8546   3.036   3.201   0.231
 2549SOL    HW2 8547   2.928   3.137   0.335
 2550SOL     OW 8548   4.023   6.540   6.753
 2550SOL    HW1 8549   4.090   6.592   6.701
 2550SOL    HW2 8550   4.013   6.580   6.844
 2551SOL     OW 8551   3.675   4.938   0.855
 2551SOL    HW1 8552   3.693   5.001   0.779
 2551SOL    HW2 8553   3.739   4.862   0.851
 2552SOL     OW 8554   2.534   5.539   1.679
 2552SOL    HW1 8555   2.502   5.517   1.587
 2552SOL    HW2 8556   2.559   5.636   1.683
 2553SOL     OW 8557   4.202   1.364   0.208
 2553SOL    HW1 8558   4.146   1.416   0.273
 2553SOL    HW2 8559   4.218   1.272   0.243
 2554SOL     OW 8560   1.612   5.800   1.708
 2554SOL    HW1 8561   1.580   5.708   1.732
 2554SOL    HW2 8562   1.707   5.796   1.680
 2555SOL     OW 8563   5.916   6.914   4.466
 2555SOL    HW1 8564   5.865   6.938   4.548
 2555SOL    HW2 8565   5.946   6.819   4.471
 2556SOL     OW 8566   3.792   0.001   0.498
 2556SOL    HW1 8567   3.888   0.022   0.480
 2556SOL    HW2 8568   3.775   6.928   0.484
 2557SOL     OW 8569   2.997   0.870   0.104
 2557SOL    HW1 8570   2.913   0.827   0.135
 2557SOL    HW2 8571   3.005   0.859   0.004
 2558SOL     OW 8572   4.980   3.381   1.490
 2558SOL    HW1 8573   5.044   3.305   1.496
 2558SOL    HW2 8574   4.922   3.369   1.409
 2559SOL     OW 8575   0.658   4.549   3.917
 2559SOL    HW1 8576   0.663   4.449   3.921
 2559SOL    HW2 8577   0.647   4.584   4.010
 2560SOL     OW 8578   4.929   2.309   3.518
 2560SOL    HW1 8579   4.998   2.360   3.568
 2560SOL    HW2 8580   4.842   2.315   3.567
 2561SOL     OW 8581   3.777   0.149   4.405
 2561SOL    HW1 8582   3.751   0.188   4.317
 2561SOL    HW2 8583   3.833   0.068   4.391
 2562SOL     OW 8584   2.029   6.475   4.346
 2562SOL    HW1 8585   2.053   6.412   4.272
 2562SOL    HW2 8586   1.967   6.430   4.411
 2563SOL     OW 8587   3.616   2.636   6.174
 2563SOL    HW1 8588   3.557   2.692   6.116
 2563SOL    HW2 8589   3.695   2.691   6.203
 2564SOL     OW 8590   1.371   1.851   0.195
 2564SOL    HW1 8591   1.448   1.802   0.156
 2564SOL    HW2 8592   1.357   1.937   0.146
 2565SOL     OW 8593   1.041   1.577   0.528
 2565SOL    HW1 8594   1.090   1.605   0.445
 2565SOL    HW2 8595   1.026   1.657   0.586
 2566SOL     OW 8596   2.718   0.632   1.390
 2566SOL    HW1 8597   2.658   0.570   1.441
 2566SOL    HW2 8598   2.703   0.726   1.419
 2567SOL     OW 8599   1.983   1.066   0.140
 2567SOL    HW1 8600   1.939   1.109   0.061
 2567SOL    HW2 8601   2.045   0.995   0.107
 2568SOL     OW 8602   2.935   6.513   0.397
 2568SOL    HW1 8603   2.895   6.527   0.487
 2568SOL    HW2 8604   2.942   6.600   0.349
 2569SOL     OW 8605   1.958   0.272   1.042
 2569SOL    HW1 8606   1.917   0.303   1.128
 2569SOL    HW2 8607   2.022   0.341   1.008
 2570SOL     OW 8608   0.096   5.926   4.878
 2570SOL    HW1 8609   0.119   5.962   4.968
 2570SOL    HW2 8610   0.169   5.949   4.813
 2571SOL     OW 8611   3.264   3.695   4.158
 2571SOL    HW1 8612   3.337   3.714   4.092
 2571SOL    HW2 8613   3.186   3.654   4.110
 2572SOL     OW 8614   1.743   5.381   2.270
 2572SOL    HW1 8615   1.674   5.448   2.297
 2572SOL    HW2 8616   1.698   5.293   2.254
 2573SOL     OW 8617   0.033   1.824   4.353
 2573SOL    HW1 8618   0.087   1.898   4.312
 2573SOL    HW2 8619   0.045   1.741   4.299
 2574SOL     OW 8620   0.675   4.080   1.980
 2574SOL    HW1 8621   0.625   4.011   1.928
 2574SOL    HW2 8622   0.727   4.035   2.053
 2575SOL     OW 8623   5.812   3.404   6.397
 2575SOL    HW1 8624   5.726   3.372   6.357
 2575SOL    HW2 8625   5.793   3.454   6.481
 2576SOL     OW 8626   1.877   0.196   3.715
 2576SOL    HW1 8627   1.875   0.151   3.804
 2576SOL    HW2 8628   1.811   0.271   3.714
 2577SOL     OW 8629   2.264   6.022   1.750
 2577SOL    HW1 8630   2.319   5.962   1.692
 2577SOL    HW2 8631   2.168   6.015   1.723
 2578SOL     OW 8632   4.943   2.032   3.984
 2578SOL    HW1 8633   4.980   2.122   4.006
 2578SOL    HW2 8634   5.014   1.975   3.943
 2579SOL     OW 8635   6.691   1.416   6.020
 2579SOL    HW1 8636   6.712   1.412   6.117
 2579SOL    HW2 8637   6.638   1.498   6.000
 2580SOL     OW 8638   1.455   1.898   6.086
 2580SOL    HW1 8639   1.511   1.900   6.003
 2580SOL    HW2 8640   1.507   1.857   6.161
 2581SOL     OW 8641   6.529   7.023   4.388
 2581SOL    HW1 8642   6.459   6.975   4.440
 2581SOL    HW2 8643   6.509   0.097   4.388
 2582SOL     OW 8644   0.204   5.276   2.875
 2582SOL    HW1 8645   0.163   5.338   2.942
 2582SOL    HW2 8646   0.246   5.198   2.922
 2583SOL     OW 8647   1.887   1.201   6.898
 2583SOL    HW1 8648   1.908   1.109   6.866
 2583SOL    HW2 8649   1.942   1.267   6.848
 2584SOL     OW 8650   5.235   0.038   1.906
 2584SOL    HW1 8651   5.305   6.991   1.903
 2584SOL    HW2 8652   5.149   0.003   1.870
 2585SOL     OW 8653   4.547   1.073   1.597
 2585SOL    HW1 8654   4.547   1.107   1.691
 2585SOL    HW2 8655   4.635   1.029   1.577
 2586SOL     OW 8656   6.541   1.940   4.438
 2586SOL    HW1 8657   6.502   1.850   4.458
 2586SOL    HW2 8658   6.641   1.935   4.446
 2587SOL     OW 8659   6.533   6.592   2.392
 2587SOL    HW1 8660   6.524   6.654   2.314
 2587SOL    HW2 8661   6.454   6.530   2.393
 2588SOL     OW 8662   5.029   0.583   1.714
 2588SOL    HW1 8663   5.056   0.487   1.724
 2588SOL    HW2 8664   4.980   0.595   1.628
 2589SOL     OW 8665   5.762   6.280   0.288
 2589SOL    HW1 8666   5.754   6.189   0.246
 2589SOL    HW2 8667   5.805   6.272   0.378
 2590SOL     OW 8668   3.870   6.595   2.652
 2590SOL    HW1 8669   3.866   6.695   2.644
 2590SOL    HW2 8670   3.920   6.558   2.574
 2591SOL     OW 8671   5.548   0.524   1.761
 2591SOL    HW1 8672   5.592   0.438   1.735
 2591SOL    HW2 8673   5.450   0.509   1.775
 2592SOL     OW 8674   3.187   5.058   1.587
 2592SOL    HW1 8675   3.185   5.147   1.542
 2592SOL    HW2 8676   3.281   5.038   1.617
 2593SOL     OW 8677   3.393   6.439   2.696
 2593SOL    HW1 8678   3.444   6.523   2.675
 2593SOL    HW2 8679   3.317   6.461   2.758
 2594SOL     OW 8680   1.107   6.369   5.829
 2594SOL    HW1 8681   1.077   6.391   5.922
 2594SOL    HW2 8682   1.127   6.272   5.822
 2595SOL     OW 8683   6.208   3.336   3.996
 2595SOL    HW1 8684   6.133   3.401   4.010
 2595SOL    HW2 8685   6.177   3.262   3.937
 2596SOL     OW 8686   4.367   2.000   1.957
 2596SOL    HW1 8687   4.328   1.947   2.032
 2596SOL    HW2 8688   4.460   1.969   1.939
 2597SOL     OW 8689   1.928   2.578   6.628
 2597SOL    HW1 8690   1.957   2.607   6.719
 2597SOL    HW2 8691   1.851   2.635   6.598
 2598SOL     OW 8692   5.871   2.824   2.944
 2598SOL    HW1 8693   5.894   2.864   2.855
 2598SOL    HW2 8694   5.828   2.735   2.931
 2599SOL     OW 8695   4.679   4.025   6.727
 2599SOL    HW1 8696   4.695   4.005   6.630
 2599SOL    HW2 8697   4.602   3.971   6.760
 2600SOL     OW 8698   6.768   3.510   3.532
 2600SOL    HW1 8699   6.819   3.424   3.533
 2600SOL    HW2 8700   6.724   3.523   3.621
 2601SOL     OW 8701   3.511   3.221   5.624
 2601SOL    HW1 8702   3.457   3.158   5.681
 2601SOL    HW2 8703   3.607   3.214   5.650
 2602SOL     OW 8704   5.854   5.990   5.557
 2602SOL    HW1 8705   5.842   5.979   5.458
 2602SOL    HW2 8706   5.935   6.046   5.575
 2603SOL     OW 8707   2.363   2.878   7.013
 2603SOL    HW1 8708   2.397   2.971   7.001
 2603SOL    HW2 8709   2.382   2.824   6.931
 2604SOL     OW 8710   5.544   1.267   1.390
 2604SOL    HW1 8711   5.592   1.354   1.377
 2604SOL    HW2 8712   5.488   1.272   1.473
 2605SOL     OW 8713   4.920   4.228   3.783
 2605SOL    HW1 8714   4.881   4.156   3.726
 2605SOL    HW2 8715   4.932   4.194   3.877
 2606SOL     OW 8716   0.185   4.635   1.629
 2606SOL    HW1 8717   0.272   4.682   1.612
 2606SOL    HW2 8718   0.163   4.639   1.726
 2607SOL     OW 8719   0.764   2.016   4.943
 2607SOL    HW1 8720   0.823   2.096   4.935
 2607SOL    HW2 8721   0.745   1.979   4.852
 2608SOL     OW 8722   5.051   0.226   0.611
 2608SOL    HW1 8723   4.962   0.184   0.628
 2608SOL    HW2 8724   5.039   0.322   0.585
 2609SOL     OW 8725   0.244   2.435   4.559
 2609SOL    HW1 8726   0.175   2.374   4.521
 2609SOL    HW2 8727   0.253   2.516   4.502
 2610SOL     OW 8728   5.904   5.895   4.834
 2610SOL    HW1 8729   5.997   5.889   4.798
 2610SOL    HW2 8730   5.842   5.846   4.773
 2611SOL     OW 8731   3.288   6.373   1.635
 2611SOL    HW1 8732   3.355   6.390   1.562
 2611SOL    HW2 8733   3.325   6.305   1.698
 2612SOL     OW 8734   6.286   6.953   4.471
 2612SOL    HW1 8735   6.217   7.023   4.491
 2612SOL    HW2 8736   6.244   6.863   4.476
 2613SOL     OW 8737   3.939   1.066   1.031
 2613SOL    HW1 8738   4.007   1.016   0.977
 2613SOL    HW2 8739   3.964   1.063   1.127
 2614SOL     OW 8740   0.167   5.770   6.401
 2614SOL    HW1 8741   0.236   5.698   6.408
 2614SOL    HW2 8742   0.197   5.849   6.455
 2615SOL     OW 8743   5.467   5.239   1.885
 2615SOL    HW1 8744   5.374   5.203   1.888
 2615SOL    HW2 8745   5.513   5.220   1.972
 2616SOL     OW 8746   3.736   3.390   2.581
 2616SOL    HW1 8747   3.777   3.481   2.580
 2616SOL    HW2 8748   3.744   3.351   2.672
 2617SOL     OW 8749   3.555   0.162   1.515
 2617SOL    HW1 8750   3.492   0.119   1.450
 2617SOL    HW2 8751   3.536   0.129   1.607
 2618SOL     OW 8752   0.968   0.468   0.665
 2618SOL    HW1 8753   0.896   0.483   0.597
 2618SOL    HW2 8754   0.927   0.449   0.754
 2619SOL     OW 8755   5.363   1.507   1.257
 2619SOL    HW1 8756   5.378   1.437   1.188
 2619SOL    HW2 8757   5.452   1.540   1.291
 2620SOL     OW 8758   1.604   4.460   4.505
 2620SOL    HW1 8759   1.664   4.533   4.538
 2620SOL    HW2 8760   1.525   4.500   4.458
 2621SOL     OW 8761   1.335   4.686   3.998
 2621SOL    HW1 8762   1.379   4.605   4.037
 2621SOL    HW2 8763   1.263   4.657   3.935
 2622SOL     OW 8764   2.808   3.029   6.284
 2622SOL    HW1 8765   2.830   3.121   6.316
 2622SOL    HW2 8766   2.861   3.009   6.202
 2623SOL     OW 8767   3.234   1.091   5.955
 2623SOL    HW1 8768   3.162   1.121   5.894
 2623SOL    HW2 8769   3.318   1.141   5.936
 2624SOL     OW 8770   6.512   2.041   4.174
 2624SOL    HW1 8771   6.532   1.999   4.263
 2624SOL    HW2 8772   6.586   2.019   4.110
 2625SOL     OW 8773   4.647   0.490   5.192
 2625SOL    HW1 8774   4.621   0.577   5.150
 2625SOL    HW2 8775   4.680   0.506   5.284
 2626SOL     OW 8776   2.024   6.581   2.354
 2626SOL    HW1 8777   2.088   6.523   2.404
 2626SOL    HW2 8778   1.958   6.523   2.306
 2627SOL     OW 8779   0.203   0.176   4.602
 2627SOL    HW1 8780   0.157   0.261   4.631
 2627SOL    HW2 8781   0.140   0.099   4.615
 2628SOL     OW 8782   3.230   5.789   5.605
 2628SOL    HW1 8783   3.157   5.827   5.662
 2628SOL    HW2 8784   3.248   5.695   5.633
 2629SOL     OW 8785   3.390   4.413   1.362
 2629SOL    HW1 8786   3.449   4.424   1.443
 2629SOL    HW2 8787   3.329   4.334   1.376
 2630SOL     OW 8788   2.788   2.250   2.454
 2630SOL    HW1 8789   2.827   2.184   2.390
 2630SOL    HW2 8790   2.818   2.229   2.547
 2631SOL     OW 8791   4.676   6.916   4.348
 2631SOL    HW1 8792   4.710   6.856   4.420
 2631SOL    HW2 8793   4.597   6.875   4.304
 2632SOL     OW 8794   5.365   1.593   0.904
 2632SOL    HW1 8795   5.432   1.667   0.900
 2632SOL    HW2 8796   5.304   1.608   0.982
 2633SOL     OW 8797   6.517   2.521   6.726
 2633SOL    HW1 8798   6.520   2.436   6.778
 2633SOL    HW2 8799   6.485   2.502   6.633
 2634SOL     OW 8800   2.586   5.618   1.024
 2634SOL    HW1 8801   2.548   5.538   0.978
 2634SOL    HW2 8802   2.596   5.600   1.121
 2635SOL     OW 8803   5.407   4.721   3.598
 2635SOL    HW1 8804   5.315   4.696   3.566
 2635SOL    HW2 8805   5.401   4.756   3.691
 2636SOL     OW 8806   6.224   0.560   5.210
 2636SOL    HW1 8807   6.277   0.620   5.270
 2636SOL    HW2 8808   6.130   0.594   5.205
 2637SOL     OW 8809   4.775   6.528   2.484
 2637SOL    HW1 8810   4.755   6.601   2.550
 2637SOL    HW2 8811   4.728   6.547   2.398
 2638SOL     OW 8812   5.915   5.648   1.264
 2638SOL    HW1 8813   5.818   5.660   1.285
 2638SOL    HW2 8814   5.968   5.654   1.349
 2639SOL     OW 8815   6.705   6.537   0.141
 2639SOL    HW1 8816   6.729   6.634   0.129
 2639SOL    HW2 8817   6.762   6.498   0.213
 2640SOL     OW 8818   6.588   6.862   6.331
 2640SOL    HW1 8819   6.526   6.940   6.337
 2640SOL    HW2 8820   6.602   6.837   6.235
 2641SOL     OW 8821   5.888   5.036   0.636
 2641SOL    HW1 8822   5.824   5.050   0.711
 2641SOL    HW2 8823   5.979   5.018   0.672
 2642SOL     OW 8824   6.309   0.145   3.731
 2642SOL    HW1 8825   6.390   0.195   3.762
 2642SOL    HW2 8826   6.318   0.126   3.633
 2643SOL     OW 8827   0.871   0.663   2.776
 2643SOL    HW1 8828   0.865   0.581   2.832
 2643SOL    HW2 8829   0.935   0.648   2.700
 2644SOL     OW 8830   0.379   5.275   6.170
 2644SOL    HW1 8831   0.385   5.219   6.087
 2644SOL    HW2 8832   0.286   5.311   6.178
 2645SOL     OW 8833   5.823   5.366   5.650
 2645SOL    HW1 8834   5.826   5.286   5.589
 2645SOL    HW2 8835   5.728   5.395   5.662
 2646SOL     OW 8836   6.600   6.424   6.814
 2646SOL    HW1 8837   6.602   6.368   6.731
 2646SOL    HW2 8838   6.505   6.442   6.840
 2647SOL     OW 8839   3.610   2.219   0.653
 2647SOL    HW1 8840   3.659   2.228   0.566
 2647SOL    HW2 8841   3.512   2.226   0.637
 2648SOL     OW 8842   3.388   0.520   2.392
 2648SOL    HW1 8843   3.387   0.618   2.410
 2648SOL    HW2 8844   3.337   0.472   2.462
 2649SOL     OW 8845   3.779   2.428   5.665
 2649SOL    HW1 8846   3.688   2.449   5.700
 2649SOL    HW2 8847   3.832   2.380   5.734
 2650SOL     OW 8848   0.330   6.558   1.666
 2650SOL    HW1 8849   0.355   6.471   1.623
 2650SOL    HW2 8850   0.362   6.558   1.761
 2651SOL     OW 8851   0.754   0.372   3.621
 2651SOL    HW1 8852   0.722   0.459   3.659
 2651SOL    HW2 8853   0.798   0.390   3.533
 2652SOL     OW 8854   3.129   3.481   2.401
 2652SOL    HW1 8855   3.183   3.464   2.319
 2652SOL    HW2 8856   3.185   3.527   2.469
 2653SOL     OW 8857   6.529   5.808   6.405
 2653SOL    HW1 8858   6.598   5.743   6.372
 2653SOL    HW2 8859   6.481   5.768   6.484
 2654SOL     OW 8860   5.589   2.350   6.135
 2654SOL    HW1 8861   5.539   2.390   6.212
 2654SOL    HW2 8862   5.525   2.325   6.063
 2655SOL     OW 8863   5.192   5.909   4.989
 2655SOL    HW1 8864   5.278   5.935   4.945
 2655SOL    HW2 8865   5.121   5.975   4.965
 2656SOL     OW 8866   5.607   3.577   4.027
 2656SOL    HW1 8867   5.566   3.526   3.951
 2656SOL    HW2 8868   5.641   3.513   4.096
 2657SOL     OW 8869   2.138   2.578   5.843
 2657SOL    HW1 8870   2.223   2.625   5.869
 2657SOL    HW2 8871   2.097   2.624   5.765
 2658SOL     OW 8872   5.814   4.701   5.649
 2658SOL    HW1 8873   5.805   4.646   5.566
 2658SOL    HW2 8874   5.908   4.734   5.658
 2659SOL     OW 8875   6.879   2.735   3.448
 2659SOL    HW1 8876   6.857   2.725   3.351
 2659SOL    HW2 8877   6.881   2.645   3.491
 2660SOL     OW 8878   6.943   1.978   3.630
 2660SOL    HW1 8879   6.997   1.944   3.553
 2660SOL    HW2 8880   6.927   2.076   3.619
 2661SOL     OW 8881   4.463   6.085   1.047
 2661SOL    HW1 8882   4.523   6.133   0.983
 2661SOL    HW2 8883   4.406   6.151   1.096
 2662SOL     OW 8884   3.153   6.779   3.806
 2662SOL    HW1 8885   3.135   6.837   3.886
 2662SOL    HW2 8886   3.210   6.702   3.833
 2663SOL     OW 8887   0.783   4.522   2.560
 2663SOL    HW1 8888   0.705   4.540   2.501
 2663SOL    HW2 8889   0.834   4.444   2.524
 2664SOL     OW 8890   4.150   3.596   1.874
 2664SOL    HW1 8891   4.145   3.610   1.973
 2664SOL    HW2 8892   4.227   3.646   1.836
 2665SOL     OW 8893   4.178   1.319   4.605
 2665SOL    HW1 8894   4.166   1.405   4.555
 2665SOL    HW2 8895   4.091   1.293   4.648
 2666SOL     OW 8896   5.366   5.902   1.305
 2666SOL    HW1 8897   5.393   5.954   1.225
 2666SOL    HW2 8898   5.431   5.919   1.379
 2667SOL     OW 8899   1.478   4.915   3.635
 2667SOL    HW1 8900   1.511   4.992   3.580
 2667SOL    HW2 8901   1.401   4.946   3.692
 2668SOL     OW 8902   0.207   2.382   6.022
 2668SOL    HW1 8903   0.238   2.295   6.061
 2668SOL    HW2 8904   0.235   2.457   6.082
 2669SOL     OW 8905   4.461   4.822   5.703
 2669SOL    HW1 8906   4.541   4.844   5.761
 2669SOL    HW2 8907   4.482   4.844   5.608
 2670SOL     OW 8908   1.616   0.449   6.487
 2670SOL    HW1 8909   1.621   0.349   6.491
 2670SOL    HW2 8910   1.705   0.488   6.511
 2671SOL     OW 8911   2.888   3.612   5.766
 2671SOL    HW1 8912   2.948   3.533   5.781
 2671SOL    HW2 8913   2.851   3.608   5.673
 2672SOL     OW 8914   0.625   4.541   0.569
 2672SOL    HW1 8915   0.650   4.515   0.476
 2672SOL    HW2 8916   0.578   4.465   0.613
 2673SOL     OW 8917   4.775   2.058   3.186
 2673SOL    HW1 8918   4.752   2.006   3.104
 2673SOL    HW2 8919   4.694   2.108   3.217
 2674SOL     OW 8920   5.017   5.561   5.541
 2674SOL    HW1 8921   5.075   5.640   5.521
 2674SOL    HW2 8922   4.981   5.569   5.634
 2675SOL     OW 8923   0.449   3.862   5.709
 2675SOL    HW1 8924   0.500   3.778   5.726
 2675SOL    HW2 8925   0.499   3.918   5.643
 2676SOL     OW 8926   4.294   0.475   1.944
 2676SOL    HW1 8927   4.242   0.421   2.011
 2676SOL    HW2 8928   4.293   0.429   1.856
 2677SOL     OW 8929   2.215   5.204   2.609
 2677SOL    HW1 8930   2.182   5.294   2.578
 2677SOL    HW2 8931   2.268   5.161   2.536
 2678SOL     OW 8932   0.712   5.033   6.193
 2678SOL    HW1 8933   0.756   5.115   6.229
 2678SOL    HW2 8934   0.746   5.014   6.101
 2679SOL     OW 8935   2.544   4.308   1.241
 2679SOL    HW1 8936   2.604   4.329   1.318
 2679SOL    HW2 8937   2.498   4.391   1.211
 2680SOL     OW 8938   1.085   2.168   2.037
 2680SOL    HW1 8939   1.159   2.231   2.059
 2680SOL    HW2 8940   1.060   2.178   1.940
 2681SOL     OW 8941   1.092   1.926   2.582
 2681SOL    HW1 8942   1.118   1.834   2.613
 2681SOL    HW2 8943   1.168   1.968   2.533
 2682SOL     OW 8944   6.261   2.233   3.477
 2682SOL    HW1 8945   6.280   2.176   3.557
 2682SOL    HW2 8946   6.265   2.177   3.394
 2683SOL     OW 8947   1.150   0.239   1.766
 2683SOL    HW1 8948   1.151   0.157   1.710
 2683SOL    HW2 8949   1.242   0.280   1.767
 2684SOL     OW 8950   2.617   6.187   3.256
 2684SOL    HW1 8951   2.644   6.249   3.329
 2684SOL    HW2 8952   2.523   6.157   3.271
 2685SOL     OW 8953   5.511   5.618   5.042
 2685SOL    HW1 8954   5.509   5.546   4.973
 2685SOL    HW2 8955   5.444   5.688   5.019
 2686SOL     OW 8956   1.451   2.576   4.335
 2686SOL    HW1 8957   1.398   2.644   4.385
 2686SOL    HW2 8958   1.444   2.594   4.237
 2687SOL     OW 8959   4.982   5.597   3.079
 2687SOL    HW1 8960   4.960   5.521   3.141
 2687SOL    HW2 8961   4.981   5.563   2.985
 2688SOL     OW 8962   3.840   5.085   6.429
 2688SOL    HW1 8963   3.795   5.097   6.341
 2688SOL    HW2 8964   3.927   5.037   6.416
 2689SOL     OW 8965   6.688   3.297   4.394
 2689SOL    HW1 8966   6.683   3.232   4.470
 2689SOL    HW2 8967   6.668   3.249   4.308
 2690SOL     OW 8968   3.307   3.659   3.685
 2690SOL    HW1 8969   3.280   3.646   3.590
 2690SOL    HW2 8970   3.239   3.617   3.745
 2691SOL     OW 8971   1.023   5.944   1.811
 2691SOL    HW1 8972   1.067   5.992   1.734
 2691SOL    HW2 8973   0.960   5.875   1.775
 2692SOL     OW 8974   0.192   6.247   3.570
 2692SOL    HW1 8975   0.126   6.224   3.498
 2692SOL    HW2 8976   0.254   6.317   3.537
 2693SOL     OW 8977   1.589   3.916   2.937
 2693SOL    HW1 8978   1.611   3.879   3.027
 2693SOL    HW2 8979   1.671   3.917   2.880
 2694SOL     OW 8980   2.519   6.916   3.225
 2694SOL    HW1 8981   2.547   6.983   3.155
 2694SOL    HW2 8982   2.474   6.839   3.181
 2695SOL     OW 8983   3.822   1.808   2.847
 2695SOL    HW1 8984   3.805   1.894   2.895
 2695SOL    HW2 8985   3.920   1.799   2.829
 2696SOL     OW 8986   4.164   3.934   5.508
 2696SOL    HW1 8987   4.112   3.912   5.426
 2696SOL    HW2 8988   4.135   3.875   5.583
 2697SOL     OW 8989   2.856   2.057   4.563
 2697SOL    HW1 8990   2.910   2.092   4.640
 2697SOL    HW2 8991   2.763   2.038   4.593
 2698SOL     OW 8992   2.219   3.500   0.095
 2698SOL    HW1 8993   2.230   3.595   0.068
 2698SOL    HW2 8994   2.279   3.442   0.039
 2699SOL     OW 8995   3.969   5.638   1.647
 2699SOL    HW1 8996   3.955   5.626   1.745
 2699SOL    HW2 8997   3.881   5.629   1.600
 2700SOL     OW 8998   2.122   3.591   2.776
 2700SOL    HW1 8999   2.178   3.509   2.785
 2700SOL    HW2 9000   2.055   3.577   2.703
 2701SOL     OW 9001   3.254   0.025   5.993
 2701SOL    HW1 9002   3.324   6.982   5.969
 2701SOL    HW2 9003   3.270   0.109   5.941
 2702SOL     OW 9004   0.166   0.316   3.095
 2702SOL    HW1 9005   0.084   0.295   3.042
 2702SOL    HW2 9006   0.201   0.233   3.137
 2703SOL     OW 9007   1.938   1.269   2.638
 2703SOL    HW1 9008   1.929   1.313   2.548
 2703SOL    HW2 9009   1.969   1.336   2.705
 2704SOL     OW 9010   1.756   5.717   0.774
 2704SOL    HW1 9011   1.853   5.700   0.762
 2704SOL    HW2 9012   1.730   5.797   0.720
 2705SOL     OW 9013   0.180   4.921   3.196
 2705SOL    HW1 9014   0.206   4.953   3.287
 2705SOL    HW2 9015   0.240   4.963   3.127
 2706SOL     OW 9016   0.189   2.142   1.876
 2706SOL    HW1 9017   0.259   2.207   1.847
 2706SOL    HW2 9018   0.145   2.102   1.795
 2707SOL     OW 9019   2.095   1.377   5.841
 2707SOL    HW1 9020   2.182   1.355   5.797
 2707SOL    HW2 9021   2.112   1.417   5.931
 2708SOL     OW 9022   2.149   2.374   0.971
 2708SOL    HW1 9023   2.204   2.338   1.047
 2708SOL    HW2 9024   2.076   2.432   1.008
 2709SOL     OW 9025   4.829   6.283   0.934
 2709SOL    HW1 9026   4.851   6.198   0.886
 2709SOL    HW2 9027   4.909   6.342   0.937
 2710SOL     OW 9028   5.608   4.002   2.367
 2710SOL    HW1 9029   5.509   3.993   2.381
 2710SOL    HW2 9030   5.640   3.926   2.309
 2711SOL     OW 9031   1.165   0.254   2.151
 2711SOL    HW1 9032   1.152   0.179   2.087
 2711SOL    HW2 9033   1.115   0.335   2.120
 2712SOL     OW 9034   3.069   4.792   0.633
 2712SOL    HW1 9035   3.134   4.841   0.691
 2712SOL    HW2 9036   3.026   4.719   0.685
 2713SOL     OW 9037   2.165   3.178   5.009
 2713SOL    HW1 9038   2.256   3.136   5.010
 2713SOL    HW2 9039   2.144   3.209   4.916
 2714SOL     OW 9040   5.236   0.122   5.138
 2714SOL    HW1 9041   5.335   0.135   5.130
 2714SOL    HW2 9042   5.213   0.028   5.111
 2715SOL     OW 9043   6.868   0.986   6.802
 2715SOL    HW1 9044   6.825   0.913   6.748
 2715SOL    HW2 9045   6.944   0.948   6.854
 2716SOL     OW 9046   0.260   6.907   2.771
 2716SOL    HW1 9047   0.166   6.878   2.757
 2716SOL    HW2 9048   0.268   7.005   2.750
 2717SOL     OW 9049   1.161   0.745   3.088
 2717SOL    HW1 9050   1.145   0.823   3.027
 2717SOL    HW2 9051   1.221   0.679   3.043
 2718SOL     OW 9052   1.397   4.542   3.272
 2718SOL    HW1 9053   1.445   4.551   3.359
 2718SOL    HW2 9054   1.457   4.499   3.205
 2719SOL     OW 9055   4.039   5.187   1.639
 2719SOL    HW1 9056   4.064   5.281   1.619
 2719SOL    HW2 9057   3.939   5.177   1.633
 2720SOL     OW 9058   1.188   6.090   4.121
 2720SOL    HW1 9059   1.156   6.039   4.200
 2720SOL    HW2 9060   1.156   6.184   4.126
 2721SOL     OW 9061   4.206   0.182   4.181
 2721SOL    HW1 9062   4.301   0.191   4.150
 2721SOL    HW2 9063   4.197   0.101   4.238
 2722SOL     OW 9064   1.535   5.965   1.911
 2722SOL    HW1 9065   1.526   5.923   2.002
 2722SOL    HW2 9066   1.560   5.895   1.845
 2723SOL     OW 9067   1.290   1.336   5.210
 2723SOL    HW1 9068   1.328   1.244   5.219
 2723SOL    HW2 9069   1.262   1.351   5.115
 2724SOL     OW 9070   3.498   5.612   6.090
 2724SOL    HW1 9071   3.484   5.658   6.178
 2724SOL    HW2 9072   3.412   5.573   6.058
 2725SOL     OW 9073   3.039   4.940   3.350
 2725SOL    HW1 9074   3.064   4.912   3.442
 2725SOL    HW2 9075   3.118   4.929   3.289
 2726SOL     OW 9076   5.058   5.675   1.876
 2726SOL    HW1 9077   5.085   5.730   1.797
 2726SOL    HW2 9078   4.970   5.707   1.911
 2727SOL     OW 9079   2.045   5.456   3.254
 2727SOL    HW1 9080   2.003   5.471   3.344
 2727SOL    HW2 9081   2.117   5.387   3.262
 2728SOL     OW 9082   3.776   0.474   6.054
 2728SOL    HW1 9083   3.727   0.395   6.016
 2728SOL    HW2 9084   3.764   0.475   6.154
 2729SOL     OW 9085   6.075   5.324   2.803
 2729SOL    HW1 9086   6.143   5.286   2.739
 2729SOL    HW2 9087   5.987   5.280   2.788
 2730SOL     OW 9088   2.249   5.139   1.561
 2730SOL    HW1 9089   2.227   5.058   1.616
 2730SOL    HW2 9090   2.331   5.121   1.507
 2731SOL     OW 9091   3.053   3.693   1.526
 2731SOL    HW1 9092   3.032   3.646   1.612
 2731SOL    HW2 9093   3.073   3.789   1.545
 2732SOL     OW 9094   6.261   2.360   2.826
 2732SOL    HW1 9095   6.296   2.453   2.816
 2732SOL    HW2 9096   6.211   2.334   2.743
 2733SOL     OW 9097   1.400   0.388   5.579
 2733SOL    HW1 9098   1.336   0.355   5.510
 2733SOL    HW2 9099   1.431   0.311   5.635
 2734SOL     OW 9100   2.358   5.956   4.452
 2734SOL    HW1 9101   2.380   5.908   4.367
 2734SOL    HW2 9102   2.440   5.962   4.509
 2735SOL     OW 9103   1.576   4.521   2.195
 2735SOL    HW1 9104   1.549   4.430   2.225
 2735SOL    HW2 9105   1.527   4.545   2.111
 2736SOL     OW 9106   4.215   0.172   5.522
 2736SOL    HW1 9107   4.311   0.160   5.494
 2736SOL    HW2 9108   4.190   0.268   5.515
 2737SOL     OW 9109   4.554   3.267   5.878
 2737SOL    HW1 9110   4.522   3.172   5.882
 2737SOL    HW2 9111   4.605   3.281   5.794
 2738SOL     OW 9112   5.742   4.950   3.848
 2738SOL    HW1 9113   5.672   5.004   3.802
 2738SOL    HW2 9114   5.700   4.894   3.919
 2739SOL     OW 9115   6.212   3.111   1.198
 2739SOL    HW1 9116   6.294   3.128   1.144
 2739SOL    HW2 9117   6.230   3.134   1.294
 2740SOL     OW 9118   6.357   2.342   3.087
 2740SOL    HW1 9119   6.295   2.356   3.009
 2740SOL    HW2 9120   6.325   2.265   3.141
 2741SOL     OW 9121   0.687   2.390   6.101
 2741SOL    HW1 9122   0.726   2.299   6.115
 2741SOL    HW2 9123   0.692   2.414   6.004
 2742SOL     OW 9124   1.848   6.707   6.014
 2742SOL    HW1 9125   1.936   6.749   5.992
 2742SOL    HW2 9126   1.784   6.777   6.045
 2743SOL     OW 9127   4.997   4.608   0.674
 2743SOL    HW1 9128   5.067   4.644   0.613
 2743SOL    HW2 9129   4.990   4.509   0.662
 2744SOL     OW 9130   3.766   1.575   6.651
 2744SOL    HW1 9131   3.812   1.534   6.572
 2744SOL    HW2 9132   3.817   1.555   6.734
 2745SOL     OW 9133   2.191   6.199   0.620
 2745SOL    HW1 9134   2.278   6.157   0.594
 2745SOL    HW2 9135   2.189   6.294   0.590
 2746SOL     OW 9136   1.490   1.814   6.552
 2746SOL    HW1 9137   1.454   1.805   6.459
 2746SOL    HW2 9138   1.590   1.804   6.550
 2747SOL     OW 9139   4.946   5.930   3.999
 2747SOL    HW1 9140   4.940   5.984   4.083
 2747SOL    HW2 9141   5.036   5.943   3.958
 2748SOL     OW 9142   3.871   1.475   4.218
 2748SOL    HW1 9143   3.883   1.378   4.236
 2748SOL    HW2 9144   3.887   1.527   4.302
 2749SOL     OW 9145   4.721   5.334   4.321
 2749SOL    HW1 9146   4.642   5.292   4.366
 2749SOL    HW2 9147   4.717   5.318   4.223
 2750SOL     OW 9148   0.484   5.817   2.135
 2750SOL    HW1 9149   0.489   5.806   2.234
 2750SOL    HW2 9150   0.486   5.914   2.112
 2751SOL     OW 9151   1.028   6.788   6.704
 2751SOL    HW1 9152   1.009   6.700   6.748
 2751SOL    HW2 9153   1.039   6.859   6.773
 2752SOL     OW 9154   6.089   6.173   5.638
 2752SOL    HW1 9155   6.180   6.133   5.646
 2752SOL    HW2 9156   6.071   6.231   5.717
 2753SOL     OW 9157   2.758   5.566   5.498
 2753SOL    HW1 9158   2.707   5.608   5.572
 2753SOL    HW2 9159   2.696   5.515   5.439
 2754SOL     OW 9160   0.953   6.171   4.458
 2754SOL    HW1 9161   0.925   6.262   4.489
 2754SOL    HW2 9162   1.044   6.150   4.494
 2755SOL     OW 9163   3.991   6.054   2.360
 2755SOL    HW1 9164   3.941   6.133   2.397
 2755SOL    HW2 9165   4.069   6.034   2.419
 2756SOL     OW 9166   0.418   2.709   5.469
 2756SOL    HW1 9167   0.381   2.704   5.562
 2756SOL    HW2 9168   0.515   2.684   5.471
 2757SOL     OW 9169   4.027   3.487   6.859
 2757SOL    HW1 9170   3.968   3.568   6.862
 2757SOL    HW2 9171   4.059   3.464   6.951
 2758SOL     OW 9172   0.003   6.599   1.840
 2758SOL    HW1 9173   0.014   6.553   1.752
 2758SOL    HW2 9174   6.961   6.673   1.831
 2759SOL     OW 9175   3.528   3.641   5.983
 2759SOL    HW1 9176   3.531   3.653   5.884
 2759SOL    HW2 9177   3.617   3.662   6.022
 2760SOL     OW 9178   5.648   6.299   2.913
 2760SOL    HW1 9179   5.586   6.375   2.892
 2760SOL    HW2 9180   5.703   6.279   2.832
 2761SOL     OW 9181   1.155   2.252   3.530
 2761SOL    HW1 9182   1.151   2.313   3.609
 2761SOL    HW2 9183   1.081   2.186   3.535
 2762SOL     OW 9184   2.579   2.718   0.315
 2762SOL    HW1 9185   2.596   2.686   0.408
 2762SOL    HW2 9186   2.527   2.803   0.318
 2763SOL     OW 9187   6.583   1.642   4.185
 2763SOL    HW1 9188   6.612   1.724   4.136
 2763SOL    HW2 9189   6.663   1.598   4.227
 2764SOL     OW 9190   0.999   3.117   2.590
 2764SOL    HW1 9191   0.935   3.136   2.664
 2764SOL    HW2 9192   1.011   3.018   2.579
 2765SOL     OW 9193   6.191   6.645   6.573
 2765SOL    HW1 9194   6.126   6.701   6.624
 2765SOL    HW2 9195   6.285   6.671   6.599
 2766SOL     OW 9196   4.461   0.503   6.811
 2766SOL    HW1 9197   4.476   0.446   6.892
 2766SOL    HW2 9198   4.507   0.591   6.823
 2767SOL     OW 9199   0.278   5.261   6.514
 2767SOL    HW1 9200   0.373   5.230   6.516
 2767SOL    HW2 9201   0.274   5.360   6.522
 2768SOL     OW 9202   3.639   6.674   1.497
 2768SOL    HW1 9203   3.710   6.698   1.563
 2768SOL    HW2 9204   3.664   6.711   1.407
 2769SOL     OW 9205   0.716   4.589   5.626
 2769SOL    HW1 9206   0.777   4.517   5.595
 2769SOL    HW2 9207   0.650   4.610   5.554
 2770SOL     OW 9208   2.493   6.366   0.958
 2770SOL    HW1 9209   2.514   6.360   0.861
 2770SOL    HW2 9210   2.395   6.347   0.972
 2771SOL     OW 9211   4.666   6.877   4.828
 2771SOL    HW1 9212   4.755   6.835   4.816
 2771SOL    HW2 9213   4.658   6.957   4.769
 2772SOL     OW 9214   4.429   0.721   3.658
 2772SOL    HW1 9215   4.432   0.623   3.676
 2772SOL    HW2 9216   4.475   0.741   3.571
 2773SOL     OW 9217   5.609   2.815   5.101
 2773SOL    HW1 9218   5.587   2.729   5.054
 2773SOL    HW2 9219   5.649   2.794   5.190
 2774SOL     OW 9220   6.014   1.553   4.071
 2774SOL    HW1 9221   5.954   1.596   4.003
 2774SOL    HW2 9222   6.085   1.617   4.099
 2775SOL     OW 9223   0.199   3.747   4.120
 2775SOL    HW1 9224   0.274   3.776   4.179
 2775SOL    HW2 9225   0.226   3.759   4.024
 2776SOL     OW 9226   4.954   5.186   5.966
 2776SOL    HW1 9227   5.046   5.224   5.952
 2776SOL    HW2 9228   4.962   5.094   6.003
 2777SOL     OW 9229   2.595   2.494   6.242
 2777SOL    HW1 9230   2.555   2.412   6.282
 2777SOL    HW2 9231   2.693   2.496   6.261
 2778SOL     OW 9232   2.512   0.669   6.192
 2778SOL    HW1 9233   2.574   0.650   6.115
 2778SOL    HW2 9234   2.565   0.693   6.273
 2779SOL     OW 9235   4.739   0.975   1.182
 2779SOL    HW1 9236   4.643   0.998   1.200
 2779SOL    HW2 9237   4.798   1.034   1.237
 2780SOL     OW 9238   6.890   1.784   5.033
 2780SOL    HW1 9239   6.971   1.816   5.081
 2780SOL    HW2 9240   6.862   1.852   4.966
 2781SOL     OW 9241   5.367   1.333   3.287
 2781SOL    HW1 9242   5.302   1.277   3.340
 2781SOL    HW2 9243   5.420   1.274   3.226
 2782SOL     OW 9244   5.150   0.642   6.289
 2782SOL    HW1 9245   5.237   0.610   6.251
 2782SOL    HW2 9246   5.153   0.742   6.297
 2783SOL     OW 9247   6.052   3.657   1.863
 2783SOL    HW1 9248   6.095   3.700   1.942
 2783SOL    HW2 9249   6.120   3.646   1.790
 2784SOL     OW 9250   1.102   2.523   0.851
 2784SOL    HW1 9251   1.179   2.553   0.795
 2784SOL    HW2 9252   1.055   2.603   0.889
 2785SOL     OW 9253   6.319   3.076   2.364
 2785SOL    HW1 9254   6.377   3.137   2.310
 2785SOL    HW2 9255   6.373   2.999   2.396
 2786SOL     OW 9256   0.699   5.832   6.517
 2786SOL    HW1 9257   0.798   5.841   6.507
 2786SOL    HW2 9258   0.659   5.799   6.432
 2787SOL     OW 9259   6.799   5.337   6.947
 2787SOL    HW1 9260   6.863   5.397   6.899
 2787SOL    HW2 9261   6.751   5.280   6.880
 2788SOL     OW 9262   3.016   6.936   6.042
 2788SOL    HW1 9263   2.941   6.953   5.978
 2788SOL    HW2 9264   3.103   6.957   5.998
 2789SOL     OW 9265   1.134   1.907   5.077
 2789SOL    HW1 9266   1.042   1.908   5.117
 2789SOL    HW2 9267   1.131   1.860   4.989
 2790SOL     OW 9268   1.287   5.387   2.274
 2790SOL    HW1 9269   1.296   5.485   2.291
 2790SOL    HW2 9270   1.278   5.371   2.175
 2791SOL     OW 9271   0.746   3.271   3.230
 2791SOL    HW1 9272   0.690   3.191   3.212
 2791SOL    HW2 9273   0.731   3.301   3.324
 2792SOL     OW 9274   3.650   1.318   5.641
 2792SOL    HW1 9275   3.568   1.355   5.685
 2792SOL    HW2 9276   3.658   1.356   5.549
 2793SOL     OW 9277   3.644   4.069   0.881
 2793SOL    HW1 9278   3.553   4.035   0.858
 2793SOL    HW2 9279   3.695   3.998   0.930
 2794SOL     OW 9280   0.778   2.509   6.882
 2794SOL    HW1 9281   0.746   2.458   6.962
 2794SOL    HW2 9282   0.796   2.604   6.908
 2795SOL     OW 9283   1.075   6.248   1.420
 2795SOL    HW1 9284   1.057   6.339   1.457
 2795SOL    HW2 9285   0.989   6.204   1.395
 2796SOL     OW 9286   2.069   5.586   6.521
 2796SOL    HW1 9287   2.037   5.679   6.504
 2796SOL    HW2 9288   2.061   5.532   6.437
 2797SOL     OW 9289   5.024   4.957   3.645
 2797SOL    HW1 9290   5.013   4.934   3.548
 2797SOL    HW2 9291   4.955   5.025   3.671
 2798SOL     OW 9292   5.318   1.105   1.348
 2798SOL    HW1 9293   5.395   1.169   1.342
 2798SOL    HW2 9294   5.276   1.112   1.438
 2799SOL     OW 9295   3.586   6.349   4.492
 2799SOL    HW1 9296   3.519   6.287   4.534
 2799SOL    HW2 9297   3.678   6.324   4.523
 2800SOL     OW 9298   5.734   0.259   6.152
 2800SOL    HW1 9299   5.648   0.301   6.125
 2800SOL    HW2 9300   5.810   0.321   6.132
 2801SOL     OW 9301   6.985   4.679   4.391
 2801SOL    HW1 9302   0.005   4.613   4.331
 2801SOL    HW2 9303   6.886   4.669   4.384
 2802SOL     OW 9304   1.694   4.832   5.395
 2802SOL    HW1 9305   1.665   4.912   5.448
 2802SOL    HW2 9306   1.774   4.791   5.438
 2803SOL     OW 9307   3.964   2.156   6.116
 2803SOL    HW1 9308   4.056   2.132   6.149
 2803SOL    HW2 9309   3.895   2.106   6.169
 2804SOL     OW 9310   6.861   2.715   3.984
 2804SOL    HW1 9311   6.943   2.658   3.982
 2804SOL    HW2 9312   6.783   2.660   4.014
 2805SOL     OW 9313   3.517   3.016   0.758
 2805SOL    HW1 9314   3.495   3.000   0.854
 2805SOL    HW2 9315   3.451   3.080   0.719
 2806SOL     OW 9316   0.114   3.335   5.955
 2806SOL    HW1 9317   0.184   3.293   5.897
 2806SOL    HW2 9318   0.072   3.265   6.013
 2807SOL     OW 9319   3.973   1.007   3.688
 2807SOL    HW1 9320   4.039   0.952   3.637
 2807SOL    HW2 9321   4.019   1.088   3.726
 2808SOL     OW 9322   0.501   4.644   5.455
 2808SOL    HW1 9323   0.438   4.578   5.414
 2808SOL    HW2 9324   0.451   4.729   5.474
 2809SOL     OW 9325   0.221   5.562   2.146
 2809SOL    HW1 9326   0.137   5.606   2.176
 2809SOL    HW2 9327   0.294   5.580   2.213
 2810SOL     OW 9328   2.397   6.485   2.856
 2810SOL    HW1 9329   2.472   6.516   2.798
 2810SOL    HW2 9330   2.411   6.389   2.880
 2811SOL     OW 9331   0.942   1.175   1.104
 2811SOL    HW1 9332   0.989   1.221   1.028
 2811SOL    HW2 9333   0.848   1.156   1.078
 2812SOL     OW 9334   0.734   1.578   1.169
 2812SOL    HW1 9335   0.790   1.554   1.090
 2812SOL    HW2 9336   0.652   1.625   1.138
 2813SOL     OW 9337   0.674   3.404   1.711
 2813SOL    HW1 9338   0.720   3.318   1.732
 2813SOL    HW2 9339   0.723   3.480   1.754
 2814SOL     OW 9340   2.837   4.112   0.211
 2814SOL    HW1 9341   2.898   4.046   0.255
 2814SOL    HW2 9342   2.870   4.205   0.228
 2815SOL     OW 9343   0.109   5.039   5.007
 2815SOL    HW1 9344   0.023   5.067   4.963
 2815SOL    HW2 9345   0.165   4.989   4.941
 2816SOL     OW 9346   0.530   6.011   5.489
 2816SOL    HW1 9347   0.581   6.080   5.541
 2816SOL    HW2 9348   0.548   6.024   5.391
 2817SOL     OW 9349   3.214   0.524   2.182
 2817SOL    HW1 9350   3.301   0.532   2.231
 2817SOL    HW2 9351   3.160   0.607   2.199
 2818SOL     OW 9352   1.954   0.505   0.628
 2818SOL    HW1 9353   1.945   0.427   0.565
 2818SOL    HW2 9354   2.046   0.543   0.620
 2819SOL     OW 9355   0.759   0.256   6.653
 2819SOL    HW1 9356   0.735   0.346   6.616
 2819SOL    HW2 9357   0.728   0.184   6.590
 2820SOL     OW 9358   1.664   2.350   6.897
 2820SOL    HW1 9359   1.593   2.354   6.967
 2820SOL    HW2 9360   1.744   2.403   6.927
 2821SOL     OW 9361   3.464   3.476   6.188
 2821SOL    HW1 9362   3.459   3.552   6.124
 2821SOL    HW2 9363   3.553   3.431   6.180
 2822SOL     OW 9364   4.798   2.960   6.797
 2822SOL    HW1 9365   4.714   2.922   6.836
 2822SOL    HW2 9366   4.837   3.028   6.859
 2823SOL     OW 9367   4.823   2.807   1.237
 2823SOL    HW1 9368   4.823   2.834   1.333
 2823SOL    HW2 9369   4.863   2.716   1.227
 2824SOL     OW 9370   1.094   3.852   4.489
 2824SOL    HW1 9371   1.092   3.764   4.442
 2824SOL    HW2 9372   1.141   3.841   4.577
 2825SOL     OW 9373   5.375   1.550   6.416
 2825SOL    HW1 9374   5.278   1.575   6.408
 2825SOL    HW2 9375   5.383   1.459   6.457
 2826SOL     OW 9376   2.627   2.756   6.236
 2826SOL    HW1 9377   2.631   2.656   6.225
 2826SOL    HW2 9378   2.694   2.784   6.304
 2827SOL     OW 9379   5.887   1.209   6.321
 2827SOL    HW1 9380   5.927   1.190   6.411
 2827SOL    HW2 9381   5.958   1.242   6.259
 2828SOL     OW 9382   1.549   3.451   1.154
 2828SOL    HW1 9383   1.622   3.479   1.092
 2828SOL    HW2 9384   1.463   3.495   1.127
 2829SOL     OW 9385   3.296   3.729   2.038
 2829SOL    HW1 9386   3.304   3.785   2.120
 2829SOL    HW2 9387   3.351   3.770   1.965
 2830SOL     OW 9388   3.284   5.997   5.154
 2830SOL    HW1 9389   3.322   5.924   5.097
 2830SOL    HW2 9390   3.346   6.075   5.154
 2831SOL     OW 9391   5.811   1.903   1.782
 2831SOL    HW1 9392   5.795   1.807   1.804
 2831SOL    HW2 9393   5.758   1.961   1.844
 2832SOL     OW 9394   0.763   3.813   2.223
 2832SOL    HW1 9395   0.729   3.783   2.134
 2832SOL    HW2 9396   0.797   3.734   2.274
 2833SOL     OW 9397   1.345   2.284   2.153
 2833SOL    HW1 9398   1.429   2.295   2.207
 2833SOL    HW2 9399   1.311   2.374   2.125
 2834SOL     OW 9400   3.629   6.659   4.792
 2834SOL    HW1 9401   3.678   6.579   4.827
 2834SOL    HW2 9402   3.543   6.671   4.843
 2835SOL     OW 9403   6.434   0.635   6.779
 2835SOL    HW1 9404   6.438   0.535   6.778
 2835SOL    HW2 9405   6.484   0.670   6.859
 2836SOL     OW 9406   3.206   5.873   2.780
 2836SOL    HW1 9407   3.261   5.857   2.699
 2836SOL    HW2 9408   3.109   5.861   2.758
 2837SOL     OW 9409   5.108   4.568   1.573
 2837SOL    HW1 9410   5.172   4.525   1.637
 2837SOL    HW2 9411   5.157   4.594   1.490
 2838SOL     OW 9412   6.522   4.550   6.549
 2838SOL    HW1 9413   6.498   4.466   6.501
 2838SOL    HW2 9414   6.449   4.576   6.612
 2839SOL     OW 9415   6.068   3.554   5.007
 2839SOL    HW1 9416   6.119   3.622   4.954
 2839SOL    HW2 9417   5.970   3.572   5.000
 2840SOL     OW 9418   6.816   6.970   4.375
 2840SOL    HW1 9419   6.731   6.998   4.420
 2840SOL    HW2 9420   6.809   6.988   4.277
 2841SOL     OW 9421   5.721   4.202   2.198
 2841SOL    HW1 9422   5.656   4.138   2.239
 2841SOL    HW2 9423   5.736   4.279   2.260
 2842SOL     OW 9424   1.042   0.377   3.754
 2842SOL    HW1 9425   1.091   0.296   3.786
 2842SOL    HW2 9426   1.042   0.378   3.654
 2843SOL     OW 9427   2.272   2.312   3.621
 2843SOL    HW1 9428   2.204   2.310   3.694
 2843SOL    HW2 9429   2.234   2.269   3.539
 2844SOL     OW 9430   5.148   3.660   0.249
 2844SOL    HW1 9431   5.200   3.613   0.178
 2844SOL    HW2 9432   5.124   3.595   0.322
 2845SOL     OW 9433   2.949   1.800   2.013
 2845SOL    HW1 9434   2.935   1.790   2.111
 2845SOL    HW2 9435   2.961   1.709   1.972
 2846SOL     OW 9436   6.857   0.083   6.613
 2846SOL    HW1 9437   6.874   0.128   6.701
 2846SOL    HW2 9438   6.901   0.135   6.541
 2847SOL     OW 9439   4.572   4.886   1.356
 2847SOL    HW1 9440   4.553   4.921   1.448
 2847SOL    HW2 9441   4.495   4.829   1.325
 2848SOL     OW 9442   1.064   4.190   5.440
 2848SOL    HW1 9443   1.145   4.132   5.428
 2848SOL    HW2 9444   0.990   4.155   5.381
 2849SOL     OW 9445   5.289   0.455   1.836
 2849SOL    HW1 9446   5.223   0.390   1.797
 2849SOL    HW2 9447   5.258   0.485   1.926
 2850SOL     OW 9448   1.245   0.902   2.337
 2850SOL    HW1 9449   1.222   0.807   2.358
 2850SOL    HW2 9450   1.222   0.960   2.415
 2851SOL     OW 9451   3.232   2.984   1.780
 2851SOL    HW1 9452   3.270   2.919   1.714
 2851SOL    HW2 9453   3.235   2.944   1.871
 2852SOL     OW 9454   6.514   4.560   5.619
 2852SOL    HW1 9455   6.418   4.581   5.604
 2852SOL    HW2 9456   6.532   4.464   5.594
 2853SOL     OW 9457   0.252   4.030   5.658
 2853SOL    HW1 9458   0.192   4.026   5.738
 2853SOL    HW2 9459   0.318   3.955   5.662
 2854SOL     OW 9460   3.889   0.945   5.697
 2854SOL    HW1 9461   3.835   1.006   5.639
 2854SOL    HW2 9462   3.907   0.860   5.647
 2855SOL     OW 9463   2.466   1.674   4.884
 2855SOL    HW1 9464   2.367   1.664   4.875
 2855SOL    HW2 9465   2.494   1.762   4.845
 2856SOL     OW 9466   0.776   5.628   4.008
 2856SOL    HW1 9467   0.767   5.701   3.940
 2856SOL    HW2 9468   0.758   5.665   4.099
 2857SOL     OW 9469   0.202   4.303   1.063
 2857SOL    HW1 9470   0.292   4.347   1.057
 2857SOL    HW2 9471   0.212   4.205   1.048
 2858SOL     OW 9472   4.306   4.680   2.618
 2858SOL    HW1 9473   4.242   4.675   2.541
 2858SOL    HW2 9474   4.340   4.774   2.627
 2859SOL     OW 9475   5.355   4.863   1.545
 2859SOL    HW1 9476   5.322   4.771   1.522
 2859SOL    HW2 9477   5.276   4.924   1.556
 2860SOL     OW 9478   0.934   0.264   2.550
 2860SOL    HW1 9479   0.922   0.164   2.551
 2860SOL    HW2 9480   1.031   0.285   2.541
 2861SOL     OW 9481   4.674   4.358   5.731
 2861SOL    HW1 9482   4.597   4.317   5.681
 2861SOL    HW2 9483   4.659   4.347   5.829
 2862SOL     OW 9484   4.687   2.782   6.640
 2862SOL    HW1 9485   4.595   2.761   6.673
 2862SOL    HW2 9486   4.730   2.850   6.699
 2863SOL     OW 9487   5.847   1.465   5.241
 2863SOL    HW1 9488   5.763   1.497   5.283
 2863SOL    HW2 9489   5.917   1.536   5.247
 2864SOL     OW 9490   3.782   4.308   0.487
 2864SOL    HW1 9491   3.716   4.249   0.533
 2864SOL    HW2 9492   3.818   4.260   0.406
 2865SOL     OW 9493   5.771   4.874   4.830
 2865SOL    HW1 9494   5.831   4.946   4.865
 2865SOL    HW2 9495   5.764   4.800   4.898
 2866SOL     OW 9496   3.793   4.145   0.220
 2866SOL    HW1 9497   3.767   4.119   0.127
 2866SOL    HW2 9498   3.718   4.123   0.283
 2867SOL     OW 9499   5.665   6.331   2.532
 2867SOL    HW1 9500   5.573   6.367   2.548
 2867SOL    HW2 9501   5.667   6.283   2.444
 2868SOL     OW 9502   0.567   0.000   5.842
 2868SOL    HW1 9503   0.639   0.063   5.813
 2868SOL    HW2 9504   0.528   0.032   5.929
 2869SOL     OW 9505   6.092   5.511   4.203
 2869SOL    HW1 9506   6.065   5.415   4.200
 2869SOL    HW2 9507   6.121   5.541   4.112
 2870SOL     OW 9508   6.840   1.938   2.085
 2870SOL    HW1 9509   6.756   1.886   2.070
 2870SOL    HW2 9510   6.915   1.876   2.110
 2871SOL     OW 9511   4.498   1.314   2.769
 2871SOL    HW1 9512   4.445   1.286   2.690
 2871SOL    HW2 9513   4.499   1.241   2.837
 2872SOL     OW 9514   2.526   1.962   2.502
 2872SOL    HW1 9515   2.589   1.948   2.579
 2872SOL    HW2 9516   2.471   2.044   2.519
 2873SOL     OW 9517   0.732   0.014   1.443
 2873SOL    HW1 9518   0.690   6.985   1.517
 2873SOL    HW2 9519   0.691   7.011   1.356
 2874SOL     OW 9520   2.479   1.437   3.238
 2874SOL    HW1 9521   2.522   1.354   3.205
 2874SOL    HW2 9522   2.384   1.439   3.210
 2875SOL     OW 9523   2.158   6.790   3.053
 2875SOL    HW1 9524   2.148   6.726   3.130
 2875SOL    HW2 9525   2.105   6.757   2.975
 2876SOL     OW 9526   1.932   0.193   1.888
 2876SOL    HW1 9527   1.985   0.209   1.805
 2876SOL    HW2 9528   1.856   0.258   1.892
 2877SOL     OW 9529   1.265   2.483   6.644
 2877SOL    HW1 9530   1.199   2.447   6.578
 2877SOL    HW2 9531   1.234   2.464   6.737
 2878SOL     OW 9532   4.094   3.450   3.963
 2878SOL    HW1 9533   4.053   3.372   3.917
 2878SOL    HW2 9534   4.157   3.496   3.901
 2879SOL     OW 9535   5.029   4.255   0.259
 2879SOL    HW1 9536   5.080   4.251   0.345
 2879SOL    HW2 9537   4.980   4.169   0.245
 2880SOL     OW 9538   2.087   0.703   3.369
 2880SOL    HW1 9539   2.118   0.687   3.275
 2880SOL    HW2 9540   2.163   0.737   3.424
 2881SOL     OW 9541   5.325   6.164   0.133
 2881SOL    HW1 9542   5.367   6.177   0.223
 2881SOL    HW2 9543   5.231   6.131   0.145
 2882SOL     OW 9544   4.538   6.188   0.185
 2882SOL    HW1 9545   4.592   6.181   0.101
 2882SOL    HW2 9546   4.545   6.281   0.221
 2883SOL     OW 9547   6.002   6.515   4.015
 2883SOL    HW1 9548   6.009   6.568   3.931
 2883SOL    HW2 9549   5.906   6.502   4.039
 2884SOL     OW 9550   5.741   5.352   4.179
 2884SOL    HW1 9551   5.655   5.375   4.133
 2884SOL    HW2 9552   5.812   5.334   4.111
 2885SOL     OW 9553   1.230   2.721   3.332
 2885SOL    HW1 9554   1.149   2.777   3.315
 2885SOL    HW2 9555   1.281   2.710   3.247
 2886SOL     OW 9556   2.340   4.192   5.709
 2886SOL    HW1 9557   2.320   4.194   5.807
 2886SOL    HW2 9558   2.349   4.097   5.679
 2887SOL     OW 9559   0.266   5.976   3.215
 2887SOL    HW1 9560   0.313   5.922   3.145
 2887SOL    HW2 9561   0.300   5.949   3.305
 2888SOL     OW 9562   5.914   0.058   6.417
 2888SOL    HW1 9563   5.865   0.124   6.474
 2888SOL    HW2 9564   5.850   0.013   6.355
 2889SOL     OW 9565   3.719   6.176   2.866
 2889SOL    HW1 9566   3.764   6.265   2.862
 2889SOL    HW2 9567   3.775   6.112   2.919
 2890SOL     OW 9568   0.867   2.248   1.535
 2890SOL    HW1 9569   0.927   2.181   1.492
 2890SOL    HW2 9570   0.773   2.234   1.505
 2891SOL     OW 9571   6.694   2.117   4.758
 2891SOL    HW1 9572   6.738   2.110   4.847
 2891SOL    HW2 9573   6.623   2.047   4.750
 2892SOL     OW 9574   5.372   3.884   2.513
 2892SOL    HW1 9575   5.314   3.933   2.448
 2892SOL    HW2 9576   5.331   3.889   2.604
 2893SOL     OW 9577   6.785   5.485   4.584
 2893SOL    HW1 9578   6.858   5.508   4.649
 2893SOL    HW2 9579   6.818   5.416   4.519
 2894SOL     OW 9580   2.007   5.417   2.170
 2894SOL    HW1 9581   2.074   5.427   2.244
 2894SOL    HW2 9582   1.915   5.419   2.209
 2895SOL     OW 9583   4.417   0.030   5.802
 2895SOL    HW1 9584   4.339   7.019   5.750
 2895SOL    HW2 9585   4.483   0.072   5.739
 2896SOL     OW 9586   5.356   0.119   4.310
 2896SOL    HW1 9587   5.327   0.164   4.225
 2896SOL    HW2 9588   5.319   0.169   4.388
 2897SOL     OW 9589   4.019   4.920   3.078
 2897SOL    HW1 9590   3.920   4.922   3.073
 2897SOL    HW2 9591   4.053   5.010   3.104
 2898SOL     OW 9592   5.149   3.049   2.556
 2898SOL    HW1 9593   5.136   3.111   2.480
 2898SOL    HW2 9594   5.099   2.964   2.539
 2899SOL     OW 9595   0.055   3.514   0.807
 2899SOL    HW1 9596   0.013   3.435   0.761
 2899SOL    HW2 9597   7.016   3.550   0.876
 2900SOL     OW 9598   2.364   3.064   5.763
 2900SOL    HW1 9599   2.327   3.153   5.737
 2900SOL    HW2 9600   2.305   3.022   5.832
 2901SOL     OW 9601   0.591   3.730   3.012
 2901SOL    HW1 9602   0.496   3.702   3.025
 2901SOL    HW2 9603   0.647   3.651   2.990
 2902SOL     OW 9604   6.547   6.347   4.120
 2902SOL    HW1 9605   6.515   6.400   4.042
 2902SOL    HW2 9606   6.492   6.368   4.201
 2903SOL     OW 9607   5.182   4.583   0.445
 2903SOL    HW1 9608   5.222   4.496   0.474
 2903SOL    HW2 9609   5.121   4.567   0.367
 2904SOL     OW 9610   2.152   4.183   5.154
 2904SOL    HW1 9611   2.188   4.107   5.099
 2904SOL    HW2 9612   2.224   4.220   5.212
 2905SOL     OW 9613   1.671   6.256   1.262
 2905SOL    HW1 9614   1.666   6.352   1.290
 2905SOL    HW2 9615   1.613   6.201   1.322
 2906SOL     OW 9616   6.152   6.143   4.476
 2906SOL    HW1 9617   6.114   6.054   4.451
 2906SOL    HW2 9618   6.174   6.144   4.573
 2907SOL     OW 9619   0.390   1.069   4.654
 2907SOL    HW1 9620   0.425   1.095   4.744
 2907SOL    HW2 9621   0.396   1.148   4.593
 2908SOL     OW 9622   4.478   0.063   3.069
 2908SOL    HW1 9623   4.429   0.011   3.138
 2908SOL    HW2 9624   4.412   0.103   3.005
 2909SOL     OW 9625   6.870   6.557   1.354
 2909SOL    HW1 9626   6.831   6.466   1.345
 2909SOL    HW2 9627   6.920   6.564   1.440
 2910SOL     OW 9628   0.709   0.548   4.291
 2910SOL    HW1 9629   0.676   0.486   4.220
 2910SOL    HW2 9630   0.633   0.569   4.353
 2911SOL     OW 9631   0.212   4.208   5.466
 2911SOL    HW1 9632   0.219   4.125   5.521
 2911SOL    HW2 9633   0.127   4.256   5.489
 2912SOL     OW 9634   1.234   1.566   1.725
 2912SOL    HW1 9635   1.144   1.533   1.752
 2912SOL    HW2 9636   1.224   1.642   1.660
 2913SOL     OW 9637   3.131   6.586   2.781
 2913SOL    HW1 9638   3.057   6.577   2.848
 2913SOL    HW2 9639   3.173   6.676   2.789
 2914SOL     OW 9640   4.282   5.556   0.934
 2914SOL    HW1 9641   4.369   5.507   0.935
 2914SOL    HW2 9642   4.225   5.524   1.009
 2915SOL     OW 9643   2.653   0.083   3.062
 2915SOL    HW1 9644   2.740   0.108   3.104
 2915SOL    HW2 9645   2.583   0.151   3.087
 2916SOL     OW 9646   1.592   6.290   6.891
 2916SOL    HW1 9647   1.542   6.300   6.805
 2916SOL    HW2 9648   1.690   6.294   6.873
 2917SOL     OW 9649   2.914   7.005   3.586
 2917SOL    HW1 9650   3.003   6.964   3.566
 2917SOL    HW2 9651   2.926   0.063   3.641
 2918SOL     OW 9652   4.901   2.952   1.460
 2918SOL    HW1 9653   4.844   3.012   1.403
 2918SOL    HW2 9654   4.864   2.949   1.553
 2919SOL     OW 9655   0.638   5.805   5.190
 2919SOL    HW1 9656   0.691   5.756   5.120
 2919SOL    HW2 9657   0.679   5.894   5.207
 2920SOL     OW 9658   2.137   2.640   2.874
 2920SOL    HW1 9659   2.221   2.645   2.928
 2920SOL    HW2 9660   2.154   2.674   2.782
 2921SOL     OW 9661   1.077   6.317   3.745
 2921SOL    HW1 9662   1.019   6.268   3.811
 2921SOL    HW2 9663   1.112   6.400   3.787
 2922SOL     OW 9664   3.811   6.058   4.228
 2922SOL    HW1 9665   3.718   6.023   4.240
 2922SOL    HW2 9666   3.811   6.128   4.156
 2923SOL     OW 9667   6.556   5.214   5.084
 2923SOL    HW1 9668   6.641   5.268   5.085
 2923SOL    HW2 9669   6.536   5.185   4.991
 2924SOL     OW 9670   6.167   1.501   5.811
 2924SOL    HW1 9671   6.101   1.569   5.844
 2924SOL    HW2 9672   6.244   1.497   5.875
 2925SOL     OW 9673   5.517   6.598   5.184
 2925SOL    HW1 9674   5.487   6.507   5.213
 2925SOL    HW2 9675   5.455   6.666   5.222
 2926SOL     OW 9676   6.321   2.554   4.478
 2926SOL    HW1 9677   6.378   2.636   4.481
 2926SOL    HW2 9678   6.355   2.493   4.406
 2927SOL     OW 9679   1.258   2.015   1.765
 2927SOL    HW1 9680   1.195   1.951   1.722
 2927SOL    HW2 9681   1.322   1.965   1.824
 2928SOL     OW 9682   6.296   3.150   0.213
 2928SOL    HW1 9683   6.393   3.140   0.189
 2928SOL    HW2 9684   6.246   3.188   0.135
 2929SOL     OW 9685   2.192   2.421   4.242
 2929SOL    HW1 9686   2.267   2.414   4.308
 2929SOL    HW2 9687   2.229   2.441   4.151
 2930SOL     OW 9688   0.504   4.272   4.411
 2930SOL    HW1 9689   0.566   4.214   4.359
 2930SOL    HW2 9690   0.557   4.341   4.461
 2931SOL     OW 9691   5.339   4.254   5.617
 2931SOL    HW1 9692   5.371   4.346   5.641
 2931SOL    HW2 9693   5.241   4.258   5.596
 2932SOL     OW 9694   5.892   4.795   1.535
 2932SOL    HW1 9695   5.963   4.793   1.606
 2932SOL    HW2 9696   5.864   4.701   1.515
 2933SOL     OW 9697   1.188   6.509   6.679
 2933SOL    HW1 9698   1.209   6.590   6.625
 2933SOL    HW2 9699   1.138   6.535   6.762
 2934SOL     OW 9700   3.794   4.503   0.711
 2934SOL    HW1 9701   3.791   4.441   0.632
 2934SOL    HW2 9702   3.760   4.456   0.792
 2935SOL     OW 9703   0.599   2.354   6.368
 2935SOL    HW1 9704   0.619   2.389   6.276
 2935SOL    HW2 9705   0.623   2.422   6.436
 2936SOL     OW 9706   4.623   5.963   1.484
 2936SOL    HW1 9707   4.635   5.941   1.387
 2936SOL    HW2 9708   4.605   6.061   1.493
 2937SOL     OW 9709   4.962   4.424   2.610
 2937SOL    HW1 9710   4.958   4.411   2.709
 2937SOL    HW2 9711   5.055   4.403   2.578
 2938SOL     OW 9712   0.601   5.691   6.297
 2938SOL    HW1 9713   0.622   5.764   6.232
 2938SOL    HW2 9714   0.626   5.603   6.256
 2939SOL     OW 9715   0.175   6.434   2.009
 2939SOL    HW1 9716   0.264   6.449   1.965
 2939SOL    HW2 9717   0.115   6.511   1.991
 2940SOL     OW 9718   4.282   6.844   4.037
 2940SOL    HW1 9719   4.207   6.795   4.081
 2940SOL    HW2 9720   4.247   6.894   3.958
 2941SOL     OW 9721   1.878   4.950   2.935
 2941SOL    HW1 9722   1.829   4.886   2.876
 2941SOL    HW2 9723   1.822   4.970   3.016
 2942SOL     OW 9724   3.421   1.774   1.270
 2942SOL    HW1 9725   3.481   1.747   1.345
 2942SOL    HW2 9726   3.464   1.847   1.217
 2943SOL     OW 9727   5.838   4.056   2.768
 2943SOL    HW1 9728   5.807   4.124   2.701
 2943SOL    HW2 9729   5.937   4.044   2.760
 2944SOL     OW 9730   1.716   5.708   2.457
 2944SOL    HW1 9731   1.775   5.653   2.397
 2944SOL    HW2 9732   1.653   5.647   2.505
 2945SOL     OW 9733   4.615   4.472   0.843
 2945SOL    HW1 9734   4.653   4.546   0.788
 2945SOL    HW2 9735   4.546   4.423   0.788
 2946SOL     OW 9736   3.880   3.676   5.174
 2946SOL    HW1 9737   3.851   3.752   5.232
 2946SOL    HW2 9738   3.969   3.698   5.132
 2947SOL     OW 9739   6.664   6.124   0.977
 2947SOL    HW1 9740   6.591   6.102   1.042
 2947SOL    HW2 9741   6.623   6.160   0.893
 2948SOL     OW 9742   0.099   3.515   2.595
 2948SOL    HW1 9743   0.092   3.614   2.599
 2948SOL    HW2 9744   0.196   3.488   2.602
 2949SOL     OW 9745   1.540   6.373   0.574
 2949SOL    HW1 9746   1.594   6.356   0.656
 2949SOL    HW2 9747   1.509   6.468   0.575
 2950SOL     OW 9748   6.365   5.528   2.554
 2950SOL    HW1 9749   6.461   5.513   2.532
 2950SOL    HW2 9750   6.343   5.625   2.544
 2951SOL     OW 9751   6.786   0.973   1.993
 2951SOL    HW1 9752   6.794   0.874   2.004
 2951SOL    HW2 9753   6.716   0.993   1.925
 2952SOL     OW 9754   6.922   1.684   5.333
 2952SOL    HW1 9755   6.947   1.743   5.410
 2952SOL    HW2 9756   6.835   1.715   5.294
 2953SOL     OW 9757   1.198   4.950   3.494
 2953SOL    HW1 9758   1.264   4.883   3.527
 2953SOL    HW2 9759   1.246   5.031   3.460
 2954SOL     OW 9760   0.028   4.403   6.444
 2954SOL    HW1 9761   0.126   4.420   6.456
 2954SOL    HW2 9762   0.014   4.305   6.426
 2955SOL     OW 9763   1.835   4.629   5.655
 2955SOL    HW1 9764   1.876   4.644   5.565
 2955SOL    HW2 9765   1.876   4.691   5.721
 2956SOL     OW 9766   5.462   4.533   4.048
 2956SOL    HW1 9767   5.535   4.565   3.988
 2956SOL    HW2 9768   5.426   4.446   4.013
 2957SOL     OW 9769   2.223   5.422   1.009
 2957SOL    HW1 9770   2.131   5.390   0.990
 2957SOL    HW2 9771   2.254   5.385   1.097
 2958SOL     OW 9772   2.448   4.792   2.655
 2958SOL    HW1 9773   2.381   4.805   2.582
 2958SOL    HW2 9774   2.408   4.820   2.743
 2959SOL     OW 9775   6.879   3.785   3.180
 2959SOL    HW1 9776   6.871   3.691   3.146
 2959SOL    HW2 9777   6.853   3.787   3.277
 2960SOL     OW 9778   5.126   6.994   1.026
 2960SOL    HW1 9779   5.142   6.952   1.115
 2960SOL    HW2 9780   5.185   0.050   1.016
 2961SOL     OW 9781   5.681   3.114   1.990
 2961SOL    HW1 9782   5.639   3.058   2.061
 2961SOL    HW2 9783   5.779   3.125   2.010
 2962SOL     OW 9784   0.173   0.619   3.527
 2962SOL    HW1 9785   0.173   0.582   3.434
 2962SOL    HW2 9786   0.093   0.585   3.576
 2963SOL     OW 9787   1.445   0.677   4.986
 2963SOL    HW1 9788   1.394   0.752   4.944
 2963SOL    HW2 9789   1.543   0.695   4.978
 2964SOL     OW 9790   1.546   1.100   6.427
 2964SOL    HW1 9791   1.616   1.170   6.411
 2964SOL    HW2 9792   1.542   1.080   6.525
 2965SOL     OW 9793   6.795   6.592   5.529
 2965SOL    HW1 9794   6.855   6.636   5.596
 2965SOL    HW2 9795   6.720   6.653   5.506
 2966SOL     OW 9796   2.527   5.887   2.037
 2966SOL    HW1 9797   2.427   5.893   2.041
 2966SOL    HW2 9798   2.559   5.816   2.099
 2967SOL     OW 9799   5.403   0.340   4.805
 2967SOL    HW1 9800   5.478   0.401   4.832
 2967SOL    HW2 9801   5.318   0.371   4.848
 2968SOL     OW 9802   1.089   3.578   1.485
 2968SOL    HW1 9803   1.082   3.678   1.479
 2968SOL    HW2 9804   1.030   3.537   1.416
 2969SOL     OW 9805   4.786   3.095   5.222
 2969SOL    HW1 9806   4.689   3.103   5.244
 2969SOL    HW2 9807   4.825   3.187   5.209
 2970SOL     OW 9808   2.617   2.591   5.678
 2970SOL    HW1 9809   2.689   2.542   5.629
 2970SOL    HW2 9810   2.563   2.645   5.613
 2971SOL     OW 9811   5.072   2.919   5.811
 2971SOL    HW1 9812   5.155   2.968   5.838
 2971SOL    HW2 9813   5.075   2.900   5.712
 2972SOL     OW 9814   6.615   4.985   6.383
 2972SOL    HW1 9815   6.600   5.054   6.312
 2972SOL    HW2 9816   6.646   4.900   6.341
 2973SOL     OW 9817   4.859   1.115   3.842
 2973SOL    HW1 9818   4.785   1.175   3.872
 2973SOL    HW2 9819   4.900   1.151   3.759
 2974SOL     OW 9820   4.359   6.855   1.774
 2974SOL    HW1 9821   4.355   6.875   1.872
 2974SOL    HW2 9822   4.269   6.871   1.732
 2975SOL     OW 9823   5.245   3.576   4.436
 2975SOL    HW1 9824   5.159   3.538   4.403
 2975SOL    HW2 9825   5.315   3.504   4.436
 2976SOL     OW 9826   4.009   0.840   2.064
 2976SOL    HW1 9827   3.942   0.914   2.063
 2976SOL    HW2 9828   4.062   0.843   1.979
 2977SOL     OW 9829   0.800   0.482   1.916
 2977SOL    HW1 9830   0.734   0.496   1.842
 2977SOL    HW2 9831   0.752   0.464   2.001
 2978SOL     OW 9832   4.706   5.355   6.805
 2978SOL    HW1 9833   4.781   5.393   6.750
 2978SOL    HW2 9834   4.619   5.392   6.771
 2979SOL     OW 9835   2.818   1.036   4.794
 2979SOL    HW1 9836   2.758   1.108   4.759
 2979SOL    HW2 9837   2.845   1.059   4.888
 2980SOL     OW 9838   3.260   3.562   4.774
 2980SOL    HW1 9839   3.244   3.618   4.856
 2980SOL    HW2 9840   3.172   3.539   4.733
 2981SOL     OW 9841   2.448   0.620   1.563
 2981SOL    HW1 9842   2.410   0.669   1.484
 2981SOL    HW2 9843   2.378   0.562   1.603
 2982SOL     OW 9844   1.935   0.544   1.262
 2982SOL    HW1 9845   1.839   0.532   1.289
 2982SOL    HW2 9846   1.953   0.641   1.249
 2983SOL     OW 9847   6.264   2.916   5.642
 2983SOL    HW1 9848   6.212   2.836   5.671
 2983SOL    HW2 9849   6.296   2.903   5.548
 2984SOL     OW 9850   0.215   5.809   1.494
 2984SOL    HW1 9851   0.201   5.762   1.581
 2984SOL    HW2 9852   0.260   5.747   1.430
 2985SOL     OW 9853   6.448   0.407   5.856
 2985SOL    HW1 9854   6.364   0.460   5.865
 2985SOL    HW2 9855   6.485   0.387   5.946
 2986SOL     OW 9856   3.559   3.378   2.233
 2986SOL    HW1 9857   3.642   3.324   2.238
 2986SOL    HW2 9858   3.546   3.428   2.319
 2987SOL     OW 9859   2.090   5.876   5.523
 2987SOL    HW1 9860   2.160   5.832   5.467
 2987SOL    HW2 9861   2.101   5.976   5.518
 2988SOL     OW 9862   6.931   1.670   6.540
 2988SOL    HW1 9863   6.886   1.592   6.496
 2988SOL    HW2 9864   6.888   1.755   6.510
 2989SOL     OW 9865   5.197   3.204   4.428
 2989SOL    HW1 9866   5.259   3.200   4.506
 2989SOL    HW2 9867   5.112   3.249   4.455
 2990SOL     OW 9868   5.435   1.845   4.501
 2990SOL    HW1 9869   5.366   1.893   4.556
 2990SOL    HW2 9870   5.435   1.748   4.525
 2991SOL     OW 9871   0.327   3.448   0.602
 2991SOL    HW1 9872   0.364   3.361   0.634
 2991SOL    HW2 9873   0.233   3.459   0.636
 2992SOL     OW 9874   0.384   3.800   5.165
 2992SOL    HW1 9875   0.306   3.858   5.141
 2992SOL    HW2 9876   0.436   3.778   5.083
 2993SOL     OW 9877   2.072   3.809   0.738
 2993SOL    HW1 9878   2.060   3.711   0.718
 2993SOL    HW2 9879   2.061   3.862   0.654
 2994SOL     OW 9880   3.440   5.952   5.704
 2994SOL    HW1 9881   3.390   5.969   5.788
 2994SOL    HW2 9882   3.383   5.899   5.641
 2995SOL     OW 9883   4.479   0.400   1.034
 2995SOL    HW1 9884   4.448   0.486   1.075
 2995SOL    HW2 9885   4.424   0.325   1.070
 2996SOL     OW 9886   6.972   0.511   4.210
 2996SOL    HW1 9887   6.994   0.540   4.303
 2996SOL    HW2 9888   6.910   0.432   4.214
 2997SOL     OW 9889   5.283   6.601   4.550
 2997SOL    HW1 9890   5.333   6.619   4.634
 2997SOL    HW2 9891   5.318   6.517   4.508
 2998SOL     OW 9892   2.791   0.942   1.491
 2998SOL    HW1 9893   2.814   0.915   1.584
 2998SOL    HW2 9894   2.849   1.019   1.463
 2999SOL     OW 9895   2.592   4.977   0.704
 2999SOL    HW1 9896   2.630   4.930   0.784
 2999SOL    HW2 9897   2.510   5.028   0.731
 3000SOL     OW 9898   2.591   4.061   5.490
 3000SOL    HW1 9899   2.516   4.010   5.532
 3000SOL    HW2 9900   2.676   4.043   5.539
 3001SOL     OW 9901   5.622   0.611   6.550
 3001SOL    HW1 9902   5.573   0.621   6.637
 3001SOL    HW2 9903   5.587   0.532   6.501
 3002SOL     OW 9904   1.583   1.797   1.826
 3002SOL    HW1 9905   1.642   1.806   1.906
 3002SOL    HW2 9906   1.575   1.700   1.801
 3003SOL     OW 9907   1.713   6.818   0.345
 3003SOL    HW1 9908   1.703   6.753   0.420
 3003SOL    HW2 9909   1.714   6.769   0.258
 3004SOL     OW 9910   2.604   6.380   3.855
 3004SOL    HW1 9911   2.688   6.377   3.909
 3004SOL    HW2 9912   2.617   6.439   3.776
 3005SOL     OW 9913   1.203   2.371   0.345
 3005SOL    HW1 9914   1.170   2.335   0.432
 3005SOL    HW2 9915   1.133   2.358   0.274
 3006SOL     OW 9916   5.213   1.562   6.161
 3006SOL    HW1 9917   5.163   1.638   6.120
 3006SOL    HW2 9918   5.152   1.511   6.222
 3007SOL     OW 9919   5.947   5.561   6.823
 3007SOL    HW1 9920   5.949   5.507   6.907
 3007SOL    HW2 9921   5.913   5.505   6.747
 3008SOL     OW 9922   4.446   3.607   5.564
 3008SOL    HW1 9923   4.525   3.662   5.593
 3008SOL    HW2 9924   4.466   3.564   5.476
 3009SOL     OW 9925   6.613   3.424   2.190
 3009SOL    HW1 9926   6.600   3.391   2.284
 3009SOL    HW2 9927   6.619   3.524   2.191
 3010SOL     OW 9928   4.486   5.776   0.870
 3010SOL    HW1 9929   4.556   5.714   0.834
 3010SOL    HW2 9930   4.410   5.723   0.907
 3011SOL     OW 9931   6.636   0.836   0.819
 3011SOL    HW1 9932   6.635   0.780   0.902
 3011SOL    HW2 9933   6.709   0.904   0.826
 3012SOL     OW 9934   2.172   2.421   4.857
 3012SOL    HW1 9935   2.095   2.456   4.909
 3012SOL    HW2 9936   2.255   2.473   4.880
 3013SOL     OW 9937   6.804   4.952   5.035
 3013SOL    HW1 9938   6.794   4.916   5.127
 3013SOL    HW2 9939   6.720   4.936   4.983
 3014SOL     OW 9940   5.530   0.364   6.436
 3014SOL    HW1 9941   5.553   0.386   6.341
 3014SOL    HW2 9942   5.456   0.296   6.437
 3015SOL     OW 9943   1.350   0.892   6.432
 3015SOL    HW1 9944   1.357   0.939   6.520
 3015SOL    HW2 9945   1.421   0.926   6.371
 3016SOL     OW 9946   2.316   6.361   4.321
 3016SOL    HW1 9947   2.299   6.405   4.233
 3016SOL    HW2 9948   2.414   6.364   4.341
 3017SOL     OW 9949   1.261   5.347   0.063
 3017SOL    HW1 9950   1.323   5.354   7.010
 3017SOL    HW2 9951   1.312   5.363   0.148
 3018SOL     OW 9952   3.540   0.710   1.505
 3018SOL    HW1 9953   3.473   0.671   1.441
 3018SOL    HW2 9954   3.630   0.673   1.484
 3019SOL     OW 9955   1.873   0.429   5.666
 3019SOL    HW1 9956   1.961   0.406   5.708
 3019SOL    HW2 9957   1.888   0.498   5.595
 3020SOL     OW 9958   6.368   4.168   6.936
 3020SOL    HW1 9959   6.463   4.160   6.965
 3020SOL    HW2 9960   6.323   4.240   6.988
 3021SOL     OW 9961   3.733   0.769   4.692
 3021SOL    HW1 9962   3.727   0.745   4.789
 3021SOL    HW2 9963   3.811   0.723   4.651
 3022SOL     OW 9964   4.369   5.896   3.663
 3022SOL    HW1 9965   4.448   5.874   3.606
 3022SOL    HW2 9966   4.287   5.852   3.627
 3023SOL     OW 9967   5.672   4.788   4.254
 3023SOL    HW1 9968   5.721   4.822   4.335
 3023SOL    HW2 9969   5.621   4.705   4.279
 3024SOL     OW 9970   0.440   0.716   0.423
 3024SOL    HW1 9971   0.536   0.727   0.396
 3024SOL    HW2 9972   0.385   0.785   0.377
 3025SOL     OW 9973   4.020   5.767   0.021
 3025SOL    HW1 9974   4.020   5.841   6.977
 3025SOL    HW2 9975   4.063   5.800   0.105
 3026SOL     OW 9976   0.285   0.535   2.072
 3026SOL    HW1 9977   0.291   0.635   2.064
 3026SOL    HW2 9978   0.339   0.492   2.000
 3027SOL     OW 9979   4.369   0.633   0.354
 3027SOL    HW1 9980   4.411   0.594   0.437
 3027SOL    HW2 9981   4.290   0.577   0.328
 3028SOL     OW 9982   3.126   3.001   5.504
 3028SOL    HW1 9983   3.185   2.975   5.581
 3028SOL    HW2 9984   3.166   3.079   5.457
 3029SOL     OW 9985   6.505   3.464   4.478
 3029SOL    HW1 9986   6.490   3.418   4.565
 3029SOL    HW2 9987   6.576   3.414   4.426
 3030SOL     OW 9988   2.329   2.573   6.161
 3030SOL    HW1 9989   2.398   2.541   6.226
 3030SOL    HW2 9990   2.243   2.591   6.210
 3031SOL     OW 9991   0.990   5.425   1.118
 3031SOL    HW1 9992   1.063   5.439   1.185
 3031SOL    HW2 9993   1.031   5.414   1.027
 3032SOL     OW 9994   2.404   6.896   2.919
 3032SOL    HW1 9995   2.449   6.819   2.965
 3032SOL    HW2 9996   2.306   6.877   2.910
 3033SOL     OW 9997   0.777   1.712   5.330
 3033SOL    HW1 9998   0.800   1.730   5.426
 3033SOL    HW2 9999   0.792   1.794   5.276
 3034SOL     OW10000   6.126   4.272   3.281
 3034SOL    HW110001   6.141   4.174   3.284
 3034SOL    HW210002   6.203   4.319   3.324
 3035SOL     OW10003   0.651   3.407   0.505
 3035SOL    HW110004   0.736   3.357   0.486
 3035SOL    HW210005   0.580   3.380   0.440
 3036SOL     OW10006   3.269   1.841   5.462
 3036SOL    HW110007   3.343   1.909   5.463
 3036SOL    HW210008   3.300   1.758   5.508
 3037SOL     OW10009   1.046   5.709   6.728
 3037SOL    HW110010   1.089   5.760   6.654
 3037SOL    HW210011   0.947   5.713   6.718
 3038SOL     OW10012   5.756   4.810   6.259
 3038SOL    HW110013   5.716   4.719   6.273
 3038SOL    HW210014   5.855   4.804   6.260
 3039SOL     OW10015   6.692   3.723   6.302
 3039SOL    HW110016   6.684   3.823   6.306
 3039SOL    HW210017   6.620   3.681   6.358
 3040SOL     OW10018   5.559   5.097   6.666
 3040SOL    HW110019   5.621   5.174   6.657
 3040SOL    HW210020   5.587   5.024   6.602
 3041SOL     OW10021   1.380   4.563   5.765
 3041SOL    HW110022   1.281   4.576   5.775
 3041SOL    HW210023   1.413   4.617   5.688
 3042SOL     OW10024   0.300   4.774   4.455
 3042SOL    HW110025   0.245   4.857   4.468
 3042SOL    HW210026   0.258   4.698   4.503
 3043SOL     OW10027   2.368   5.812   1.014
 3043SOL    HW110028   2.319   5.824   1.100
 3043SOL    HW210029   2.461   5.779   1.033
 3044SOL     OW10030   3.923   3.943   4.709
 3044SOL    HW110031   3.903   4.022   4.766
 3044SOL    HW210032   3.996   3.966   4.644
 3045SOL     OW10033   4.586   1.960   1.762
 3045SOL    HW110034   4.536   1.935   1.680
 3045SOL    HW210035   4.622   1.878   1.806
 3046SOL     OW10036   5.084   6.703   1.025
 3046SOL    HW110037   4.985   6.715   1.026
 3046SOL    HW210038   5.127   6.785   0.988
 3047SOL     OW10039   5.680   1.199   4.616
 3047SOL    HW110040   5.733   1.257   4.555
 3047SOL    HW210041   5.740   1.157   4.684
 3048SOL     OW10042   3.677   4.865   1.179
 3048SOL    HW110043   3.600   4.822   1.227
 3048SOL    HW210044   3.684   4.828   1.087
 3049SOL     OW10045   1.048   1.748   2.261
 3049SOL    HW110046   1.088   1.834   2.230
 3049SOL    HW210047   0.951   1.761   2.278
 3050SOL     OW10048   3.749   2.368   6.696
 3050SOL    HW110049   3.822   2.373   6.764
 3050SOL    HW210050   3.775   2.421   6.615
 3051SOL     OW10051   2.568   5.123   5.318
 3051SOL    HW110052   2.606   5.174   5.241
 3051SOL    HW210053   2.469   5.115   5.307
 3052SOL     OW10054   6.977   7.013   2.239
 3052SOL    HW110055   6.887   0.025   2.262
 3052SOL    HW210056   0.023   0.045   2.282
 3053SOL     OW10057   1.084   4.457   0.735
 3053SOL    HW110058   1.164   4.399   0.751
 3053SOL    HW210059   1.073   4.472   0.637
 3054SOL     OW10060   4.786   0.776   2.901
 3054SOL    HW110061   4.778   0.699   2.965
 3054SOL    HW210062   4.873   0.823   2.915
 3055SOL     OW10063   5.844   6.232   0.015
 3055SOL    HW110064   5.756   6.270   7.011
 3055SOL    HW210065   5.829   6.159   0.081
 3056SOL     OW10066   4.466   1.532   5.949
 3056SOL    HW110067   4.396   1.462   5.962
 3056SOL    HW210068   4.475   1.553   5.852
 3057SOL     OW10069   5.178   3.965   2.763
 3057SOL    HW110070   5.272   3.997   2.763
 3057SOL    HW210071   5.144   3.960   2.669
 3058SOL     OW10072   0.482   4.302   6.237
 3058SOL    HW110073   0.432   4.290   6.323
 3058SOL    HW210074   0.438   4.374   6.183
 3059SOL     OW10075   1.408   1.795   2.785
 3059SOL    HW110076   1.383   1.891   2.801
 3059SOL    HW210077   1.404   1.776   2.687
 3060SOL     OW10078   5.711   4.383   4.232
 3060SOL    HW110079   5.630   4.423   4.275
 3060SOL    HW210080   5.790   4.440   4.252
 3061SOL     OW10081   5.783   0.455   3.610
 3061SOL    HW110082   5.736   0.389   3.669
 3061SOL    HW210083   5.878   0.464   3.640
 3062SOL     OW10084   4.089   4.288   0.993
 3062SOL    HW110085   4.186   4.288   1.018
 3062SOL    HW210086   4.075   4.228   0.914
 3063SOL     OW10087   0.350   4.682   2.754
 3063SOL    HW110088   0.251   4.688   2.739
 3063SOL    HW210089   0.368   4.640   2.843
 3064SOL     OW10090   5.123   2.471   6.587
 3064SOL    HW110091   5.037   2.507   6.550
 3064SOL    HW210092   5.199   2.529   6.555
 3065SOL     OW10093   5.889   1.533   6.772
 3065SOL    HW110094   5.838   1.583   6.702
 3065SOL    HW210095   5.933   1.598   6.835
 3066SOL     OW10096   5.637   0.123   4.916
 3066SOL    HW110097   5.659   0.219   4.895
 3066SOL    HW210098   5.594   0.081   4.836
 3067SOL     OW10099   1.165   2.671   5.346
 3067SOL    HW110100   1.100   2.738   5.383
 3067SOL    HW210101   1.250   2.675   5.397
 3068SOL     OW10102   6.938   0.533   0.840
 3068SOL    HW110103   6.843   0.516   0.868
 3068SOL    HW210104   6.939   0.560   0.743
 3069SOL     OW10105   4.987   6.454   3.966
 3069SOL    HW110106   5.083   6.453   3.992
 3069SOL    HW210107   4.938   6.522   4.020
 3070SOL     OW10108   2.095   0.777   0.719
 3070SOL    HW110109   2.133   0.861   0.679
 3070SOL    HW210110   2.146   0.698   0.686
 3071SOL     OW10111   5.840   4.920   5.284
 3071SOL    HW110112   5.803   4.854   5.219
 3071SOL    HW210113   5.824   5.013   5.251
 3072SOL     OW10114   1.838   6.791   6.616
 3072SOL    HW110115   1.896   6.754   6.544
 3072SOL    HW210116   1.791   6.716   6.663
 3073SOL     OW10117   0.553   5.518   1.681
 3073SOL    HW110118   0.635   5.465   1.701
 3073SOL    HW210119   0.513   5.551   1.766
 3074SOL     OW10120   3.248   2.748   1.908
 3074SOL    HW110121   3.306   2.675   1.873
 3074SOL    HW210122   3.155   2.736   1.874
 3075SOL     OW10123   2.976   5.016   1.406
 3075SOL    HW110124   3.008   5.072   1.482
 3075SOL    HW210125   2.990   5.065   1.320
 3076SOL     OW10126   0.812   0.698   5.320
 3076SOL    HW110127   0.886   0.764   5.332
 3076SOL    HW210128   0.825   0.647   5.235
 3077SOL     OW10129   0.190   4.114   2.317
 3077SOL    HW110130   0.107   4.068   2.285
 3077SOL    HW210131   0.260   4.046   2.339
 3078SOL     OW10132   0.047   3.402   1.723
 3078SOL    HW110133   6.990   3.427   1.775
 3078SOL    HW210134   0.077   3.310   1.750
 3079SOL     OW10135   2.251   3.759   5.213
 3079SOL    HW110136   2.320   3.691   5.238
 3079SOL    HW210137   2.297   3.842   5.181
 3080SOL     OW10138   3.410   4.380   1.091
 3080SOL    HW110139   3.394   4.373   1.190
 3080SOL    HW210140   3.330   4.346   1.042
 3081SOL     OW10141   1.627   3.730   0.429
 3081SOL    HW110142   1.607   3.640   0.468
 3081SOL    HW210143   1.562   3.797   0.467
 3082SOL     OW10144   5.365   5.431   4.836
 3082SOL    HW110145   5.288   5.370   4.818
 3082SOL    HW210146   5.333   5.510   4.889
 3083SOL     OW10147   3.887   5.559   1.909
 3083SOL    HW110148   3.976   5.583   1.945
 3083SOL    HW210149   3.885   5.461   1.887
 3084SOL     OW10150   6.877   4.761   4.039
 3084SOL    HW110151   6.856   4.721   3.950
 3084SOL    HW210152   6.792   4.793   4.082
 3085SOL     OW10153   6.053   5.355   0.332
 3085SOL    HW110154   5.995   5.290   0.381
 3085SOL    HW210155   6.138   5.311   0.306
 3086SOL     OW10156   6.099   6.297   6.344
 3086SOL    HW110157   6.038   6.223   6.372
 3086SOL    HW210158   6.151   6.330   6.423
 3087SOL     OW10159   3.940   0.022   2.336
 3087SOL    HW110160   4.034   7.011   2.328
 3087SOL    HW210161   3.923   0.053   2.429
 3088SOL     OW10162   2.097   3.479   5.871
 3088SOL    HW110163   2.139   3.494   5.960
 3088SOL    HW210164   2.025   3.410   5.879
 3089SOL     OW10165   4.661   5.091   6.161
 3089SOL    HW110166   4.658   5.151   6.081
 3089SOL    HW210167   4.616   5.004   6.138
 3090SOL     OW10168   0.287   2.766   2.100
 3090SOL    HW110169   0.311   2.862   2.116
 3090SOL    HW210170   0.273   2.720   2.187
 3091SOL     OW10171   0.575   3.053   0.913
 3091SOL    HW110172   0.593   3.027   0.818
 3091SOL    HW210173   0.479   3.033   0.934
 3092SOL     OW10174   5.870   1.397   2.134
 3092SOL    HW110175   5.776   1.364   2.131
 3092SOL    HW210176   5.870   1.496   2.144
 3093SOL     OW10177   6.343   5.478   7.021
 3093SOL    HW110178   6.400   5.439   6.949
 3093SOL    HW210179   6.249   5.447   7.009
 3094SOL     OW10180   2.114   1.692   0.069
 3094SOL    HW110181   2.194   1.632   0.071
 3094SOL    HW210182   2.142   1.785   0.045
 3095SOL     OW10183   1.867   4.056   5.926
 3095SOL    HW110184   1.777   4.080   5.891
 3095SOL    HW210185   1.925   4.138   5.928
 3096SOL     OW10186   0.505   2.999   4.209
 3096SOL    HW110187   0.478   2.934   4.280
 3096SOL    HW210188   0.484   2.961   4.119
 3097SOL     OW10189   5.299   3.119   4.889
 3097SOL    HW110190   5.387   3.083   4.859
 3097SOL    HW210191   5.293   3.113   4.989
 3098SOL     OW10192   2.107   3.427   3.367
 3098SOL    HW110193   2.136   3.416   3.272
 3098SOL    HW210194   2.009   3.405   3.374
 3099SOL     OW10195   0.171   6.346   4.575
 3099SOL    HW110196   0.184   6.266   4.515
 3099SOL    HW210197   0.228   6.421   4.543
 3100SOL     OW10198   5.513   4.941   1.761
 3100SOL    HW110199   5.456   4.924   1.680
 3100SOL    HW210200   5.585   5.006   1.738
 3101SOL     OW10201   4.526   6.650   5.019
 3101SOL    HW110202   4.468   6.569   5.014
 3101SOL    HW210203   4.509   6.709   4.940
 3102SOL     OW10204   6.550   4.996   2.047
 3102SOL    HW110205   6.478   4.966   1.985
 3102SOL    HW210206   6.573   5.091   2.028
 3103SOL     OW10207   3.293   1.511   1.411
 3103SOL    HW110208   3.318   1.576   1.339
 3103SOL    HW210209   3.351   1.527   1.491
 3104SOL     OW10210   4.994   1.861   4.847
 3104SOL    HW110211   4.908   1.846   4.895
 3104SOL    HW210212   4.991   1.814   4.758
 3105SOL     OW10213   5.811   3.786   6.797
 3105SOL    HW110214   5.876   3.712   6.811
 3105SOL    HW210215   5.850   3.853   6.734
 3106SOL     OW10216   5.554   1.378   5.679
 3106SOL    HW110217   5.537   1.290   5.722
 3106SOL    HW210218   5.480   1.441   5.703
 3107SOL     OW10219   2.783   1.802   5.190
 3107SOL    HW110220   2.808   1.899   5.182
 3107SOL    HW210221   2.863   1.749   5.219
 3108SOL     OW10222   2.292   4.263   3.266
 3108SOL    HW110223   2.376   4.299   3.226
 3108SOL    HW210224   2.213   4.298   3.215
 3109SOL     OW10225   6.795   6.418   4.312
 3109SOL    HW110226   6.787   6.325   4.348
 3109SOL    HW210227   6.716   6.437   4.253
 3110SOL     OW10228   0.782   5.175   3.095
 3110SOL    HW110229   0.735   5.221   3.020
 3110SOL    HW210230   0.764   5.077   3.091
 3111SOL     OW10231   5.686   4.342   3.719
 3111SOL    HW110232   5.705   4.358   3.816
 3111SOL    HW210233   5.739   4.406   3.664
 3112SOL     OW10234   3.591   1.375   6.193
 3112SOL    HW110235   3.690   1.385   6.191
 3112SOL    HW210236   3.551   1.442   6.255
 3113SOL     OW10237   1.946   6.330   3.293
 3113SOL    HW110238   1.878   6.390   3.334
 3113SOL    HW210239   1.927   6.235   3.319
 3114SOL     OW10240   4.650   1.501   6.166
 3114SOL    HW110241   4.589   1.514   6.087
 3114SOL    HW210242   4.616   1.553   6.244
 3115SOL     OW10243   4.825   5.299   5.378
 3115SOL    HW110244   4.886   5.374   5.403
 3115SOL    HW210245   4.822   5.290   5.278
 3116SOL     OW10246   0.812   0.635   0.208
 3116SOL    HW110247   0.824   0.630   0.109
 3116SOL    HW210248   0.890   0.681   0.249
 3117SOL     OW10249   4.714   0.460   6.263
 3117SOL    HW110250   4.670   0.477   6.351
 3117SOL    HW210251   4.793   0.401   6.276
 3118SOL     OW10252   1.261   1.667   3.504
 3118SOL    HW110253   1.168   1.663   3.542
 3118SOL    HW210254   1.303   1.753   3.531
 3119SOL     OW10255   4.921   5.519   5.071
 3119SOL    HW110256   4.907   5.554   4.978
 3119SOL    HW210257   4.835   5.525   5.122
 3120SOL     OW10258   2.546   5.961   6.147
 3120SOL    HW110259   2.543   6.047   6.199
 3120SOL    HW210260   2.624   5.907   6.178
 3121SOL     OW10261   3.582   1.881   3.959
 3121SOL    HW110262   3.604   1.894   4.056
 3121SOL    HW210263   3.493   1.836   3.952
 3122SOL     OW10264   5.437   5.038   5.130
 3122SOL    HW110265   5.503   5.025   5.056
 3122SOL    HW210266   5.344   5.036   5.093
 3123SOL     OW10267   1.554   1.559   3.221
 3123SOL    HW110268   1.603   1.543   3.135
 3123SOL    HW210269   1.581   1.648   3.258
 3124SOL     OW10270   4.677   0.430   4.480
 3124SOL    HW110271   4.742   0.358   4.505
 3124SOL    HW210272   4.631   0.463   4.563
 3125SOL     OW10273   1.751   1.155   5.240
 3125SOL    HW110274   1.705   1.074   5.275
 3125SOL    HW210275   1.725   1.234   5.295
 3126SOL     OW10276   5.211   5.156   5.593
 3126SOL    HW110277   5.296   5.109   5.618
 3126SOL    HW210278   5.133   5.099   5.619
 3127SOL     OW10279   0.325   1.072   5.101
 3127SOL    HW110280   0.337   0.991   5.043
 3127SOL    HW210281   0.233   1.072   5.139
 3128SOL     OW10282   3.472   0.847   0.903
 3128SOL    HW110283   3.481   0.756   0.945
 3128SOL    HW210284   3.456   0.915   0.974
 3129SOL     OW10285   4.450   3.587   0.423
 3129SOL    HW110286   4.406   3.532   0.493
 3129SOL    HW210287   4.413   3.680   0.426
 3130SOL     OW10288   6.736   5.543   1.908
 3130SOL    HW110289   6.692   5.631   1.922
 3130SOL    HW210290   6.694   5.496   1.830
 3131SOL     OW10291   6.242   4.455   2.755
 3131SOL    HW110292   6.257   4.527   2.688
 3131SOL    HW210293   6.278   4.484   2.844
 3132SOL     OW10294   4.493   4.095   0.353
 3132SOL    HW110295   4.564   4.065   0.290
 3132SOL    HW210296   4.516   4.185   0.390
 3133SOL     OW10297   4.454   0.354   4.333
 3133SOL    HW110298   4.482   0.335   4.239
 3133SOL    HW210299   4.535   0.370   4.390
 3134SOL     OW10300   5.869   5.273   2.577
 3134SOL    HW110301   5.833   5.337   2.645
 3134SOL    HW210302   5.933   5.320   2.516
 3135SOL     OW10303   4.161   5.409   6.600
 3135SOL    HW110304   4.209   5.322   6.606
 3135SOL    HW210305   4.204   5.467   6.531
 3136SOL     OW10306   6.790   1.420   3.473
 3136SOL    HW110307   6.709   1.478   3.480
 3136SOL    HW210308   6.871   1.472   3.500
 3137SOL     OW10309   5.677   6.648   6.644
 3137SOL    HW110310   5.701   6.570   6.587
 3137SOL    HW210311   5.621   6.617   6.721
 3138SOL     OW10312   5.936   6.281   5.005
 3138SOL    HW110313   5.849   6.232   4.997
 3138SOL    HW210314   5.996   6.230   5.067
 3139SOL     OW10315   2.720   5.203   1.501
 3139SOL    HW110316   2.798   5.266   1.491
 3139SOL    HW210317   2.685   5.209   1.595
 3140SOL     OW10318   0.050   6.222   0.096
 3140SOL    HW110319   7.012   6.160   0.143
 3140SOL    HW210320   0.004   6.262   0.016
 3141SOL     OW10321   6.432   1.565   6.421
 3141SOL    HW110322   6.362   1.537   6.355
 3141SOL    HW210323   6.482   1.484   6.452
 3142SOL     OW10324   4.100   0.606   3.807
 3142SOL    HW110325   4.188   0.601   3.854
 3142SOL    HW210326   4.086   0.699   3.771
 3143SOL     OW10327   6.426   1.477   0.534
 3143SOL    HW110328   6.380   1.553   0.582
 3143SOL    HW210329   6.517   1.507   0.505
 3144SOL     OW10330   4.075   3.939   0.417
 3144SOL    HW110331   4.073   3.997   0.336
 3144SOL    HW210332   3.991   3.886   0.422
 3145SOL     OW10333   0.510   6.075   0.263
 3145SOL    HW110334   0.487   6.006   0.194
 3145SOL    HW210335   0.480   6.165   0.231
 3146SOL     OW10336   6.790   1.072   5.002
 3146SOL    HW110337   6.848   1.128   5.061
 3146SOL    HW210338   6.801   1.101   4.907
 3147SOL     OW10339   3.517   5.760   0.305
 3147SOL    HW110340   3.505   5.845   0.356
 3147SOL    HW210341   3.455   5.758   0.226
 3148SOL     OW10342   6.638   5.376   1.681
 3148SOL    HW110343   6.584   5.438   1.624
 3148SOL    HW210344   6.668   5.298   1.626
 3149SOL     OW10345   3.044   2.244   6.962
 3149SOL    HW110346   2.954   2.229   6.921
 3149SOL    HW210347   3.110   2.180   6.922
 3150SOL     OW10348   6.357   5.839   5.590
 3150SOL    HW110349   6.382   5.846   5.686
 3150SOL    HW210350   6.266   5.798   5.581
 3151SOL     OW10351   0.182   0.413   5.561
 3151SOL    HW110352   0.153   0.488   5.620
 3151SOL    HW210353   0.267   0.438   5.515
 3152SOL     OW10354   1.429   3.382   6.013
 3152SOL    HW110355   1.396   3.403   6.104
 3152SOL    HW210356   1.356   3.397   5.946
 3153SOL     OW10357   6.140   5.082   1.665
 3153SOL    HW110358   6.218   5.145   1.676
 3153SOL    HW210359   6.168   5.002   1.613
 3154SOL     OW10360   4.560   1.121   6.969
 3154SOL    HW110361   4.517   1.038   6.933
 3154SOL    HW210362   4.490   1.190   6.988
 3155SOL     OW10363   1.038   4.615   0.478
 3155SOL    HW110364   1.031   4.651   0.385
 3155SOL    HW210365   1.022   4.688   0.544
 3156SOL     OW10366   3.691   4.216   1.802
 3156SOL    HW110367   3.746   4.163   1.866
 3156SOL    HW210368   3.599   4.176   1.796
 3157SOL     OW10369   0.956   1.246   5.506
 3157SOL    HW110370   1.003   1.329   5.538
 3157SOL    HW210371   0.992   1.219   5.417
 3158SOL     OW10372   1.593   1.042   6.108
 3158SOL    HW110373   1.612   1.135   6.142
 3158SOL    HW210374   1.666   1.013   6.047
 3159SOL     OW10375   5.944   0.386   6.893
 3159SOL    HW110376   5.972   0.337   6.810
 3159SOL    HW210377   5.847   0.408   6.887
 3160SOL     OW10378   1.692   0.367   5.863
 3160SOL    HW110379   1.746   0.419   5.798
 3160SOL    HW210380   1.750   0.335   5.937
 3161SOL     OW10381   2.116   2.562   1.908
 3161SOL    HW110382   2.212   2.590   1.902
 3161SOL    HW210383   2.109   2.464   1.890
 3162SOL     OW10384   1.890   5.855   1.293
 3162SOL    HW110385   1.972   5.846   1.235
 3162SOL    HW210386   1.818   5.901   1.241
 3163SOL     OW10387   4.061   4.136   0.229
 3163SOL    HW110388   4.105   4.223   0.204
 3163SOL    HW210389   3.962   4.143   0.215
 3164SOL     OW10390   2.428   6.528   3.297
 3164SOL    HW110391   2.365   6.569   3.363
 3164SOL    HW210392   2.379   6.464   3.239
 3165SOL     OW10393   0.901   6.976   6.532
 3165SOL    HW110394   0.964   6.919   6.584
 3165SOL    HW210395   0.833   7.015   6.594
 3166SOL     OW10396   5.193   1.092   5.043
 3166SOL    HW110397   5.181   1.191   5.049
 3166SOL    HW210398   5.289   1.069   5.059
 3167SOL     OW10399   5.254   2.997   0.597
 3167SOL    HW110400   5.290   3.067   0.534
 3167SOL    HW210401   5.232   3.040   0.685
 3168SOL     OW10402   4.607   1.898   0.520
 3168SOL    HW110403   4.695   1.922   0.561
 3168SOL    HW210404   4.622   1.840   0.441
 3169SOL     OW10405   2.489   4.500   1.802
 3169SOL    HW110406   2.584   4.524   1.783
 3169SOL    HW210407   2.465   4.532   1.894
 3170SOL     OW10408   2.091   3.727   3.254
 3170SOL    HW110409   2.083   3.681   3.343
 3170SOL    HW210410   2.111   3.824   3.268
 3171SOL     OW10411   5.780   2.483   3.670
 3171SOL    HW110412   5.877   2.488   3.644
 3171SOL    HW210413   5.740   2.400   3.633
 3172SOL     OW10414   5.992   3.913   1.748
 3172SOL    HW110415   6.033   3.997   1.781
 3172SOL    HW210416   6.007   3.839   1.814
 3173SOL     OW10417   4.482   3.040   0.278
 3173SOL    HW110418   4.425   2.987   0.216
 3173SOL    HW210419   4.429   3.117   0.314
 3174SOL     OW10420   3.082   3.362   6.522
 3174SOL    HW110421   3.168   3.375   6.472
 3174SOL    HW210422   3.091   3.284   6.584
 3175SOL     OW10423   5.591   0.803   4.950
 3175SOL    HW110424   5.587   0.897   4.984
 3175SOL    HW210425   5.506   0.781   4.902
 3176SOL     OW10426   0.514   4.624   4.394
 3176SOL    HW110427   0.426   4.673   4.395
 3176SOL    HW210428   0.578   4.670   4.455
 3177SOL     OW10429   5.307   3.714   3.602
 3177SOL    HW110430   5.213   3.680   3.609
 3177SOL    HW210431   5.314   3.802   3.648
 3178SOL     OW10432   6.553   0.797   1.994
 3178SOL    HW110433   6.516   0.882   2.032
 3178SOL    HW210434   6.501   0.771   1.913
 3179SOL     OW10435   1.385   2.253   1.818
 3179SOL    HW110436   1.332   2.169   1.829
 3179SOL    HW210437   1.335   2.329   1.861
 3180SOL     OW10438   0.168   5.901   0.397
 3180SOL    HW110439   0.122   5.891   0.485
 3180SOL    HW210440   0.223   5.985   0.398
 3181SOL     OW10441   1.637   6.745   4.940
 3181SOL    HW110442   1.704   6.760   5.012
 3181SOL    HW210443   1.549   6.721   4.981
 3182SOL     OW10444   2.033   1.146   0.853
 3182SOL    HW110445   2.065   1.068   0.906
 3182SOL    HW210446   1.936   1.163   0.874
 3183SOL     OW10447   3.773   3.840   1.104
 3183SOL    HW110448   3.703   3.880   1.164
 3183SOL    HW210449   3.748   3.745   1.083
 3184SOL     OW10450   0.485   2.428   4.737
 3184SOL    HW110451   0.490   2.341   4.786
 3184SOL    HW210452   0.418   2.421   4.663
 3185SOL     OW10453   0.771   5.644   6.720
 3185SOL    HW110454   0.721   5.726   6.692
 3185SOL    HW210455   0.718   5.563   6.695
 3186SOL     OW10456   0.209   1.638   6.516
 3186SOL    HW110457   0.242   1.684   6.433
 3186SOL    HW210458   0.110   1.645   6.521
 3187SOL     OW10459   4.872   6.079   2.631
 3187SOL    HW110460   4.906   6.013   2.564
 3187SOL    HW210461   4.919   6.066   2.718
 3188SOL     OW10462   2.083   5.504   6.921
 3188SOL    HW110463   1.987   5.478   6.932
 3188SOL    HW210464   2.090   5.581   6.858
 3189SOL     OW10465   3.467   1.552   5.443
 3189SOL    HW110466   3.473   1.652   5.436
 3189SOL    HW210467   3.371   1.525   5.451
 3190SOL     OW10468   5.693   6.375   4.431
 3190SOL    HW110469   5.714   6.414   4.342
 3190SOL    HW210470   5.773   6.328   4.467
 3191SOL     OW10471   3.533   5.536   1.089
 3191SOL    HW110472   3.499   5.627   1.062
 3191SOL    HW210473   3.624   5.545   1.129
 3192SOL     OW10474   5.605   1.801   2.713
 3192SOL    HW110475   5.510   1.810   2.744
 3192SOL    HW210476   5.632   1.705   2.714
 3193SOL     OW10477   3.411   0.033   4.706
 3193SOL    HW110478   3.343   0.067   4.771
 3193SOL    HW210479   3.469   0.109   4.676
 3194SOL     OW10480   1.572   0.294   6.857
 3194SOL    HW110481   1.621   0.349   6.790
 3194SOL    HW210482   1.474   0.298   6.837
 3195SOL     OW10483   0.261   1.466   1.686
 3195SOL    HW110484   0.338   1.447   1.625
 3195SOL    HW210485   0.258   1.399   1.759
 3196SOL     OW10486   6.063   0.238   3.521
 3196SOL    HW110487   6.048   0.331   3.555
 3196SOL    HW210488   6.133   0.239   3.450
 3197SOL     OW10489   1.778   0.849   6.561
 3197SOL    HW110490   1.714   0.905   6.612
 3197SOL    HW210491   1.804   0.896   6.477
 3198SOL     OW10492   5.427   2.895   3.295
 3198SOL    HW110493   5.401   2.916   3.389
 3198SOL    HW210494   5.511   2.841   3.295
 3199SOL     OW10495   5.496   4.283   2.661
 3199SOL    HW110496   5.473   4.187   2.678
 3199SOL    HW210497   5.596   4.292   2.657
 3200SOL     OW10498   5.402   4.033   3.271
 3200SOL    HW110499   5.392   4.109   3.335
 3200SOL    HW210500   5.389   3.947   3.320
 3201SOL     OW10501   6.058   4.741   2.512
 3201SOL    HW110502   6.038   4.761   2.416
 3201SOL    HW210503   6.010   4.806   2.570
 3202SOL     OW10504   1.912   3.555   7.000
 3202SOL    HW110505   1.879   3.594   0.062
 3202SOL    HW210506   1.964   3.472   7.019
 3203SOL     OW10507   3.703   6.801   1.271
 3203SOL    HW110508   3.696   6.854   1.187
 3203SOL    HW210509   3.768   6.726   1.258
 3204SOL     OW10510   3.270   1.206   2.944
 3204SOL    HW110511   3.210   1.137   2.983
 3204SOL    HW210512   3.228   1.296   2.954
 3205SOL     OW10513   4.795   3.631   5.880
 3205SOL    HW110514   4.852   3.570   5.826
 3205SOL    HW210515   4.853   3.697   5.928
 3206SOL     OW10516   3.353   3.253   0.934
 3206SOL    HW110517   3.314   3.279   1.022
 3206SOL    HW210518   3.417   3.177   0.946
 3207SOL     OW10519   1.827   5.298   5.864
 3207SOL    HW110520   1.845   5.389   5.900
 3207SOL    HW210521   1.884   5.231   5.911
 3208SOL     OW10522   6.325   4.873   6.259
 3208SOL    HW110523   6.406   4.815   6.264
 3208SOL    HW210524   6.342   4.958   6.308
 3209SOL     OW10525   5.102   5.621   6.517
 3209SOL    HW110526   5.135   5.527   6.505
 3209SOL    HW210527   5.180   5.682   6.532
 3210SOL     OW10528   5.818   5.898   2.030
 3210SOL    HW110529   5.897   5.856   2.075
 3210SOL    HW210530   5.743   5.832   2.026
 3211SOL     OW10531   1.341   5.608   6.300
 3211SOL    HW110532   1.397   5.526   6.292
 3211SOL    HW210533   1.255   5.585   6.346
 3212SOL     OW10534   1.782   0.775   3.099
 3212SOL    HW110535   1.683   0.772   3.083
 3212SOL    HW210536   1.799   0.793   3.196
 3213SOL     OW10537   1.176   0.317   6.300
 3213SOL    HW110538   1.088   0.270   6.288
 3213SOL    HW210539   1.251   0.252   6.285
 3214SOL     OW10540   3.314   0.977   2.304
 3214SOL    HW110541   3.276   1.063   2.339
 3214SOL    HW210542   3.241   0.912   2.287
 3215SOL     OW10543   2.170   3.159   1.557
 3215SOL    HW110544   2.201   3.115   1.641
 3215SOL    HW210545   2.156   3.256   1.574
 3216SOL     OW10546   5.966   4.832   0.950
 3216SOL    HW110547   5.989   4.890   1.028
 3216SOL    HW210548   5.867   4.818   0.946
 3217SOL     OW10549   0.179   5.807   2.563
 3217SOL    HW110550   0.137   5.787   2.474
 3217SOL    HW210551   0.133   5.885   2.605
 3218SOL     OW10552   5.128   1.180   3.088
 3218SOL    HW110553   5.037   1.206   3.120
 3218SOL    HW210554   5.174   1.126   3.159
 3219SOL     OW10555   6.026   1.276   5.298
 3219SOL    HW110556   5.956   1.341   5.270
 3219SOL    HW210557   6.029   1.271   5.398
 3220SOL     OW10558   6.860   4.546   6.336
 3220SOL    HW110559   6.932   4.493   6.380
 3220SOL    HW210560   6.789   4.484   6.302
 3221SOL     OW10561   3.477   1.062   1.063
 3221SOL    HW110562   3.528   1.130   1.010
 3221SOL    HW210563   3.438   1.105   1.144
 3222SOL     OW10564   3.330   1.632   2.798
 3222SOL    HW110565   3.258   1.678   2.850
 3222SOL    HW210566   3.290   1.587   2.719
 3223SOL     OW10567   1.487   5.897   0.663
 3223SOL    HW110568   1.410   5.867   0.720
 3223SOL    HW210569   1.452   5.938   0.579
 3224SOL     OW10570   3.379   2.129   3.470
 3224SOL    HW110571   3.469   2.146   3.430
 3224SOL    HW210572   3.383   2.143   3.569
 3225SOL     OW10573   3.847   1.005   4.076
 3225SOL    HW110574   3.868   1.101   4.091
 3225SOL    HW210575   3.923   0.948   4.108
 3226SOL     OW10576   6.288   0.476   0.698
 3226SOL    HW110577   6.327   0.452   0.609
 3226SOL    HW210578   6.350   0.537   0.747
 3227SOL     OW10579   5.048   4.764   5.081
 3227SOL    HW110580   5.112   4.816   5.138
 3227SOL    HW210581   5.058   4.666   5.101
 3228SOL     OW10582   2.567   4.038   0.250
 3228SOL    HW110583   2.571   3.938   0.239
 3228SOL    HW210584   2.657   4.077   0.232
 3229SOL     OW10585   1.457   1.519   0.311
 3229SOL    HW110586   1.448   1.584   0.386
 3229SOL    HW210587   1.548   1.476   0.315
 3230SOL     OW10588   3.104   6.145   5.791
 3230SOL    HW110589   3.056   6.058   5.787
 3230SOL    HW210590   3.124   6.168   5.886
 3231SOL     OW10591   2.070   2.192   2.484
 3231SOL    HW110592   2.089   2.280   2.526
 3231SOL    HW210593   2.007   2.140   2.541
 3232SOL     OW10594   3.782   5.255   4.291
 3232SOL    HW110595   3.699   5.212   4.253
 3232SOL    HW210596   3.784   5.352   4.264
 3233SOL     OW10597   0.369   1.856   0.439
 3233SOL    HW110598   0.330   1.799   0.366
 3233SOL    HW210599   0.467   1.867   0.424
 3234SOL     OW10600   2.543   2.652   0.585
 3234SOL    HW110601   2.601   2.723   0.624
 3234SOL    HW210602   2.472   2.626   0.651
 3235SOL     OW10603   0.760   0.020   3.047
 3235SOL    HW110604   0.783   0.063   2.960
 3235SOL    HW210605   0.696   6.970   3.032
 3236SOL     OW10606   3.778   2.297   0.045
 3236SOL    HW110607   3.756   2.212   7.022
 3236SOL    HW210608   3.701   2.361   0.037
 3237SOL     OW10609   6.075   1.963   5.211
 3237SOL    HW110610   6.125   1.892   5.163
 3237SOL    HW210611   6.010   2.007   5.149
 3238SOL     OW10612   6.581   4.754   1.756
 3238SOL    HW110613   6.519   4.818   1.802
 3238SOL    HW210614   6.530   4.704   1.687
 3239SOL     OW10615   6.980   0.014   4.679
 3239SOL    HW110616   6.962   6.940   4.671
 3239SOL    HW210617   6.924   0.052   4.752
 3240SOL     OW10618   0.480   0.267   0.309
 3240SOL    HW110619   0.382   0.266   0.286
 3240SOL    HW210620   0.498   0.340   0.375
 3241SOL     OW10621   5.866   2.022   5.820
 3241SOL    HW110622   5.885   2.119   5.829
 3241SOL    HW210623   5.851   2.000   5.724
 3242SOL     OW10624   5.683   3.812   4.581
 3242SOL    HW110625   5.640   3.815   4.671
 3242SOL    HW210626   5.661   3.896   4.531
 3243SOL     OW10627   5.981   4.782   4.351
 3243SOL    HW110628   5.926   4.828   4.420
 3243SOL    HW210629   5.986   4.839   4.269
 3244SOL     OW10630   5.334   0.181   6.763
 3244SOL    HW110631   5.430   0.151   6.758
 3244SOL    HW210632   5.299   0.195   6.671
 3245SOL     OW10633   4.099   1.015   5.442
 3245SOL    HW110634   4.164   1.023   5.367
 3245SOL    HW210635   4.111   1.091   5.506
 3246SOL     OW10636   6.895   0.303   2.979
 3246SOL    HW110637   6.901   0.389   2.928
 3246SOL    HW210638   6.823   0.247   2.940
 3247SOL     OW10639   0.481   4.253   3.318
 3247SOL    HW110640   0.503   4.347   3.291
 3247SOL    HW210641   0.443   4.204   3.240
 3248SOL     OW10642   5.481   2.112   3.461
 3248SOL    HW110643   5.453   2.047   3.390
 3248SOL    HW210644   5.542   2.065   3.525
 3249SOL     OW10645   2.977   3.595   4.082
 3249SOL    HW110646   2.977   3.664   4.155
 3249SOL    HW210647   2.931   3.512   4.114
 3250SOL     OW10648   4.863   5.269   2.739
 3250SOL    HW110649   4.913   5.186   2.714
 3250SOL    HW210650   4.767   5.260   2.711
 3251SOL     OW10651   2.249   1.771   2.826
 3251SOL    HW110652   2.338   1.747   2.864
 3251SOL    HW210653   2.253   1.769   2.726
 3252SOL     OW10654   1.925   1.143   3.383
 3252SOL    HW110655   1.896   1.049   3.366
 3252SOL    HW210656   1.845   1.203   3.387
 3253SOL     OW10657   6.930   3.989   0.377
 3253SOL    HW110658   6.933   3.966   0.475
 3253SOL    HW210659   7.003   3.939   0.329
 3254SOL     OW10660   6.333   0.188   0.760
 3254SOL    HW110661   6.294   0.279   0.742
 3254SOL    HW210662   6.273   0.138   0.822
 3255SOL     OW10663   4.965   5.592   1.181
 3255SOL    HW110664   5.055   5.634   1.195
 3255SOL    HW210665   4.946   5.584   1.083
 3256SOL     OW10666   4.747   2.151   1.185
 3256SOL    HW110667   4.790   2.238   1.161
 3256SOL    HW210668   4.662   2.142   1.132
 3257SOL     OW10669   2.429   2.434   3.037
 3257SOL    HW110670   2.354   2.369   3.022
 3257SOL    HW210671   2.516   2.385   3.032
 3258SOL     OW10672   2.534   5.453   3.328
 3258SOL    HW110673   2.513   5.549   3.347
 3258SOL    HW210674   2.620   5.428   3.373
 3259SOL     OW10675   5.286   4.397   3.655
 3259SOL    HW110676   5.329   4.485   3.636
 3259SOL    HW210677   5.188   4.410   3.670
 3260SOL     OW10678   0.995   4.165   3.041
 3260SOL    HW110679   1.094   4.175   3.048
 3260SOL    HW210680   0.969   4.071   3.060
 3261SOL     OW10681   5.470   6.863   3.708
 3261SOL    HW110682   5.439   6.902   3.795
 3261SOL    HW210683   5.422   6.908   3.632
 3262SOL     OW10684   2.993   2.043   2.929
 3262SOL    HW110685   2.915   1.981   2.943
 3262SOL    HW210686   3.013   2.091   3.014
 3263SOL     OW10687   0.144   1.346   2.412
 3263SOL    HW110688   0.081   1.269   2.412
 3263SOL    HW210689   0.142   1.392   2.323
 3264SOL     OW10690   1.595   4.767   6.888
 3264SOL    HW110691   1.648   4.689   6.854
 3264SOL    HW210692   1.616   4.781   6.985
 3265SOL     OW10693   6.037   5.199   6.414
 3265SOL    HW110694   5.974   5.130   6.450
 3265SOL    HW210695   6.018   5.287   6.456
 3266SOL     OW10696   3.224   5.542   6.621
 3266SOL    HW110697   3.227   5.641   6.637
 3266SOL    HW210698   3.277   5.520   6.539
 3267SOL     OW10699   3.937   0.281   0.717
 3267SOL    HW110700   3.844   0.290   0.682
 3267SOL    HW210701   3.934   0.239   0.808
 3268SOL     OW10702   6.405   5.546   1.655
 3268SOL    HW110703   6.392   5.481   1.580
 3268SOL    HW210704   6.339   5.528   1.727
 3269SOL     OW10705   1.591   5.111   1.637
 3269SOL    HW110706   1.636   5.153   1.715
 3269SOL    HW210707   1.495   5.140   1.633
 3270SOL     OW10708   0.368   3.016   5.340
 3270SOL    HW110709   0.463   2.991   5.327
 3270SOL    HW210710   0.310   2.936   5.325
 3271SOL     OW10711   0.542   2.413   2.492
 3271SOL    HW110712   0.522   2.374   2.402
 3271SOL    HW210713   0.508   2.507   2.496
 3272SOL     OW10714   4.402   6.247   0.610
 3272SOL    HW110715   4.431   6.275   0.701
 3272SOL    HW210716   4.408   6.325   0.548
 3273SOL     OW10717   4.791   2.723   6.077
 3273SOL    HW110718   4.877   2.672   6.076
 3273SOL    HW210719   4.788   2.784   6.156
 3274SOL     OW10720   5.973   0.296   1.064
 3274SOL    HW110721   5.888   0.343   1.085
 3274SOL    HW210722   6.008   0.329   0.976
 3275SOL     OW10723   4.592   0.355   1.633
 3275SOL    HW110724   4.637   0.434   1.673
 3275SOL    HW210725   4.522   0.321   1.696
 3276SOL     OW10726   4.951   0.473   0.534
 3276SOL    HW110727   5.005   0.554   0.512
 3276SOL    HW210728   4.867   0.473   0.480
 3277SOL     OW10729   3.461   2.068   2.117
 3277SOL    HW110730   3.535   2.135   2.106
 3277SOL    HW210731   3.500   1.982   2.149
 3278SOL     OW10732   6.613   0.639   0.119
 3278SOL    HW110733   6.636   0.568   0.052
 3278SOL    HW210734   6.520   0.672   0.102
 3279SOL     OW10735   3.314   0.222   1.748
 3279SOL    HW110736   3.244   0.245   1.680
 3279SOL    HW210737   3.330   0.302   1.807
 3280SOL     OW10738   5.871   4.314   3.399
 3280SOL    HW110739   5.961   4.288   3.363
 3280SOL    HW210740   5.831   4.238   3.449
 3281SOL     OW10741   6.207   3.418   1.300
 3281SOL    HW110742   6.224   3.512   1.269
 3281SOL    HW210743   6.273   3.395   1.372
 3282SOL     OW10744   0.421   4.876   4.177
 3282SOL    HW110745   0.425   4.976   4.172
 3282SOL    HW210746   0.398   4.848   4.270
 3283SOL     OW10747   3.703   1.943   0.436
 3283SOL    HW110748   3.700   1.944   0.536
 3283SOL    HW210749   3.730   2.034   0.403
 3284SOL     OW10750   1.870   6.205   4.442
 3284SOL    HW110751   1.801   6.275   4.425
 3284SOL    HW210752   1.869   6.180   4.539
 3285SOL     OW10753   3.791   1.891   4.841
 3285SOL    HW110754   3.711   1.942   4.810
 3285SOL    HW210755   3.773   1.850   4.930
 3286SOL     OW10756   2.419   1.713   1.622
 3286SOL    HW110757   2.446   1.621   1.593
 3286SOL    HW210758   2.482   1.746   1.693
 3287SOL     OW10759   2.701   0.293   0.003
 3287SOL    HW110760   2.610   0.251   0.010
 3287SOL    HW210761   2.724   0.334   0.091
 3288SOL     OW10762   2.323   6.358   1.337
 3288SOL    HW110763   2.388   6.408   1.279
 3288SOL    HW210764   2.296   6.416   1.414
 3289SOL     OW10765   4.111   1.508   6.477
 3289SOL    HW110766   4.177   1.432   6.472
 3289SOL    HW210767   4.122   1.557   6.563
 3290SOL     OW10768   0.102   5.553   0.604
 3290SOL    HW110769   0.004   5.560   0.623
 3290SOL    HW210770   0.141   5.477   0.656
 3291SOL     OW10771   4.860   6.901   5.205
 3291SOL    HW110772   4.767   6.895   5.171
 3291SOL    HW210773   4.889   6.812   5.240
 3292SOL     OW10774   6.701   2.049   0.902
 3292SOL    HW110775   6.719   1.951   0.886
 3292SOL    HW210776   6.776   2.103   0.863
 3293SOL     OW10777   5.884   5.886   3.451
 3293SOL    HW110778   5.829   5.929   3.380
 3293SOL    HW210779   5.900   5.790   3.428
 3294SOL     OW10780   5.319   2.830   4.817
 3294SOL    HW110781   5.316   2.736   4.781
 3294SOL    HW210782   5.413   2.853   4.841
 3295SOL     OW10783   1.066   2.822   2.592
 3295SOL    HW110784   0.996   2.754   2.572
 3295SOL    HW210785   1.156   2.780   2.588
 3296SOL     OW10786   1.500   0.554   6.068
 3296SOL    HW110787   1.562   0.571   5.992
 3296SOL    HW210788   1.543   0.583   6.154
 3297SOL     OW10789   3.007   1.359   4.833
 3297SOL    HW110790   3.026   1.380   4.737
 3297SOL    HW210791   2.909   1.345   4.846
 3298SOL     OW10792   5.385   3.904   5.797
 3298SOL    HW110793   5.380   3.934   5.892
 3298SOL    HW210794   5.474   3.863   5.779
 3299SOL     OW10795   2.550   4.618   4.122
 3299SOL    HW110796   2.632   4.675   4.115
 3299SOL    HW210797   2.534   4.572   4.034
 3300SOL     OW10798   1.964   0.144   4.398
 3300SOL    HW110799   1.973   0.222   4.461
 3300SOL    HW210800   2.045   0.087   4.404
 3301SOL     OW10801   0.961   1.495   2.896
 3301SOL    HW110802   1.003   1.574   2.852
 3301SOL    HW210803   0.966   1.506   2.995
 3302SOL     OW10804   2.449   4.922   5.575
 3302SOL    HW110805   2.495   4.979   5.643
 3302SOL    HW210806   2.352   4.947   5.571
 3303SOL     OW10807   3.721   2.926   0.089
 3303SOL    HW110808   3.698   2.840   0.134
 3303SOL    HW210809   3.819   2.929   0.069
 3304SOL     OW10810   3.019   5.332   6.588
 3304SOL    HW110811   3.046   5.290   6.501
 3304SOL    HW210812   3.063   5.421   6.598
 3305SOL     OW10813   3.428   2.586   1.058
 3305SOL    HW110814   3.379   2.648   1.119
 3305SOL    HW210815   3.526   2.588   1.080
 3306SOL     OW10816   2.422   0.972   0.015
 3306SOL    HW110817   2.369   0.953   0.097
 3306SOL    HW210818   2.488   1.045   0.034
 3307SOL     OW10819   1.742   6.747   5.476
 3307SOL    HW110820   1.695   6.729   5.563
 3307SOL    HW210821   1.831   6.788   5.494
 3308SOL     OW10822   3.875   4.267   1.402
 3308SOL    HW110823   3.951   4.203   1.415
 3308SOL    HW210824   3.806   4.226   1.344
 3309SOL     OW10825   5.816   3.427   3.786
 3309SOL    HW110826   5.836   3.367   3.863
 3309SOL    HW210827   5.789   3.373   3.707
 3310SOL     OW10828   6.342   4.866   5.778
 3310SOL    HW110829   6.286   4.948   5.785
 3310SOL    HW210830   6.335   4.828   5.686
 3311SOL     OW10831   2.933   3.624   0.550
 3311SOL    HW110832   2.879   3.547   0.517
 3311SOL    HW210833   2.882   3.709   0.535
 3312SOL     OW10834   4.764   2.396   5.656
 3312SOL    HW110835   4.683   2.454   5.662
 3312SOL    HW210836   4.781   2.372   5.560
 3313SOL     OW10837   0.908   0.915   3.610
 3313SOL    HW110838   0.998   0.939   3.574
 3313SOL    HW210839   0.841   0.914   3.536
 3314SOL     OW10840   2.785   5.643   2.700
 3314SOL    HW110841   2.829   5.625   2.788
 3314SOL    HW210842   2.811   5.572   2.634
 3315SOL     OW10843   0.189   5.327   4.996
 3315SOL    HW110844   0.149   5.403   4.945
 3315SOL    HW210845   0.133   5.245   4.984
 3316SOL     OW10846   3.825   2.808   6.196
 3316SOL    HW110847   3.819   2.905   6.222
 3316SOL    HW210848   3.919   2.776   6.208
 3317SOL     OW10849   4.801   2.390   2.515
 3317SOL    HW110850   4.826   2.349   2.603
 3317SOL    HW210851   4.838   2.333   2.441
 3318SOL     OW10852   3.248   2.435   0.945
 3318SOL    HW110853   3.329   2.482   0.980
 3318SOL    HW210854   3.234   2.460   0.849
 3319SOL     OW10855   6.489   6.031   3.502
 3319SOL    HW110856   6.445   6.117   3.528
 3319SOL    HW210857   6.579   6.024   3.546
 3320SOL     OW10858   6.296   6.899   1.557
 3320SOL    HW110859   6.305   6.947   1.470
 3320SOL    HW210860   6.218   6.936   1.607
 3321SOL     OW10861   4.713   1.287   0.638
 3321SOL    HW110862   4.695   1.375   0.594
 3321SOL    HW210863   4.642   1.269   0.707
 3322SOL     OW10864   6.735   3.910   0.991
 3322SOL    HW110865   6.826   3.951   0.978
 3322SOL    HW210866   6.735   3.817   0.955
 3323SOL     OW10867   1.648   2.449   1.441
 3323SOL    HW110868   1.585   2.526   1.449
 3323SOL    HW210869   1.741   2.483   1.426
 3324SOL     OW10870   4.982   5.838   5.845
 3324SOL    HW110871   5.024   5.816   5.933
 3324SOL    HW210872   4.883   5.837   5.855
 3325SOL     OW10873   2.444   3.992   6.189
 3325SOL    HW110874   2.428   3.894   6.172
 3325SOL    HW210875   2.529   4.020   6.145
 3326SOL     OW10876   3.891   1.054   2.183
 3326SOL    HW110877   3.920   1.096   2.269
 3326SOL    HW210878   3.791   1.064   2.174
 3327SOL     OW10879   0.494   5.081   0.208
 3327SOL    HW110880   0.546   5.063   0.291
 3327SOL    HW210881   0.404   5.037   0.215
 3328SOL     OW10882   4.718   2.242   6.382
 3328SOL    HW110883   4.668   2.207   6.303
 3328SOL    HW210884   4.727   2.341   6.375
 3329SOL     OW10885   6.967   5.963   5.844
 3329SOL    HW110886   6.996   5.885   5.899
 3329SOL    HW210887   6.993   6.048   5.891
 3330SOL     OW10888   6.495   3.330   2.886
 3330SOL    HW110889   6.472   3.427   2.877
 3330SOL    HW210890   6.423   3.283   2.938
 3331SOL     OW10891   2.151   3.052   1.327
 3331SOL    HW110892   2.071   2.993   1.315
 3331SOL    HW210893   2.147   3.095   1.417
 3332SOL     OW10894   6.308   4.915   1.513
 3332SOL    HW110895   6.386   4.961   1.471
 3332SOL    HW210896   6.273   4.845   1.451
 3333SOL     OW10897   4.494   5.658   5.820
 3333SOL    HW110898   4.455   5.640   5.730
 3333SOL    HW210899   4.506   5.571   5.869
 3334SOL     OW10900   2.495   4.197   1.814
 3334SOL    HW110901   2.491   4.297   1.822
 3334SOL    HW210902   2.413   4.163   1.769
 3335SOL     OW10903   5.790   4.270   4.814
 3335SOL    HW110904   5.727   4.197   4.788
 3335SOL    HW210905   5.870   4.268   4.754
 3336SOL     OW10906   3.117   5.733   5.970
 3336SOL    HW110907   3.151   5.645   6.002
 3336SOL    HW210908   3.084   5.786   6.048
 3337SOL     OW10909   3.674   1.975   0.761
 3337SOL    HW110910   3.759   1.986   0.812
 3337SOL    HW210911   3.649   2.061   0.717
 3338SOL     OW10912   0.291   4.521   0.689
 3338SOL    HW110913   0.357   4.446   0.692
 3338SOL    HW210914   0.337   4.606   0.715
 3339SOL     OW10915   6.873   5.515   6.509
 3339SOL    HW110916   6.852   5.591   6.448
 3339SOL    HW210917   6.807   5.441   6.495
 3340SOL     OW10918   3.670   6.449   1.805
 3340SOL    HW110919   3.757   6.400   1.816
 3340SOL    HW210920   3.636   6.437   1.712
 3341SOL     OW10921   1.066   0.581   1.962
 3341SOL    HW110922   1.064   0.603   2.059
 3341SOL    HW210923   0.993   0.516   1.941
 3342SOL     OW10924   2.489   6.749   4.200
 3342SOL    HW110925   2.505   6.842   4.233
 3342SOL    HW210926   2.417   6.706   4.254
 3343SOL     OW10927   5.951   2.475   1.259
 3343SOL    HW110928   5.979   2.380   1.268
 3343SOL    HW210929   6.003   2.518   1.185
 3344SOL     OW10930   0.079   3.219   5.630
 3344SOL    HW110931   0.112   3.300   5.582
 3344SOL    HW210932   0.029   3.247   5.712
 3345SOL     OW10933   2.917   3.090   5.652
 3345SOL    HW110934   2.818   3.098   5.638
 3345SOL    HW210935   2.958   3.042   5.575
 3346SOL     OW10936   1.098   6.059   2.341
 3346SOL    HW110937   1.168   6.027   2.405
 3346SOL    HW210938   1.073   6.153   2.364
 3347SOL     OW10939   5.526   4.138   4.823
 3347SOL    HW110940   5.596   4.133   4.894
 3347SOL    HW210941   5.436   4.120   4.863
 3348SOL     OW10942   3.545   2.860   3.650
 3348SOL    HW110943   3.638   2.856   3.612
 3348SOL    HW210944   3.482   2.892   3.580
 3349SOL     OW10945   6.289   3.881   5.201
 3349SOL    HW110946   6.196   3.849   5.185
 3349SOL    HW210947   6.347   3.857   5.124
 3350SOL     OW10948   0.818   1.361   1.299
 3350SOL    HW110949   0.837   1.294   1.227
 3350SOL    HW210950   0.792   1.448   1.257
 3351SOL     OW10951   5.205   1.640   1.751
 3351SOL    HW110952   5.180   1.713   1.686
 3351SOL    HW210953   5.299   1.611   1.733
 3352SOL     OW10954   0.591   4.048   0.693
 3352SOL    HW110955   0.594   4.035   0.594
 3352SOL    HW210956   0.522   3.987   0.733
 3353SOL     OW10957   1.840   6.786   6.329
 3353SOL    HW110958   1.748   6.796   6.365
 3353SOL    HW210959   1.836   6.757   6.233
 3354SOL     OW10960   0.831   1.810   2.635
 3354SOL    HW110961   0.901   1.837   2.569
 3354SOL    HW210962   0.757   1.762   2.587
 3355SOL     OW10963   6.471   1.713   2.788
 3355SOL    HW110964   6.436   1.637   2.844
 3355SOL    HW210965   6.551   1.682   2.737
 3356SOL     OW10966   2.744   2.931   6.525
 3356SOL    HW110967   2.757   2.987   6.443
 3356SOL    HW210968   2.833   2.901   6.560
 3357SOL     OW10969   2.759   4.859   1.929
 3357SOL    HW110970   2.837   4.913   1.898
 3357SOL    HW210971   2.786   4.763   1.936
 3358SOL     OW10972   5.100   4.725   2.983
 3358SOL    HW110973   5.035   4.771   2.923
 3358SOL    HW210974   5.173   4.789   3.009
 3359SOL     OW10975   0.989   1.122   2.046
 3359SOL    HW110976   1.003   1.024   2.030
 3359SOL    HW210977   0.996   1.142   2.144
 3360SOL     OW10978   1.442   0.550   6.708
 3360SOL    HW110979   1.484   0.518   6.623
 3360SOL    HW210980   1.377   0.622   6.687
 3361SOL     OW10981   5.559   6.753   2.445
 3361SOL    HW110982   5.600   6.830   2.493
 3361SOL    HW210983   5.580   6.668   2.493
 3362SOL     OW10984   2.483   1.361   5.381
 3362SOL    HW110985   2.408   1.344   5.444
 3362SOL    HW210986   2.450   1.415   5.303
 3363SOL     OW10987   0.549   1.004   6.994
 3363SOL    HW110988   0.514   1.090   0.009
 3363SOL    HW210989   0.649   1.005   6.995
 3364SOL     OW10990   2.089   4.991   6.411
 3364SOL    HW110991   2.071   4.964   6.316
 3364SOL    HW210992   2.003   5.016   6.456
 3365SOL     OW10993   6.456   2.089   5.723
 3365SOL    HW110994   6.500   2.164   5.674
 3365SOL    HW210995   6.501   2.077   5.811
 3366SOL     OW10996   5.229   1.126   5.752
 3366SOL    HW110997   5.239   1.164   5.660
 3366SOL    HW210998   5.319   1.119   5.796
 3367SOL     OW10999   0.698   0.667   2.198
 3367SOL    HW111000   0.661   0.578   2.168
 3367SOL    HW211001   0.703   0.729   2.120
 3368SOL     OW11002   6.879   6.129   5.372
 3368SOL    HW111003   6.901   6.086   5.285
 3368SOL    HW211004   6.892   6.064   5.447
 3369SOL     OW11005   4.156   0.194   6.450
 3369SOL    HW111006   4.083   0.129   6.426
 3369SOL    HW211007   4.149   0.216   6.548
 3370SOL     OW11008   5.674   6.943   5.099
 3370SOL    HW111009   5.755   6.943   5.157
 3370SOL    HW211010   5.676   7.023   5.039
 3371SOL     OW11011   6.795   5.149   1.849
 3371SOL    HW111012   6.708   5.187   1.881
 3371SOL    HW211013   6.779   5.097   1.765
 3372SOL     OW11014   0.488   1.245   2.532
 3372SOL    HW111015   0.488   1.249   2.632
 3372SOL    HW211016   0.514   1.153   2.503
 3373SOL     OW11017   6.520   2.056   5.391
 3373SOL    HW111018   6.431   2.023   5.361
 3373SOL    HW211019   6.508   2.130   5.456
 3374SOL     OW11020   3.170   5.183   4.947
 3374SOL    HW111021   3.162   5.100   4.892
 3374SOL    HW211022   3.241   5.169   5.017
 3375SOL     OW11023   4.561   4.588   5.449
 3375SOL    HW111024   4.647   4.587   5.500
 3375SOL    HW211025   4.526   4.681   5.444
 3376SOL     OW11026   3.293   3.769   2.311
 3376SOL    HW111027   3.356   3.836   2.352
 3376SOL    HW211028   3.205   3.812   2.293
 3377SOL     OW11029   1.975   6.169   5.437
 3377SOL    HW111030   1.941   6.217   5.517
 3377SOL    HW211031   1.913   6.094   5.413
 3378SOL     OW11032   0.330   1.576   0.754
 3378SOL    HW111033   0.311   1.674   0.746
 3378SOL    HW211034   0.428   1.563   0.766
 3379SOL     OW11035   0.828   4.980   5.946
 3379SOL    HW111036   0.806   5.037   5.867
 3379SOL    HW211037   0.824   4.884   5.920
 3380SOL     OW11038   0.306   4.066   6.373
 3380SOL    HW111039   0.221   4.028   6.336
 3380SOL    HW211040   0.368   3.991   6.396
 3381SOL     OW11041   2.962   2.702   0.392
 3381SOL    HW111042   2.994   2.612   0.362
 3381SOL    HW211043   2.939   2.698   0.489
 3382SOL     OW11044   6.563   0.339   0.693
 3382SOL    HW111045   6.481   0.283   0.699
 3382SOL    HW211046   6.595   0.342   0.598
 3383SOL     OW11047   6.444   4.933   2.756
 3383SOL    HW111048   6.531   4.918   2.709
 3383SOL    HW211049   6.458   4.926   2.855
 3384SOL     OW11050   3.917   3.075   4.557
 3384SOL    HW111051   3.922   3.074   4.458
 3384SOL    HW211052   3.954   3.161   4.592
 3385SOL     OW11053   6.455   3.667   3.254
 3385SOL    HW111054   6.377   3.609   3.279
 3385SOL    HW211055   6.421   3.758   3.230
 3386SOL     OW11056   5.969   4.471   4.948
 3386SOL    HW111057   6.019   4.508   4.870
 3386SOL    HW211058   5.883   4.429   4.917
 3387SOL     OW11059   2.547   2.445   2.716
 3387SOL    HW111060   2.527   2.449   2.618
 3387SOL    HW211061   2.479   2.389   2.762
 3388SOL     OW11062   5.956   2.949   1.697
 3388SOL    HW111063   5.941   2.927   1.793
 3388SOL    HW211064   5.869   2.946   1.648
 3389SOL     OW11065   5.480   4.737   3.303
 3389SOL    HW111066   5.551   4.670   3.285
 3389SOL    HW211067   5.451   4.731   3.398
 3390SOL     OW11068   5.106   2.581   5.135
 3390SOL    HW111069   5.120   2.568   5.233
 3390SOL    HW211070   5.035   2.519   5.103
 3391SOL     OW11071   3.486   1.915   4.566
 3391SOL    HW111072   3.523   1.974   4.638
 3391SOL    HW211073   3.520   1.946   4.477
 3392SOL     OW11074   4.226   6.474   3.944
 3392SOL    HW111075   4.183   6.498   3.856
 3392SOL    HW211076   4.305   6.415   3.928
 3393SOL     OW11077   6.770   0.063   6.908
 3393SOL    HW111078   6.769   0.060   7.007
 3393SOL    HW211079   6.680   0.093   6.874
 3394SOL     OW11080   6.234   3.006   1.846
 3394SOL    HW111081   6.169   3.056   1.789
 3394SOL    HW211082   6.199   3.000   1.939
 3395SOL     OW11083   1.304   3.396   5.314
 3395SOL    HW111084   1.364   3.459   5.363
 3395SOL    HW211085   1.358   3.319   5.279
 3396SOL     OW11086   0.282   4.451   3.864
 3396SOL    HW111087   0.350   4.408   3.804
 3396SOL    HW211088   0.257   4.388   3.937
 3397SOL     OW11089   3.961   6.244   6.421
 3397SOL    HW111090   3.906   6.325   6.400
 3397SOL    HW211091   4.038   6.238   6.357
 3398SOL     OW11092   0.672   6.738   4.081
 3398SOL    HW111093   0.628   6.701   4.162
 3398SOL    HW211094   0.622   6.710   3.999
 3399SOL     OW11095   4.849   4.713   4.397
 3399SOL    HW111096   4.840   4.812   4.384
 3399SOL    HW211097   4.773   4.667   4.351
 3400SOL     OW11098   5.067   2.197   6.602
 3400SOL    HW111099   5.071   2.297   6.601
 3400SOL    HW211100   5.156   2.160   6.627
 3401SOL     OW11101   5.913   4.607   0.399
 3401SOL    HW111102   5.873   4.696   0.376
 3401SOL    HW211103   5.841   4.547   0.435
 3402SOL     OW11104   5.185   5.634   1.592
 3402SOL    HW111105   5.108   5.673   1.542
 3402SOL    HW211106   5.192   5.536   1.571
 3403SOL     OW11107   3.647   1.193   5.040
 3403SOL    HW111108   3.728   1.219   5.093
 3403SOL    HW211109   3.580   1.150   5.101
 3404SOL     OW11110   4.797   0.846   0.453
 3404SOL    HW111111   4.759   0.754   0.442
 3404SOL    HW211112   4.732   0.913   0.417
 3405SOL     OW11113   6.946   3.850   7.008
 3405SOL    HW111114   6.988   3.775   6.956
 3405SOL    HW211115   6.849   3.855   6.985
 3406SOL     OW11116   1.568   3.895   2.221
 3406SOL    HW111117   1.546   3.852   2.308
 3406SOL    HW211118   1.497   3.873   2.154
 3407SOL     OW11119   1.236   5.905   2.763
 3407SOL    HW111120   1.247   5.838   2.837
 3407SOL    HW211121   1.178   5.980   2.793
 3408SOL     OW11122   5.280   4.360   2.829
 3408SOL    HW111123   5.298   4.378   2.926
 3408SOL    HW211124   5.357   4.312   2.788
 3409SOL     OW11125   3.745   0.610   5.452
 3409SOL    HW111126   3.786   0.525   5.487
 3409SOL    HW211127   3.816   0.679   5.439
 3410SOL     OW11128   6.402   0.384   0.434
 3410SOL    HW111129   6.484   0.431   0.401
 3410SOL    HW211130   6.415   0.286   0.425
 3411SOL     OW11131   4.805   1.953   2.454
 3411SOL    HW111132   4.796   1.968   2.553
 3411SOL    HW211133   4.749   2.021   2.406
 3412SOL     OW11134   3.987   4.602   0.075
 3412SOL    HW111135   3.891   4.574   0.067
 3412SOL    HW211136   4.031   4.548   0.147
 3413SOL     OW11137   3.813   2.178   2.808
 3413SOL    HW111138   3.876   2.189   2.731
 3413SOL    HW211139   3.723   2.150   2.774
 3414SOL     OW11140   2.635   2.477   5.006
 3414SOL    HW111141   2.723   2.508   4.970
 3414SOL    HW211142   2.621   2.515   5.098
 3415SOL     OW11143   0.626   4.707   4.130
 3415SOL    HW111144   0.548   4.765   4.154
 3415SOL    HW211145   0.709   4.762   4.127
 3416SOL     OW11146   1.350   5.333   5.650
 3416SOL    HW111147   1.439   5.328   5.695
 3416SOL    HW211148   1.291   5.260   5.684
 3417SOL     OW11149   6.255   6.845   2.366
 3417SOL    HW111150   6.259   6.850   2.466
 3417SOL    HW211151   6.283   6.932   2.326
 3418SOL     OW11152   3.445   1.419   5.766
 3418SOL    HW111153   3.468   1.449   5.858
 3418SOL    HW211154   3.355   1.375   5.767
 3419SOL     OW11155   4.314   4.345   0.161
 3419SOL    HW111156   4.392   4.282   0.161
 3419SOL    HW211157   4.334   4.424   0.104
 3420SOL     OW11158   4.087   2.247   3.535
 3420SOL    HW111159   4.035   2.172   3.495
 3420SOL    HW211160   4.074   2.247   3.634
 3421SOL     OW11161   0.184   5.695   4.992
 3421SOL    HW111162   0.202   5.718   5.087
 3421SOL    HW211163   0.127   5.766   4.951
 3422SOL     OW11164   3.215   1.533   2.008
 3422SOL    HW111165   3.292   1.473   1.987
 3422SOL    HW211166   3.249   1.625   2.029
 3423SOL     OW11167   2.545   0.606   1.110
 3423SOL    HW111168   2.457   0.580   1.068
 3423SOL    HW211169   2.528   0.666   1.187
 3424SOL     OW11170   4.375   1.148   2.992
 3424SOL    HW111171   4.310   1.216   3.025
 3424SOL    HW211172   4.448   1.137   3.060
 3425SOL     OW11173   4.579   4.276   1.600
 3425SOL    HW111174   4.613   4.368   1.584
 3425SOL    HW211175   4.537   4.272   1.691
 3426SOL     OW11176   4.168   3.748   0.742
 3426SOL    HW111177   4.208   3.667   0.700
 3426SOL    HW211178   4.241   3.803   0.784
 3427SOL     OW11179   0.902   1.345   0.208
 3427SOL    HW111180   0.891   1.349   0.308
 3427SOL    HW211181   0.914   1.250   0.180
 3428SOL     OW11182   3.917   4.848   2.503
 3428SOL    HW111183   3.964   4.784   2.442
 3428SOL    HW211184   3.886   4.800   2.585
 3429SOL     OW11185   1.433   2.942   6.898
 3429SOL    HW111186   1.490   3.021   6.874
 3429SOL    HW211187   1.415   2.942   6.997
 3430SOL     OW11188   1.479   6.939   0.196
 3430SOL    HW111189   1.454   6.844   0.214
 3430SOL    HW211190   1.561   6.962   0.249
 3431SOL     OW11191   0.756   5.741   0.975
 3431SOL    HW111192   0.680   5.692   0.932
 3431SOL    HW211193   0.770   5.705   1.068
 3432SOL     OW11194   3.322   1.699   6.028
 3432SOL    HW111195   3.320   1.745   5.939
 3432SOL    HW211196   3.393   1.740   6.085
 3433SOL     OW11197   3.489   1.169   4.796
 3433SOL    HW111198   3.546   1.184   4.877
 3433SOL    HW211199   3.543   1.122   4.726
 3434SOL     OW11200   4.705   2.665   2.213
 3434SOL    HW111201   4.750   2.736   2.159
 3434SOL    HW211202   4.606   2.682   2.216
 3435SOL     OW11203   0.210   1.268   1.888
 3435SOL    HW111204   0.121   1.222   1.887
 3435SOL    HW211205   0.282   1.200   1.899
 3436SOL     OW11206   4.086   6.646   4.502
 3436SOL    HW111207   4.166   6.616   4.555
 3436SOL    HW211208   4.022   6.694   4.563
 3437SOL     OW11209   4.107   6.935   5.903
 3437SOL    HW111210   4.092   7.020   5.852
 3437SOL    HW211211   4.040   6.928   5.976
 3438SOL     OW11212   0.597   2.726   6.359
 3438SOL    HW111213   0.561   2.700   6.269
 3438SOL    HW211214   0.646   2.813   6.351
 3439SOL     OW11215   2.490   5.975   3.974
 3439SOL    HW111216   2.589   5.980   3.961
 3439SOL    HW211217   2.453   6.067   3.985
 3440SOL     OW11218   5.252   3.266   0.812
 3440SOL    HW111219   5.223   3.361   0.805
 3440SOL    HW211220   5.171   3.206   0.812
 3441SOL     OW11221   2.660   0.369   3.474
 3441SOL    HW111222   2.604   0.428   3.415
 3441SOL    HW211223   2.607   0.345   3.556
 3442SOL     OW11224   2.093   4.630   3.510
 3442SOL    HW111225   2.107   4.571   3.589
 3442SOL    HW211226   2.055   4.718   3.540
 3443SOL     OW11227   5.423   0.863   2.864
 3443SOL    HW111228   5.465   0.795   2.804
 3443SOL    HW211229   5.486   0.887   2.937
 3444SOL     OW11230   4.556   5.586   0.215
 3444SOL    HW111231   4.580   5.522   0.289
 3444SOL    HW211232   4.469   5.558   0.174
 3445SOL     OW11233   6.639   4.442   4.004
 3445SOL    HW111234   6.699   4.383   4.058
 3445SOL    HW211235   6.693   4.487   3.933
 3446SOL     OW11236   3.706   6.814   2.810
 3446SOL    HW111237   3.740   6.783   2.898
 3446SOL    HW211238   3.663   6.903   2.820
 3447SOL     OW11239   5.528   6.263   6.745
 3447SOL    HW111240   5.540   6.296   6.839
 3447SOL    HW211241   5.608   6.208   6.719
 3448SOL     OW11242   3.579   1.982   1.148
 3448SOL    HW111243   3.541   2.059   1.096
 3448SOL    HW211244   3.679   1.991   1.153
 3449SOL     OW11245   0.030   6.446   3.198
 3449SOL    HW111246   0.041   6.519   3.130
 3449SOL    HW211247   6.957   6.436   3.220
 3450SOL     OW11248   1.205   1.805   1.555
 3450SOL    HW111249   1.298   1.820   1.521
 3450SOL    HW211250   1.159   1.737   1.497
 3451SOL     OW11251   0.877   5.841   4.521
 3451SOL    HW111252   0.787   5.840   4.476
 3451SOL    HW211253   0.906   5.936   4.535
 3452SOL     OW11254   5.919   1.340   0.746
 3452SOL    HW111255   5.892   1.435   0.762
 3452SOL    HW211256   5.854   1.279   0.790
 3453SOL     OW11257   5.457   5.680   4.598
 3453SOL    HW111258   5.370   5.642   4.630
 3453SOL    HW211259   5.445   5.721   4.508
 3454SOL     OW11260   1.124   1.018   0.737
 3454SOL    HW111261   1.189   0.997   0.663
 3454SOL    HW211262   1.056   0.945   0.744
 3455SOL     OW11263   1.987   2.601   4.111
 3455SOL    HW111264   1.973   2.663   4.188
 3455SOL    HW211265   2.084   2.600   4.087
 3456SOL     OW11266   5.705   6.920   1.568
 3456SOL    HW111267   5.801   6.949   1.559
 3456SOL    HW211268   5.695   6.827   1.532
 3457SOL     OW11269   2.437   4.899   3.580
 3457SOL    HW111270   2.386   4.853   3.652
 3457SOL    HW211271   2.518   4.845   3.556
 3458SOL     OW11272   5.765   6.579   0.594
 3458SOL    HW111273   5.665   6.575   0.585
 3458SOL    HW211274   5.804   6.614   0.509
 3459SOL     OW11275   0.223   5.312   4.061
 3459SOL    HW111276   0.130   5.274   4.063
 3459SOL    HW211277   0.227   5.384   3.992
 3460SOL     OW11278   4.491   3.158   6.811
 3460SOL    HW111279   4.516   3.071   6.854
 3460SOL    HW211280   4.411   3.144   6.752
 3461SOL     OW11281   4.123   6.221   3.514
 3461SOL    HW111282   4.207   6.226   3.567
 3461SOL    HW211283   4.145   6.220   3.416
 3462SOL     OW11284   4.904   3.598   3.034
 3462SOL    HW111285   4.910   3.644   2.945
 3462SOL    HW211286   4.921   3.664   3.107
 3463SOL     OW11287   2.301   2.721   1.525
 3463SOL    HW111288   2.369   2.794   1.536
 3463SOL    HW211289   2.231   2.730   1.595
 3464SOL     OW11290   5.097   2.842   6.416
 3464SOL    HW111291   5.135   2.927   6.379
 3464SOL    HW211292   5.113   2.767   6.352
 3465SOL     OW11293   2.119   3.682   2.093
 3465SOL    HW111294   2.167   3.609   2.045
 3465SOL    HW211295   2.055   3.726   2.031
 3466SOL     OW11296   6.102   5.242   4.197
 3466SOL    HW111297   6.182   5.242   4.137
 3466SOL    HW211298   6.131   5.233   4.292
 3467SOL     OW11299   2.926   2.471   0.687
 3467SOL    HW111300   2.928   2.462   0.787
 3467SOL    HW211301   2.844   2.426   0.651
 3468SOL     OW11302   4.395   1.713   1.182
 3468SOL    HW111303   4.486   1.717   1.224
 3468SOL    HW211304   4.355   1.805   1.182
 3469SOL     OW11305   4.203   6.432   5.713
 3469SOL    HW111306   4.237   6.345   5.749
 3469SOL    HW211307   4.280   6.489   5.686
 3470SOL     OW11308   0.509   3.053   1.989
 3470SOL    HW111309   0.435   3.062   2.056
 3470SOL    HW211310   0.596   3.065   2.035
 3471SOL     OW11311   5.282   3.980   3.661
 3471SOL    HW111312   5.283   3.980   3.761
 3471SOL    HW211313   5.188   3.985   3.629
 3472SOL     OW11314   4.560   1.788   3.302
 3472SOL    HW111315   4.543   1.692   3.323
 3472SOL    HW211316   4.475   1.840   3.310
 3473SOL     OW11317   0.095   4.121   2.592
 3473SOL    HW111318   0.147   4.129   2.507
 3473SOL    HW211319   0.153   4.085   2.664
 3474SOL     OW11320   6.462   5.293   4.168
 3474SOL    HW111321   6.403   5.303   4.087
 3474SOL    HW211322   6.485   5.197   4.181
 3475SOL     OW11323   6.739   4.189   4.544
 3475SOL    HW111324   6.780   4.280   4.548
 3475SOL    HW211325   6.807   4.120   4.568
 3476SOL     OW11326   1.153   1.789   3.219
 3476SOL    HW111327   1.240   1.807   3.172
 3476SOL    HW211328   1.170   1.743   3.306
 3477SOL     OW11329   0.420   3.549   1.525
 3477SOL    HW111330   0.417   3.463   1.576
 3477SOL    HW211331   0.509   3.593   1.539
 3478SOL     OW11332   2.467   0.484   0.021
 3478SOL    HW111333   2.522   0.441   6.974
 3478SOL    HW211334   2.411   0.414   0.066
 3479SOL     OW11335   0.717   3.210   4.082
 3479SOL    HW111336   0.816   3.197   4.077
 3479SOL    HW211337   0.676   3.135   4.133
 3480SOL     OW11338   1.103   5.855   6.942
 3480SOL    HW111339   1.073   5.824   0.008
 3480SOL    HW211340   1.089   5.782   6.876
 3481SOL     OW11341   6.750   0.257   6.225
 3481SOL    HW111342   6.745   0.289   6.319
 3481SOL    HW211343   6.663   0.278   6.179
 3482SOL     OW11344   6.256   3.636   4.813
 3482SOL    HW111345   6.270   3.544   4.850
 3482SOL    HW211346   6.316   3.701   4.859
 3483SOL     OW11347   4.678   2.099   3.593
 3483SOL    HW111348   4.707   2.003   3.592
 3483SOL    HW211349   4.596   2.109   3.536
 3484SOL     OW11350   1.877   3.310   5.890
 3484SOL    HW111351   1.834   3.237   5.835
 3484SOL    HW211352   1.812   3.344   5.957
 3485SOL     OW11353   0.523   1.765   5.932
 3485SOL    HW111354   0.466   1.720   6.001
 3485SOL    HW211355   0.549   1.699   5.861
 3486SOL     OW11356   2.764   0.191   4.873
 3486SOL    HW111357   2.676   0.208   4.918
 3486SOL    HW211358   2.752   0.122   4.802
 3487SOL     OW11359   5.438   1.234   6.775
 3487SOL    HW111360   5.530   1.196   6.766
 3487SOL    HW211361   5.394   1.236   6.685
 3488SOL     OW11362   6.022   0.580   4.338
 3488SOL    HW111363   6.057   0.627   4.418
 3488SOL    HW211364   6.049   0.630   4.255
 3489SOL     OW11365   3.002   0.424   0.314
 3489SOL    HW111366   2.948   0.388   0.238
 3489SOL    HW211367   3.078   0.479   0.278
 3490SOL     OW11368   4.204   5.121   0.720
 3490SOL    HW111369   4.165   5.196   0.667
 3490SOL    HW211370   4.262   5.065   0.661
 3491SOL     OW11371   4.658   3.944   0.189
 3491SOL    HW111372   4.730   3.974   0.126
 3491SOL    HW211373   4.599   3.878   0.144
 3492SOL     OW11374   6.228   4.553   2.356
 3492SOL    HW111375   6.142   4.558   2.408
 3492SOL    HW211376   6.302   4.522   2.416
 3493SOL     OW11377   6.160   3.138   4.468
 3493SOL    HW111378   6.199   3.216   4.419
 3493SOL    HW211379   6.216   3.057   4.452
 3494SOL     OW11380   3.787   1.707   2.275
 3494SOL    HW111381   3.845   1.726   2.196
 3494SOL    HW211382   3.842   1.709   2.358
 3495SOL     OW11383   1.688   3.562   1.932
 3495SOL    HW111384   1.697   3.655   1.965
 3495SOL    HW211385   1.779   3.522   1.919
 3496SOL     OW11386   6.714   5.594   1.177
 3496SOL    HW111387   6.707   5.639   1.266
 3496SOL    HW211388   6.628   5.605   1.127
 3497SOL     OW11389   3.651   0.565   2.441
 3497SOL    HW111390   3.552   0.552   2.440
 3497SOL    HW211391   3.676   0.642   2.382
 3498SOL     OW11392   1.880   1.884   1.226
 3498SOL    HW111393   1.924   1.948   1.289
 3498SOL    HW211394   1.784   1.910   1.214
 3499SOL     OW11395   6.027   5.332   5.811
 3499SOL    HW111396   5.999   5.382   5.893
 3499SOL    HW211397   5.956   5.339   5.741
 3500SOL     OW11398   1.660   2.570   3.734
 3500SOL    HW111399   1.654   2.495   3.668
 3500SOL    HW211400   1.577   2.625   3.728
 3501SOL     OW11401   1.440   6.730   6.002
 3501SOL    HW111402   1.361   6.766   5.952
 3501SOL    HW211403   1.500   6.680   5.938
 3502SOL     OW11404   5.107   3.351   2.096
 3502SOL    HW111405   5.027   3.295   2.074
 3502SOL    HW211406   5.151   3.381   2.012
 3503SOL     OW11407   6.681   6.169   6.707
 3503SOL    HW111408   6.721   6.141   6.620
 3503SOL    HW211409   6.602   6.110   6.728
 3504SOL     OW11410   1.247   0.532   1.756
 3504SOL    HW111411   1.185   0.562   1.828
 3504SOL    HW211412   1.325   0.484   1.796
 3505SOL     OW11413   6.076   5.301   6.163
 3505SOL    HW111414   6.163   5.275   6.122
 3505SOL    HW211415   6.070   5.265   6.256
 3506SOL     OW11416   5.022   4.433   4.595
 3506SOL    HW111417   5.061   4.476   4.514
 3506SOL    HW211418   4.981   4.503   4.653
 3507SOL     OW11419   2.709   6.755   0.415
 3507SOL    HW111420   2.804   6.779   0.391
 3507SOL    HW211421   2.709   6.695   0.495
 3508SOL     OW11422   3.365   2.453   5.388
 3508SOL    HW111423   3.308   2.440   5.307
 3508SOL    HW211424   3.310   2.438   5.470
 3509SOL     OW11425   4.136   5.756   6.722
 3509SOL    HW111426   4.161   5.825   6.654
 3509SOL    HW211427   4.056   5.786   6.774
 3510SOL     OW11428   2.629   0.666   0.852
 3510SOL    HW111429   2.626   0.624   0.943
 3510SOL    HW211430   2.710   0.725   0.846
 3511SOL     OW11431   2.618   4.903   1.156
 3511SOL    HW111432   2.624   4.843   1.236
 3511SOL    HW211433   2.592   4.850   1.076
 3512SOL     OW11434   1.199   4.194   6.927
 3512SOL    HW111435   1.201   4.191   0.003
 3512SOL    HW211436   1.106   4.213   6.897
 3513SOL     OW11437   5.705   2.379   0.429
 3513SOL    HW111438   5.686   2.425   0.343
 3513SOL    HW211439   5.696   2.280   0.417
 3514SOL     OW11440   4.291   0.943   2.814
 3514SOL    HW111441   4.219   0.985   2.760
 3514SOL    HW211442   4.337   1.013   2.869
 3515SOL     OW11443   6.015   5.913   4.455
 3515SOL    HW111444   6.100   5.881   4.497
 3515SOL    HW211445   5.976   5.840   4.400
 3516SOL     OW11446   5.210   0.252   1.090
 3516SOL    HW111447   5.233   0.315   1.016
 3516SOL    HW211448   5.294   0.217   1.131
 3517SOL     OW11449   6.360   1.249   0.424
 3517SOL    HW111450   6.385   1.275   0.331
 3517SOL    HW211451   6.370   1.328   0.484
 3518SOL     OW11452   5.693   1.191   5.264
 3518SOL    HW111453   5.745   1.238   5.336
 3518SOL    HW211454   5.629   1.126   5.306
 3519SOL     OW11455   3.552   0.621   0.543
 3519SOL    HW111456   3.509   0.565   0.613
 3519SOL    HW211457   3.651   0.607   0.544
 3520SOL     OW11458   3.021   5.900   5.005
 3520SOL    HW111459   2.999   5.817   4.954
 3520SOL    HW211460   3.093   5.950   4.956
 3521SOL     OW11461   2.982   2.867   6.620
 3521SOL    HW111462   3.028   2.808   6.687
 3521SOL    HW211463   3.038   2.948   6.604
 3522SOL     OW11464   6.811   5.501   0.338
 3522SOL    HW111465   6.720   5.468   0.311
 3522SOL    HW211466   6.868   5.512   0.256
 3523SOL     OW11467   0.852   5.235   6.292
 3523SOL    HW111468   0.831   5.202   6.384
 3523SOL    HW211469   0.949   5.221   6.272
 3524SOL     OW11470   6.805   1.350   3.211
 3524SOL    HW111471   6.772   1.425   3.153
 3524SOL    HW211472   6.804   1.380   3.307
 3525SOL     OW11473   6.415   4.741   3.907
 3525SOL    HW111474   6.395   4.833   3.941
 3525SOL    HW211475   6.409   4.740   3.807
 3526SOL     OW11476   1.219   5.936   3.527
 3526SOL    HW111477   1.130   5.953   3.484
 3526SOL    HW211478   1.276   6.018   3.520
 3527SOL     OW11479   6.802   2.679   6.035
 3527SOL    HW111480   6.825   2.776   6.028
 3527SOL    HW211481   6.882   2.624   6.010
 3528SOL     OW11482   2.699   6.531   5.398
 3528SOL    HW111483   2.665   6.617   5.435
 3528SOL    HW211484   2.799   6.533   5.395
 3529SOL     OW11485   4.755   5.882   0.019
 3529SOL    HW111486   4.737   5.871   0.117
 3529SOL    HW211487   4.844   5.842   7.022
 3530SOL     OW11488   0.402   0.160   2.148
 3530SOL    HW111489   0.344   0.079   2.137
 3530SOL    HW211490   0.357   0.225   2.210
 3531SOL     OW11491   5.010   1.778   1.216
 3531SOL    HW111492   5.016   1.697   1.275
 3531SOL    HW211493   4.929   1.772   1.159
 3532SOL     OW11494   2.219   1.005   2.136
 3532SOL    HW111495   2.149   1.009   2.065
 3532SOL    HW211496   2.175   1.009   2.226
 3533SOL     OW11497   6.900   1.627   2.435
 3533SOL    HW111498   6.886   1.566   2.358
 3533SOL    HW211499   6.996   1.622   2.464
 3534SOL     OW11500   0.234   1.673   1.498
 3534SOL    HW111501   0.235   1.588   1.550
 3534SOL    HW211502   0.206   1.748   1.557
 3535SOL     OW11503   2.855   5.000   4.795
 3535SOL    HW111504   2.941   4.980   4.843
 3535SOL    HW211505   2.830   5.096   4.811
 3536SOL     OW11506   3.236   2.147   2.257
 3536SOL    HW111507   3.248   2.165   2.355
 3536SOL    HW211508   3.326   2.141   2.213
 3537SOL     OW11509   1.899   5.531   2.714
 3537SOL    HW111510   1.941   5.594   2.779
 3537SOL    HW211511   1.815   5.494   2.753
 3538SOL     OW11512   3.145   5.616   4.611
 3538SOL    HW111513   3.175   5.589   4.520
 3538SOL    HW211514   3.181   5.553   4.679
 3539SOL     OW11515   3.964   3.707   4.790
 3539SOL    HW111516   3.959   3.802   4.762
 3539SOL    HW211517   3.891   3.655   4.747
 3540SOL     OW11518   2.295   1.902   4.215
 3540SOL    HW111519   2.328   1.936   4.127
 3540SOL    HW211520   2.266   1.979   4.272
 3541SOL     OW11521   2.854   3.600   5.483
 3541SOL    HW111522   2.806   3.542   5.417
 3541SOL    HW211523   2.862   3.692   5.445
 3542SOL     OW11524   1.346   4.650   2.402
 3542SOL    HW111525   1.311   4.699   2.323
 3542SOL    HW211526   1.382   4.561   2.373
 3543SOL     OW11527   5.392   2.740   4.180
 3543SOL    HW111528   5.310   2.684   4.167
 3543SOL    HW211529   5.369   2.818   4.238
 3544SOL     OW11530   2.030   4.289   5.963
 3544SOL    HW111531   2.117   4.245   5.942
 3544SOL    HW211532   1.998   4.259   6.053
 3545SOL     OW11533   4.362   5.801   6.438
 3545SOL    HW111534   4.356   5.809   6.339
 3545SOL    HW211535   4.398   5.886   6.476
 3546SOL     OW11536   6.806   5.723   3.246
 3546SOL    HW111537   6.721   5.774   3.234
 3546SOL    HW211538   6.884   5.785   3.239
 3547SOL     OW11539   4.840   5.027   4.555
 3547SOL    HW111540   4.876   5.119   4.565
 3547SOL    HW211541   4.821   5.008   4.459
 3548SOL     OW11542   4.782   2.889   4.858
 3548SOL    HW111543   4.746   2.822   4.793
 3548SOL    HW211544   4.819   2.841   4.938
 3549SOL     OW11545   6.298   4.612   2.994
 3549SOL    HW111546   6.382   4.626   3.047
 3549SOL    HW211547   6.244   4.697   2.996
 3550SOL     OW11548   5.562   1.624   2.334
 3550SOL    HW111549   5.509   1.607   2.417
 3550SOL    HW211550   5.532   1.560   2.262
 3551SOL     OW11551   3.265   6.712   3.383
 3551SOL    HW111552   3.314   6.739   3.467
 3551SOL    HW211553   3.279   6.615   3.366
 3552SOL     OW11554   6.122   5.957   2.854
 3552SOL    HW111555   6.216   5.950   2.819
 3552SOL    HW211556   6.106   6.050   2.887
 3553SOL     OW11557   5.120   2.288   2.621
 3553SOL    HW111558   5.054   2.279   2.696
 3553SOL    HW211559   5.202   2.335   2.654
 3554SOL     OW11560   4.231   4.919   6.769
 3554SOL    HW111561   4.243   4.859   6.690
 3554SOL    HW211562   4.204   4.865   6.849
 3555SOL     OW11563   1.262   2.736   3.044
 3555SOL    HW111564   1.331   2.807   3.059
 3555SOL    HW211565   1.287   2.680   2.965
 3556SOL     OW11566   3.257   0.749   5.798
 3556SOL    HW111567   3.351   0.740   5.766
 3556SOL    HW211568   3.256   0.755   5.898
 3557SOL     OW11569   1.943   0.356   4.841
 3557SOL    HW111570   1.944   0.270   4.893
 3557SOL    HW211571   1.988   0.427   4.895
 3558SOL     OW11572   0.048   6.321   1.597
 3558SOL    HW111573   0.140   6.325   1.636
 3558SOL    HW211574   0.017   6.226   1.594
 3559SOL     OW11575   0.849   1.022   4.818
 3559SOL    HW111576   0.850   0.929   4.783
 3559SOL    HW211577   0.798   1.025   4.904
 3560SOL     OW11578   0.472   6.017   1.172
 3560SOL    HW111579   0.506   6.027   1.079
 3560SOL    HW211580   0.467   5.920   1.196
 3561SOL     OW11581   4.667   4.923   5.853
 3561SOL    HW111582   4.663   5.023   5.862
 3561SOL    HW211583   4.664   4.882   5.945
 3562SOL     OW11584   5.394   0.519   3.441
 3562SOL    HW111585   5.299   0.491   3.455
 3562SOL    HW211586   5.430   0.474   3.359
 3563SOL     OW11587   4.729   0.812   1.703
 3563SOL    HW111588   4.747   0.716   1.724
 3563SOL    HW211589   4.630   0.828   1.703
 3564SOL     OW11590   0.028   4.563   4.103
 3564SOL    HW111591   6.991   4.638   4.077
 3564SOL    HW211592   0.122   4.597   4.110
 3565SOL     OW11593   2.704   0.649   4.999
 3565SOL    HW111594   2.616   0.661   4.953
 3565SOL    HW211595   2.778   0.653   4.932
 3566SOL     OW11596   0.095   3.035   6.084
 3566SOL    HW111597   0.022   2.974   6.113
 3566SOL    HW211598   0.105   3.032   5.985
 3567SOL     OW11599   6.791   3.405   0.857
 3567SOL    HW111600   6.706   3.374   0.900
 3567SOL    HW211601   6.862   3.415   0.926
 3568SOL     OW11602   4.730   4.143   3.380
 3568SOL    HW111603   4.701   4.225   3.332
 3568SOL    HW211604   4.761   4.074   3.314
 3569SOL     OW11605   3.343   4.087   4.058
 3569SOL    HW111606   3.284   4.151   4.009
 3569SOL    HW211607   3.419   4.137   4.100
 3570SOL     OW11608   0.451   1.622   6.155
 3570SOL    HW111609   0.461   1.523   6.164
 3570SOL    HW211610   0.404   1.658   6.236
 3571SOL     OW11611   2.445   6.307   5.369
 3571SOL    HW111612   2.453   6.358   5.283
 3571SOL    HW211613   2.384   6.229   5.356
 3572SOL     OW11614   4.865   4.682   1.589
 3572SOL    HW111615   4.887   4.776   1.615
 3572SOL    HW211616   4.943   4.623   1.611
 3573SOL     OW11617   6.713   3.910   2.770
 3573SOL    HW111618   6.618   3.880   2.772
 3573SOL    HW211619   6.773   3.830   2.758
 3574SOL     OW11620   2.870   3.189   5.903
 3574SOL    HW111621   2.960   3.215   5.868
 3574SOL    HW211622   2.810   3.167   5.826
 3575SOL     OW11623   5.510   6.821   0.073
 3575SOL    HW111624   5.488   6.906   0.120
 3575SOL    HW211625   5.455   6.813   7.015
 3576SOL     OW11626   0.917   3.019   6.483
 3576SOL    HW111627   0.947   2.944   6.541
 3576SOL    HW211628   0.915   3.104   6.535
 3577SOL     OW11629   2.865   2.814   5.714
 3577SOL    HW111630   2.807   2.765   5.780
 3577SOL    HW211631   2.864   2.912   5.735
 3578SOL     OW11632   3.201   2.944   6.056
 3578SOL    HW111633   3.248   3.030   6.073
 3578SOL    HW211634   3.102   2.958   6.061
 3579SOL     OW11635   0.714   2.717   2.263
 3579SOL    HW111636   0.669   2.650   2.322
 3579SOL    HW211637   0.740   2.796   2.318
 3580SOL     OW11638   0.332   4.176   1.705
 3580SOL    HW111639   0.343   4.216   1.796
 3580SOL    HW211640   0.413   4.123   1.681
 3581SOL     OW11641   0.632   0.241   2.785
 3581SOL    HW111642   0.662   0.160   2.734
 3581SOL    HW211643   0.708   0.305   2.792
 3582SOL     OW11644   3.737   4.148   5.891
 3582SOL    HW111645   3.689   4.073   5.847
 3582SOL    HW211646   3.670   4.212   5.930
 3583SOL     OW11647   0.495   4.737   0.881
 3583SOL    HW111648   0.424   4.806   0.897
 3583SOL    HW211649   0.585   4.781   0.882
 3584SOL     OW11650   6.065   4.833   4.710
 3584SOL    HW111651   6.066   4.886   4.625
 3584SOL    HW211652   6.097   4.891   4.785
 3585SOL     OW11653   2.479   1.889   3.316
 3585SOL    HW111654   2.459   1.982   3.286
 3585SOL    HW211655   2.544   1.892   3.392
 3586SOL     OW11656   6.286   2.091   4.809
 3586SOL    HW111657   6.371   2.042   4.791
 3586SOL    HW211658   6.227   2.087   4.728
 3587SOL     OW11659   3.184   0.058   6.274
 3587SOL    HW111660   3.110   0.022   6.330
 3587SOL    HW211661   3.164   0.044   6.177
 3588SOL     OW11662   6.551   4.529   4.547
 3588SOL    HW111663   6.550   4.459   4.618
 3588SOL    HW211664   6.465   4.527   4.496
 3589SOL     OW11665   0.397   0.293   6.561
 3589SOL    HW111666   0.411   0.316   6.464
 3589SOL    HW211667   0.303   0.264   6.575
 3590SOL     OW11668   6.840   4.935   0.640
 3590SOL    HW111669   6.920   4.894   0.683
 3590SOL    HW211670   6.792   4.866   0.585
 3591SOL     OW11671   5.749   2.035   7.005
 3591SOL    HW111672   5.837   2.080   7.018
 3591SOL    HW211673   5.742   2.003   6.910
 3592SOL     OW11674   1.717   6.658   1.566
 3592SOL    HW111675   1.691   6.722   1.638
 3592SOL    HW211676   1.807   6.619   1.588
 3593SOL     OW11677   5.314   3.043   5.847
 3593SOL    HW111678   5.305   3.100   5.929
 3593SOL    HW211679   5.325   3.102   5.767
 3594SOL     OW11680   4.708   4.978   4.784
 3594SOL    HW111681   4.767   5.005   4.707
 3594SOL    HW211682   4.663   4.891   4.761
 3595SOL     OW11683   5.698   6.268   5.239
 3595SOL    HW111684   5.734   6.312   5.157
 3595SOL    HW211685   5.772   6.251   5.304
 3596SOL     OW11686   4.060   1.909   3.362
 3596SOL    HW111687   4.073   1.833   3.299
 3596SOL    HW211688   4.022   1.875   3.448
 3597SOL     OW11689   2.031   3.365   5.504
 3597SOL    HW111690   1.983   3.452   5.507
 3597SOL    HW211691   2.025   3.328   5.411
 3598SOL     OW11692   1.399   5.142   4.991
 3598SOL    HW111693   1.482   5.092   5.015
 3598SOL    HW211694   1.323   5.110   5.048
 3599SOL     OW11695   4.335   1.601   4.751
 3599SOL    HW111696   4.404   1.579   4.683
 3599SOL    HW211697   4.281   1.680   4.720
 3600SOL     OW11698   3.218   3.247   0.506
 3600SOL    HW111699   3.236   3.329   0.561
 3600SOL    HW211700   3.120   3.241   0.487
 3601SOL     OW11701   5.262   1.121   5.477
 3601SOL    HW111702   5.190   1.058   5.506
 3601SOL    HW211703   5.221   1.199   5.430
 3602SOL     OW11704   2.206   1.731   0.993
 3602SOL    HW111705   2.193   1.727   0.894
 3602SOL    HW211706   2.299   1.702   1.015
 3603SOL     OW11707   3.034   0.951   5.750
 3603SOL    HW111708   3.109   0.886   5.763
 3603SOL    HW211709   3.065   1.027   5.693
 3604SOL     OW11710   0.040   0.274   3.521
 3604SOL    HW111711   0.071   0.353   3.467
 3604SOL    HW211712   0.111   0.250   3.587
 3605SOL     OW11713   0.708   5.613   3.652
 3605SOL    HW111714   0.718   5.571   3.742
 3605SOL    HW211715   0.721   5.712   3.660
 3606SOL     OW11716   2.643   6.443   2.233
 3606SOL    HW111717   2.665   6.460   2.329
 3606SOL    HW211718   2.578   6.512   2.201
 3607SOL     OW11719   5.211   3.051   2.827
 3607SOL    HW111720   5.172   3.042   2.736
 3607SOL    HW211721   5.293   2.993   2.834
 3608SOL     OW11722   2.804   2.087   5.256
 3608SOL    HW111723   2.735   2.125   5.193
 3608SOL    HW211724   2.761   2.070   5.344
 3609SOL     OW11725   2.432   6.921   4.622
 3609SOL    HW111726   2.461   7.009   4.584
 3609SOL    HW211727   2.350   6.935   4.677
 3610SOL     OW11728   2.382   0.005   5.121
 3610SOL    HW111729   2.460   7.007   5.062
 3610SOL    HW211730   2.409   7.016   5.216
 3611SOL     OW11731   5.158   5.091   2.973
 3611SOL    HW111732   5.112   5.056   2.891
 3611SOL    HW211733   5.232   5.029   2.999
 3612SOL     OW11734   5.687   1.061   6.697
 3612SOL    HW111735   5.724   1.143   6.655
 3612SOL    HW211736   5.762   0.999   6.723
 3613SOL     OW11737   3.823   5.335   1.322
 3613SOL    HW111738   3.803   5.259   1.260
 3613SOL    HW211739   3.751   5.341   1.391
 3614SOL     OW11740   4.085   4.944   6.353
 3614SOL    HW111741   4.151   5.009   6.390
 3614SOL    HW211742   4.077   4.957   6.254
 3615SOL     OW11743   5.949   2.381   5.569
 3615SOL    HW111744   5.904   2.462   5.531
 3615SOL    HW211745   5.917   2.365   5.662
 3616SOL     OW11746   1.447   1.571   6.960
 3616SOL    HW111747   1.454   1.555   6.862
 3616SOL    HW211748   1.524   1.627   6.990
 3617SOL     OW11749   3.639   6.286   6.471
 3617SOL    HW111750   3.590   6.210   6.514
 3617SOL    HW211751   3.679   6.256   6.385
 3618SOL     OW11752   1.847   4.408   4.742
 3618SOL    HW111753   1.875   4.501   4.766
 3618SOL    HW211754   1.871   4.390   4.647
 3619SOL     OW11755   5.928   3.545   0.917
 3619SOL    HW111756   5.906   3.630   0.870
 3619SOL    HW211757   5.874   3.537   1.000
 3620SOL     OW11758   6.292   5.992   5.298
 3620SOL    HW111759   6.310   5.994   5.396
 3620SOL    HW211760   6.378   5.998   5.248
 3621SOL     OW11761   2.895   3.443   3.665
 3621SOL    HW111762   2.925   3.473   3.575
 3621SOL    HW211763   2.934   3.353   3.685
 3622SOL     OW11764   1.059   6.047   6.751
 3622SOL    HW111765   1.007   6.112   6.807
 3622SOL    HW211766   1.095   5.974   6.810
 3623SOL     OW11767   0.934   4.812   6.297
 3623SOL    HW111768   0.999   4.786   6.368
 3623SOL    HW211769   0.982   4.820   6.209
 3624SOL     OW11770   3.159   1.821   1.357
 3624SOL    HW111771   3.153   1.782   1.448
 3624SOL    HW211772   3.254   1.847   1.337
 3625SOL     OW11773   6.655   2.483   0.884
 3625SOL    HW111774   6.569   2.489   0.833
 3625SOL    HW211775   6.637   2.449   0.976
 3626SOL     OW11776   1.111   2.370   4.938
 3626SOL    HW111777   1.153   2.461   4.943
 3626SOL    HW211778   1.176   2.302   4.975
 3627SOL     OW11779   3.847   1.988   1.979
 3627SOL    HW111780   3.802   2.078   1.983
 3627SOL    HW211781   3.904   1.976   2.060
 3628SOL     OW11782   6.079   1.931   1.249
 3628SOL    HW111783   5.997   1.877   1.267
 3628SOL    HW211784   6.132   1.888   1.176
 3629SOL     OW11785   1.171   1.295   4.215
 3629SOL    HW111786   1.187   1.208   4.261
 3629SOL    HW211787   1.220   1.297   4.128
 3630SOL     OW11788   0.010   2.173   3.126
 3630SOL    HW111789   6.989   2.103   3.071
 3630SOL    HW211790   0.001   2.262   3.081
 3631SOL     OW11791   1.529   6.404   2.503
 3631SOL    HW111792   1.495   6.498   2.516
 3631SOL    HW211793   1.618   6.395   2.548
 3632SOL     OW11794   4.765   4.213   0.794
 3632SOL    HW111795   4.715   4.127   0.807
 3632SOL    HW211796   4.703   4.290   0.806
 3633SOL     OW11797   3.841   3.548   6.304
 3633SOL    HW111798   3.937   3.525   6.316
 3633SOL    HW211799   3.799   3.483   6.240
 3634SOL     OW11800   3.244   5.614   6.906
 3634SOL    HW111801   3.278   5.554   6.834
 3634SOL    HW211802   3.286   5.590   6.993
 3635SOL     OW11803   2.106   7.003   2.105
 3635SOL    HW111804   2.107   0.070   2.064
 3635SOL    HW211805   2.103   7.010   2.204
 3636SOL     OW11806   0.724   4.761   6.463
 3636SOL    HW111807   0.662   4.695   6.419
 3636SOL    HW211808   0.787   4.797   6.394
 3637SOL     OW11809   6.265   2.869   6.910
 3637SOL    HW111810   6.285   2.856   6.813
 3637SOL    HW211811   6.345   2.841   6.965
 3638SOL     OW11812   5.902   5.089   2.875
 3638SOL    HW111813   5.920   5.147   2.954
 3638SOL    HW211814   5.974   5.101   2.807
 3639SOL     OW11815   3.449   3.831   4.027
 3639SOL    HW111816   3.405   3.919   4.011
 3639SOL    HW211817   3.540   3.832   3.985
 3640SOL     OW11818   4.826   2.358   0.441
 3640SOL    HW111819   4.903   2.295   0.454
 3640SOL    HW211820   4.848   2.446   0.483
 3641SOL     OW11821   5.868   3.756   2.609
 3641SOL    HW111822   5.835   3.743   2.702
 3641SOL    HW211823   5.962   3.790   2.611
 3642SOL     OW11824   5.970   3.108   6.215
 3642SOL    HW111825   5.872   3.087   6.212
 3642SOL    HW211826   5.992   3.149   6.303
 3643SOL     OW11827   3.936   5.585   5.139
 3643SOL    HW111828   4.035   5.573   5.137
 3643SOL    HW211829   3.912   5.679   5.116
 3644SOL     OW11830   2.628   0.367   1.654
 3644SOL    HW111831   2.536   0.362   1.694
 3644SOL    HW211832   2.693   0.399   1.723
 3645SOL     OW11833   1.282   4.222   3.332
 3645SOL    HW111834   1.243   4.314   3.324
 3645SOL    HW211835   1.336   4.216   3.416
 3646SOL     OW11836   1.947   4.366   5.095
 3646SOL    HW111837   2.028   4.308   5.100
 3646SOL    HW211838   1.878   4.322   5.036
 3647SOL     OW11839   3.510   6.817   6.398
 3647SOL    HW111840   3.477   6.908   6.422
 3647SOL    HW211841   3.467   6.786   6.314
 3648SOL     OW11842   4.533   5.279   3.441
 3648SOL    HW111843   4.541   5.357   3.502
 3648SOL    HW211844   4.483   5.206   3.486
 3649SOL     OW11845   6.071   2.649   0.676
 3649SOL    HW111846   6.067   2.621   0.772
 3649SOL    HW211847   6.014   2.730   0.662
 3650SOL     OW11848   5.604   5.515   0.052
 3650SOL    HW111849   5.583   5.578   0.127
 3650SOL    HW211850   5.623   5.568   6.993
 3651SOL     OW11851   1.126   2.167   5.715
 3651SOL    HW111852   1.136   2.069   5.730
 3651SOL    HW211853   1.216   2.207   5.698
 3652SOL     OW11854   4.257   1.325   1.986
 3652SOL    HW111855   4.191   1.312   2.060
 3652SOL    HW211856   4.220   1.390   1.920
 3653SOL     OW11857   0.895   1.768   1.325
 3653SOL    HW111858   0.852   1.852   1.358
 3653SOL    HW211859   0.824   1.705   1.291
 3654SOL     OW11860   5.291   6.832   0.602
 3654SOL    HW111861   5.235   6.774   0.543
 3654SOL    HW211862   5.285   6.927   0.570
 3655SOL     OW11863   1.645   2.324   4.073
 3655SOL    HW111864   1.664   2.260   3.998
 3655SOL    HW211865   1.731   2.357   4.112
 3656SOL     OW11866   6.695   0.066   1.261
 3656SOL    HW111867   6.692   6.991   1.247
 3656SOL    HW211868   6.702   0.086   1.358
 3657SOL     OW11869   5.468   5.322   5.195
 3657SOL    HW111870   5.476   5.225   5.173
 3657SOL    HW211871   5.426   5.332   5.285
 3658SOL     OW11872   1.908   4.922   5.780
 3658SOL    HW111873   1.870   5.007   5.743
 3658SOL    HW211874   2.004   4.913   5.752
 3659SOL     OW11875   0.040   1.658   6.242
 3659SOL    HW111876   0.103   1.735   6.229
 3659SOL    HW211877   0.087   1.572   6.220
 3660SOL     OW11878   5.671   5.369   6.671
 3660SOL    HW111879   5.669   5.369   6.571
 3660SOL    HW211880   5.654   5.462   6.704
 3661SOL     OW11881   0.057   2.010   5.034
 3661SOL    HW111882   0.153   1.983   5.027
 3661SOL    HW211883   0.016   2.013   4.943
 3662SOL     OW11884   2.714   1.720   5.553
 3662SOL    HW111885   2.697   1.693   5.458
 3662SOL    HW211886   2.779   1.796   5.554
 3663SOL     OW11887   2.689   2.436   6.596
 3663SOL    HW111888   2.734   2.406   6.512
 3663SOL    HW211889   2.677   2.535   6.594
 3664SOL     OW11890   3.904   1.155   1.951
 3664SOL    HW111891   3.914   1.118   2.044
 3664SOL    HW211892   3.978   1.221   1.934
 3665SOL     OW11893   0.736   5.453   6.216
 3665SOL    HW111894   0.810   5.517   6.196
 3665SOL    HW211895   0.775   5.363   6.236
 3666SOL     OW11896   1.790   2.756   4.865
 3666SOL    HW111897   1.755   2.831   4.921
 3666SOL    HW211898   1.867   2.788   4.810
 3667SOL     OW11899   2.172   0.551   1.640
 3667SOL    HW111900   2.083   0.595   1.636
 3667SOL    HW211901   2.187   0.498   1.556
 3668SOL     OW11902   6.948   0.840   1.593
 3668SOL    HW111903   6.963   0.936   1.613
 3668SOL    HW211904   6.885   0.831   1.515
 3669SOL     OW11905   0.732   1.738   3.629
 3669SOL    HW111906   0.691   1.805   3.690
 3669SOL    HW211907   0.673   1.658   3.622
 3670SOL     OW11908   2.790   6.107   1.855
 3670SOL    HW111909   2.773   6.099   1.953
 3670SOL    HW211910   2.820   6.200   1.834
 3671SOL     OW11911   6.046   0.467   3.684
 3671SOL    HW111912   6.049   0.548   3.741
 3671SOL    HW211913   6.070   0.386   3.739
 3672SOL     OW11914   3.756   6.486   3.204
 3672SOL    HW111915   3.741   6.552   3.278
 3672SOL    HW211916   3.747   6.534   3.116
 3673SOL     OW11917   3.314   5.973   1.274
 3673SOL    HW111918   3.248   5.980   1.348
 3673SOL    HW211919   3.407   5.973   1.311
 3674SOL     OW11920   1.932   4.692   6.459
 3674SOL    HW111921   1.885   4.609   6.428
 3674SOL    HW211922   2.026   4.692   6.423
 3675SOL     OW11923   1.424   0.687   4.022
 3675SOL    HW111924   1.369   0.642   3.951
 3675SOL    HW211925   1.385   0.668   4.112
 3676SOL     OW11926   3.837   2.163   4.019
 3676SOL    HW111927   3.835   2.145   4.118
 3676SOL    HW211928   3.745   2.154   3.982
 3677SOL     OW11929   2.266   0.591   4.321
 3677SOL    HW111930   2.279   0.506   4.269
 3677SOL    HW211931   2.193   0.644   4.279
 3678SOL     OW11932   0.879   0.691   4.040
 3678SOL    HW111933   0.788   0.713   4.077
 3678SOL    HW211934   0.893   0.740   3.954
 3679SOL     OW11935   4.027   0.513   2.539
 3679SOL    HW111936   3.974   0.495   2.456
 3679SOL    HW211937   4.041   0.612   2.549
 3680SOL     OW11938   3.168   1.268   4.529
 3680SOL    HW111939   3.087   1.325   4.538
 3680SOL    HW211940   3.240   1.319   4.483
 3681SOL     OW11941   1.402   6.045   4.384
 3681SOL    HW111942   1.350   5.968   4.346
 3681SOL    HW211943   1.447   6.016   4.468
 3682SOL     OW11944   5.704   1.897   1.531
 3682SOL    HW111945   5.606   1.905   1.513
 3682SOL    HW211946   5.720   1.899   1.630
 3683SOL     OW11947   5.712   1.658   6.570
 3683SOL    HW111948   5.692   1.713   6.488
 3683SOL    HW211949   5.652   1.579   6.572
 3684SOL     OW11950   1.834   6.470   5.880
 3684SOL    HW111951   1.856   6.556   5.926
 3684SOL    HW211952   1.885   6.396   5.923
 3685SOL     OW11953   2.188   6.246   5.292
 3685SOL    HW111954   2.224   6.167   5.243
 3685SOL    HW211955   2.099   6.223   5.331
 3686SOL     OW11956   0.264   4.018   2.788
 3686SOL    HW111957   0.218   4.010   2.877
 3686SOL    HW211958   0.359   3.989   2.797
 3687SOL     OW11959   5.454   5.104   4.170
 3687SOL    HW111960   5.421   5.016   4.135
 3687SOL    HW211961   5.497   5.090   4.259
 3688SOL     OW11962   6.229   2.493   0.529
 3688SOL    HW111963   6.188   2.404   0.550
 3688SOL    HW211964   6.185   2.564   0.584
 3689SOL     OW11965   1.205   6.758   5.850
 3689SOL    HW111966   1.195   6.804   5.762
 3689SOL    HW211967   1.210   6.659   5.835
 3690SOL     OW11968   5.187   5.377   1.512
 3690SOL    HW111969   5.138   5.364   1.425
 3690SOL    HW211970   5.267   5.317   1.514
 3691SOL     OW11971   1.297   2.679   0.722
 3691SOL    HW111972   1.268   2.643   0.634
 3691SOL    HW211973   1.259   2.770   0.735
 3692SOL     OW11974   0.707   3.029   5.597
 3692SOL    HW111975   0.663   2.974   5.526
 3692SOL    HW211976   0.713   3.124   5.566
 3693SOL     OW11977   6.223   1.321   2.280
 3693SOL    HW111978   6.158   1.260   2.325
 3693SOL    HW211979   6.192   1.339   2.187
 3694SOL     OW11980   6.747   0.153   2.620
 3694SOL    HW111981   6.716   0.137   2.527
 3694SOL    HW211982   6.782   0.246   2.628
 3695SOL     OW11983   5.834   3.641   2.851
 3695SOL    HW111984   5.757   3.600   2.900
 3695SOL    HW211985   5.896   3.570   2.819
 3696SOL     OW11986   3.973   0.657   4.628
 3696SOL    HW111987   4.060   0.690   4.666
 3696SOL    HW211988   3.959   0.562   4.654
 3697SOL     OW11989   6.948   6.207   2.922
 3697SOL    HW111990   0.021   6.215   2.898
 3697SOL    HW211991   6.920   6.289   2.972
 3698SOL     OW11992   1.614   6.803   2.944
 3698SOL    HW111993   1.627   6.857   2.861
 3698SOL    HW211994   1.586   6.864   3.019
 3699SOL     OW11995   2.603   2.311   3.550
 3699SOL    HW111996   2.683   2.309   3.611
 3699SOL    HW211997   2.532   2.370   3.590
 3700SOL     OW11998   1.204   5.176   4.800
 3700SOL    HW111999   1.143   5.253   4.821
 3700SOL    HW212000   1.271   5.166   4.874
 3701SOL     OW12001   1.554   0.525   2.103
 3701SOL    HW112002   1.626   0.478   2.153
 3701SOL    HW212003   1.591   0.608   2.061
 3702SOL     OW12004   5.322   4.857   3.090
 3702SOL    HW112005   5.335   4.947   3.131
 3702SOL    HW212006   5.363   4.787   3.149
 3703SOL     OW12007   1.350   1.576   3.979
 3703SOL    HW112008   1.394   1.581   3.889
 3703SOL    HW212009   1.322   1.481   3.997
 3704SOL     OW12010   6.492   2.093   0.545
 3704SOL    HW112011   6.466   2.106   0.640
 3704SOL    HW212012   6.585   2.056   0.540
 3705SOL     OW12013   5.059   4.496   3.150
 3705SOL    HW112014   5.072   4.565   3.078
 3705SOL    HW212015   4.972   4.513   3.197
 3706SOL     OW12016   1.114   4.327   0.461
 3706SOL    HW112017   1.189   4.386   0.433
 3706SOL    HW212018   1.027   4.375   0.448
 3707SOL     OW12019   1.392   5.205   3.570
 3707SOL    HW112020   1.446   5.216   3.654
 3707SOL    HW212021   1.372   5.295   3.531
 3708SOL     OW12022   2.362   6.660   0.897
 3708SOL    HW112023   2.454   6.621   0.910
 3708SOL    HW212024   2.328   6.693   0.985
 3709SOL     OW12025   1.483   1.486   2.045
 3709SOL    HW112026   1.519   1.503   1.954
 3709SOL    HW212027   1.447   1.571   2.084
 3710SOL     OW12028   0.410   4.191   5.248
 3710SOL    HW112029   0.343   4.221   5.316
 3710SOL    HW212030   0.435   4.268   5.189
 3711SOL     OW12031   1.263   5.577   4.259
 3711SOL    HW112032   1.284   5.524   4.177
 3711SOL    HW212033   1.184   5.636   4.241
 3712SOL     OW12034   1.850   5.343   4.687
 3712SOL    HW112035   1.823   5.428   4.641
 3712SOL    HW212036   1.783   5.272   4.666
 3713SOL     OW12037   5.765   0.567   3.962
 3713SOL    HW112038   5.738   0.502   3.891
 3713SOL    HW212039   5.830   0.523   4.024
 3714SOL     OW12040   0.710   4.828   0.629
 3714SOL    HW112041   0.736   4.875   0.714
 3714SOL    HW212042   0.641   4.758   0.650
 3715SOL     OW12043   5.594   5.683   4.002
 3715SOL    HW112044   5.591   5.621   3.924
 3715SOL    HW212045   5.579   5.777   3.971
 3716SOL     OW12046   5.055   5.609   4.275
 3716SOL    HW112047   5.119   5.534   4.293
 3716SOL    HW212048   5.018   5.642   4.362
 3717SOL     OW12049   4.467   0.805   0.906
 3717SOL    HW112050   4.566   0.815   0.899
 3717SOL    HW212051   4.434   0.744   0.834
 3718SOL     OW12052   6.362   6.500   5.957
 3718SOL    HW112053   6.388   6.578   6.013
 3718SOL    HW212054   6.348   6.420   6.015
 3719SOL     OW12055   3.498   3.849   0.429
 3719SOL    HW112056   3.400   3.827   0.429
 3719SOL    HW212057   3.549   3.771   0.391
 3720SOL     OW12058   0.164   3.652   1.541
 3720SOL    HW112059   0.105   3.581   1.579
 3720SOL    HW212060   0.255   3.614   1.525
 3721SOL     OW12061   0.162   6.014   5.426
 3721SOL    HW112062   0.069   6.006   5.462
 3721SOL    HW212063   0.220   5.944   5.470
 3722SOL     OW12064   5.147   6.271   3.219
 3722SOL    HW112065   5.146   6.293   3.121
 3722SOL    HW212066   5.219   6.203   3.236
 3723SOL     OW12067   4.735   3.696   0.381
 3723SOL    HW112068   4.636   3.706   0.378
 3723SOL    HW212069   4.772   3.708   0.289
 3724SOL     OW12070   1.617   4.916   4.723
 3724SOL    HW112071   1.628   4.946   4.818
 3724SOL    HW212072   1.525   4.877   4.711
 3725SOL     OW12073   1.283   5.787   0.240
 3725SOL    HW112074   1.194   5.753   0.212
 3725SOL    HW212075   1.345   5.788   0.161
 3726SOL     OW12076   6.013   3.851   5.131
 3726SOL    HW112077   5.959   3.773   5.100
 3726SOL    HW212078   5.960   3.903   5.199
 3727SOL     OW12079   6.969   3.617   4.006
 3727SOL    HW112080   0.005   3.645   4.080
 3727SOL    HW212081   7.018   3.622   3.919
 3728SOL     OW12082   2.797   2.760   0.166
 3728SOL    HW112083   2.724   2.732   0.228
 3728SOL    HW212084   2.885   2.750   0.213
 3729SOL     OW12085   0.866   0.360   5.720
 3729SOL    HW112086   0.966   0.353   5.715
 3729SOL    HW212087   0.839   0.456   5.723
 3730SOL     OW12088   4.819   5.677   4.110
 3730SOL    HW112089   4.888   5.633   4.169
 3730SOL    HW212090   4.861   5.755   4.064
 3731SOL     OW12091   0.141   2.268   0.016
 3731SOL    HW112092   0.077   2.261   6.964
 3731SOL    HW212093   0.199   2.348   0.004
 3732SOL     OW12094   3.458   2.529   6.795
 3732SOL    HW112095   3.471   2.450   6.855
 3732SOL    HW212096   3.469   2.502   6.700
 3733SOL     OW12097   1.877   0.865   3.378
 3733SOL    HW112098   1.946   0.794   3.394
 3733SOL    HW212099   1.789   0.835   3.415
 3734SOL     OW12100   4.113   6.957   1.048
 3734SOL    HW112101   4.063   6.871   1.062
 3734SOL    HW212102   4.112   7.010   1.132
 3735SOL     OW12103   4.231   6.754   2.949
 3735SOL    HW112104   4.165   6.680   2.961
 3735SOL    HW212105   4.315   6.731   2.997
 3736SOL     OW12106   6.888   0.994   0.860
 3736SOL    HW112107   6.898   1.047   0.944
 3736SOL    HW212108   6.840   1.048   0.791
 3737SOL     OW12109   6.826   2.336   2.422
 3737SOL    HW112110   6.840   2.286   2.337
 3737SOL    HW212111   6.729   2.351   2.437
 3738SOL     OW12112   6.493   6.979   0.687
 3738SOL    HW112113   6.545   7.008   0.768
 3738SOL    HW212114   6.409   0.008   0.682
 3739SOL     OW12115   3.222   3.879   0.418
 3739SOL    HW112116   3.151   3.913   0.479
 3739SOL    HW212117   3.213   3.924   0.329
 3740SOL     OW12118   5.172   5.290   6.458
 3740SOL    HW112119   5.073   5.273   6.456
 3740SOL    HW212120   5.203   5.313   6.366
 3741SOL     OW12121   5.329   3.204   0.403
 3741SOL    HW112122   5.337   3.169   0.309
 3741SOL    HW212123   5.416   3.245   0.430
 3742SOL     OW12124   3.858   5.063   0.644
 3742SOL    HW112125   3.952   5.097   0.637
 3742SOL    HW212126   3.795   5.141   0.644
 3743SOL     OW12127   3.767   3.390   1.335
 3743SOL    HW112128   3.841   3.346   1.386
 3743SOL    HW212129   3.749   3.480   1.374
 3744SOL     OW12130   0.481   6.882   2.591
 3744SOL    HW112131   0.534   6.959   2.625
 3744SOL    HW212132   0.391   6.880   2.636
 3745SOL     OW12133   4.989   3.630   2.245
 3745SOL    HW112134   4.947   3.553   2.196
 3745SOL    HW212135   4.986   3.711   2.187
 3746SOL     OW12136   5.909   0.532   4.585
 3746SOL    HW112137   5.939   0.528   4.490
 3746SOL    HW212138   5.888   0.627   4.609
 3747SOL     OW12139   3.372   6.801   5.923
 3747SOL    HW112140   3.418   6.771   5.840
 3747SOL    HW212141   3.408   6.751   6.001
 3748SOL     OW12142   4.848   1.508   2.798
 3748SOL    HW112143   4.850   1.487   2.701
 3748SOL    HW212144   4.910   1.446   2.847
 3749SOL     OW12145   7.001   6.738   2.269
 3749SOL    HW112146   6.987   6.836   2.283
 3749SOL    HW212147   0.074   6.718   2.270
 3750SOL     OW12148   5.678   4.154   0.787
 3750SOL    HW112149   5.735   4.140   0.706
 3750SOL    HW212150   5.736   4.159   0.868
 3751SOL     OW12151   1.871   3.854   2.469
 3751SOL    HW112152   1.962   3.842   2.508
 3751SOL    HW212153   1.832   3.765   2.445
 3752SOL     OW12154   0.881   6.370   6.560
 3752SOL    HW112155   0.790   6.381   6.600
 3752SOL    HW212156   0.925   6.460   6.552
 3753SOL     OW12157   6.572   6.691   5.098
 3753SOL    HW112158   6.473   6.689   5.083
 3753SOL    HW212159   6.619   6.689   5.010
 3754SOL     OW12160   6.648   6.853   1.110
 3754SOL    HW112161   6.618   6.909   1.033
 3754SOL    HW212162   6.584   6.777   1.124
 3755SOL     OW12163   5.356   3.541   2.927
 3755SOL    HW112164   5.358   3.451   2.883
 3755SOL    HW212165   5.270   3.587   2.906
 3756SOL     OW12166   3.085   0.291   6.514
 3756SOL    HW112167   3.119   0.198   6.530
 3756SOL    HW212168   3.110   0.349   6.591
 3757SOL     OW12169   3.220   5.538   6.328
 3757SOL    HW112170   3.293   5.605   6.315
 3757SOL    HW212171   3.142   5.582   6.373
 3758SOL     OW12172   1.595   1.263   4.112
 3758SOL    HW112173   1.577   1.326   4.188
 3758SOL    HW212174   1.522   1.273   4.043
 3759SOL     OW12175   4.671   4.370   6.485
 3759SOL    HW112176   4.593   4.313   6.509
 3759SOL    HW212177   4.643   4.466   6.484
 3760SOL     OW12178   1.585   2.469   4.953
 3760SOL    HW112179   1.636   2.385   4.971
 3760SOL    HW212180   1.636   2.526   4.890
 3761SOL     OW12181   6.923   6.671   4.208
 3761SOL    HW112182   6.835   6.625   4.205
 3761SOL    HW212183   6.996   6.604   4.219
 3762SOL     OW12184   0.574   3.836   0.006
 3762SOL    HW112185   0.495   3.805   6.979
 3762SOL    HW212186   0.616   3.759   0.054
 3763SOL     OW12187   6.132   3.655   6.236
 3763SOL    HW112188   6.139   3.633   6.333
 3763SOL    HW212189   6.205   3.609   6.186
 3764SOL     OW12190   2.559   6.827   3.597
 3764SOL    HW112191   2.480   6.772   3.568
 3764SOL    HW212192   2.560   6.914   3.548
 3765SOL     OW12193   5.805   0.906   4.270
 3765SOL    HW112194   5.721   0.955   4.295
 3765SOL    HW212195   5.785   0.809   4.257
 3766SOL     OW12196   1.438   0.515   5.273
 3766SOL    HW112197   1.512   0.503   5.339
 3766SOL    HW212198   1.388   0.429   5.264
 3767SOL     OW12199   1.388   5.078   1.269
 3767SOL    HW112200   1.488   5.080   1.260
 3767SOL    HW212201   1.354   4.986   1.250
 3768SOL     OW12202   4.635   6.744   0.761
 3768SOL    HW112203   4.537   6.733   0.780
 3768SOL    HW212204   4.647   6.812   0.688
 3769SOL     OW12205   4.468   6.395   4.853
 3769SOL    HW112206   4.374   6.362   4.839
 3769SOL    HW212207   4.508   6.348   4.931
 3770SOL     OW12208   1.866   2.106   7.006
 3770SOL    HW112209   1.783   2.113   0.037
 3770SOL    HW212210   1.871   2.183   6.942
 3771SOL     OW12211   5.330   1.516   5.744
 3771SOL    HW112212   5.365   1.606   5.769
 3771SOL    HW212213   5.230   1.518   5.741
 3772SOL     OW12214   4.874   1.280   2.395
 3772SOL    HW112215   4.785   1.234   2.399
 3772SOL    HW212216   4.926   1.244   2.317
 3773SOL     OW12217   6.859   2.985   6.564
 3773SOL    HW112218   6.818   2.944   6.646
 3773SOL    HW212219   6.952   2.950   6.552
 3774SOL     OW12220   0.563   1.018   2.167
 3774SOL    HW112221   0.619   1.002   2.248
 3774SOL    HW212222   0.485   1.075   2.191
 3775SOL     OW12223   5.662   3.848   3.621
 3775SOL    HW112224   5.620   3.815   3.705
 3775SOL    HW212225   5.672   3.773   3.557
 3776SOL     OW12226   2.756   3.440   0.431
 3776SOL    HW112227   2.702   3.467   0.511
 3776SOL    HW212228   2.695   3.429   0.352
 3777SOL     OW12229   2.112   4.067   3.646
 3777SOL    HW112230   2.156   3.983   3.677
 3777SOL    HW212231   2.049   4.100   3.716
 3778SOL     OW12232   2.186   6.460   2.038
 3778SOL    HW112233   2.191   6.559   2.050
 3778SOL    HW212234   2.225   6.414   2.118
 3779SOL     OW12235   2.999   5.477   6.152
 3779SOL    HW112236   3.003   5.382   6.184
 3779SOL    HW212237   3.027   5.538   6.226
 3780SOL     OW12238   2.741   6.746   4.924
 3780SOL    HW112239   2.839   6.732   4.913
 3780SOL    HW212240   2.691   6.674   4.875
 3781SOL     OW12241   2.888   5.533   4.973
 3781SOL    HW112242   2.912   5.556   5.068
 3781SOL    HW212243   2.919   5.605   4.912
 3782SOL     OW12244   2.167   1.944   3.291
 3782SOL    HW112245   2.267   1.943   3.285
 3782SOL    HW212246   2.127   1.930   3.200
 3783SOL     OW12247   5.198   5.991   5.251
 3783SOL    HW112248   5.215   6.089   5.237
 3783SOL    HW212249   5.202   5.944   5.163
 3784SOL     OW12250   5.633   1.606   3.387
 3784SOL    HW112251   5.659   1.685   3.443
 3784SOL    HW212252   5.534   1.602   3.379
 3785SOL     OW12253   1.829   1.731   1.489
 3785SOL    HW112254   1.759   1.684   1.436
 3785SOL    HW212255   1.811   1.829   1.489
 3786SOL     OW12256   3.124   5.494   3.440
 3786SOL    HW112257   3.199   5.486   3.506
 3786SOL    HW212258   3.132   5.420   3.373
 3787SOL     OW12259   3.801   1.577   3.958
 3787SOL    HW112260   3.761   1.559   4.047
 3787SOL    HW212261   3.768   1.509   3.892
 3788SOL     OW12262   5.418   2.752   2.319
 3788SOL    HW112263   5.344   2.801   2.365
 3788SOL    HW212264   5.445   2.673   2.374
 3789SOL     OW12265   1.509   4.973   3.264
 3789SOL    HW112266   1.430   4.911   3.267
 3789SOL    HW212267   1.549   4.980   3.355
 3790SOL     OW12268   2.018   3.267   3.855
 3790SOL    HW112269   2.054   3.256   3.947
 3790SOL    HW212270   2.000   3.364   3.837
 3791SOL     OW12271   4.927   0.120   2.071
 3791SOL    HW112272   4.903   0.031   2.111
 3791SOL    HW212273   5.025   0.136   2.082
 3792SOL     OW12274   6.960   6.709   5.687
 3792SOL    HW112275   6.927   6.802   5.701
 3792SOL    HW212276   0.033   6.711   5.667
 3793SOL     OW12277   1.840   0.502   2.756
 3793SOL    HW112278   1.752   0.539   2.727
 3793SOL    HW212279   1.872   0.434   2.691
 3794SOL     OW12280   4.185   6.200   1.467
 3794SOL    HW112281   4.118   6.274   1.463
 3794SOL    HW212282   4.141   6.117   1.499
 3795SOL     OW12283   5.058   6.919   6.497
 3795SOL    HW112284   5.036   6.924   6.400
 3795SOL    HW212285   5.063   7.011   6.535
 3796SOL     OW12286   1.343   3.049   2.284
 3796SOL    HW112287   1.361   3.070   2.380
 3796SOL    HW212288   1.255   3.002   2.276
 3797SOL     OW12289   0.524   4.795   2.585
 3797SOL    HW112290   0.468   4.796   2.503
 3797SOL    HW212291   0.478   4.741   2.656
 3798SOL     OW12292   1.611   5.151   2.188
 3798SOL    HW112293   1.566   5.153   2.277
 3798SOL    HW212294   1.626   5.056   2.161
 3799SOL     OW12295   2.047   0.250   5.332
 3799SOL    HW112296   1.972   0.205   5.381
 3799SOL    HW212297   2.126   0.258   5.392
 3800SOL     OW12298   5.071   2.733   4.655
 3800SOL    HW112299   5.087   2.820   4.701
 3800SOL    HW212300   4.984   2.695   4.686
 3801SOL     OW12301   6.940   6.593   5.932
 3801SOL    HW112302   6.927   6.656   5.854
 3801SOL    HW212303   7.019   6.623   5.985
 3802SOL     OW12304   1.614   1.786   5.360
 3802SOL    HW112305   1.658   1.698   5.342
 3802SOL    HW212306   1.521   1.784   5.323
 3803SOL     OW12307   3.740   1.640   0.941
 3803SOL    HW112308   3.756   1.731   0.980
 3803SOL    HW212309   3.690   1.584   1.008
 3804SOL     OW12310   4.944   2.470   4.574
 3804SOL    HW112311   4.898   2.482   4.662
 3804SOL    HW212312   4.949   2.557   4.526
 3805SOL     OW12313   2.399   4.464   1.550
 3805SOL    HW112314   2.486   4.459   1.501
 3805SOL    HW212315   2.416   4.481   1.647
 3806SOL     OW12316   2.593   1.825   0.154
 3806SOL    HW112317   2.667   1.775   0.200
 3806SOL    HW212318   2.539   1.873   0.222
 3807SOL     OW12319   1.543   6.742   3.589
 3807SOL    HW112320   1.607   6.666   3.597
 3807SOL    HW212321   1.454   6.708   3.561
 3808SOL     OW12322   2.923   0.182   1.365
 3808SOL    HW112323   2.930   0.281   1.356
 3808SOL    HW212324   3.012   0.141   1.347
 3809SOL     OW12325   4.350   1.153   6.313
 3809SOL    HW112326   4.306   1.067   6.289
 3809SOL    HW212327   4.342   1.216   6.235
 3810SOL     OW12328   2.652   3.124   5.350
 3810SOL    HW112329   2.729   3.160   5.299
 3810SOL    HW212330   2.601   3.059   5.293
 3811SOL     OW12331   0.840   5.370   5.513
 3811SOL    HW112332   0.765   5.433   5.494
 3811SOL    HW212333   0.873   5.385   5.606
 3812SOL     OW12334   5.561   1.610   5.033
 3812SOL    HW112335   5.505   1.675   5.086
 3812SOL    HW212336   5.572   1.526   5.085
 3813SOL     OW12337   3.302   5.142   1.221
 3813SOL    HW112338   3.352   5.186   1.146
 3813SOL    HW212339   3.248   5.066   1.184
 3814SOL     OW12340   0.363   6.798   2.033
 3814SOL    HW112341   0.313   6.883   2.015
 3814SOL    HW212342   0.343   6.765   2.125
 3815SOL     OW12343   5.101   2.375   1.402
 3815SOL    HW112344   5.025   2.350   1.462
 3815SOL    HW212345   5.166   2.432   1.453
 3816SOL     OW12346   1.029   6.582   1.270
 3816SOL    HW112347   1.013   6.653   1.202
 3816SOL    HW212348   1.004   6.617   1.361
 3817SOL     OW12349   5.317   2.018   5.639
 3817SOL    HW112350   5.244   1.969   5.686
 3817SOL    HW212351   5.397   1.959   5.631
 3818SOL     OW12352   4.785   5.525   2.132
 3818SOL    HW112353   4.712   5.471   2.175
 3818SOL    HW212354   4.872   5.479   2.144
 3819SOL     OW12355   5.476   4.359   0.188
 3819SOL    HW112356   5.461   4.270   0.144
 3819SOL    HW212357   5.387   4.403   0.205
 3820SOL     OW12358   5.343   6.400   4.131
 3820SOL    HW112359   5.332   6.491   4.093
 3820SOL    HW212360   5.416   6.401   4.200
 3821SOL     OW12361   1.180   3.990   2.077
 3821SOL    HW112362   1.215   4.058   2.012
 3821SOL    HW212363   1.124   3.923   2.028
 3822SOL     OW12364   2.465   5.116   1.402
 3822SOL    HW112365   2.468   5.020   1.372
 3822SOL    HW212366   2.551   5.139   1.448
 3823SOL     OW12367   3.639   2.723   5.283
 3823SOL    HW112368   3.630   2.763   5.192
 3823SOL    HW212369   3.564   2.756   5.341
 3824SOL     OW12370   0.006   2.296   6.804
 3824SOL    HW112371   6.961   2.264   6.738
 3824SOL    HW212372   0.049   2.379   6.770
 3825SOL     OW12373   6.750   6.488   6.311
 3825SOL    HW112374   6.792   6.414   6.362
 3825SOL    HW212375   6.764   6.473   6.213
 3826SOL     OW12376   6.868   2.703   1.281
 3826SOL    HW112377   6.795   2.649   1.323
 3826SOL    HW212378   6.931   2.643   1.232
 3827SOL     OW12379   4.333   3.267   0.441
 3827SOL    HW112380   4.234   3.260   0.453
 3827SOL    HW212381   4.353   3.309   0.352
 3828SOL     OW12382   4.015   0.809   2.481
 3828SOL    HW112383   3.941   0.760   2.435
 3828SOL    HW212384   3.983   0.899   2.510
 3829SOL     OW12385   2.064   5.254   3.631
 3829SOL    HW112386   2.100   5.261   3.725
 3829SOL    HW212387   1.970   5.220   3.634
 3830SOL     OW12388   3.121   0.673   4.625
 3830SOL    HW112389   3.115   0.574   4.610
 3830SOL    HW212390   3.031   0.708   4.651
 3831SOL     OW12391   3.715   1.496   1.885
 3831SOL    HW112392   3.758   1.444   1.812
 3831SOL    HW212393   3.703   1.591   1.855
 3832SOL     OW12394   6.306   0.412   2.690
 3832SOL    HW112395   6.359   0.379   2.768
 3832SOL    HW212396   6.236   0.476   2.721
 3833SOL     OW12397   1.251   4.603   0.080
 3833SOL    HW112398   1.255   4.698   0.111
 3833SOL    HW212399   1.166   4.588   0.030
 3834SOL     OW12400   2.464   2.061   0.041
 3834SOL    HW112401   2.389   2.060   7.000
 3834SOL    HW212402   2.524   1.983   0.024
 3835SOL     OW12403   3.497   5.670   5.099
 3835SOL    HW112404   3.450   5.734   5.039
 3835SOL    HW212405   3.510   5.583   5.052
 3836SOL     OW12406   0.829   3.337   5.997
 3836SOL    HW112407   0.853   3.306   6.089
 3836SOL    HW212408   0.873   3.278   5.929
 3837SOL     OW12409   3.489   3.401   0.286
 3837SOL    HW112410   3.585   3.384   0.309
 3837SOL    HW212411   3.446   3.453   0.360
 3838SOL     OW12412   6.088   3.290   5.368
 3838SOL    HW112413   6.076   3.219   5.299
 3838SOL    HW212414   6.004   3.344   5.375
 3839SOL     OW12415   6.043   6.439   6.083
 3839SOL    HW112416   6.042   6.346   6.119
 3839SOL    HW212417   6.052   6.504   6.158
 3840SOL     OW12418   1.821   0.806   4.018
 3840SOL    HW112419   1.758   0.729   4.008
 3840SOL    HW212420   1.903   0.789   3.963
 3841SOL     OW12421   0.151   3.862   4.903
 3841SOL    HW112422   0.187   3.925   4.972
 3841SOL    HW212423   0.220   3.792   4.883
 3842SOL     OW12424   0.976   5.237   6.857
 3842SOL    HW112425   1.002   5.141   6.865
 3842SOL    HW212426   0.974   5.279   6.948
 3843SOL     OW12427   6.089   3.896   0.655
 3843SOL    HW112428   6.065   3.817   0.598
 3843SOL    HW212429   6.166   3.944   0.615
 3844SOL     OW12430   2.174   4.588   6.358
 3844SOL    HW112431   2.091   4.538   6.331
 3844SOL    HW212432   2.249   4.523   6.372
 3845SOL     OW12433   3.570   3.687   3.653
 3845SOL    HW112434   3.601   3.687   3.749
 3845SOL    HW212435   3.470   3.683   3.651
 3846SOL     OW12436   0.056   4.764   3.559
 3846SOL    HW112437   0.077   4.755   3.462
 3846SOL    HW212438   0.055   4.674   3.601
 3847SOL     OW12439   0.983   0.120   0.588
 3847SOL    HW112440   0.972   0.213   0.552
 3847SOL    HW212441   0.901   0.067   0.569
 3848SOL     OW12442   3.128   5.228   0.274
 3848SOL    HW112443   3.224   5.250   0.260
 3848SOL    HW212444   3.100   5.257   0.366
 3849SOL     OW12445   1.727   2.253   5.957
 3849SOL    HW112446   1.752   2.254   6.054
 3849SOL    HW212447   1.660   2.324   5.939
 3850SOL     OW12448   2.614   3.773   1.566
 3850SOL    HW112449   2.682   3.771   1.493
 3850SOL    HW212450   2.623   3.858   1.618
 3851SOL     OW12451   2.829   2.416   1.544
 3851SOL    HW112452   2.821   2.503   1.494
 3851SOL    HW212453   2.790   2.427   1.635
 3852SOL     OW12454   4.184   0.604   5.290
 3852SOL    HW112455   4.233   0.532   5.241
 3852SOL    HW212456   4.234   0.690   5.282
 3853SOL     OW12457   1.847   2.923   2.081
 3853SOL    HW112458   1.774   2.951   2.144
 3853SOL    HW212459   1.892   2.841   2.117
 3854SOL     OW12460   1.188   3.238   4.448
 3854SOL    HW112461   1.187   3.274   4.354
 3854SOL    HW212462   1.179   3.139   4.446
 3855SOL     OW12463   0.188   2.339   5.478
 3855SOL    HW112464   0.222   2.326   5.571
 3855SOL    HW212465   0.093   2.370   5.481
 3856SOL     OW12466   0.939   6.107   5.438
 3856SOL    HW112467   0.933   6.057   5.352
 3856SOL    HW212468   0.883   6.190   5.431
 3857SOL     OW12469   0.765   6.666   5.473
 3857SOL    HW112470   0.811   6.598   5.530
 3857SOL    HW212471   0.829   6.739   5.449
 3858SOL     OW12472   1.819   5.391   0.508
 3858SOL    HW112473   1.798   5.305   0.463
 3858SOL    HW212474   1.886   5.375   0.581
 3859SOL     OW12475   0.126   2.212   2.274
 3859SOL    HW112476   0.131   2.210   2.374
 3859SOL    HW212477   0.033   2.237   2.246
 3860SOL     OW12478   2.735   6.215   5.384
 3860SOL    HW112479   2.805   6.250   5.322
 3860SOL    HW212480   2.659   6.177   5.330
 3861SOL     OW12481   4.408   4.604   0.527
 3861SOL    HW112482   4.389   4.593   0.625
 3861SOL    HW212483   4.354   4.679   0.491
 3862SOL     OW12484   1.095   5.248   6.201
 3862SOL    HW112485   1.103   5.298   6.115
 3862SOL    HW212486   1.186   5.218   6.231
 3863SOL     OW12487   3.569   2.762   0.588
 3863SOL    HW112488   3.538   2.854   0.612
 3863SOL    HW212489   3.490   2.703   0.575
 3864SOL     OW12490   3.663   1.846   6.599
 3864SOL    HW112491   3.619   1.905   6.667
 3864SOL    HW212492   3.685   1.758   6.640
 3865SOL     OW12493   4.270   0.411   2.322
 3865SOL    HW112494   4.209   0.427   2.400
 3865SOL    HW212495   4.357   0.374   2.354
 3866SOL     OW12496   4.168   6.693   6.542
 3866SOL    HW112497   4.154   6.636   6.461
 3866SOL    HW212498   4.097   6.764   6.545
 3867SOL     OW12499   1.665   3.374   3.893
 3867SOL    HW112500   1.680   3.288   3.942
 3867SOL    HW212501   1.618   3.355   3.806
 3868SOL     OW12502   1.672   5.299   3.334
 3868SOL    HW112503   1.754   5.289   3.278
 3868SOL    HW212504   1.673   5.389   3.378
 3869SOL     OW12505   1.443   2.524   3.340
 3869SOL    HW112506   1.432   2.425   3.353
 3869SOL    HW212507   1.355   2.569   3.354
 3870SOL     OW12508   3.358   4.541   0.511
 3870SOL    HW112509   3.454   4.540   0.485
 3870SOL    HW212510   3.315   4.624   0.476
 3871SOL     OW12511   2.922   1.830   4.403
 3871SOL    HW112512   2.952   1.763   4.472
 3871SOL    HW212513   2.886   1.911   4.448
 3872SOL     OW12514   3.997   3.603   0.944
 3872SOL    HW112515   4.051   3.643   0.870
 3872SOL    HW212516   4.032   3.636   1.032
 3873SOL     OW12517   5.302   4.156   1.873
 3873SOL    HW112518   5.317   4.224   1.944
 3873SOL    HW212519   5.288   4.203   1.785
 3874SOL     OW12520   4.826   6.239   6.060
 3874SOL    HW112521   4.866   6.160   6.107
 3874SOL    HW212522   4.758   6.208   5.994
 3875SOL     OW12523   1.865   4.159   0.529
 3875SOL    HW112524   1.770   4.140   0.505
 3875SOL    HW212525   1.870   4.245   0.580
 3876SOL     OW12526   5.126   4.582   2.345
 3876SOL    HW112527   5.087   4.562   2.255
 3876SOL    HW212528   5.160   4.498   2.386
 3877SOL     OW12529   5.326   0.839   2.574
 3877SOL    HW112530   5.331   0.935   2.545
 3877SOL    HW212531   5.258   0.829   2.646
 3878SOL     OW12532   4.341   6.103   4.740
 3878SOL    HW112533   4.336   6.154   4.826
 3878SOL    HW212534   4.436   6.076   4.723
 3879SOL     OW12535   3.056   5.422   1.059
 3879SOL    HW112536   3.029   5.498   1.001
 3879SOL    HW212537   3.065   5.339   1.004
 3880SOL     OW12538   5.742   2.690   3.835
 3880SOL    HW112539   5.698   2.668   3.922
 3880SOL    HW212540   5.759   2.606   3.784
 3881SOL     OW12541   0.920   5.515   1.476
 3881SOL    HW112542   0.941   5.538   1.571
 3881SOL    HW212543   0.983   5.566   1.416
 3882SOL     OW12544   0.606   6.614   6.884
 3882SOL    HW112545   0.521   6.573   6.916
 3882SOL    HW212546   0.683   6.574   6.933
 3883SOL     OW12547   3.339   1.356   6.042
 3883SOL    HW112548   3.267   1.329   6.106
 3883SOL    HW212549   3.426   1.362   6.090
 3884SOL     OW12550   1.474   4.719   5.576
 3884SOL    HW112551   1.551   4.783   5.587
 3884SOL    HW212552   1.392   4.770   5.551
 3885SOL     OW12553   0.213   1.915   5.461
 3885SOL    HW112554   0.227   1.962   5.374
 3885SOL    HW212555   0.125   1.943   5.500
 3886SOL     OW12556   0.093   5.470   4.764
 3886SOL    HW112557   0.075   5.562   4.800
 3886SOL    HW212558   0.189   5.464   4.735
 3887SOL     OW12559   5.160   3.436   5.486
 3887SOL    HW112560   5.256   3.451   5.464
 3887SOL    HW212561   5.136   3.340   5.469
 3888SOL     OW12562   5.034   2.370   1.911
 3888SOL    HW112563   4.966   2.443   1.913
 3888SOL    HW212564   4.989   2.283   1.893
 3889SOL     OW12565   0.131   5.620   0.319
 3889SOL    HW112566   0.112   5.605   0.416
 3889SOL    HW212567   0.202   5.690   0.310
 3890SOL     OW12568   6.561   3.680   2.284
 3890SOL    HW112569   6.477   3.734   2.289
 3890SOL    HW212570   6.625   3.712   2.354
 3891SOL     OW12571   5.726   5.315   6.416
 3891SOL    HW112572   5.731   5.224   6.374
 3891SOL    HW212573   5.679   5.378   6.354
 3892SOL     OW12574   5.546   6.005   3.951
 3892SOL    HW112575   5.537   5.997   3.851
 3892SOL    HW212576   5.462   6.044   3.989
 3893SOL     OW12577   3.081   6.175   4.243
 3893SOL    HW112578   3.054   6.223   4.160
 3893SOL    HW212579   3.022   6.096   4.257
 3894SOL     OW12580   4.961   5.439   6.716
 3894SOL    HW112581   4.999   5.348   6.730
 3894SOL    HW212582   4.981   5.470   6.623
 3895SOL     OW12583   1.837   1.843   6.040
 3895SOL    HW112584   1.758   1.895   6.010
 3895SOL    HW212585   1.914   1.905   6.058
 3896SOL     OW12586   6.505   2.424   6.463
 3896SOL    HW112587   6.419   2.454   6.422
 3896SOL    HW212588   6.581   2.452   6.406
 3897SOL     OW12589   3.564   6.534   2.940
 3897SOL    HW112590   3.503   6.564   2.866
 3897SOL    HW212591   3.515   6.472   3.001
 3898SOL     OW12592   3.576   3.589   5.022
 3898SOL    HW112593   3.606   3.682   4.999
 3898SOL    HW212594   3.576   3.532   4.940
 3899SOL     OW12595   5.280   1.996   4.680
 3899SOL    HW112596   5.340   2.048   4.741
 3899SOL    HW212597   5.195   2.047   4.666
 3900SOL     OW12598   6.512   2.442   4.309
 3900SOL    HW112599   6.558   2.467   4.223
 3900SOL    HW212600   6.580   2.441   4.383
 3901SOL     OW12601   2.628   5.250   5.050
 3901SOL    HW112602   2.703   5.212   5.105
 3901SOL    HW212603   2.663   5.319   4.988
 3902SOL     OW12604   3.873   4.831   2.208
 3902SOL    HW112605   3.846   4.741   2.173
 3902SOL    HW212606   3.800   4.867   2.266
 3903SOL     OW12607   4.846   2.781   5.795
 3903SOL    HW112608   4.929   2.825   5.829
 3903SOL    HW212609   4.794   2.744   5.871
 3904SOL     OW12610   2.222   6.361   1.030
 3904SOL    HW112611   2.166   6.291   1.074
 3904SOL    HW212612   2.258   6.423   1.098
 3905SOL     OW12613   6.745   0.503   5.962
 3905SOL    HW112614   6.744   0.404   5.953
 3905SOL    HW212615   6.803   0.543   5.891
 3906SOL     OW12616   0.591   5.924   4.731
 3906SOL    HW112617   0.562   5.999   4.672
 3906SOL    HW212618   0.636   5.961   4.813
 3907SOL     OW12619   0.851   1.473   4.962
 3907SOL    HW112620   0.822   1.395   4.906
 3907SOL    HW212621   0.775   1.537   4.974
 3908SOL     OW12622   2.185   1.062   4.517
 3908SOL    HW112623   2.259   1.064   4.451
 3908SOL    HW212624   2.126   0.983   4.498
 3909SOL     OW12625   5.120   2.966   1.273
 3909SOL    HW112626   5.103   2.902   1.198
 3909SOL    HW212627   5.063   2.941   1.352
 3910SOL     OW12628   3.379   2.192   1.058
 3910SOL    HW112629   3.310   2.124   1.034
 3910SOL    HW212630   3.342   2.284   1.046
 3911SOL     OW12631   6.884   0.493   1.378
 3911SOL    HW112632   6.865   0.442   1.462
 3911SOL    HW212633   6.813   0.562   1.364
 3912SOL     OW12634   3.835   3.732   6.842
 3912SOL    HW112635   3.742   3.722   6.877
 3912SOL    HW212636   3.891   3.780   6.909
 3913SOL     OW12637   4.050   5.441   1.469
 3913SOL    HW112638   4.008   5.523   1.506
 3913SOL    HW212639   3.979   5.384   1.427
 3914SOL     OW12640   6.744   1.646   6.882
 3914SOL    HW112641   6.723   1.608   6.972
 3914SOL    HW212642   6.679   1.720   6.862
 3915SOL     OW12643   5.512   0.188   5.625
 3915SOL    HW112644   5.563   0.165   5.542
 3915SOL    HW212645   5.428   0.133   5.629
 3916SOL     OW12646   1.591   2.311   2.633
 3916SOL    HW112647   1.662   2.382   2.638
 3916SOL    HW212648   1.609   2.251   2.556
 3917SOL     OW12649   3.659   4.765   1.595
 3917SOL    HW112650   3.579   4.745   1.538
 3917SOL    HW212651   3.648   4.720   1.684
 3918SOL     OW12652   4.878   0.511   6.636
 3918SOL    HW112653   4.865   0.610   6.639
 3918SOL    HW212654   4.941   0.484   6.709
 3919SOL     OW12655   4.552   6.254   3.147
 3919SOL    HW112656   4.555   6.311   3.065
 3919SOL    HW212657   4.591   6.165   3.126
 3920SOL     OW12658   3.302   1.251   5.455
 3920SOL    HW112659   3.255   1.207   5.378
 3920SOL    HW212660   3.273   1.346   5.463
 3921SOL     OW12661   1.553   2.895   6.213
 3921SOL    HW112662   1.497   2.812   6.209
 3921SOL    HW212663   1.633   2.878   6.270
 3922SOL     OW12664   4.955   4.011   3.244
 3922SOL    HW112665   4.883   4.013   3.175
 3922SOL    HW212666   4.983   4.104   3.266
 3923SOL     OW12667   5.164   1.373   1.694
 3923SOL    HW112668   5.070   1.344   1.715
 3923SOL    HW212669   5.171   1.472   1.707
 3924SOL     OW12670   5.158   4.950   4.176
 3924SOL    HW112671   5.133   4.982   4.267
 3924SOL    HW212672   5.088   4.980   4.110
 3925SOL     OW12673   5.005   5.054   0.899
 3925SOL    HW112674   4.991   4.957   0.920
 3925SOL    HW212675   4.917   5.100   0.894
 3926SOL     OW12676   0.883   5.322   5.053
 3926SOL    HW112677   0.916   5.229   5.067
 3926SOL    HW212678   0.783   5.321   5.048
 3927SOL     OW12679   5.765   1.343   5.524
 3927SOL    HW112680   5.846   1.396   5.547
 3927SOL    HW212681   5.694   1.360   5.592
 3928SOL     OW12682   3.381   5.398   2.589
 3928SOL    HW112683   3.375   5.423   2.493
 3928SOL    HW212684   3.333   5.312   2.605
 3929SOL     OW12685   0.992   1.574   5.848
 3929SOL    HW112686   0.975   1.659   5.897
 3929SOL    HW212687   0.969   1.496   5.906
 3930SOL     OW12688   1.520   4.622   3.519
 3930SOL    HW112689   1.510   4.714   3.557
 3930SOL    HW212690   1.616   4.597   3.517
 3931SOL     OW12691   0.981   2.357   0.110
 3931SOL    HW112692   0.962   2.453   0.091
 3931SOL    HW212693   1.006   2.310   0.025
 3932SOL     OW12694   2.506   4.445   3.183
 3932SOL    HW112695   2.541   4.537   3.163
 3932SOL    HW212696   2.464   4.407   3.100
 3933SOL     OW12697   1.978   6.503   1.209
 3933SOL    HW112698   1.960   6.521   1.113
 3933SOL    HW212699   1.947   6.581   1.264
 3934SOL     OW12700   2.098   0.029   0.997
 3934SOL    HW112701   2.029   0.099   1.016
 3934SOL    HW212702   2.062   6.964   1.022
 3935SOL     OW12703   0.027   3.604   5.134
 3935SOL    HW112704   0.105   3.599   5.195
 3935SOL    HW212705   7.024   3.700   5.121
 3936SOL     OW12706   6.917   3.898   5.061
 3936SOL    HW112707   6.995   3.909   4.999
 3936SOL    HW212708   6.835   3.937   5.020
 3937SOL     OW12709   0.711   6.113   0.748
 3937SOL    HW112710   0.741   6.030   0.796
 3937SOL    HW212711   0.768   6.190   0.775
 3938SOL     OW12712   1.084   3.171   1.057
 3938SOL    HW112713   1.096   3.270   1.058
 3938SOL    HW212714   1.080   3.138   1.152
 3939SOL     OW12715   1.319   6.907   3.256
 3939SOL    HW112716   1.249   6.859   3.310
 3939SOL    HW212717   1.319   6.872   3.163
 3940SOL     OW12718   3.046   5.764   6.837
 3940SOL    HW112719   3.001   5.791   6.922
 3940SOL    HW212720   3.124   5.705   6.857
 3941SOL     OW12721   5.014   5.810   2.284
 3941SOL    HW112722   5.020   5.794   2.383
 3941SOL    HW212723   5.084   5.755   2.238
 3942SOL     OW12724   0.011   6.363   6.252
 3942SOL    HW112725   6.984   6.341   6.335
 3942SOL    HW212726   7.007   6.304   6.177
 3943SOL     OW12727   2.260   3.227   0.414
 3943SOL    HW112728   2.303   3.204   0.502
 3943SOL    HW212729   2.237   3.324   0.413
 3944SOL     OW12730   4.335   3.238   6.380
 3944SOL    HW112731   4.433   3.255   6.390
 3944SOL    HW212732   4.320   3.177   6.302
 3945SOL     OW12733   5.487   0.518   3.758
 3945SOL    HW112734   5.405   0.514   3.701
 3945SOL    HW212735   5.562   0.560   3.706
 3946SOL     OW12736   0.194   4.081   0.680
 3946SOL    HW112737   0.244   3.996   0.694
 3946SOL    HW212738   0.096   4.064   0.690
 3947SOL     OW12739   5.470   5.944   1.560
 3947SOL    HW112740   5.565   5.941   1.528
 3947SOL    HW212741   5.468   5.919   1.657
 3948SOL     OW12742   1.556   2.662   5.267
 3948SOL    HW112743   1.537   2.645   5.170
 3948SOL    HW212744   1.651   2.641   5.287
 3949SOL     OW12745   6.411   0.078   2.374
 3949SOL    HW112746   6.421   0.069   2.275
 3949SOL    HW212747   6.411   0.174   2.399
 3950SOL     OW12748   3.015   4.348   1.681
 3950SOL    HW112749   2.993   4.251   1.690
 3950SOL    HW212750   2.967   4.400   1.752
 3951SOL     OW12751   0.474   2.707   4.701
 3951SOL    HW112752   0.502   2.611   4.699
 3951SOL    HW212753   0.554   2.764   4.717
 3952SOL     OW12754   5.650   3.580   0.124
 3952SOL    HW112755   5.589   3.655   0.098
 3952SOL    HW212756   5.633   3.555   0.220
 3953SOL     OW12757   3.227   3.808   6.097
 3953SOL    HW112758   3.191   3.753   6.172
 3953SOL    HW212759   3.238   3.750   6.016
 3954SOL     OW12760   0.585   3.462   5.067
 3954SOL    HW112761   0.529   3.451   5.149
 3954SOL    HW212762   0.587   3.376   5.016
 3955SOL     OW12763   6.550   3.794   0.522
 3955SOL    HW112764   6.509   3.709   0.553
 3955SOL    HW212765   6.630   3.774   0.465
 3956SOL     OW12766   6.668   2.883   5.517
 3956SOL    HW112767   6.638   2.946   5.589
 3956SOL    HW212768   6.607   2.890   5.439
 3957SOL     OW12769   0.616   1.874   1.989
 3957SOL    HW112770   0.578   1.958   2.029
 3957SOL    HW212771   0.710   1.891   1.960
 3958SOL     OW12772   5.448   0.135   0.402
 3958SOL    HW112773   5.368   0.105   0.455
 3958SOL    HW212774   5.506   0.192   0.460
 3959SOL     OW12775   2.267   5.623   1.426
 3959SOL    HW112776   2.339   5.575   1.375
 3959SOL    HW212777   2.213   5.557   1.479
 3960SOL     OW12778   5.287   3.586   1.238
 3960SOL    HW112779   5.192   3.615   1.250
 3960SOL    HW212780   5.303   3.567   1.141
 3961SOL     OW12781   6.265   0.029   1.338
 3961SOL    HW112782   6.170   0.057   1.325
 3961SOL    HW212783   6.326   0.102   1.305
 3962SOL     OW12784   0.403   6.242   5.828
 3962SOL    HW112785   0.364   6.221   5.739
 3962SOL    HW212786   0.333   6.285   5.886
 3963SOL     OW12787   4.808   4.527   3.308
 3963SOL    HW112788   4.754   4.460   3.257
 3963SOL    HW212789   4.759   4.614   3.310
 3964SOL     OW12790   5.753   5.887   6.801
 3964SOL    HW112791   5.679   5.902   6.867
 3964SOL    HW212792   5.768   5.971   6.749
 3965SOL     OW12793   3.427   3.903   0.828
 3965SOL    HW112794   3.435   3.817   0.779
 3965SOL    HW212795   3.335   3.940   0.816
 3966SOL     OW12796   6.293   4.153   5.226
 3966SOL    HW112797   6.212   4.197   5.189
 3966SOL    HW212798   6.285   4.054   5.215
 3967SOL     OW12799   1.715   6.756   6.878
 3967SOL    HW112800   1.671   6.672   6.846
 3967SOL    HW212801   1.645   6.817   6.916
 3968SOL     OW12802   5.105   1.809   0.867
 3968SOL    HW112803   5.196   1.809   0.824
 3968SOL    HW212804   5.091   1.897   0.912
 3969SOL     OW12805   0.505   5.739   1.252
 3969SOL    HW112806   0.599   5.712   1.275
 3969SOL    HW212807   0.449   5.657   1.242
 3970SOL     OW12808   5.096   3.993   4.206
 3970SOL    HW112809   5.195   3.994   4.219
 3970SOL    HW212810   5.051   3.957   4.288
 3971SOL     OW12811   0.383   6.129   3.918
 3971SOL    HW112812   0.321   6.207   3.908
 3971SOL    HW212813   0.379   6.073   3.835
 3972SOL     OW12814   1.000   0.227   6.768
 3972SOL    HW112815   0.913   0.228   6.719
 3972SOL    HW212816   0.991   0.280   6.852
 3973SOL     OW12817   3.386   2.893   3.881
 3973SOL    HW112818   3.432   2.948   3.951
 3973SOL    HW212819   3.446   2.881   3.802
 3974SOL     OW12820   5.894   0.663   6.688
 3974SOL    HW112821   5.938   0.573   6.685
 3974SOL    HW212822   5.795   0.651   6.678
 3975SOL     OW12823   6.908   6.027   5.133
 3975SOL    HW112824   6.995   6.059   5.096
 3975SOL    HW212825   6.896   5.930   5.109
 3976SOL     OW12826   0.838   2.891   6.975
 3976SOL    HW112827   0.921   2.850   6.938
 3976SOL    HW212828   0.862   2.961   0.018
 3977SOL     OW12829   3.435   5.857   4.912
 3977SOL    HW112830   3.516   5.855   4.854
 3977SOL    HW212831   3.369   5.921   4.874
 3978SOL     OW12832   6.469   4.112   6.689
 3978SOL    HW112833   6.436   4.122   6.782
 3978SOL    HW212834   6.404   4.155   6.625
 3979SOL     OW12835   1.273   6.700   3.497
 3979SOL    HW112836   1.312   6.647   3.421
 3979SOL    HW212837   1.183   6.663   3.521
 3980SOL     OW12838   4.898   3.635   4.557
 3980SOL    HW112839   4.831   3.561   4.553
 3980SOL    HW212840   4.984   3.604   4.516
 3981SOL     OW12841   6.829   1.705   5.901
 3981SOL    HW112842   6.739   1.670   5.873
 3981SOL    HW212843   6.899   1.637   5.880
 3982SOL     OW12844   2.353   2.745   4.265
 3982SOL    HW112845   2.304   2.737   4.178
 3982SOL    HW212846   2.288   2.740   4.341
 3983SOL     OW12847   2.978   0.201   3.733
 3983SOL    HW112848   3.063   0.244   3.763
 3983SOL    HW212849   2.921   0.269   3.685
 3984SOL     OW12850   1.442   6.877   1.949
 3984SOL    HW112851   1.459   6.849   1.854
 3984SOL    HW212852   1.525   6.918   1.986
 3985SOL     OW12853   1.782   2.916   1.795
 3985SOL    HW112854   1.850   2.979   1.757
 3985SOL    HW212855   1.780   2.925   1.894
 3986SOL     OW12856   1.536   1.972   1.636
 3986SOL    HW112857   1.451   2.023   1.650
 3986SOL    HW212858   1.543   1.899   1.705
 3987SOL     OW12859   1.359   3.957   5.670
 3987SOL    HW112860   1.295   3.880   5.672
 3987SOL    HW212861   1.414   3.956   5.754
 3988SOL     OW12862   4.841   0.441   0.103
 3988SOL    HW112863   4.919   0.380   0.114
 3988SOL    HW212864   4.865   0.531   0.140
 3989SOL     OW12865   4.337   0.703   5.800
 3989SOL    HW112866   4.361   0.648   5.880
 3989SOL    HW212867   4.283   0.782   5.829
 3990SOL     OW12868   0.637   2.307   3.929
 3990SOL    HW112869   0.605   2.392   3.889
 3990SOL    HW212870   0.720   2.277   3.883
 3991SOL     OW12871   0.969   1.285   3.680
 3991SOL    HW112872   1.034   1.233   3.624
 3991SOL    HW212873   0.954   1.238   3.767
 3992SOL     OW12874   6.151   4.032   6.482
 3992SOL    HW112875   6.063   4.008   6.523
 3992SOL    HW212876   6.188   4.113   6.528
 3993SOL     OW12877   2.010   0.862   4.482
 3993SOL    HW112878   1.985   0.811   4.399
 3993SOL    HW212879   2.076   0.808   4.535
 3994SOL     OW12880   2.465   2.166   2.776
 3994SOL    HW112881   2.514   2.081   2.792
 3994SOL    HW212882   2.412   2.159   2.692
 3995SOL     OW12883   1.380   3.352   2.419
 3995SOL    HW112884   1.285   3.322   2.420
 3995SOL    HW212885   1.418   3.346   2.511
 3996SOL     OW12886   5.855   6.621   4.616
 3996SOL    HW112887   5.778   6.650   4.559
 3996SOL    HW212888   5.867   6.522   4.608
 3997SOL     OW12889   4.842   3.791   2.531
 3997SOL    HW112890   4.840   3.885   2.499
 3997SOL    HW212891   4.831   3.729   2.453
 3998SOL     OW12892   5.065   2.099   2.892
 3998SOL    HW112893   5.151   2.089   2.841
 3998SOL    HW212894   5.012   2.015   2.885
 3999SOL     OW12895   4.186   3.246   1.312
 3999SOL    HW112896   4.229   3.332   1.338
 3999SOL    HW212897   4.093   3.241   1.350
 4000SOL     OW12898   2.700   5.435   2.543
 4000SOL    HW112899   2.758   5.487   2.480
 4000SOL    HW212900   2.675   5.348   2.502
 4001SOL     OW12901   0.870   5.538   4.343
 4001SOL    HW112902   0.872   5.526   4.442
 4001SOL    HW212903   0.779   5.514   4.308
 4002SOL     OW12904   3.534   4.144   3.635
 4002SOL    HW112905   3.482   4.066   3.601
 4002SOL    HW212906   3.571   4.196   3.558
 4003SOL     OW12907   1.665   0.910   5.343
 4003SOL    HW112908   1.673   0.822   5.297
 4003SOL    HW212909   1.679   0.898   5.441
 4004SOL     OW12910   0.995   3.150   4.106
 4004SOL    HW112911   1.032   3.065   4.144
 4004SOL    HW212912   1.053   3.227   4.133
 4005SOL     OW12913   4.748   2.883   0.080
 4005SOL    HW112914   4.761   2.975   0.117
 4005SOL    HW212915   4.834   2.833   0.082
 4006SOL     OW12916   6.528   5.628   2.175
 4006SOL    HW112917   6.553   5.672   2.089
 4006SOL    HW212918   6.585   5.547   2.189
 4007SOL     OW12919   6.815   0.419   2.664
 4007SOL    HW112920   6.765   0.478   2.600
 4007SOL    HW212921   6.865   0.476   2.730
 4008SOL     OW12922   2.582   1.351   0.768
 4008SOL    HW112923   2.485   1.328   0.777
 4008SOL    HW212924   2.638   1.274   0.797
 4009SOL     OW12925   4.587   2.081   0.938
 4009SOL    HW112926   4.628   1.992   0.915
 4009SOL    HW212927   4.622   2.151   0.876
 4010SOL     OW12928   2.027   5.564   1.631
 4010SOL    HW112929   2.017   5.659   1.603
 4010SOL    HW212930   2.025   5.558   1.731
 4011SOL     OW12931   5.463   6.394   5.830
 4011SOL    HW112932   5.402   6.447   5.889
 4011SOL    HW212933   5.547   6.373   5.880
 4012SOL     OW12934   5.027   6.447   2.469
 4012SOL    HW112935   4.930   6.471   2.463
 4012SOL    HW212936   5.050   6.385   2.394
 4013SOL     OW12937   0.200   1.155   5.864
 4013SOL    HW112938   0.210   1.250   5.893
 4013SOL    HW212939   0.275   1.130   5.803
 4014SOL     OW12940   3.121   4.980   2.363
 4014SOL    HW112941   3.022   4.996   2.356
 4014SOL    HW212942   3.152   4.931   2.281
 4015SOL     OW12943   4.499   5.439   5.980
 4015SOL    HW112944   4.414   5.397   6.011
 4015SOL    HW212945   4.564   5.367   5.956
 4016SOL     OW12946   5.046   5.287   5.130
 4016SOL    HW112947   5.082   5.313   5.219
 4016SOL    HW212948   4.997   5.365   5.090
 4017SOL     OW12949   1.141   4.972   5.932
 4017SOL    HW112950   1.144   4.920   6.017
 4017SOL    HW212951   1.087   4.922   5.864
 4018SOL     OW12952   4.105   5.691   1.124
 4018SOL    HW112953   4.150   5.779   1.108
 4018SOL    HW212954   4.008   5.700   1.104
 4019SOL     OW12955   5.507   4.497   2.244
 4019SOL    HW112956   5.443   4.568   2.215
 4019SOL    HW212957   5.526   4.506   2.341
 4020SOL     OW12958   0.104   5.182   4.424
 4020SOL    HW112959   0.178   5.128   4.463
 4020SOL    HW212960   0.118   5.279   4.444
 4021SOL     OW12961   4.559   3.982   5.905
 4021SOL    HW112962   4.634   3.981   5.971
 4021SOL    HW212963   4.596   3.985   5.812
 4022SOL     OW12964   2.364   6.784   1.637
 4022SOL    HW112965   2.464   6.792   1.629
 4022SOL    HW212966   2.327   6.747   1.553
 4023SOL     OW12967   0.511   1.282   4.482
 4023SOL    HW112968   0.439   1.327   4.535
 4023SOL    HW212969   0.490   1.288   4.385
 4024SOL     OW12970   0.896   6.445   4.568
 4024SOL    HW112971   0.940   6.534   4.582
 4024SOL    HW212972   0.858   6.413   4.654
 4025SOL     OW12973   0.177   5.488   3.109
 4025SOL    HW112974   0.143   5.567   3.058
 4025SOL    HW212975   0.114   5.411   3.097
 4026SOL     OW12976   0.261   0.005   3.918
 4026SOL    HW112977   0.347   7.021   3.969
 4026SOL    HW212978   0.189   6.980   3.966
 4027SOL     OW12979   3.218   4.536   5.807
 4027SOL    HW112980   3.289   4.549   5.737
 4027SOL    HW212981   3.129   4.558   5.768
 4028SOL     OW12982   5.008   1.354   3.404
 4028SOL    HW112983   5.063   1.272   3.416
 4028SOL    HW212984   4.980   1.362   3.308
 4029SOL     OW12985   1.581   6.369   0.120
 4029SOL    HW112986   1.650   6.322   0.175
 4029SOL    HW212987   1.586   6.336   0.025
 4030SOL     OW12988   0.208   1.240   2.645
 4030SOL    HW112989   0.183   1.270   2.553
 4030SOL    HW212990   0.148   1.285   2.712
 4031SOL     OW12991   6.143   5.869   0.012
 4031SOL    HW112992   6.050   5.832   0.020
 4031SOL    HW212993   6.140   5.960   6.997
 4032SOL     OW12994   4.866   0.837   2.624
 4032SOL    HW112995   4.772   0.809   2.643
 4032SOL    HW212996   4.872   0.937   2.628
 4033SOL     OW12997   1.892   2.475   2.356
 4033SOL    HW112998   1.810   2.517   2.316
 4033SOL    HW212999   1.966   2.476   2.289
 4034SOL     OW13000   0.440   3.149   5.586
 4034SOL    HW113001   0.538   3.129   5.594
 4034SOL    HW213002   0.399   3.088   5.518
 4035SOL     OW13003   4.584   2.242   1.783
 4035SOL    HW113004   4.599   2.248   1.684
 4035SOL    HW213005   4.601   2.148   1.813
 4036SOL     OW13006   3.024   5.510   3.114
 4036SOL    HW113007   3.114   5.546   3.093
 4036SOL    HW213008   3.020   5.413   3.091
 4037SOL     OW13009   2.888   1.828   5.825
 4037SOL    HW113010   2.788   1.834   5.830
 4037SOL    HW213011   2.922   1.901   5.766
 4038SOL     OW13012   3.681   4.643   5.849
 4038SOL    HW113013   3.680   4.543   5.861
 4038SOL    HW213014   3.678   4.687   5.939
 4039SOL     OW13015   6.032   4.859   1.269
 4039SOL    HW113016   6.052   4.768   1.233
 4039SOL    HW213017   5.981   4.850   1.355
 4040SOL     OW13018   3.073   6.467   4.911
 4040SOL    HW113019   3.097   6.564   4.914
 4040SOL    HW213020   3.001   6.453   4.843
 4041SOL     OW13021   2.230   6.739   1.132
 4041SOL    HW113022   2.144   6.788   1.117
 4041SOL    HW213023   2.231   6.701   1.225
 4042SOL     OW13024   6.581   1.321   2.820
 4042SOL    HW113025   6.538   1.249   2.874
 4042SOL    HW213026   6.524   1.403   2.820
 4043SOL     OW13027   6.244   3.544   6.786
 4043SOL    HW113028   6.265   3.640   6.768
 4043SOL    HW213029   6.153   3.537   6.826
 4044SOL     OW13030   4.631   4.714   3.258
 4044SOL    HW113031   4.573   4.664   3.193
 4044SOL    HW213032   4.582   4.795   3.289
 4045SOL     OW13033   4.976   0.933   5.420
 4045SOL    HW113034   4.885   0.904   5.449
 4045SOL    HW213035   4.973   0.961   5.325
 4046SOL     OW13036   6.137   1.896   2.865
 4046SOL    HW113037   6.226   1.919   2.827
 4046SOL    HW213038   6.118   1.799   2.849
 4047SOL     OW13039   2.646   3.040   6.765
 4047SOL    HW113040   2.716   3.112   6.760
 4047SOL    HW213041   2.632   3.001   6.674
 4048SOL     OW13042   4.490   1.946   2.299
 4048SOL    HW113043   4.530   2.037   2.297
 4048SOL    HW213044   4.542   1.885   2.239
 4049SOL     OW13045   4.196   4.789   7.011
 4049SOL    HW113046   4.211   4.839   0.072
 4049SOL    HW213047   4.124   4.721   0.001
 4050SOL     OW13048   1.274   5.625   2.544
 4050SOL    HW113049   1.238   5.648   2.454
 4050SOL    HW213050   1.198   5.606   2.606
 4051SOL     OW13051   5.471   0.985   4.607
 4051SOL    HW113052   5.438   0.925   4.680
 4051SOL    HW213053   5.536   1.051   4.645
 4052SOL     OW13054   6.260   2.108   3.196
 4052SOL    HW113055   6.166   2.074   3.202
 4052SOL    HW213056   6.322   2.031   3.180
 4053SOL     OW13057   1.618   5.192   4.653
 4053SOL    HW113058   1.601   5.098   4.685
 4053SOL    HW213059   1.556   5.212   4.577
 4054SOL     OW13060   4.042   3.884   1.004
 4054SOL    HW113061   4.047   3.901   0.905
 4054SOL    HW213062   3.947   3.862   1.029
 4055SOL     OW13063   0.999   4.719   1.120
 4055SOL    HW113064   0.920   4.778   1.136
 4055SOL    HW213065   0.973   4.644   1.059
 4056SOL     OW13066   5.181   3.412   0.467
 4056SOL    HW113067   5.243   3.341   0.436
 4056SOL    HW213068   5.092   3.372   0.488
 4057SOL     OW13069   0.434   4.039   0.146
 4057SOL    HW113070   0.347   3.990   0.152
 4057SOL    HW213071   0.499   3.985   0.093
 4058SOL     OW13072   2.868   0.308   5.912
 4058SOL    HW113073   2.850   0.217   5.874
 4058SOL    HW213074   2.903   0.368   5.840
 4059SOL     OW13075   0.477   1.700   3.913
 4059SOL    HW113076   0.467   1.612   3.960
 4059SOL    HW213077   0.556   1.749   3.951
 4060SOL     OW13078   6.098   6.197   5.218
 4060SOL    HW113079   6.139   6.109   5.241
 4060SOL    HW213080   6.168   6.259   5.184
 4061SOL     OW13081   1.521   5.221   0.783
 4061SOL    HW113082   1.484   5.249   0.872
 4061SOL    HW213083   1.529   5.302   0.725
 4062SOL     OW13084   1.624   2.348   1.175
 4062SOL    HW113085   1.617   2.339   1.275
 4062SOL    HW213086   1.717   2.329   1.146
 4063SOL     OW13087   4.609   0.636   0.203
 4063SOL    HW113088   4.525   0.626   0.257
 4063SOL    HW213089   4.585   0.653   0.108
 4064SOL     OW13090   2.014   1.679   5.655
 4064SOL    HW113091   1.948   1.750   5.632
 4064SOL    HW213092   1.979   1.625   5.732
 4065SOL     OW13093   2.971   6.659   0.988
 4065SOL    HW113094   3.015   6.710   1.062
 4065SOL    HW213095   2.873   6.654   1.006
 4066SOL     OW13096   0.222   4.214   3.661
 4066SOL    HW113097   0.188   4.133   3.707
 4066SOL    HW213098   0.301   4.190   3.605
 4067SOL     OW13099   5.027   5.059   0.541
 4067SOL    HW113100   5.099   5.066   0.611
 4067SOL    HW213101   4.939   5.042   0.586
 4068SOL     OW13102   2.276   2.747   5.041
 4068SOL    HW113103   2.329   2.670   5.005
 4068SOL    HW213104   2.336   2.825   5.057
 4069SOL     OW13105   4.530   6.834   6.525
 4069SOL    HW113106   4.508   6.883   6.441
 4069SOL    HW213107   4.504   6.890   6.604
 4070SOL     OW13108   1.132   2.920   3.762
 4070SOL    HW113109   1.131   2.891   3.858
 4070SOL    HW213110   1.182   2.854   3.707
 4071SOL     OW13111   1.478   0.561   3.647
 4071SOL    HW113112   1.541   0.504   3.699
 4071SOL    HW213113   1.403   0.591   3.706
 4072SOL     OW13114   2.170   5.896   2.770
 4072SOL    HW113115   2.254   5.938   2.804
 4072SOL    HW213116   2.187   5.855   2.680
 4073SOL     OW13117   3.141   4.558   0.240
 4073SOL    HW113118   3.166   4.633   0.300
 4073SOL    HW213119   3.178   4.574   0.149
 4074SOL     OW13120   1.454   5.312   2.965
 4074SOL    HW113121   1.362   5.275   2.977
 4074SOL    HW213122   1.521   5.250   3.006
 4075SOL     OW13123   6.501   1.126   1.215
 4075SOL    HW113124   6.401   1.131   1.202
 4075SOL    HW213125   6.538   1.219   1.217
 4076SOL     OW13126   2.413   4.188   5.299
 4076SOL    HW113127   2.406   4.120   5.226
 4076SOL    HW213128   2.485   4.160   5.363
 4077SOL     OW13129   2.404   0.825   1.754
 4077SOL    HW113130   2.385   0.779   1.667
 4077SOL    HW213131   2.450   0.761   1.815
 4078SOL     OW13132   2.937   4.977   2.834
 4078SOL    HW113133   2.977   4.933   2.754
 4078SOL    HW213134   2.907   5.069   2.809
 4079SOL     OW13135   1.237   2.307   4.390
 4079SOL    HW113136   1.309   2.306   4.459
 4079SOL    HW213137   1.190   2.218   4.390
 4080SOL     OW13138   6.204   1.474   4.836
 4080SOL    HW113139   6.123   1.465   4.778
 4080SOL    HW213140   6.192   1.418   4.919
 4081SOL     OW13141   1.569   3.636   3.967
 4081SOL    HW113142   1.599   3.553   3.921
 4081SOL    HW213143   1.522   3.611   4.052
 4082SOL     OW13144   1.128   3.425   1.048
 4082SOL    HW113145   1.063   3.447   0.974
 4082SOL    HW213146   1.180   3.507   1.072
 4083SOL     OW13147   5.746   2.243   4.695
 4083SOL    HW113148   5.671   2.199   4.646
 4083SOL    HW213149   5.818   2.177   4.712
 4084SOL     OW13150   0.791   1.679   3.944
 4084SOL    HW113151   0.801   1.588   3.984
 4084SOL    HW213152   0.878   1.707   3.902
 4085SOL     OW13153   3.254   6.452   0.338
 4085SOL    HW113154   3.167   6.501   0.348
 4085SOL    HW213155   3.261   6.417   0.244
 4086SOL     OW13156   1.573   4.883   0.747
 4086SOL    HW113157   1.494   4.867   0.805
 4086SOL    HW213158   1.546   4.937   0.668
 4087SOL     OW13159   1.534   1.537   2.889
 4087SOL    HW113160   1.489   1.613   2.841
 4087SOL    HW213161   1.465   1.480   2.933
 4088SOL     OW13162   6.537   1.610   1.042
 4088SOL    HW113163   6.590   1.641   1.122
 4088SOL    HW213164   6.440   1.616   1.063
 4089SOL     OW13165   1.024   0.826   4.999
 4089SOL    HW113166   1.042   0.731   5.027
 4089SOL    HW213167   0.990   0.827   4.905
 4090SOL     OW13168   1.857   4.080   5.589
 4090SOL    HW113169   1.831   4.176   5.595
 4090SOL    HW213170   1.871   4.055   5.493
 4091SOL     OW13171   4.683   6.022   0.378
 4091SOL    HW113172   4.730   5.939   0.346
 4091SOL    HW213173   4.650   6.074   0.299
 4092SOL     OW13174   0.102   3.088   4.922
 4092SOL    HW113175   0.070   3.010   4.975
 4092SOL    HW213176   0.060   3.086   4.831
 4093SOL     OW13177   5.812   0.839   3.964
 4093SOL    HW113178   5.813   0.866   4.061
 4093SOL    HW213179   5.783   0.744   3.957
 4094SOL     OW13180   2.302   4.325   4.828
 4094SOL    HW113181   2.329   4.399   4.890
 4094SOL    HW213182   2.294   4.239   4.880
 4095SOL     OW13183   1.211   3.649   6.071
 4095SOL    HW113184   1.123   3.675   6.112
 4095SOL    HW213185   1.248   3.569   6.119
 4096SOL     OW13186   4.116   4.680   1.299
 4096SOL    HW113187   4.203   4.678   1.251
 4096SOL    HW213188   4.089   4.775   1.315
 4097SOL     OW13189   3.317   3.993   5.405
 4097SOL    HW113190   3.373   3.921   5.447
 4097SOL    HW213191   3.275   3.959   5.321
 4098SOL     OW13192   0.365   1.930   3.236
 4098SOL    HW113193   0.271   1.924   3.202
 4098SOL    HW213194   0.429   1.908   3.162
 4099SOL     OW13195   4.140   5.959   1.993
 4099SOL    HW113196   4.209   5.926   2.057
 4099SOL    HW213197   4.110   6.050   2.020
 4100SOL     OW13198   3.927   6.020   3.584
 4100SOL    HW113199   3.996   6.090   3.564
 4100SOL    HW213200   3.838   6.063   3.596
 4101SOL     OW13201   5.693   1.618   6.230
 4101SOL    HW113202   5.676   1.710   6.266
 4101SOL    HW213203   5.643   1.551   6.285
 4102SOL     OW13204   6.140   1.379   0.564
 4102SOL    HW113205   6.049   1.363   0.601
 4102SOL    HW213206   6.175   1.295   0.523
 4103SOL     OW13207   0.676   0.045   2.532
 4103SOL    HW113208   0.659   0.074   2.438
 4103SOL    HW213209   0.771   0.013   2.541
 4104SOL     OW13210   1.365   4.853   2.657
 4104SOL    HW113211   1.434   4.871   2.726
 4104SOL    HW213212   1.279   4.899   2.682
 4105SOL     OW13213   4.556   4.686   0.135
 4105SOL    HW113214   4.540   4.785   0.125
 4105SOL    HW213215   4.501   4.637   0.066
 4106SOL     OW13216   6.698   3.734   4.744
 4106SOL    HW113217   6.621   3.745   4.682
 4106SOL    HW213218   6.758   3.661   4.711
 4107SOL     OW13219   0.088   0.410   1.061
 4107SOL    HW113220   0.052   0.491   1.014
 4107SOL    HW213221   0.162   0.438   1.122
 4108SOL     OW13222   6.191   3.846   5.977
 4108SOL    HW113223   6.150   3.818   6.065
 4108SOL    HW213224   6.241   3.769   5.938
 4109SOL     OW13225   3.245   6.022   3.395
 4109SOL    HW113226   3.227   5.938   3.344
 4109SOL    HW213227   3.236   6.005   3.493
 4110SOL     OW13228   4.852   3.623   6.308
 4110SOL    HW113229   4.900   3.700   6.267
 4110SOL    HW213230   4.782   3.590   6.244
 4111SOL     OW13231   4.176   3.436   0.082
 4111SOL    HW113232   4.268   3.432   0.120
 4111SOL    HW213233   4.117   3.489   0.143
 4112SOL     OW13234   3.242   1.425   4.146
 4112SOL    HW113235   3.314   1.414   4.215
 4112SOL    HW213236   3.161   1.374   4.173
 4113SOL     OW13237   3.498   5.029   4.679
 4113SOL    HW113238   3.499   5.113   4.625
 4113SOL    HW213239   3.407   5.016   4.720
 4114SOL     OW13240   2.835   1.806   2.537
 4114SOL    HW113241   2.808   1.888   2.587
 4114SOL    HW213242   2.766   1.735   2.550
 4115SOL     OW13243   4.954   4.920   1.668
 4115SOL    HW113244   4.897   5.002   1.677
 4115SOL    HW213245   5.049   4.947   1.651
 4116SOL     OW13246   3.431   1.680   1.638
 4116SOL    HW113247   3.480   1.752   1.686
 4116SOL    HW213248   3.497   1.620   1.592
 4117SOL     OW13249   1.406   5.833   1.158
 4117SOL    HW113250   1.338   5.905   1.140
 4117SOL    HW213251   1.400   5.806   1.254
 4118SOL     OW13252   1.865   6.539   0.283
 4118SOL    HW113253   1.870   6.588   0.196
 4118SOL    HW213254   1.857   6.441   0.266
 4119SOL     OW13255   3.722   0.805   3.948
 4119SOL    HW113256   3.760   0.720   3.985
 4119SOL    HW213257   3.754   0.882   4.003
 4120SOL     OW13258   3.362   0.454   1.926
 4120SOL    HW113259   3.289   0.465   1.994
 4120SOL    HW213260   3.356   0.527   1.858
 4121SOL     OW13261   6.447   3.350   4.720
 4121SOL    HW113262   6.522   3.376   4.782
 4121SOL    HW213263   6.359   3.365   4.765
 4122SOL     OW13264   1.425   5.762   6.091
 4122SOL    HW113265   1.389   5.712   6.169
 4122SOL    HW213266   1.350   5.800   6.037
 4123SOL     OW13267   5.108   4.016   6.486
 4123SOL    HW113268   5.114   4.068   6.572
 4123SOL    HW213269   5.076   3.924   6.505
 4124SOL     OW13270   5.273   0.152   3.994
 4124SOL    HW113271   5.327   0.070   3.974
 4124SOL    HW213272   5.331   0.233   3.983
 4125SOL     OW13273   4.474   1.167   0.768
 4125SOL    HW113274   4.382   1.145   0.800
 4125SOL    HW213275   4.511   1.091   0.715
 4126SOL     OW13276   2.222   4.039   4.257
 4126SOL    HW113277   2.236   4.133   4.286
 4126SOL    HW213278   2.251   4.028   4.162
 4127SOL     OW13279   6.245   3.255   5.584
 4127SOL    HW113280   6.176   3.269   5.514
 4127SOL    HW213281   6.201   3.227   5.670
 4128SOL     OW13282   0.929   2.300   2.759
 4128SOL    HW113283   0.908   2.203   2.759
 4128SOL    HW213284   1.028   2.313   2.768
 4129SOL     OW13285   5.794   2.489   6.016
 4129SOL    HW113286   5.820   2.559   6.083
 4129SOL    HW213287   5.723   2.431   6.055
 4130SOL     OW13288   6.095   4.215   0.973
 4130SOL    HW113289   6.053   4.268   0.900
 4130SOL    HW213290   6.153   4.144   0.934
 4131SOL     OW13291   6.644   4.923   3.743
 4131SOL    HW113292   6.595   4.869   3.674
 4131SOL    HW213293   6.737   4.942   3.711
 4132SOL     OW13294   5.061   2.633   3.518
 4132SOL    HW113295   5.051   2.638   3.419
 4132SOL    HW213296   4.983   2.587   3.558
 4133SOL     OW13297   3.109   1.124   1.128
 4133SOL    HW113298   3.145   1.139   1.036
 4133SOL    HW213299   3.185   1.108   1.191
 4134SOL     OW13300   1.183   1.653   7.011
 4134SOL    HW113301   1.277   1.658   6.980
 4134SOL    HW213302   1.181   1.651   0.087
 4135SOL     OW13303   1.678   0.940   1.901
 4135SOL    HW113304   1.654   0.920   1.996
 4135SOL    HW213305   1.594   0.965   1.851
 4136SOL     OW13306   0.389   2.166   3.857
 4136SOL    HW113307   0.374   2.073   3.889
 4136SOL    HW213308   0.449   2.215   3.920
 4137SOL     OW13309   3.048   4.358   6.530
 4137SOL    HW113310   3.144   4.385   6.536
 4137SOL    HW213311   3.034   4.303   6.447
 4138SOL     OW13312   3.946   4.917   3.388
 4138SOL    HW113313   4.007   4.856   3.338
 4138SOL    HW213314   3.854   4.914   3.347
 4139SOL     OW13315   2.120   1.993   0.057
 4139SOL    HW113316   2.031   2.038   0.048
 4139SOL    HW213317   2.171   2.003   6.996
 4140SOL     OW13318   5.169   1.359   5.096
 4140SOL    HW113319   5.232   1.406   5.033
 4140SOL    HW213320   5.075   1.384   5.073
 4141SOL     OW13321   5.474   5.803   0.356
 4141SOL    HW113322   5.552   5.746   0.384
 4141SOL    HW213323   5.497   5.851   0.272
 4142SOL     OW13324   6.912   4.247   1.344
 4142SOL    HW113325   6.916   4.174   1.413
 4142SOL    HW213326   6.923   4.336   1.389
 4143SOL     OW13327   6.844   3.072   1.006
 4143SOL    HW113328   6.777   3.052   0.934
 4143SOL    HW213329   6.832   3.008   1.082
 4144SOL     OW13330   4.649   1.146   2.476
 4144SOL    HW113331   4.644   1.056   2.432
 4144SOL    HW213332   4.594   1.145   2.560
 4145SOL     OW13333   1.643   6.603   2.292
 4145SOL    HW113334   1.592   6.517   2.282
 4145SOL    HW213335   1.718   6.605   2.225
 4146SOL     OW13336   5.010   6.600   0.221
 4146SOL    HW113337   4.967   6.547   0.294
 4146SOL    HW213338   4.940   6.633   0.158
 4147SOL     OW13339   3.907   1.692   5.551
 4147SOL    HW113340   3.846   1.752   5.498
 4147SOL    HW213341   3.976   1.748   5.597
 4148SOL     OW13342   6.383   0.810   3.357
 4148SOL    HW113343   6.426   0.741   3.415
 4148SOL    HW213344   6.413   0.901   3.385
 4149SOL     OW13345   5.973   3.842   2.272
 4149SOL    HW113346   5.975   3.936   2.238
 4149SOL    HW213347   5.896   3.793   2.231
 4150SOL     OW13348   5.638   0.367   6.870
 4150SOL    HW113349   5.617   0.345   6.775
 4150SOL    HW213350   5.637   0.466   6.882
 4151SOL     OW13351   0.473   5.343   0.629
 4151SOL    HW113352   0.454   5.441   0.623
 4151SOL    HW213353   0.567   5.329   0.660
 4152SOL     OW13354   4.034   4.513   1.621
 4152SOL    HW113355   3.951   4.478   1.666
 4152SOL    HW213356   4.114   4.468   1.660
 4153SOL     OW13357   6.192   4.760   5.999
 4153SOL    HW113358   6.223   4.795   6.088
 4153SOL    HW213359   6.239   4.810   5.926
 4154SOL     OW13360   5.707   2.655   5.793
 4154SOL    HW113361   5.761   2.605   5.862
 4154SOL    HW213362   5.678   2.592   5.722
 4155SOL     OW13363   1.089   3.155   1.610
 4155SOL    HW113364   1.113   3.252   1.620
 4155SOL    HW213365   1.172   3.100   1.619
 4156SOL     OW13366   5.782   6.783   5.471
 4156SOL    HW113367   5.872   6.824   5.487
 4156SOL    HW213368   5.738   6.764   5.559
 4157SOL     OW13369   3.325   0.644   4.823
 4157SOL    HW113370   3.344   0.730   4.871
 4157SOL    HW213371   3.250   0.658   4.759
 4158SOL     OW13372   0.938   6.232   3.972
 4158SOL    HW113373   0.994   6.248   4.053
 4158SOL    HW213374   0.852   6.282   3.981
 4159SOL     OW13375   0.914   2.847   5.121
 4159SOL    HW113376   0.980   2.773   5.122
 4159SOL    HW213377   0.940   2.914   5.052
 4160SOL     OW13378   0.686   0.728   1.359
 4160SOL    HW113379   0.764   0.733   1.296
 4160SOL    HW213380   0.720   0.734   1.453
 4161SOL     OW13381   6.328   1.693   0.684
 4161SOL    HW113382   6.243   1.745   0.689
 4161SOL    HW213383   6.397   1.736   0.743
 4162SOL     OW13384   5.909   6.992   5.263
 4162SOL    HW113385   5.964   0.045   5.231
 4162SOL    HW213386   5.965   6.910   5.268
 4163SOL     OW13387   5.562   1.006   4.324
 4163SOL    HW113388   5.496   0.969   4.259
 4163SOL    HW213389   5.515   1.034   4.407
 4164SOL     OW13390   1.736   0.215   6.478
 4164SOL    HW113391   1.729   0.135   6.538
 4164SOL    HW213392   1.831   0.246   6.476
 4165SOL     OW13393   3.981   6.732   2.078
 4165SOL    HW113394   3.905   6.692   2.130
 4165SOL    HW213395   3.969   6.831   2.073
 4166SOL     OW13396   5.444   2.905   0.812
 4166SOL    HW113397   5.483   2.894   0.903
 4166SOL    HW213398   5.349   2.935   0.820
 4167SOL     OW13399   2.435   2.962   1.352
 4167SOL    HW113400   2.476   2.961   1.260
 4167SOL    HW213401   2.343   3.000   1.346
 4168SOL     OW13402   1.731   5.631   1.357
 4168SOL    HW113403   1.640   5.661   1.330
 4168SOL    HW213404   1.799   5.697   1.322
 4169SOL     OW13405   5.641   2.968   4.230
 4169SOL    HW113406   5.558   2.920   4.256
 4169SOL    HW213407   5.716   2.903   4.220
 4170SOL     OW13408   4.553   2.909   5.354
 4170SOL    HW113409   4.533   3.006   5.341
 4170SOL    HW213410   4.514   2.857   5.278
 4171SOL     OW13411   5.612   3.627   1.968
 4171SOL    HW113412   5.524   3.673   1.970
 4171SOL    HW213413   5.635   3.603   1.873
 4172SOL     OW13414   0.987   2.007   0.285
 4172SOL    HW113415   0.896   2.033   0.253
 4172SOL    HW213416   1.046   1.988   0.206
 4173SOL     OW13417   5.213   3.359   4.766
 4173SOL    HW113418   5.119   3.333   4.744
 4173SOL    HW213419   5.255   3.289   4.823
 4174SOL     OW13420   4.392   0.769   4.467
 4174SOL    HW113421   4.418   0.866   4.463
 4174SOL    HW213422   4.399   0.729   4.375
 4175SOL     OW13423   3.217   0.415   2.641
 4175SOL    HW113424   3.205   0.316   2.643
 4175SOL    HW213425   3.127   0.459   2.643
 4176SOL     OW13426   5.612   6.389   3.169
 4176SOL    HW113427   5.654   6.338   3.094
 4176SOL    HW213428   5.647   6.354   3.257
 4177SOL     OW13429   0.251   6.297   3.197
 4177SOL    HW113430   0.217   6.212   3.157
 4177SOL    HW213431   0.175   6.360   3.211
 4178SOL     OW13432   3.781   2.145   5.527
 4178SOL    HW113433   3.843   2.118   5.600
 4178SOL    HW213434   3.690   2.159   5.564
 4179SOL     OW13435   5.375   3.224   5.641
 4179SOL    HW113436   5.465   3.250   5.605
 4179SOL    HW213437   5.307   3.232   5.567
 4180SOL     OW13438   4.268   3.836   1.792
 4180SOL    HW113439   4.298   3.909   1.731
 4180SOL    HW213440   4.264   3.871   1.886
 4181SOL     OW13441   0.721   0.990   0.459
 4181SOL    HW113442   0.702   1.087   0.445
 4181SOL    HW213443   0.687   0.938   0.380
 4182SOL     OW13444   5.393   0.428   2.751
 4182SOL    HW113445   5.458   0.488   2.796
 4182SOL    HW213446   5.415   0.420   2.654
 4183SOL     OW13447   1.442   1.813   1.440
 4183SOL    HW113448   1.495   1.750   1.384
 4183SOL    HW213449   1.503   1.865   1.500
 4184SOL     OW13450   4.024   5.510   0.141
 4184SOL    HW113451   4.007   5.596   0.093
 4184SOL    HW213452   4.049   5.439   0.075
 4185SOL     OW13453   0.025   0.360   3.819
 4185SOL    HW113454   0.086   0.286   3.790
 4185SOL    HW213455   0.070   0.415   3.888
 4186SOL     OW13456   2.587   4.181   0.927
 4186SOL    HW113457   2.586   4.279   0.946
 4186SOL    HW213458   2.494   4.145   0.935
 4187SOL     OW13459   4.021   3.985   6.671
 4187SOL    HW113460   4.005   4.068   6.618
 4187SOL    HW213461   4.062   4.009   6.759
 4188SOL     OW13462   4.857   6.672   4.422
 4188SOL    HW113463   4.945   6.708   4.453
 4188SOL    HW213464   4.851   6.574   4.441
 4189SOL     OW13465   2.058   2.069   3.996
 4189SOL    HW113466   2.156   2.051   3.983
 4189SOL    HW213467   2.005   2.005   3.941
 4190SOL     OW13468   2.771   0.417   1.099
 4190SOL    HW113469   2.833   0.401   1.176
 4190SOL    HW213470   2.691   0.468   1.132
 4191SOL     OW13471   6.639   1.507   2.282
 4191SOL    HW113472   6.718   1.485   2.224
 4191SOL    HW213473   6.575   1.430   2.281
 4192SOL     OW13474   6.361   1.389   3.370
 4192SOL    HW113475   6.428   1.433   3.430
 4192SOL    HW213476   6.287   1.351   3.426
 4193SOL     OW13477   1.457   6.795   2.243
 4193SOL    HW113478   1.449   6.816   2.146
 4193SOL    HW213479   1.538   6.738   2.258
 4194SOL     OW13480   0.785   0.789   4.410
 4194SOL    HW113481   0.755   0.705   4.365
 4194SOL    HW213482   0.880   0.778   4.440
 4195SOL     OW13483   4.457   0.743   1.651
 4195SOL    HW113484   4.371   0.792   1.637
 4195SOL    HW213485   4.449   0.685   1.732
 4196SOL     OW13486   4.698   2.351   3.689
 4196SOL    HW113487   4.694   2.252   3.679
 4196SOL    HW213488   4.645   2.394   3.616
 4197SOL     OW13489   4.631   4.308   3.812
 4197SOL    HW113490   4.618   4.250   3.892
 4197SOL    HW213491   4.725   4.299   3.778
 4198SOL     OW13492   6.275   3.400   6.552
 4198SOL    HW113493   6.362   3.439   6.522
 4198SOL    HW213494   6.262   3.419   6.650
 4199SOL     OW13495   2.971   3.881   5.821
 4199SOL    HW113496   3.069   3.897   5.826
 4199SOL    HW213497   2.952   3.784   5.836
 4200SOL     OW13498   2.022   0.260   6.458
 4200SOL    HW113499   2.108   0.312   6.454
 4200SOL    HW213500   2.019   0.207   6.542
 4201SOL     OW13501   5.735   6.077   4.256
 4201SOL    HW113502   5.707   5.994   4.208
 4201SOL    HW213503   5.767   6.145   4.189
 4202SOL     OW13504   5.414   4.407   4.529
 4202SOL    HW113505   5.383   4.315   4.554
 4202SOL    HW213506   5.471   4.443   4.603
 4203SOL     OW13507   5.456   5.989   3.683
 4203SOL    HW113508   5.365   6.009   3.647
 4203SOL    HW213509   5.477   5.892   3.667
 4204SOL     OW13510   3.490   3.033   1.506
 4204SOL    HW113511   3.446   2.954   1.548
 4204SOL    HW213512   3.426   3.111   1.506
 4205SOL     OW13513   2.782   5.107   3.322
 4205SOL    HW113514   2.877   5.089   3.297
 4205SOL    HW213515   2.722   5.073   3.249
 4206SOL     OW13516   5.583   0.044   4.144
 4206SOL    HW113517   5.645   7.010   4.196
 4206SOL    HW213518   5.519   0.088   4.207
 4207SOL     OW13519   1.116   1.040   1.616
 4207SOL    HW113520   1.185   0.992   1.562
 4207SOL    HW213521   1.161   1.104   1.678
 4208SOL     OW13522   0.784   3.391   1.166
 4208SOL    HW113523   0.807   3.326   1.094
 4208SOL    HW213524   0.847   3.468   1.163
 4209SOL     OW13525   3.031   0.393   5.005
 4209SOL    HW113526   3.122   0.426   4.979
 4209SOL    HW213527   2.967   0.413   4.931
 4210SOL     OW13528   4.759   2.722   0.708
 4210SOL    HW113529   4.768   2.820   0.690
 4210SOL    HW213530   4.763   2.672   0.622
 4211SOL     OW13531   4.599   4.382   3.188
 4211SOL    HW113532   4.633   4.354   3.098
 4211SOL    HW213533   4.502   4.403   3.183
 4212SOL     OW13534   6.055   0.177   2.685
 4212SOL    HW113535   6.006   0.106   2.735
 4212SOL    HW213536   6.133   0.208   2.739
 4213SOL     OW13537   1.584   0.581   2.492
 4213SOL    HW113538   1.647   0.648   2.454
 4213SOL    HW213539   1.505   0.570   2.431
 4214SOL     OW13540   1.510   3.259   4.731
 4214SOL    HW113541   1.537   3.329   4.797
 4214SOL    HW213542   1.477   3.303   4.648
 4215SOL     OW13543   1.042   5.392   4.833
 4215SOL    HW113544   0.978   5.367   4.906
 4215SOL    HW213545   1.030   5.488   4.809
 4216SOL     OW13546   1.472   3.234   5.716
 4216SOL    HW113547   1.430   3.317   5.750
 4216SOL    HW213548   1.403   3.177   5.671
 4217SOL     OW13549   0.076   0.475   3.306
 4217SOL    HW113550   0.131   0.450   3.226
 4217SOL    HW213551   7.015   0.517   3.275
 4218SOL     OW13552   3.738   6.860   2.352
 4218SOL    HW113553   3.646   6.896   2.373
 4218SOL    HW213554   3.800   6.936   2.336
 4219SOL     OW13555   4.556   6.431   3.424
 4219SOL    HW113556   4.585   6.337   3.441
 4219SOL    HW213557   4.465   6.431   3.382
 4220SOL     OW13558   0.424   3.337   3.008
 4220SOL    HW113559   0.355   3.406   3.030
 4220SOL    HW213560   0.378   3.252   2.984
 4221SOL     OW13561   5.206   5.803   5.674
 4221SOL    HW113562   5.122   5.818   5.725
 4221SOL    HW213563   5.202   5.852   5.587
 4222SOL     OW13564   4.490   2.684   0.534
 4222SOL    HW113565   4.519   2.780   0.538
 4222SOL    HW213566   4.416   2.668   0.600
 4223SOL     OW13567   3.540   3.954   3.005
 4223SOL    HW113568   3.562   3.914   2.916
 4223SOL    HW213569   3.465   4.019   2.994
 4224SOL     OW13570   4.376   2.321   4.808
 4224SOL    HW113571   4.356   2.281   4.718
 4224SOL    HW213572   4.290   2.336   4.857
 4225SOL     OW13573   5.702   0.398   4.785
 4225SOL    HW113574   5.686   0.486   4.741
 4225SOL    HW213575   5.698   0.325   4.716
 4226SOL     OW13576   1.744   1.481   3.765
 4226SOL    HW113577   1.679   1.556   3.768
 4226SOL    HW213578   1.697   1.395   3.787
 4227SOL     OW13579   6.179   4.259   0.548
 4227SOL    HW113580   6.148   4.213   0.465
 4227SOL    HW213581   6.195   4.356   0.527
 4228SOL     OW13582   6.275   5.662   2.297
 4228SOL    HW113583   6.302   5.736   2.358
 4228SOL    HW213584   6.342   5.654   2.222
 4229SOL     OW13585   4.984   4.584   5.758
 4229SOL    HW113586   4.979   4.494   5.714
 4229SOL    HW213587   4.975   4.573   5.857
 4230SOL     OW13588   3.100   6.932   4.735
 4230SOL    HW113589   3.181   6.875   4.745
 4230SOL    HW213590   3.115   7.019   4.782
 4231SOL     OW13591   4.224   6.703   5.345
 4231SOL    HW113592   4.287   6.644   5.395
 4231SOL    HW213593   4.272   6.783   5.310
 4232SOL     OW13594   2.058   4.163   1.905
 4232SOL    HW113595   1.982   4.168   1.970
 4232SOL    HW213596   2.134   4.112   1.946
 4233SOL     OW13597   5.853   6.679   0.997
 4233SOL    HW113598   5.867   6.744   0.922
 4233SOL    HW213599   5.868   6.586   0.963
 4234SOL     OW13600   2.819   4.063   5.636
 4234SOL    HW113601   2.843   3.990   5.700
 4234SOL    HW213602   2.901   4.094   5.588
 4235SOL     OW13603   6.556   3.636   5.568
 4235SOL    HW113604   6.547   3.536   5.571
 4235SOL    HW213605   6.629   3.660   5.503
 4236SOL     OW13606   1.534   3.632   4.473
 4236SOL    HW113607   1.449   3.683   4.474
 4236SOL    HW213608   1.586   3.652   4.556
 4237SOL     OW13609   5.307   3.770   5.093
 4237SOL    HW113610   5.226   3.717   5.119
 4237SOL    HW213611   5.286   3.827   5.014
 4238SOL     OW13612   4.296   5.166   4.008
 4238SOL    HW113613   4.242   5.163   4.091
 4238SOL    HW213614   4.276   5.086   3.952
 4239SOL     OW13615   4.882   5.541   5.783
 4239SOL    HW113616   4.832   5.457   5.803
 4239SOL    HW213617   4.849   5.614   5.842
 4240SOL     OW13618   2.870   4.898   6.469
 4240SOL    HW113619   2.875   4.815   6.524
 4240SOL    HW213620   2.863   4.874   6.372
 4241SOL     OW13621   3.850   1.002   6.994
 4241SOL    HW113622   3.788   1.070   6.956
 4241SOL    HW213623   3.799   0.940   0.029
 4242SOL     OW13624   1.617   0.317   2.513
 4242SOL    HW113625   1.564   0.252   2.459
 4242SOL    HW213626   1.578   0.408   2.504
 4243SOL     OW13627   1.723   2.801   3.155
 4243SOL    HW113628   1.770   2.759   3.078
 4243SOL    HW213629   1.714   2.734   3.229
 4244SOL     OW13630   3.445   6.199   1.785
 4244SOL    HW113631   3.456   6.194   1.884
 4244SOL    HW213632   3.504   6.271   1.748
 4245SOL     OW13633   6.614   3.495   1.576
 4245SOL    HW113634   6.597   3.490   1.674
 4245SOL    HW213635   6.710   3.473   1.558
 4246SOL     OW13636   4.396   2.130   3.823
 4246SOL    HW113637   4.361   2.123   3.729
 4246SOL    HW213638   4.378   2.045   3.871
 4247SOL     OW13639   1.663   4.836   6.418
 4247SOL    HW113640   1.742   4.834   6.480
 4247SOL    HW213641   1.661   4.752   6.364
 4248SOL     OW13642   1.654   0.681   3.470
 4248SOL    HW113643   1.585   0.627   3.518
 4248SOL    HW213644   1.612   0.767   3.439
 4249SOL     OW13645   6.110   6.814   5.323
 4249SOL    HW113646   6.158   6.890   5.277
 4249SOL    HW213647   6.174   6.766   5.383
 4250SOL     OW13648   6.726   5.334   4.111
 4250SOL    HW113649   6.643   5.334   4.166
 4250SOL    HW213650   6.704   5.306   4.017
 4251SOL     OW13651   6.205   2.546   5.284
 4251SOL    HW113652   6.288   2.514   5.330
 4251SOL    HW213653   6.176   2.477   5.218
 4252SOL     OW13654   0.098   6.578   6.865
 4252SOL    HW113655   0.015   6.524   6.878
 4252SOL    HW213656   0.126   6.574   6.769
 4253SOL     OW13657   4.812   5.791   2.964
 4253SOL    HW113658   4.755   5.755   2.890
 4253SOL    HW213659   4.859   5.715   3.009
 4254SOL     OW13660   1.924   2.986   6.375
 4254SOL    HW113661   1.836   2.938   6.373
 4254SOL    HW213662   1.923   3.059   6.307
 4255SOL     OW13663   1.463   3.215   3.396
 4255SOL    HW113664   1.433   3.293   3.340
 4255SOL    HW213665   1.388   3.187   3.456
 4256SOL     OW13666   0.617   6.322   1.730
 4256SOL    HW113667   0.621   6.325   1.830
 4256SOL    HW213668   0.666   6.400   1.692
 4257SOL     OW13669   6.436   0.201   4.104
 4257SOL    HW113670   6.364   0.131   4.106
 4257SOL    HW213671   6.458   0.229   4.197
 4258SOL     OW13672   3.266   5.641   0.783
 4258SOL    HW113673   3.291   5.712   0.848
 4258SOL    HW213674   3.199   5.677   0.718
 4259SOL     OW13675   1.195   0.287   1.414
 4259SOL    HW113676   1.158   0.207   1.367
 4259SOL    HW213677   1.281   0.264   1.458
 4260SOL     OW13678   5.100   1.351   4.710
 4260SOL    HW113679   5.154   1.393   4.783
 4260SOL    HW213680   5.136   1.260   4.690
 4261SOL     OW13681   2.718   5.911   4.346
 4261SOL    HW113682   2.667   5.945   4.425
 4261SOL    HW213683   2.656   5.859   4.287
 4262SOL     OW13684   2.486   4.058   6.682
 4262SOL    HW113685   2.483   4.000   6.601
 4262SOL    HW213686   2.559   4.025   6.743
 4263SOL     OW13687   2.238   1.543   3.567
 4263SOL    HW113688   2.216   1.540   3.664
 4263SOL    HW213689   2.162   1.504   3.514
 4264SOL     OW13690   4.855   1.661   5.224
 4264SOL    HW113691   4.756   1.666   5.237
 4264SOL    HW213692   4.897   1.619   5.305
 4265SOL     OW13693   2.278   6.980   6.300
 4265SOL    HW113694   2.233   0.019   6.362
 4265SOL    HW213695   2.309   0.005   6.219
 4266SOL     OW13696   1.580   5.494   1.731
 4266SOL    HW113697   1.633   5.431   1.674
 4266SOL    HW213698   1.557   5.449   1.817
 4267SOL     OW13699   1.506   4.203   4.767
 4267SOL    HW113700   1.585   4.158   4.726
 4267SOL    HW213701   1.535   4.286   4.813
 4268SOL     OW13702   1.544   4.279   6.494
 4268SOL    HW113703   1.537   4.243   6.587
 4268SOL    HW213704   1.493   4.221   6.431
 4269SOL     OW13705   2.722   1.379   5.088
 4269SOL    HW113706   2.799   1.330   5.128
 4269SOL    HW213707   2.642   1.319   5.084
 4270SOL     OW13708   3.417   3.364   0.697
 4270SOL    HW113709   3.496   3.324   0.650
 4270SOL    HW213710   3.391   3.305   0.774
 4271SOL     OW13711   6.791   0.710   2.024
 4271SOL    HW113712   6.697   0.736   2.046
 4271SOL    HW213713   6.792   0.654   1.941
 4272SOL     OW13714   0.399   1.015   6.749
 4272SOL    HW113715   0.454   1.006   6.832
 4272SOL    HW213716   0.373   0.925   6.716
 4273SOL     OW13717   3.234   6.014   4.831
 4273SOL    HW113718   3.153   6.017   4.774
 4273SOL    HW213719   3.262   6.107   4.856
 4274SOL     OW13720   6.849   1.428   2.159
 4274SOL    HW113721   6.926   1.445   2.098
 4274SOL    HW213722   6.834   1.329   2.167
 4275SOL     OW13723   0.174   2.386   3.587
 4275SOL    HW113724   0.226   2.467   3.616
 4275SOL    HW213725   0.155   2.393   3.489
 4276SOL     OW13726   2.265   6.039   3.532
 4276SOL    HW113727   2.325   6.118   3.549
 4276SOL    HW213728   2.319   5.964   3.495
 4277SOL     OW13729   6.445   5.701   2.859
 4277SOL    HW113730   6.531   5.683   2.811
 4277SOL    HW213731   6.379   5.628   2.838
 4278SOL     OW13732   1.156   6.697   1.933
 4278SOL    HW113733   1.103   6.740   2.005
 4278SOL    HW213734   1.232   6.757   1.907
 4279SOL     OW13735   1.528   1.713   3.765
 4279SOL    HW113736   1.586   1.774   3.819
 4279SOL    HW213737   1.510   1.755   3.676
 4280SOL     OW13738   1.887   6.311   6.793
 4280SOL    HW113739   1.949   6.261   6.732
 4280SOL    HW213740   1.862   6.398   6.750
 4281SOL     OW13741   5.462   5.773   3.385
 4281SOL    HW113742   5.499   5.742   3.472
 4281SOL    HW213743   5.517   5.849   3.351
 4282SOL     OW13744   4.378   4.719   1.169
 4282SOL    HW113745   4.421   4.630   1.158
 4282SOL    HW213746   4.382   4.770   1.083
 4283SOL     OW13747   4.832   1.351   4.248
 4283SOL    HW113748   4.864   1.338   4.342
 4283SOL    HW213749   4.738   1.384   4.249
 4284SOL     OW13750   4.908   5.429   6.436
 4284SOL    HW113751   4.861   5.361   6.492
 4284SOL    HW213752   4.841   5.490   6.394
 4285SOL     OW13753   3.422   0.901   5.486
 4285SOL    HW113754   3.336   0.904   5.436
 4285SOL    HW213755   3.417   0.832   5.558
 4286SOL     OW13756   6.305   0.296   6.501
 4286SOL    HW113757   6.323   0.296   6.402
 4286SOL    HW213758   6.265   0.208   6.527
 4287SOL     OW13759   3.626   0.373   0.869
 4287SOL    HW113760   3.706   0.388   0.811
 4287SOL    HW213761   3.546   0.359   0.811
 4288SOL     OW13762   0.100   6.366   2.615
 4288SOL    HW113763   0.070   6.293   2.554
 4288SOL    HW213764   0.073   6.454   2.575
 4289SOL     OW13765   0.223   4.367   4.346
 4289SOL    HW113766   0.201   4.447   4.289
 4289SOL    HW213767   0.308   4.326   4.315
 4290SOL     OW13768   0.752   1.259   3.510
 4290SOL    HW113769   0.838   1.285   3.554
 4290SOL    HW213770   0.686   1.230   3.580
 4291SOL     OW13771   4.664   3.739   5.596
 4291SOL    HW113772   4.719   3.707   5.518
 4291SOL    HW213773   4.724   3.784   5.663
 4292SOL     OW13774   6.312   2.009   1.737
 4292SOL    HW113775   6.230   2.062   1.756
 4292SOL    HW213776   6.302   1.961   1.650
 4293SOL     OW13777   3.921   3.593   0.485
 4293SOL    HW113778   3.849   3.534   0.521
 4293SOL    HW213779   4.001   3.590   0.544
 4294SOL     OW13780   2.225   2.077   6.532
 4294SOL    HW113781   2.199   2.171   6.509
 4294SOL    HW213782   2.211   2.018   6.453
 4295SOL     OW13783   4.131   5.932   2.617
 4295SOL    HW113784   4.151   5.867   2.544
 4295SOL    HW213785   4.125   5.884   2.705
 4296SOL     OW13786   2.886   6.469   3.059
 4296SOL    HW113787   2.830   6.549   3.038
 4296SOL    HW213788   2.981   6.498   3.071
 4297SOL     OW13789   5.237   5.241   0.427
 4297SOL    HW113790   5.335   5.224   0.434
 4297SOL    HW213791   5.188   5.183   0.492
 4298SOL     OW13792   1.808   0.289   0.808
 4298SOL    HW113793   1.855   0.265   0.724
 4298SOL    HW213794   1.875   0.298   0.882
 4299SOL     OW13795   0.520   2.776   6.959
 4299SOL    HW113796   0.507   2.808   0.029
 4299SOL    HW213797   0.590   2.832   6.914
 4300SOL     OW13798   3.005   0.755   1.516
 4300SOL    HW113799   3.087   0.813   1.513
 4300SOL    HW213800   2.934   0.794   1.458
 4301SOL     OW13801   2.407   6.435   0.392
 4301SOL    HW113802   2.329   6.389   0.436
 4301SOL    HW213803   2.431   6.386   0.308
 4302SOL     OW13804   2.158   5.330   6.127
 4302SOL    HW113805   2.245   5.285   6.108
 4302SOL    HW213806   2.086   5.288   6.072
 4303SOL     OW13807   5.806   5.597   3.321
 4303SOL    HW113808   5.899   5.567   3.300
 4303SOL    HW213809   5.766   5.641   3.240
 4304SOL     OW13810   3.420   3.877   1.620
 4304SOL    HW113811   3.487   3.870   1.546
 4304SOL    HW213812   3.389   3.785   1.645
 4305SOL     OW13813   1.160   6.040   5.569
 4305SOL    HW113814   1.085   6.084   5.520
 4305SOL    HW213815   1.155   5.941   5.557
 4306SOL     OW13816   5.136   4.512   5.084
 4306SOL    HW113817   5.063   4.462   5.037
 4306SOL    HW213818   5.224   4.487   5.044
 4307SOL     OW13819   0.288   0.908   6.033
 4307SOL    HW113820   0.312   0.816   6.004
 4307SOL    HW213821   0.371   0.963   6.041
 4308SOL     OW13822   4.929   6.086   6.633
 4308SOL    HW113823   4.872   6.168   6.631
 4308SOL    HW213824   4.871   6.005   6.643
 4309SOL     OW13825   0.742   1.589   0.465
 4309SOL    HW113826   0.717   1.678   0.426
 4309SOL    HW213827   0.839   1.588   0.486
 4310SOL     OW13828   6.821   2.187   2.149
 4310SOL    HW113829   6.866   2.241   2.078
 4310SOL    HW213830   6.835   2.090   2.131
 4311SOL     OW13831   0.354   6.895   1.621
 4311SOL    HW113832   0.313   6.806   1.644
 4311SOL    HW213833   0.439   6.906   1.671
 4312SOL     OW13834   0.051   5.024   2.443
 4312SOL    HW113835   6.980   4.999   2.460
 4312SOL    HW213836   0.104   4.941   2.426
 4313SOL     OW13837   0.138   3.071   6.503
 4313SOL    HW113838   0.182   2.982   6.502
 4313SOL    HW213839   0.160   3.119   6.589
 4314SOL     OW13840   0.609   1.368   6.006
 4314SOL    HW113841   0.542   1.359   6.079
 4314SOL    HW213842   0.563   1.366   5.917
 4315SOL     OW13843   2.547   1.109   4.703
 4315SOL    HW113844   2.469   1.089   4.762
 4315SOL    HW213845   2.555   1.207   4.690
 4316SOL     OW13846   5.128   5.827   0.989
 4316SOL    HW113847   5.192   5.894   0.950
 4316SOL    HW213848   5.173   5.778   1.063
 4317SOL     OW13849   4.591   0.997   5.618
 4317SOL    HW113850   4.632   0.972   5.706
 4317SOL    HW213851   4.505   0.947   5.606
 4318SOL     OW13852   0.905   6.815   4.242
 4318SOL    HW113853   0.837   6.758   4.195
 4318SOL    HW213854   0.995   6.800   4.201
 4319SOL     OW13855   1.376   4.331   2.519
 4319SOL    HW113856   1.306   4.363   2.583
 4319SOL    HW213857   1.425   4.254   2.559
 4320SOL     OW13858   3.441   0.069   1.101
 4320SOL    HW113859   3.391   0.083   1.016
 4320SOL    HW213860   3.519   0.008   1.083
 4321SOL     OW13861   6.837   7.002   3.108
 4321SOL    HW113862   6.864   0.054   3.166
 4321SOL    HW213863   6.789   0.012   3.027
 4322SOL     OW13864   1.812   2.987   5.015
 4322SOL    HW113865   1.904   2.946   5.018
 4322SOL    HW213866   1.818   3.084   5.039
 4323SOL     OW13867   4.504   4.960   0.141
 4323SOL    HW113868   4.407   4.949   0.166
 4323SOL    HW213869   4.558   4.975   0.223
 4324SOL     OW13870   0.854   4.717   5.851
 4324SOL    HW113871   0.806   4.673   5.775
 4324SOL    HW213872   0.803   4.701   5.936
 4325SOL     OW13873   1.879   0.770   2.825
 4325SOL    HW113874   1.875   0.670   2.820
 4325SOL    HW213875   1.829   0.802   2.906
 4326SOL     OW13876   5.502   1.587   2.044
 4326SOL    HW113877   5.583   1.614   1.992
 4326SOL    HW213878   5.449   1.669   2.066
 4327SOL     OW13879   2.745   6.161   3.642
 4327SOL    HW113880   2.741   6.074   3.593
 4327SOL    HW213881   2.824   6.214   3.610
 4328SOL     OW13882   6.953   0.189   4.434
 4328SOL    HW113883   6.962   0.089   4.427
 4328SOL    HW213884   6.906   0.223   4.352
 4329SOL     OW13885   6.873   1.997   6.795
 4329SOL    HW113886   6.966   2.031   6.805
 4329SOL    HW213887   6.814   2.040   6.864
 4330SOL     OW13888   3.189   4.934   4.548
 4330SOL    HW113889   3.143   5.019   4.522
 4330SOL    HW213890   3.121   4.863   4.566
 4331SOL     OW13891   5.818   1.656   2.201
 4331SOL    HW113892   5.743   1.638   2.266
 4331SOL    HW213893   5.872   1.734   2.234
 4332SOL     OW13894   1.032   5.115   2.076
 4332SOL    HW113895   1.076   5.061   2.004
 4332SOL    HW213896   1.001   5.055   2.149
 4333SOL     OW13897   4.679   2.180   5.848
 4333SOL    HW113898   4.709   2.254   5.788
 4333SOL    HW213899   4.642   2.218   5.932
 4334SOL     OW13900   6.968   3.077   4.380
 4334SOL    HW113901   6.955   3.019   4.299
 4334SOL    HW213902   6.945   3.171   4.357
 4335SOL     OW13903   2.820   3.740   1.375
 4335SOL    HW113904   2.797   3.673   1.304
 4335SOL    HW213905   2.899   3.708   1.427
 4336SOL     OW13906   2.543   5.913   5.480
 4336SOL    HW113907   2.528   6.009   5.505
 4336SOL    HW213908   2.583   5.908   5.389
 4337SOL     OW13909   1.016   4.965   3.835
 4337SOL    HW113910   0.945   4.914   3.786
 4337SOL    HW213911   0.983   4.984   3.928
 4338SOL     OW13912   3.669   1.740   5.752
 4338SOL    HW113913   3.695   1.693   5.837
 4338SOL    HW213914   3.733   1.714   5.679
 4339SOL     OW13915   3.942   4.193   6.053
 4339SOL    HW113916   3.862   4.189   5.993
 4339SOL    HW213917   4.005   4.118   6.031
 4340SOL     OW13918   6.156   4.185   1.259
 4340SOL    HW113919   6.084   4.207   1.193
 4340SOL    HW213920   6.171   4.086   1.259
 4341SOL     OW13921   6.309   6.454   2.329
 4341SOL    HW113922   6.325   6.504   2.244
 4341SOL    HW213923   6.259   6.369   2.309
 4342SOL     OW13924   4.852   4.081   2.432
 4342SOL    HW113925   4.809   4.136   2.503
 4342SOL    HW213926   4.801   4.091   2.347
 4343SOL     OW13927   3.792   6.582   6.090
 4343SOL    HW113928   3.806   6.596   6.188
 4343SOL    HW213929   3.822   6.664   6.040
 4344SOL     OW13930   7.006   3.523   3.361
 4344SOL    HW113931   6.914   3.533   3.398
 4344SOL    HW213932   7.023   3.594   3.293
 4345SOL     OW13933   3.101   3.066   2.701
 4345SOL    HW113934   3.084   3.100   2.609
 4345SOL    HW213935   3.089   3.140   2.767
 4346SOL     OW13936   1.374   3.083   2.561
 4346SOL    HW113937   1.468   3.116   2.552
 4346SOL    HW213938   1.327   3.135   2.633
 4347SOL     OW13939   6.426   5.883   0.325
 4347SOL    HW113940   6.372   5.868   0.408
 4347SOL    HW213941   6.382   5.838   0.247
 4348SOL     OW13942   5.462   4.846   4.076
 4348SOL    HW113943   5.382   4.799   4.113
 4348SOL    HW213944   5.533   4.851   4.147
 4349SOL     OW13945   0.165   3.404   4.328
 4349SOL    HW113946   0.115   3.390   4.413
 4349SOL    HW213947   0.214   3.321   4.304
 4350SOL     OW13948   3.887   1.279   4.688
 4350SOL    HW113949   3.840   1.353   4.639
 4350SOL    HW213950   3.821   1.207   4.710
 4351SOL     OW13951   1.028   6.039   0.779
 4351SOL    HW113952   1.041   6.052   0.680
 4351SOL    HW213953   1.106   6.077   0.828
 4352SOL     OW13954   3.463   4.695   1.256
 4352SOL    HW113955   3.445   4.600   1.284
 4352SOL    HW213956   3.405   4.756   1.311
 4353SOL     OW13957   2.831   2.607   1.369
 4353SOL    HW113958   2.893   2.650   1.304
 4353SOL    HW213959   2.762   2.673   1.399
 4354SOL     OW13960   6.216   0.103   3.302
 4354SOL    HW113961   6.156   0.023   3.308
 4354SOL    HW213962   6.171   0.176   3.251
 4355SOL     OW13963   2.016   5.714   2.911
 4355SOL    HW113964   2.059   5.777   2.846
 4355SOL    HW213965   2.063   5.720   2.999
 4356SOL     OW13966   5.807   2.483   5.228
 4356SOL    HW113967   5.812   2.383   5.230
 4356SOL    HW213968   5.714   2.512   5.249
 4357SOL     OW13969   5.560   0.530   2.055
 4357SOL    HW113970   5.575   0.486   1.966
 4357SOL    HW213971   5.471   0.501   2.092
 4358SOL     OW13972   3.155   0.210   6.910
 4358SOL    HW113973   3.135   0.121   6.869
 4358SOL    HW213974   3.223   0.198   6.983
 4359SOL     OW13975   2.514   2.178   0.417
 4359SOL    HW113976   2.502   2.085   0.384
 4359SOL    HW213977   2.431   2.208   0.463
 4360SOL     OW13978   1.801   4.448   4.201
 4360SOL    HW113979   1.763   4.358   4.220
 4360SOL    HW213980   1.843   4.485   4.284
 4361SOL     OW13981   6.741   2.007   0.518
 4361SOL    HW113982   6.787   1.918   0.525
 4361SOL    HW213983   6.803   2.074   0.478
 4362SOL     OW13984   1.072   5.390   3.505
 4362SOL    HW113985   1.106   5.303   3.542
 4362SOL    HW213986   1.019   5.371   3.422
 4363SOL     OW13987   4.163   0.866   2.275
 4363SOL    HW113988   4.105   0.857   2.355
 4363SOL    HW213989   4.108   0.850   2.192
 4364SOL     OW13990   4.087   3.417   2.449
 4364SOL    HW113991   4.042   3.471   2.378
 4364SOL    HW213992   4.100   3.323   2.416
 4365SOL     OW13993   2.463   1.554   1.071
 4365SOL    HW113994   2.394   1.520   1.134
 4365SOL    HW213995   2.546   1.576   1.122
 4366SOL     OW13996   4.610   6.560   4.680
 4366SOL    HW113997   4.689   6.591   4.735
 4366SOL    HW213998   4.552   6.502   4.737
 4367SOL     OW13999   2.885   5.883   3.210
 4367SOL    HW114000   2.877   5.825   3.129
 4367SOL    HW214001   2.873   5.979   3.183
 4368SOL     OW14002   4.801   4.059   3.618
 4368SOL    HW114003   4.741   3.984   3.647
 4368SOL    HW214004   4.770   4.093   3.529
 4369SOL     OW14005   4.984   4.276   3.340
 4369SOL    HW114006   5.022   4.369   3.335
 4369SOL    HW214007   4.900   4.278   3.394
 4370SOL     OW14008   3.780   4.454   1.699
 4370SOL    HW114009   3.749   4.370   1.743
 4370SOL    HW214010   3.721   4.530   1.727
 4371SOL     OW14011   2.538   1.440   1.626
 4371SOL    HW114012   2.611   1.508   1.618
 4371SOL    HW214013   2.578   1.349   1.640
 4372SOL     OW14014   1.784   3.241   4.902
 4372SOL    HW114015   1.757   3.154   4.859
 4372SOL    HW214016   1.738   3.251   4.990
 4373SOL     OW14017   3.644   1.107   6.206
 4373SOL    HW114018   3.601   1.196   6.186
 4373SOL    HW214019   3.696   1.077   6.126
 4374SOL     OW14020   2.340   0.095   1.377
 4374SOL    HW114021   2.414   0.053   1.326
 4374SOL    HW214022   2.368   0.108   1.472
 4375SOL     OW14023   4.488   1.901   4.195
 4375SOL    HW114024   4.569   1.955   4.218
 4375SOL    HW214025   4.449   1.863   4.280
 4376SOL     OW14026   2.017   6.223   0.030
 4376SOL    HW114027   2.011   6.277   0.115
 4376SOL    HW214028   2.015   6.285   6.976
 4377SOL     OW14029   5.505   6.985   6.275
 4377SOL    HW114030   5.591   7.005   6.228
 4377SOL    HW214031   5.524   6.961   6.370
 4378SOL     OW14032   2.757   5.647   1.998
 4378SOL    HW114033   2.695   5.677   1.925
 4378SOL    HW214034   2.728   5.556   2.031
 4379SOL     OW14035   1.456   0.221   1.502
 4379SOL    HW114036   1.484   0.282   1.428
 4379SOL    HW214037   1.480   0.127   1.479
 4380SOL     OW14038   2.221   5.033   4.522
 4380SOL    HW114039   2.158   5.107   4.545
 4380SOL    HW214040   2.314   5.059   4.546
 4381SOL     OW14041   4.685   6.231   5.452
 4381SOL    HW114042   4.601   6.183   5.426
 4381SOL    HW214043   4.662   6.323   5.486
 4382SOL     OW14044   5.010   3.712   3.250
 4382SOL    HW114045   5.094   3.713   3.195
 4382SOL    HW214046   4.986   3.805   3.276
 4383SOL     OW14047   1.082   2.034   0.016
 4383SOL    HW114048   1.118   1.953   6.994
 4383SOL    HW214049   0.993   2.058   7.003
 4384SOL     OW14050   3.677   6.501   1.127
 4384SOL    HW114051   3.598   6.449   1.160
 4384SOL    HW214052   3.647   6.567   1.059
 4385SOL     OW14053   6.607   1.642   2.523
 4385SOL    HW114054   6.670   1.719   2.519
 4385SOL    HW214055   6.617   1.587   2.440
 4386SOL     OW14056   1.251   3.830   6.725
 4386SOL    HW114057   1.219   3.787   6.810
 4386SOL    HW214058   1.187   3.809   6.651
 4387SOL     OW14059   6.884   3.196   2.224
 4387SOL    HW114060   6.811   3.128   2.214
 4387SOL    HW214061   6.879   3.237   2.315
 4388SOL     OW14062   2.730   1.471   5.376
 4388SOL    HW114063   2.657   1.421   5.422
 4388SOL    HW214064   2.711   1.475   5.278
 4389SOL     OW14065   5.176   2.286   2.238
 4389SOL    HW114066   5.237   2.207   2.248
 4389SOL    HW214067   5.114   2.271   2.161
 4390SOL     OW14068   4.579   2.648   1.809
 4390SOL    HW114069   4.606   2.744   1.802
 4390SOL    HW214070   4.482   2.639   1.787
 4391SOL     OW14071   0.858   6.032   0.986
 4391SOL    HW114072   0.854   5.934   0.966
 4391SOL    HW214073   0.917   6.078   0.920
 4392SOL     OW14074   5.643   3.494   4.570
 4392SOL    HW114075   5.546   3.481   4.590
 4392SOL    HW214076   5.656   3.582   4.524
 4393SOL     OW14077   4.675   6.104   4.080
 4393SOL    HW114078   4.584   6.071   4.054
 4393SOL    HW214079   4.739   6.090   4.004
 4394SOL     OW14080   4.861   0.938   2.083
 4394SOL    HW114081   4.904   1.026   2.102
 4394SOL    HW214082   4.929   0.865   2.094
 4395SOL     OW14083   4.866   1.651   1.520
 4395SOL    HW114084   4.895   1.744   1.544
 4395SOL    HW214085   4.947   1.594   1.507
 4396SOL     OW14086   1.576   0.898   3.889
 4396SOL    HW114087   1.667   0.891   3.930
 4396SOL    HW214088   1.516   0.831   3.932
 4397SOL     OW14089   6.554   0.450   6.138
 4397SOL    HW114090   6.631   0.491   6.089
 4397SOL    HW214091   6.494   0.522   6.173
 4398SOL     OW14092   6.557   4.666   4.133
 4398SOL    HW114093   6.485   4.698   4.071
 4398SOL    HW214094   6.613   4.599   4.086
 4399SOL     OW14095   2.875   1.340   1.633
 4399SOL    HW114096   2.868   1.418   1.570
 4399SOL    HW214097   2.812   1.268   1.604
 4400SOL     OW14098   3.485   5.806   4.400
 4400SOL    HW114099   3.385   5.810   4.408
 4400SOL    HW214100   3.524   5.895   4.422
 4401SOL     OW14101   5.331   6.700   4.166
 4401SOL    HW114102   5.261   6.703   4.095
 4401SOL    HW214103   5.292   6.734   4.252
 4402SOL     OW14104   6.924   0.783   3.474
 4402SOL    HW114105   6.865   0.852   3.517
 4402SOL    HW214106   6.928   0.702   3.532
 4403SOL     OW14107   0.765   6.590   2.759
 4403SOL    HW114108   0.800   6.591   2.853
 4403SOL    HW214109   0.759   6.496   2.726
 4404SOL     OW14110   1.390   4.186   3.593
 4404SOL    HW114111   1.340   4.272   3.604
 4404SOL    HW214112   1.488   4.203   3.597
 4405SOL     OW14113   3.674   4.816   6.072
 4405SOL    HW114114   3.590   4.845   6.116
 4405SOL    HW214115   3.741   4.790   6.142
 4406SOL     OW14116   5.567   3.552   1.516
 4406SOL    HW114117   5.594   3.480   1.453
 4406SOL    HW214118   5.599   3.640   1.482
 4407SOL     OW14119   6.916   6.328   6.885
 4407SOL    HW114120   6.837   6.305   6.941
 4407SOL    HW214121   6.889   6.391   6.812
 4408SOL     OW14122   4.962   6.148   0.394
 4408SOL    HW114123   4.867   6.121   0.405
 4408SOL    HW214124   5.003   6.099   0.318
 4409SOL     OW14125   2.978   1.564   1.858
 4409SOL    HW114126   3.065   1.550   1.905
 4409SOL    HW214127   2.913   1.493   1.886
 4410SOL     OW14128   2.705   5.396   2.103
 4410SOL    HW114129   2.622   5.352   2.136
 4410SOL    HW214130   2.783   5.335   2.118
 4411SOL     OW14131   3.821   3.292   2.331
 4411SOL    HW114132   3.849   3.196   2.338
 4411SOL    HW214133   3.810   3.329   2.423
 4412SOL     OW14134   3.499   2.398   6.569
 4412SOL    HW114135   3.439   2.319   6.557
 4412SOL    HW214136   3.588   2.368   6.602
 4413SOL     OW14137   4.036   5.913   4.168
 4413SOL    HW114138   4.081   5.950   4.087
 4413SOL    HW214139   3.967   5.977   4.201
 4414SOL     OW14140   3.689   5.333   2.249
 4414SOL    HW114141   3.597   5.345   2.287
 4414SOL    HW214142   3.688   5.261   2.180
 4415SOL     OW14143   4.558   2.404   0.482
 4415SOL    HW114144   4.650   2.380   0.451
 4415SOL    HW214145   4.555   2.501   0.506
 4416SOL     OW14146   3.818   1.120   3.453
 4416SOL    HW114147   3.890   1.069   3.500
 4416SOL    HW214148   3.822   1.216   3.480
 4417SOL     OW14149   0.477   0.386   1.073
 4417SOL    HW114150   0.467   0.385   0.974
 4417SOL    HW214151   0.415   0.454   1.112
 4418SOL     OW14152   3.930   0.021   3.705
 4418SOL    HW114153   3.856   0.089   3.710
 4418SOL    HW214154   3.978   0.019   3.793
 4419SOL     OW14155   7.015   5.188   0.278
 4419SOL    HW114156   6.993   5.092   0.261
 4419SOL    HW214157   7.006   5.207   0.376
 4420SOL     OW14158   4.269   1.291   6.517
 4420SOL    HW114159   4.351   1.330   6.559
 4420SOL    HW214160   4.295   1.230   6.443
 4421SOL     OW14161   1.919   1.727   3.203
 4421SOL    HW114162   1.947   1.669   3.280
 4421SOL    HW214163   2.000   1.755   3.151
 4422SOL     OW14164   2.417   3.754   6.063
 4422SOL    HW114165   2.441   3.803   5.979
 4422SOL    HW214166   2.448   3.659   6.057
 4423SOL     OW14167   0.237   1.338   6.422
 4423SOL    HW114168   0.213   1.288   6.505
 4423SOL    HW214169   0.203   1.432   6.427
 4424SOL     OW14170   0.379   6.059   3.645
 4424SOL    HW114171   0.301   6.115   3.616
 4424SOL    HW214172   0.413   6.007   3.567
 4425SOL     OW14173   4.635   4.383   0.136
 4425SOL    HW114174   4.638   4.317   0.061
 4425SOL    HW214175   4.684   4.348   0.215
 4426SOL     OW14176   1.085   0.505   5.626
 4426SOL    HW114177   1.089   0.440   5.550
 4426SOL    HW214178   1.091   0.599   5.591
 4427SOL     OW14179   1.230   6.917   3.712
 4427SOL    HW114180   1.212   6.885   3.619
 4427SOL    HW214181   1.232   6.839   3.775
 4428SOL     OW14182   2.733   5.954   3.480
 4428SOL    HW114183   2.782   5.947   3.393
 4428SOL    HW214184   2.774   5.890   3.546
 4429SOL     OW14185   4.161   0.228   3.287
 4429SOL    HW114186   4.240   0.249   3.345
 4429SOL    HW214187   4.183   0.248   3.192
 4430SOL     OW14188   1.646   0.789   1.603
 4430SOL    HW114189   1.679   0.881   1.579
 4430SOL    HW214190   1.549   0.793   1.626
 4431SOL     OW14191   1.743   2.340   2.897
 4431SOL    HW114192   1.698   2.267   2.845
 4431SOL    HW214193   1.769   2.306   2.987
 4432SOL     OW14194   2.945   3.524   3.429
 4432SOL    HW114195   2.864   3.519   3.371
 4432SOL    HW214196   3.006   3.596   3.395
 4433SOL     OW14197   6.902   0.639   3.236
 4433SOL    HW114198   6.872   0.692   3.157
 4433SOL    HW214199   6.921   0.702   3.312
 4434SOL     OW14200   5.169   2.045   4.254
 4434SOL    HW114201   5.246   2.046   4.190
 4434SOL    HW214202   5.180   2.119   4.320
 4435SOL     OW14203   3.372   3.152   2.340
 4435SOL    HW114204   3.285   3.112   2.311
 4435SOL    HW214205   3.403   3.218   2.271
 4436SOL     OW14206   5.150   0.676   6.736
 4436SOL    HW114207   5.215   0.747   6.765
 4436SOL    HW214208   5.137   0.610   6.810
 4437SOL     OW14209   3.605   0.235   4.635
 4437SOL    HW114210   3.596   0.328   4.597
 4437SOL    HW214211   3.641   0.174   4.564
 4438SOL     OW14212   3.721   3.801   6.215
 4438SOL    HW114213   3.798   3.739   6.230
 4438SOL    HW214214   3.736   3.853   6.131
 4439SOL     OW14215   2.676   5.181   2.405
 4439SOL    HW114216   2.611   5.197   2.330
 4439SOL    HW214217   2.665   5.087   2.438
 4440SOL     OW14218   0.145   0.508   6.429
 4440SOL    HW114219   0.059   0.545   6.394
 4440SOL    HW214220   0.126   0.442   6.502
 4441SOL     OW14221   5.505   2.264   3.106
 4441SOL    HW114222   5.414   2.262   3.148
 4441SOL    HW214223   5.526   2.174   3.068
 4442SOL     OW14224   2.286   6.435   2.316
 4442SOL    HW114225   2.286   6.535   2.313
 4442SOL    HW214226   2.255   6.405   2.406
 4443SOL     OW14227   2.394   1.413   5.719
 4443SOL    HW114228   2.361   1.464   5.639
 4443SOL    HW214229   2.491   1.433   5.734
 4444SOL     OW14230   5.125   0.766   2.743
 4444SOL    HW114231   5.124   0.713   2.828
 4444SOL    HW214232   5.062   0.725   2.677
 4445SOL     OW14233   1.738   1.745   6.584
 4445SOL    HW114234   1.719   1.668   6.645
 4445SOL    HW214235   1.794   1.813   6.632
 4446SOL     OW14236   6.360   5.833   4.293
 4446SOL    HW114237   6.362   5.804   4.389
 4446SOL    HW214238   6.357   5.933   4.289
 4447SOL     OW14239   4.876   3.356   4.841
 4447SOL    HW114240   4.879   3.268   4.890
 4447SOL    HW214241   4.879   3.431   4.907
 4448SOL     OW14242   2.930   2.942   6.042
 4448SOL    HW114243   2.861   2.870   6.045
 4448SOL    HW214244   2.890   3.026   6.005
 4449SOL     OW14245   0.766   1.275   4.794
 4449SOL    HW114246   0.799   1.181   4.786
 4449SOL    HW214247   0.799   1.329   4.716
 4450SOL     OW14248   3.964   3.920   3.249
 4450SOL    HW114249   3.906   3.980   3.194
 4450SOL    HW214250   3.951   3.942   3.346
 4451SOL     OW14251   6.537   4.385   2.032
 4451SOL    HW114252   6.539   4.483   2.053
 4451SOL    HW214253   6.526   4.373   1.933
 4452SOL     OW14254   6.313   5.175   6.113
 4452SOL    HW114255   6.363   5.168   6.199
 4452SOL    HW214256   6.359   5.121   6.043
 4453SOL     OW14257   5.090   2.287   1.140
 4453SOL    HW114258   5.094   2.316   1.235
 4453SOL    HW214259   5.103   2.188   1.134
 4454SOL     OW14260   5.134   3.178   1.453
 4454SOL    HW114261   5.083   3.117   1.515
 4454SOL    HW214262   5.150   3.131   1.366
 4455SOL     OW14263   4.400   1.615   1.667
 4455SOL    HW114264   4.368   1.520   1.668
 4455SOL    HW214265   4.499   1.617   1.683
 4456SOL     OW14266   0.913   5.324   3.271
 4456SOL    HW114267   0.870   5.414   3.261
 4456SOL    HW214268   0.871   5.259   3.208
 4457SOL     OW14269   5.133   1.943   6.415
 4457SOL    HW114270   5.046   1.916   6.455
 4457SOL    HW214271   5.117   2.008   6.341
 4458SOL     OW14272   3.711   1.796   6.344
 4458SOL    HW114273   3.766   1.713   6.347
 4458SOL    HW214274   3.680   1.819   6.436
 4459SOL     OW14275   5.183   6.086   5.515
 4459SOL    HW114276   5.132   6.053   5.436
 4459SOL    HW214277   5.189   6.186   5.511
 4460SOL     OW14278   1.679   1.538   6.393
 4460SOL    HW114279   1.630   1.493   6.467
 4460SOL    HW214280   1.754   1.592   6.430
 4461SOL     OW14281   2.348   0.417   2.291
 4461SOL    HW114282   2.304   0.359   2.222
 4461SOL    HW214283   2.435   0.376   2.319
 4462SOL     OW14284   6.834   5.952   1.442
 4462SOL    HW114285   6.909   5.969   1.506
 4462SOL    HW214286   6.871   5.937   1.351
 4463SOL     OW14287   1.688   3.470   6.051
 4463SOL    HW114288   1.693   3.472   6.151
 4463SOL    HW214289   1.599   3.432   6.023
 4464SOL     OW14290   6.208   3.037   6.563
 4464SOL    HW114291   6.129   3.097   6.543
 4464SOL    HW214292   6.176   2.956   6.612
 4465SOL     OW14293   1.520   5.882   2.353
 4465SOL    HW114294   1.480   5.826   2.281
 4465SOL    HW214295   1.581   5.825   2.409
 4466SOL     OW14296   0.283   2.520   4.113
 4466SOL    HW114297   0.188   2.500   4.090
 4466SOL    HW214298   0.338   2.523   4.030
 4467SOL     OW14299   0.986   0.021   3.221
 4467SOL    HW114300   0.909   0.035   3.159
 4467SOL    HW214301   1.001   6.947   3.235
 4468SOL     OW14302   1.199   2.615   0.083
 4468SOL    HW114303   1.255   2.618   0.166
 4468SOL    HW214304   1.159   2.705   0.066
 4469SOL     OW14305   4.507   0.132   6.958
 4469SOL    HW114306   4.486   0.224   6.991
 4469SOL    HW214307   4.603   0.111   6.976
 4470SOL     OW14308   4.633   5.249   1.144
 4470SOL    HW114309   4.705   5.267   1.211
 4470SOL    HW214310   4.548   5.224   1.191
 4471SOL     OW14311   6.653   3.566   0.161
 4471SOL    HW114312   6.706   3.647   0.186
 4471SOL    HW214313   6.555   3.585   0.176
 4472SOL     OW14314   2.098   5.321   1.432
 4472SOL    HW114315   2.145   5.253   1.488
 4472SOL    HW214316   2.010   5.343   1.473
 4473SOL     OW14317   0.327   0.014   5.582
 4473SOL    HW114318   0.421   7.006   5.597
 4473SOL    HW214319   0.289   6.993   5.501
 4474SOL     OW14320   5.686   0.954   3.757
 4474SOL    HW114321   5.733   0.913   3.835
 4474SOL    HW214322   5.604   1.002   3.788
 4475SOL     OW14323   1.845   3.674   0.248
 4475SOL    HW114324   1.887   3.759   0.218
 4475SOL    HW214325   1.750   3.691   0.275
 4476SOL     OW14326   4.683   6.362   2.107
 4476SOL    HW114327   4.609   6.358   2.040
 4476SOL    HW214328   4.716   6.269   2.125
 4477SOL     OW14329   1.496   0.964   0.211
 4477SOL    HW114330   1.584   1.001   0.182
 4477SOL    HW214331   1.466   1.012   0.294
 4478SOL     OW14332   1.440   5.244   2.424
 4478SOL    HW114333   1.417   5.232   2.521
 4478SOL    HW214334   1.363   5.287   2.376
 4479SOL     OW14335   0.387   6.828   5.125
 4479SOL    HW114336   0.370   6.844   5.222
 4479SOL    HW214337   0.365   6.733   5.102
 4480SOL     OW14338   0.976   4.429   3.557
 4480SOL    HW114339   0.919   4.446   3.637
 4480SOL    HW214340   0.921   4.384   3.486
 4481SOL     OW14341   1.188   6.837   4.138
 4481SOL    HW114342   1.226   6.845   4.230
 4481SOL    HW214343   1.167   6.928   4.102
 4482SOL     OW14344   0.093   4.245   4.084
 4482SOL    HW114345   0.049   4.188   4.154
 4482SOL    HW214346   0.044   4.332   4.077
 4483SOL     OW14347   5.548   2.390   2.091
 4483SOL    HW114348   5.644   2.418   2.093
 4483SOL    HW214349   5.504   2.416   2.178
 4484SOL     OW14350   4.235   2.651   5.659
 4484SOL    HW114351   4.137   2.640   5.646
 4484SOL    HW214352   4.268   2.585   5.726
 4485SOL     OW14353   4.530   1.310   6.596
 4485SOL    HW114354   4.573   1.326   6.508
 4485SOL    HW214355   4.582   1.240   6.647
 4486SOL     OW14356   6.232   1.986   4.094
 4486SOL    HW114357   6.327   2.015   4.093
 4486SOL    HW214358   6.173   2.066   4.109
 4487SOL     OW14359   3.356   3.154   6.046
 4487SOL    HW114360   3.431   3.155   6.112
 4487SOL    HW214361   3.312   3.243   6.044
 4488SOL     OW14362   0.496   1.755   5.158
 4488SOL    HW114363   0.487   1.700   5.241
 4488SOL    HW214364   0.494   1.852   5.181
 4489SOL     OW14365   6.486   0.644   3.567
 4489SOL    HW114366   6.574   0.623   3.524
 4489SOL    HW214367   6.492   0.622   3.665
 4490SOL     OW14368   6.857   2.552   3.667
 4490SOL    HW114369   6.941   2.602   3.686
 4490SOL    HW214370   6.876   2.454   3.664
 4491SOL     OW14371   1.652   2.998   2.798
 4491SOL    HW114372   1.592   3.076   2.817
 4491SOL    HW214373   1.599   2.913   2.807
 4492SOL     OW14374   4.164   3.473   6.599
 4492SOL    HW114375   4.262   3.455   6.608
 4492SOL    HW214376   4.122   3.478   6.690
 4493SOL     OW14377   6.277   5.540   3.931
 4493SOL    HW114378   6.225   5.607   3.878
 4493SOL    HW214379   6.315   5.583   4.012
 4494SOL     OW14380   6.067   3.797   3.779
 4494SOL    HW114381   6.006   3.793   3.858
 4494SOL    HW214382   6.076   3.705   3.739
 4495SOL     OW14383   4.558   6.211   1.382
 4495SOL    HW114384   4.623   6.253   1.318
 4495SOL    HW214385   4.465   6.227   1.349
 4496SOL     OW14386   5.124   4.465   5.468
 4496SOL    HW114387   5.185   4.416   5.405
 4496SOL    HW214388   5.117   4.415   5.554
 4497SOL     OW14389   6.448   5.129   0.601
 4497SOL    HW114390   6.430   5.081   0.687
 4497SOL    HW214391   6.403   5.218   0.602
 4498SOL     OW14392   0.155   4.178   6.729
 4498SOL    HW114393   0.222   4.113   6.766
 4498SOL    HW214394   0.191   4.271   6.738
 4499SOL     OW14395   6.739   2.937   6.804
 4499SOL    HW114396   6.736   2.837   6.792
 4499SOL    HW214397   6.724   2.959   6.900
 4500SOL     OW14398   3.571   3.779   4.788
 4500SOL    HW114399   3.627   3.847   4.837
 4500SOL    HW214400   3.627   3.734   4.718
 4501SOL     OW14401   0.669   4.285   4.820
 4501SOL    HW114402   0.766   4.292   4.796
 4501SOL    HW214403   0.657   4.213   4.888
 4502SOL     OW14404   0.234   3.242   0.296
 4502SOL    HW114405   0.328   3.257   0.326
 4502SOL    HW214406   0.234   3.203   0.204
 4503SOL     OW14407   1.601   2.105   3.159
 4503SOL    HW114408   1.505   2.125   3.178
 4503SOL    HW214409   1.622   2.128   3.064
 4504SOL     OW14410   5.266   2.539   4.711
 4504SOL    HW114411   5.348   2.584   4.675
 4504SOL    HW214412   5.185   2.579   4.669
 4505SOL     OW14413   1.651   5.065   6.294
 4505SOL    HW114414   1.691   5.033   6.208
 4505SOL    HW214415   1.637   4.987   6.355
 4506SOL     OW14416   3.872   0.350   5.497
 4506SOL    HW114417   3.859   0.308   5.587
 4506SOL    HW214418   3.866   0.279   5.426
 4507SOL     OW14419   6.668   4.437   0.984
 4507SOL    HW114420   6.753   4.467   0.940
 4507SOL    HW214421   6.593   4.498   0.959
 4508SOL     OW14422   1.649   4.104   0.827
 4508SOL    HW114423   1.617   4.171   0.760
 4508SOL    HW214424   1.676   4.151   0.911
 4509SOL     OW14425   1.330   2.049   3.714
 4509SOL    HW114426   1.357   2.143   3.732
 4509SOL    HW214427   1.247   2.027   3.766
 4510SOL     OW14428   3.884   6.400   5.154
 4510SOL    HW114429   3.936   6.443   5.228
 4510SOL    HW214430   3.838   6.319   5.188
 4511SOL     OW14431   6.089   2.716   0.043
 4511SOL    HW114432   6.155   2.774   7.019
 4511SOL    HW214433   6.122   2.700   0.136
 4512SOL     OW14434   3.145   4.967   0.246
 4512SOL    HW114435   3.128   5.065   0.263
 4512SOL    HW214436   3.191   4.957   0.158
 4513SOL     OW14437   5.147   0.768   1.865
 4513SOL    HW114438   5.244   0.784   1.847
 4513SOL    HW214439   5.114   0.697   1.804
 4514SOL     OW14440   3.409   1.505   5.061
 4514SOL    HW114441   3.422   1.590   5.113
 4514SOL    HW214442   3.315   1.474   5.070
 4515SOL     OW14443   0.531   4.997   1.229
 4515SOL    HW114444   0.538   4.925   1.161
 4515SOL    HW214445   0.575   4.968   1.314
 4516SOL     OW14446   1.025   0.204   4.962
 4516SOL    HW114447   0.984   0.293   4.942
 4516SOL    HW214448   1.002   0.140   4.888
 4517SOL     OW14449   3.657   6.931   5.000
 4517SOL    HW114450   3.623   6.874   4.925
 4517SOL    HW214451   3.730   6.883   5.048
 4518SOL     OW14452   1.151   1.686   4.498
 4518SOL    HW114453   1.147   1.773   4.449
 4518SOL    HW214454   1.189   1.616   4.438
 4519SOL     OW14455   6.088   2.191   4.270
 4519SOL    HW114456   6.188   2.198   4.271
 4519SOL    HW214457   6.051   2.241   4.348
 4520SOL     OW14458   0.057   4.262   3.024
 4520SOL    HW114459   0.131   4.195   3.024
 4520SOL    HW214460   6.994   4.216   3.009
 4521SOL     OW14461   5.907   1.865   6.198
 4521SOL    HW114462   5.949   1.776   6.216
 4521SOL    HW214463   5.821   1.872   6.249
 4522SOL     OW14464   6.064   0.680   3.841
 4522SOL    HW114465   6.064   0.654   3.938
 4522SOL    HW214466   6.014   0.765   3.829
 4523SOL     OW14467   3.639   3.675   0.223
 4523SOL    HW114468   3.617   3.676   0.126
 4523SOL    HW214469   3.689   3.591   0.245
 4524SOL     OW14470   5.966   0.048   4.851
 4524SOL    HW114471   5.884   0.012   4.807
 4524SOL    HW214472   5.941   0.093   4.937
 4525SOL     OW14473   6.600   1.658   5.564
 4525SOL    HW114474   6.543   1.576   5.560
 4525SOL    HW214475   6.543   1.737   5.585
 4526SOL     OW14476   3.774   0.635   1.125
 4526SOL    HW114477   3.735   0.716   1.167
 4526SOL    HW214478   3.702   0.580   1.083
 4527SOL     OW14479   4.007   1.218   3.116
 4527SOL    HW114480   3.917   1.180   3.137
 4527SOL    HW214481   4.065   1.214   3.198
 4528SOL     OW14482   6.110   0.519   6.330
 4528SOL    HW114483   6.059   0.433   6.321
 4528SOL    HW214484   6.128   0.537   6.426
 4529SOL     OW14485   3.740   6.272   3.377
 4529SOL    HW114486   3.655   6.220   3.367
 4529SOL    HW214487   3.747   6.338   3.302
 4530SOL     OW14488   0.456   3.304   5.283
 4530SOL    HW114489   0.408   3.354   5.355
 4530SOL    HW214490   0.419   3.211   5.276
 4531SOL     OW14491   0.271   3.699   3.855
 4531SOL    HW114492   0.363   3.709   3.816
 4531SOL    HW214493   0.237   3.607   3.836
 4532SOL     OW14494   6.183   2.053   0.877
 4532SOL    HW114495   6.249   2.030   0.949
 4532SOL    HW214496   6.103   2.097   0.918
 4533SOL     OW14497   2.410   5.981   2.878
 4533SOL    HW114498   2.408   5.932   2.966
 4533SOL    HW214499   2.464   5.929   2.812
 4534SOL     OW14500   5.944   3.841   5.719
 4534SOL    HW114501   5.958   3.828   5.621
 4534SOL    HW214502   6.016   3.900   5.755
 4535SOL     OW14503   4.832   2.874   2.096
 4535SOL    HW114504   4.930   2.862   2.085
 4535SOL    HW214505   4.801   2.950   2.039
 4536SOL     OW14506   6.799   1.307   4.398
 4536SOL    HW114507   6.819   1.227   4.341
 4536SOL    HW214508   6.762   1.277   4.485
 4537SOL     OW14509   4.068   2.978   6.003
 4537SOL    HW114510   4.125   2.948   5.927
 4537SOL    HW214511   3.995   2.911   6.019
 4538SOL     OW14512   2.997   1.100   2.444
 4538SOL    HW114513   2.946   1.085   2.359
 4538SOL    HW214514   3.091   1.127   2.422
 4539SOL     OW14515   1.298   1.634   2.313
 4539SOL    HW114516   1.200   1.648   2.327
 4539SOL    HW214517   1.325   1.672   2.225
 4540SOL     OW14518   3.294   2.988   4.472
 4540SOL    HW114519   3.307   2.907   4.415
 4540SOL    HW214520   3.296   2.962   4.569
 4541SOL     OW14521   5.354   1.324   1.003
 4541SOL    HW114522   5.265   1.280   0.988
 4541SOL    HW214523   5.361   1.405   0.946
 4542SOL     OW14524   4.285   0.806   3.877
 4542SOL    HW114525   4.274   0.904   3.897
 4542SOL    HW214526   4.318   0.795   3.783
 4543SOL     OW14527   5.139   1.851   1.526
 4543SOL    HW114528   5.177   1.811   1.442
 4543SOL    HW214529   5.117   1.947   1.511
 4544SOL     OW14530   3.649   5.060   6.635
 4544SOL    HW114531   3.669   5.095   6.726
 4544SOL    HW214532   3.725   5.083   6.574
 4545SOL     OW14533   4.503   2.361   5.433
 4545SOL    HW114534   4.474   2.407   5.350
 4545SOL    HW214535   4.561   2.283   5.409
 4546SOL     OW14536   1.376   6.338   5.975
 4546SOL    HW114537   1.298   6.357   5.914
 4546SOL    HW214538   1.452   6.397   5.949
 4547SOL     OW14539   4.777   2.507   1.697
 4547SOL    HW114540   4.692   2.551   1.727
 4547SOL    HW214541   4.853   2.538   1.753
 4548SOL     OW14542   1.007   3.296   3.601
 4548SOL    HW114543   1.008   3.201   3.570
 4548SOL    HW214544   1.078   3.309   3.670
 4549SOL     OW14545   5.503   2.598   2.532
 4549SOL    HW114546   5.424   2.647   2.569
 4549SOL    HW214547   5.550   2.550   2.605
 4550SOL     OW14548   1.172   6.085   4.592
 4550SOL    HW114549   1.244   6.084   4.522
 4550SOL    HW214550   1.194   6.020   4.664
 4551SOL     OW14551   0.711   2.775   5.787
 4551SOL    HW114552   0.708   2.782   5.887
 4551SOL    HW214553   0.671   2.857   5.747
 4552SOL     OW14554   6.932   3.331   4.543
 4552SOL    HW114555   6.844   3.335   4.497
 4552SOL    HW214556   6.947   3.414   4.597
 4553SOL     OW14557   4.664   4.718   0.448
 4553SOL    HW114558   4.646   4.812   0.419
 4553SOL    HW214559   4.580   4.677   0.483
 4554SOL     OW14560   5.380   6.794   2.939
 4554SOL    HW114561   5.455   6.765   2.880
 4554SOL    HW214562   5.313   6.845   2.884
 4555SOL     OW14563   5.090   1.594   0.143
 4555SOL    HW114564   5.084   1.690   0.116
 4555SOL    HW214565   5.130   1.541   0.068
 4556SOL     OW14566   4.537   1.001   4.083
 4556SOL    HW114567   4.606   1.045   4.025
 4556SOL    HW214568   4.582   0.954   4.159
 4557SOL     OW14569   5.160   0.326   5.511
 4557SOL    HW114570   5.112   0.330   5.424
 4557SOL    HW214571   5.108   0.375   5.580
 4558SOL     OW14572   6.377   2.809   6.136
 4558SOL    HW114573   6.450   2.769   6.079
 4558SOL    HW214574   6.416   2.841   6.222
 4559SOL     OW14575   0.953   6.708   1.018
 4559SOL    HW114576   0.861   6.710   1.059
 4559SOL    HW214577   0.946   6.682   0.922
 4560SOL     OW14578   4.754   2.752   2.702
 4560SOL    HW114579   4.780   2.687   2.630
 4560SOL    HW214580   4.745   2.843   2.662
 4561SOL     OW14581   3.008   0.006   6.551
 4561SOL    HW114582   3.023   6.970   6.473
 4561SOL    HW214583   2.910   0.025   6.560
 4562SOL     OW14584   3.150   5.085   6.000
 4562SOL    HW114585   3.082   5.158   6.011
 4562SOL    HW214586   3.213   5.109   5.927
 4563SOL     OW14587   5.769   2.073   6.490
 4563SOL    HW114588   5.848   2.106   6.541
 4563SOL    HW214589   5.775   2.102   6.395
 4564SOL     OW14590   1.351   5.997   6.939
 4564SOL    HW114591   1.280   5.929   6.959
 4564SOL    HW214592   1.344   6.072   7.004
 4565SOL     OW14593   2.185   0.665   4.594
 4565SOL    HW114594   2.196   0.625   4.503
 4565SOL    HW214595   2.243   0.616   4.659
 4566SOL     OW14596   0.281   2.057   0.125
 4566SOL    HW114597   0.311   1.991   0.056
 4566SOL    HW214598   0.226   2.128   0.080
 4567SOL     OW14599   6.847   1.422   0.638
 4567SOL    HW114600   6.796   1.379   0.713
 4567SOL    HW214601   6.924   1.473   0.675
 4568SOL     OW14602   3.473   4.607   5.429
 4568SOL    HW114603   3.401   4.538   5.435
 4568SOL    HW214604   3.437   4.690   5.386
 4569SOL     OW14605   0.248   2.071   4.703
 4569SOL    HW114606   0.262   2.158   4.751
 4569SOL    HW214607   0.256   1.995   4.768
 4570SOL     OW14608   0.012   4.921   4.496
 4570SOL    HW114609   7.016   5.006   4.447
 4570SOL    HW214610   0.003   4.843   4.434
 4571SOL     OW14611   3.321   2.971   4.731
 4571SOL    HW114612   3.284   3.055   4.773
 4571SOL    HW214613   3.373   2.920   4.800
 4572SOL     OW14614   1.941   6.210   1.260
 4572SOL    HW114615   1.854   6.163   1.271
 4572SOL    HW214616   1.925   6.309   1.258
 4573SOL     OW14617   5.498   0.191   0.688
 4573SOL    HW114618   5.513   0.278   0.641
 4573SOL    HW214619   5.569   0.177   0.756
 4574SOL     OW14620   0.795   4.322   2.334
 4574SOL    HW114621   0.706   4.278   2.346
 4574SOL    HW214622   0.865   4.252   2.315
 4575SOL     OW14623   6.331   6.940   2.621
 4575SOL    HW114624   6.371   6.995   2.548
 4575SOL    HW214625   6.344   6.986   2.709
 4576SOL     OW14626   3.164   5.735   5.285
 4576SOL    HW114627   3.191   5.823   5.245
 4576SOL    HW214628   3.201   5.727   5.377
 4577SOL     OW14629   0.882   2.655   3.603
 4577SOL    HW114630   0.868   2.565   3.644
 4577SOL    HW214631   0.959   2.650   3.539
 4578SOL     OW14632   6.999   4.070   3.894
 4578SOL    HW114633   0.013   4.136   3.959
 4578SOL    HW214634   0.045   4.042   3.829
 4579SOL     OW14635   5.322   1.882   4.007
 4579SOL    HW114636   5.362   1.964   4.048
 4579SOL    HW214637   5.236   1.906   3.962
 4580SOL     OW14638   6.822   5.356   0.814
 4580SOL    HW114639   6.875   5.361   0.730
 4580SOL    HW214640   6.760   5.279   0.811
 4581SOL     OW14641   3.740   5.915   3.064
 4581SOL    HW114642   3.827   5.952   3.029
 4581SOL    HW214643   3.709   5.842   3.004
 4582SOL     OW14644   4.464   6.713   2.472
 4582SOL    HW114645   4.475   6.625   2.426
 4582SOL    HW214646   4.373   6.718   2.513
 4583SOL     OW14647   4.853   1.934   5.204
 4583SOL    HW114648   4.796   1.918   5.124
 4583SOL    HW214649   4.872   1.847   5.250
 4584SOL     OW14650   0.696   5.032   5.168
 4584SOL    HW114651   0.601   5.043   5.137
 4584SOL    HW214652   0.699   5.036   5.268
 4585SOL     OW14653   4.048   6.550   3.014
 4585SOL    HW114654   4.055   6.607   3.096
 4585SOL    HW214655   3.954   6.519   3.002
 4586SOL     OW14656   3.396   5.587   1.975
 4586SOL    HW114657   3.303   5.577   2.010
 4586SOL    HW214658   3.461   5.561   2.046
 4587SOL     OW14659   2.074   4.379   1.164
 4587SOL    HW114660   2.026   4.291   1.159
 4587SOL    HW214661   2.039   4.432   1.241
 4588SOL     OW14662   4.670   3.898   5.285
 4588SOL    HW114663   4.616   3.832   5.337
 4588SOL    HW214664   4.620   3.984   5.277
 4589SOL     OW14665   6.773   1.843   4.437
 4589SOL    HW114666   6.859   1.855   4.388
 4589SOL    HW214667   6.765   1.748   4.468
 4590SOL     OW14668   5.020   5.808   2.568
 4590SOL    HW114669   5.021   5.849   2.659
 4590SOL    HW214670   4.952   5.735   2.565
 4591SOL     OW14671   5.704   5.718   5.203
 4591SOL    HW114672   5.635   5.675   5.144
 4591SOL    HW214673   5.709   5.669   5.290
 4592SOL     OW14674   3.777   2.064   6.290
 4592SOL    HW114675   3.700   2.128   6.296
 4592SOL    HW214676   3.753   1.978   6.335
 4593SOL     OW14677   3.539   6.026   2.298
 4593SOL    HW114678   3.528   6.124   2.312
 4593SOL    HW214679   3.624   6.009   2.248
 4594SOL     OW14680   2.497   1.269   2.497
 4594SOL    HW114681   2.549   1.211   2.560
 4594SOL    HW214682   2.560   1.326   2.445
 4595SOL     OW14683   4.381   2.275   5.669
 4595SOL    HW114684   4.376   2.349   5.736
 4595SOL    HW214685   4.427   2.308   5.587
 4596SOL     OW14686   5.970   6.995   1.541
 4596SOL    HW114687   5.983   0.067   1.567
 4596SOL    HW214688   5.980   6.986   1.442
 4597SOL     OW14689   6.502   4.571   6.937
 4597SOL    HW114690   6.437   4.542   6.867
 4597SOL    HW214691   6.552   4.651   6.905
 4598SOL     OW14692   3.154   4.908   6.947
 4598SOL    HW114693   3.060   4.902   6.914
 4598SOL    HW214694   3.215   4.923   6.869
 4599SOL     OW14695   1.349   4.656   0.654
 4599SOL    HW114696   1.325   4.745   0.614
 4599SOL    HW214697   1.319   4.654   0.750
 4600SOL     OW14698   3.154   5.355   1.314
 4600SOL    HW114699   3.121   5.384   1.224
 4600SOL    HW214700   3.209   5.272   1.304
 4601SOL     OW14701   1.954   6.039   5.155
 4601SOL    HW114702   1.915   6.128   5.131
 4601SOL    HW214703   1.890   5.990   5.215
 4602SOL     OW14704   1.674   0.855   1.166
 4602SOL    HW114705   1.760   0.811   1.191
 4602SOL    HW214706   1.598   0.803   1.202
 4603SOL     OW14707   3.321   0.036   2.049
 4603SOL    HW114708   3.236   7.018   2.015
 4603SOL    HW214709   3.394   0.022   1.982
 4604SOL     OW14710   3.170   6.881   2.371
 4604SOL    HW114711   3.174   6.782   2.358
 4604SOL    HW214712   3.109   6.921   2.303
 4605SOL     OW14713   5.065   0.323   5.246
 4605SOL    HW114714   5.138   0.272   5.200
 4605SOL    HW214715   5.046   0.407   5.195
 4606SOL     OW14716   6.967   6.394   5.368
 4606SOL    HW114717   6.914   6.310   5.353
 4606SOL    HW214718   6.928   6.444   5.445
 4607SOL     OW14719   2.766   2.216   1.183
 4607SOL    HW114720   2.728   2.124   1.193
 4607SOL    HW214721   2.844   2.227   1.244
 4608SOL     OW14722   1.585   3.658   5.695
 4608SOL    HW114723   1.641   3.739   5.676
 4608SOL    HW214724   1.636   3.576   5.671
 4609SOL     OW14725   4.453   6.697   6.142
 4609SOL    HW114726   4.379   6.763   6.155
 4609SOL    HW214727   4.504   6.685   6.227
 4610SOL     OW14728   0.473   3.274   6.529
 4610SOL    HW114729   0.483   3.242   6.435
 4610SOL    HW214730   0.449   3.196   6.588
 4611SOL     OW14731   1.194   3.806   0.342
 4611SOL    HW114732   1.266   3.839   0.282
 4611SOL    HW214733   1.123   3.876   0.350
 4612SOL     OW14734   2.066   0.184   6.189
 4612SOL    HW114735   2.048   0.189   6.287
 4612SOL    HW214736   2.164   0.177   6.174
 4613SOL     OW14737   3.054   5.520   1.848
 4613SOL    HW114738   3.057   5.604   1.902
 4613SOL    HW214739   2.988   5.530   1.773
 4614SOL     OW14740   1.939   5.613   0.358
 4614SOL    HW114741   1.923   5.527   0.407
 4614SOL    HW214742   1.934   5.598   0.260
 4615SOL     OW14743   6.994   2.525   0.449
 4615SOL    HW114744   0.001   2.545   0.356
 4615SOL    HW214745   0.048   2.498   0.505
 4616SOL     OW14746   5.589   0.875   6.878
 4616SOL    HW114747   5.599   0.919   6.967
 4616SOL    HW214748   5.601   0.943   6.805
 4617SOL     OW14749   0.081   2.816   1.893
 4617SOL    HW114750   0.046   2.901   1.934
 4617SOL    HW214751   0.154   2.780   1.950
 4618SOL     OW14752   0.899   1.828   5.968
 4618SOL    HW114753   0.827   1.841   6.035
 4618SOL    HW214754   0.882   1.887   5.889
 4619SOL     OW14755   3.251   0.838   3.739
 4619SOL    HW114756   3.340   0.793   3.740
 4619SOL    HW214757   3.179   0.769   3.730
 4620SOL     OW14758   2.578   3.922   6.419
 4620SOL    HW114759   2.534   3.991   6.362
 4620SOL    HW214760   2.562   3.831   6.380
 4621SOL     OW14761   0.337   5.773   5.988
 4621SOL    HW114762   0.433   5.771   6.015
 4621SOL    HW214763   0.301   5.865   6.002
 4622SOL     OW14764   2.390   3.424   1.120
 4622SOL    HW114765   2.368   3.514   1.083
 4622SOL    HW214766   2.330   3.404   1.198
 4623SOL     OW14767   5.851   4.499   1.786
 4623SOL    HW114768   5.782   4.535   1.848
 4623SOL    HW214769   5.844   4.545   1.697
 4624SOL     OW14770   4.737   0.055   5.375
 4624SOL    HW114771   4.699   7.011   5.437
 4624SOL    HW214772   4.781   0.010   5.298
 4625SOL     OW14773   0.659   3.008   6.793
 4625SOL    HW114774   0.727   2.993   6.864
 4625SOL    HW214775   0.612   3.095   6.809
 4626SOL     OW14776   5.998   5.173   1.880
 4626SOL    HW114777   6.062   5.143   1.808
 4626SOL    HW214778   5.909   5.192   1.838
 4627SOL     OW14779   2.196   0.772   6.534
 4627SOL    HW114780   2.174   0.696   6.473
 4627SOL    HW214781   2.149   0.854   6.504
 4628SOL     OW14782   0.184   4.175   1.967
 4628SOL    HW114783   0.145   4.116   1.895
 4628SOL    HW214784   0.135   4.262   1.968
 4629SOL     OW14785   3.084   4.845   5.459
 4629SOL    HW114786   3.015   4.790   5.505
 4629SOL    HW214787   3.170   4.839   5.509
 4630SOL     OW14788   1.835   0.032   2.853
 4630SOL    HW114789   1.896   0.084   2.793
 4630SOL    HW214790   1.826   0.079   2.941
 4631SOL     OW14791   2.388   0.118   2.425
 4631SOL    HW114792   2.364   0.184   2.496
 4631SOL    HW214793   2.476   0.076   2.447
 4632SOL     OW14794   4.955   4.919   3.996
 4632SOL    HW114795   5.018   4.856   3.951
 4632SOL    HW214796   4.882   4.944   3.934
 4633SOL     OW14797   6.235   2.098   5.399
 4633SOL    HW114798   6.170   2.073   5.327
 4633SOL    HW214799   6.196   2.079   5.489
 4634SOL     OW14800   2.944   4.563   0.773
 4634SOL    HW114801   2.859   4.510   0.772
 4634SOL    HW214802   2.962   4.595   0.866
 4635SOL     OW14803   5.648   4.078   1.437
 4635SOL    HW114804   5.585   4.011   1.477
 4635SOL    HW214805   5.609   4.112   1.351
 4636SOL     OW14806   2.011   5.576   0.717
 4636SOL    HW114807   1.966   5.498   0.760
 4636SOL    HW214808   2.079   5.614   0.780
 4637SOL     OW14809   1.390   1.083   5.463
 4637SOL    HW114810   1.360   0.992   5.492
 4637SOL    HW214811   1.358   1.151   5.528
 4638SOL     OW14812   5.151   3.596   5.832
 4638SOL    HW114813   5.071   3.563   5.782
 4638SOL    HW214814   5.153   3.696   5.829
 4639SOL     OW14815   6.792   3.693   5.434
 4639SOL    HW114816   6.828   3.784   5.454
 4639SOL    HW214817   6.799   3.675   5.336
 4640SOL     OW14818   5.758   4.170   2.520
 4640SOL    HW114819   5.717   4.102   2.459
 4640SOL    HW214820   5.776   4.254   2.469
 4641SOL     OW14821   2.252   4.496   5.654
 4641SOL    HW114822   2.250   4.403   5.619
 4641SOL    HW214823   2.340   4.538   5.634
 4642SOL     OW14824   5.851   6.135   4.490
 4642SOL    HW114825   5.806   6.113   4.403
 4642SOL    HW214826   5.936   6.083   4.497
 4643SOL     OW14827   3.905   2.737   1.320
 4643SOL    HW114828   3.864   2.647   1.311
 4643SOL    HW214829   3.838   2.801   1.358
 4644SOL     OW14830   2.095   5.081   4.950
 4644SOL    HW114831   2.071   4.985   4.963
 4644SOL    HW214832   2.191   5.088   4.922
 4645SOL     OW14833   1.737   5.935   4.762
 4645SOL    HW114834   1.732   5.838   4.786
 4645SOL    HW214835   1.717   5.990   4.843
 4646SOL     OW14836   3.685   0.384   1.672
 4646SOL    HW114837   3.625   0.325   1.618
 4646SOL    HW214838   3.657   0.479   1.659
 4647SOL     OW14839   6.472   0.038   5.003
 4647SOL    HW114840   6.483   7.024   4.911
 4647SOL    HW214841   6.545   0.004   5.062
 4648SOL     OW14842   2.109   5.451   2.543
 4648SOL    HW114843   2.179   5.517   2.568
 4648SOL    HW214844   2.021   5.481   2.579
 4649SOL     OW14845   5.235   0.131   5.736
 4649SOL    HW114846   5.154   0.072   5.736
 4649SOL    HW214847   5.222   0.204   5.669
 4650SOL     OW14848   6.778   4.828   2.052
 4650SOL    HW114849   6.698   4.888   2.047
 4650SOL    HW214850   6.832   4.838   1.968
 4651SOL     OW14851   0.252   2.083   1.177
 4651SOL    HW114852   0.285   1.989   1.190
 4651SOL    HW214853   0.199   2.111   1.256
 4652SOL     OW14854   0.230   6.032   6.011
 4652SOL    HW114855   0.171   6.110   6.030
 4652SOL    HW214856   0.326   6.062   6.012
 4653SOL     OW14857   0.348   5.751   6.738
 4653SOL    HW114858   0.378   5.674   6.794
 4653SOL    HW214859   0.268   5.793   6.779
 4654SOL     OW14860   0.980   1.346   6.616
 4654SOL    HW114861   0.993   1.376   6.711
 4654SOL    HW214862   0.974   1.247   6.612
 4655SOL     OW14863   0.255   5.006   3.445
 4655SOL    HW114864   0.267   4.921   3.495
 4655SOL    HW214865   0.210   5.073   3.503
 4656SOL     OW14866   1.819   6.681   3.108
 4656SOL    HW114867   1.739   6.713   3.057
 4656SOL    HW214868   1.788   6.632   3.190
 4657SOL     OW14869   5.974   0.124   6.998
 4657SOL    HW114870   6.039   0.100   0.045
 4657SOL    HW214871   5.990   0.218   6.968
 4658SOL     OW14872   5.427   0.785   3.333
 4658SOL    HW114873   5.492   0.818   3.402
 4658SOL    HW214874   5.392   0.695   3.361
 4659SOL     OW14875   2.035   2.463   4.625
 4659SOL    HW114876   2.085   2.461   4.712
 4659SOL    HW214877   2.064   2.385   4.569
 4660SOL     OW14878   6.901   0.645   5.764
 4660SOL    HW114879   6.999   0.624   5.758
 4660SOL    HW214880   6.855   0.608   5.683
 4661SOL     OW14881   4.088   3.698   3.383
 4661SOL    HW114882   4.012   3.633   3.377
 4661SOL    HW214883   4.065   3.780   3.331
 4662SOL     OW14884   4.931   0.568   4.840
 4662SOL    HW114885   4.875   0.595   4.919
 4662SOL    HW214886   5.020   0.536   4.872
 4663SOL     OW14887   0.262   1.850   2.690
 4663SOL    HW114888   0.335   1.786   2.713
 4663SOL    HW214889   0.287   1.942   2.721
 4664SOL     OW14890   3.227   2.507   0.181
 4664SOL    HW114891   3.160   2.505   0.255
 4664SOL    HW214892   3.180   2.527   0.095
 4665SOL     OW14893   5.588   0.608   0.229
 4665SOL    HW114894   5.685   0.606   0.205
 4665SOL    HW214895   5.535   0.563   0.157
 4666SOL     OW14896   1.794   1.285   0.609
 4666SOL    HW114897   1.794   1.210   0.542
 4666SOL    HW214898   1.762   1.250   0.697
 4667SOL     OW14899   0.543   5.539   5.607
 4667SOL    HW114900   0.571   5.609   5.541
 4667SOL    HW214901   0.484   5.580   5.676
 4668SOL     OW14902   5.908   1.605   4.361
 4668SOL    HW114903   6.001   1.601   4.325
 4668SOL    HW214904   5.844   1.624   4.286
 4669SOL     OW14905   2.593   0.269   0.674
 4669SOL    HW114906   2.673   0.223   0.636
 4669SOL    HW214907   2.582   0.243   0.770
 4670SOL     OW14908   2.080   1.324   4.541
 4670SOL    HW114909   2.152   1.389   4.566
 4670SOL    HW214910   2.117   1.232   4.544
 4671SOL     OW14911   5.889   3.511   1.224
 4671SOL    HW114912   5.914   3.475   1.314
 4671SOL    HW214913   5.837   3.595   1.235
 4672SOL     OW14914   2.448   3.686   5.768
 4672SOL    HW114915   2.349   3.689   5.780
 4672SOL    HW214916   2.477   3.591   5.754
 4673SOL     OW14917   3.649   0.526   2.744
 4673SOL    HW114918   3.722   0.553   2.806
 4673SOL    HW214919   3.661   0.571   2.655
 4674SOL     OW14920   4.401   6.391   6.244
 4674SOL    HW114921   4.358   6.440   6.168
 4674SOL    HW214922   4.469   6.450   6.287
 4675SOL     OW14923   1.401   4.106   6.314
 4675SOL    HW114924   1.404   4.025   6.254
 4675SOL    HW214925   1.306   4.136   6.325
 4676SOL     OW14926   0.948   5.052   4.095
 4676SOL    HW114927   0.891   5.132   4.073
 4676SOL    HW214928   1.016   5.077   4.163
 4677SOL     OW14929   1.385   3.503   0.289
 4677SOL    HW114930   1.371   3.589   0.241
 4677SOL    HW214931   1.472   3.462   0.260
 4678SOL     OW14932   2.453   4.735   2.287
 4678SOL    HW114933   2.551   4.732   2.306
 4678SOL    HW214934   2.436   4.709   2.192
 4679SOL     OW14935   4.731   0.016   1.314
 4679SOL    HW114936   4.739   0.073   1.232
 4679SOL    HW214937   4.635   0.008   1.340
 4680SOL     OW14938   1.718   0.924   0.864
 4680SOL    HW114939   1.696   0.834   0.900
 4680SOL    HW214940   1.697   0.927   0.766
 4681SOL     OW14941   4.714   5.547   1.659
 4681SOL    HW114942   4.794   5.539   1.719
 4681SOL    HW214943   4.745   5.556   1.564
 4682SOL     OW14944   3.549   3.980   0.011
 4682SOL    HW114945   3.459   4.013   0.041
 4682SOL    HW214946   3.600   4.056   6.994
 4683SOL     OW14947   6.489   4.785   3.575
 4683SOL    HW114948   6.459   4.690   3.580
 4683SOL    HW214949   6.468   4.823   3.485
 4684SOL     OW14950   5.419   0.018   0.174
 4684SOL    HW114951   5.456   0.090   0.114
 4684SOL    HW214952   5.410   0.054   0.267
 4685SOL     OW14953   3.125   3.934   5.193
 4685SOL    HW114954   3.138   3.893   5.103
 4685SOL    HW214955   3.029   3.955   5.207
 4686SOL     OW14956   3.388   5.309   0.308
 4686SOL    HW114957   3.458   5.380   0.308
 4686SOL    HW214958   3.432   5.219   0.307
 4687SOL     OW14959   3.260   0.752   2.895
 4687SOL    HW114960   3.195   0.782   2.825
 4687SOL    HW214961   3.288   0.658   2.877
 4688SOL     OW14962   5.923   3.034   5.610
 4688SOL    HW114963   5.928   3.105   5.680
 4688SOL    HW214964   5.897   3.075   5.522
 4689SOL     OW14965   5.696   1.017   1.963
 4689SOL    HW114966   5.757   0.949   1.921
 4689SOL    HW214967   5.647   0.974   2.038
 4690SOL     OW14968   2.230   2.286   0.485
 4690SOL    HW114969   2.221   2.386   0.476
 4690SOL    HW214970   2.216   2.261   0.581
 4691SOL     OW14971   6.867   4.344   1.677
 4691SOL    HW114972   6.882   4.247   1.654
 4691SOL    HW214973   6.769   4.360   1.687
 4692SOL     OW14974   5.652   3.411   2.163
 4692SOL    HW114975   5.749   3.409   2.142
 4692SOL    HW214976   5.604   3.468   2.096
 4693SOL     OW14977   1.935   1.208   3.723
 4693SOL    HW114978   1.847   1.202   3.769
 4693SOL    HW214979   1.978   1.296   3.745
 4694SOL     OW14980   2.115   0.800   0.331
 4694SOL    HW114981   2.134   0.878   0.392
 4694SOL    HW214982   2.017   0.789   0.321
 4695SOL     OW14983   1.182   6.085   1.615
 4695SOL    HW114984   1.155   6.152   1.546
 4695SOL    HW214985   1.269   6.111   1.656
 4696SOL     OW14986   1.844   5.588   5.912
 4696SOL    HW114987   1.905   5.622   5.840
 4696SOL    HW214988   1.872   5.626   6.000
 4697SOL     OW14989   3.944   4.878   1.045
 4697SOL    HW114990   3.912   4.797   0.996
 4697SOL    HW214991   3.917   4.871   1.141
 4698SOL     OW14992   5.346   1.192   3.558
 4698SOL    HW114993   5.326   1.159   3.650
 4698SOL    HW214994   5.441   1.173   3.535
 4699SOL     OW14995   1.383   0.064   2.723
 4699SOL    HW114996   1.316   0.011   2.775
 4699SOL    HW214997   1.468   0.013   2.716
 4700SOL     OW14998   6.180   2.292   2.323
 4700SOL    HW114999   6.167   2.271   2.420
 4700SOL    HW215000   6.099   2.339   2.288
 4701SOL     OW15001   3.139   2.305   1.690
 4701SOL    HW115002   3.097   2.346   1.771
 4701SOL    HW215003   3.117   2.208   1.687
 4702SOL     OW15004   5.458   4.753   6.699
 4702SOL    HW115005   5.477   4.835   6.753
 4702SOL    HW215006   5.509   4.676   6.737
 4703SOL     OW15007   0.715   5.153   3.561
 4703SOL    HW115008   0.765   5.194   3.637
 4703SOL    HW215009   0.695   5.057   3.581
 4704SOL     OW15010   1.183   4.986   5.071
 4704SOL    HW115011   1.164   4.891   5.092
 4704SOL    HW215012   1.105   5.043   5.097
 4705SOL     OW15013   3.525   2.205   1.706
 4705SOL    HW115014   3.570   2.263   1.774
 4705SOL    HW215015   3.455   2.149   1.750
 4706SOL     OW15016   2.097   1.241   0.581
 4706SOL    HW115017   2.055   1.317   0.532
 4706SOL    HW215018   2.056   1.234   0.672
 4707SOL     OW15019   1.625   6.355   1.641
 4707SOL    HW115020   1.552   6.423   1.644
 4707SOL    HW215021   1.698   6.382   1.705
 4708SOL     OW15022   1.070   2.554   4.517
 4708SOL    HW115023   1.163   2.556   4.555
 4708SOL    HW215024   1.018   2.480   4.558
 4709SOL     OW15025   4.935   3.874   5.123
 4709SOL    HW115026   4.965   3.787   5.084
 4709SOL    HW215027   4.849   3.861   5.171
 4710SOL     OW15028   6.620   6.279   4.700
 4710SOL    HW115029   6.621   6.371   4.661
 4710SOL    HW215030   6.558   6.221   4.647
 4711SOL     OW15031   5.621   3.530   3.000
 4711SOL    HW115032   5.524   3.548   3.014
 4711SOL    HW215033   5.656   3.478   3.078
 4712SOL     OW15034   4.928   4.105   5.530
 4712SOL    HW115035   4.869   4.181   5.503
 4712SOL    HW215036   4.988   4.080   5.454
 4713SOL     OW15037   6.280   4.486   1.023
 4713SOL    HW115038   6.271   4.399   1.071
 4713SOL    HW215039   6.364   4.531   1.052
 4714SOL     OW15040   5.131   1.399   6.499
 4714SOL    HW115041   5.082   1.403   6.586
 4714SOL    HW215042   5.071   1.432   6.426
 4715SOL     OW15043   6.083   1.125   2.423
 4715SOL    HW115044   6.165   1.106   2.477
 4715SOL    HW215045   6.023   1.045   2.425
 4716SOL     OW15046   3.876   4.717   6.233
 4716SOL    HW115047   3.968   4.725   6.194
 4716SOL    HW215048   3.881   4.721   6.333
 4717SOL     OW15049   2.707   5.063   5.561
 4717SOL    HW115050   2.690   5.121   5.481
 4717SOL    HW215051   2.659   4.976   5.549
 4718SOL     OW15052   4.958   4.076   0.931
 4718SOL    HW115053   4.884   4.096   0.866
 4718SOL    HW215054   5.004   3.992   0.904
 4719SOL     OW15055   0.181   3.955   3.766
 4719SOL    HW115056   0.124   3.916   3.694
 4719SOL    HW215057   0.230   3.882   3.814
 4720SOL     OW15058   2.244   3.777   0.030
 4720SOL    HW115059   2.183   3.770   6.976
 4720SOL    HW215060   2.301   3.859   0.021
 4721SOL     OW15061   6.196   3.049   3.216
 4721SOL    HW115062   6.167   3.080   3.307
 4721SOL    HW215063   6.188   3.124   3.151
 4722SOL     OW15064   1.217   4.889   0.199
 4722SOL    HW115065   1.241   4.957   0.129
 4722SOL    HW215066   1.144   4.926   0.257
 4723SOL     OW15067   4.090   4.059   6.924
 4723SOL    HW115068   4.060   4.140   6.975
 4723SOL    HW215069   4.087   3.979   6.983
 4724SOL     OW15070   0.558   6.349   4.730
 4724SOL    HW115071   0.491   6.298   4.784
 4724SOL    HW215072   0.639   6.368   4.787
 4725SOL     OW15073   4.943   5.847   0.527
 4725SOL    HW115074   4.974   5.797   0.447
 4725SOL    HW215075   5.008   5.920   0.549
 4726SOL     OW15076   1.222   3.349   5.836
 4726SOL    HW115077   1.153   3.284   5.866
 4726SOL    HW215078   1.178   3.424   5.787
 4727SOL     OW15079   0.320   5.532   1.277
 4727SOL    HW115080   0.310   5.433   1.263
 4727SOL    HW215081   0.343   5.550   1.372
 4728SOL     OW15082   6.489   1.940   4.728
 4728SOL    HW115083   6.498   1.947   4.629
 4728SOL    HW215084   6.447   1.852   4.752
 4729SOL     OW15085   5.760   1.663   1.922
 4729SOL    HW115086   5.763   1.581   1.864
 4729SOL    HW215087   5.806   1.645   2.009
 4730SOL     OW15088   3.033   6.840   4.492
 4730SOL    HW115089   3.028   6.885   4.581
 4730SOL    HW215090   3.090   6.758   4.499
 4731SOL     OW15091   3.338   6.791   0.144
 4731SOL    HW115092   3.406   6.860   0.118
 4731SOL    HW215093   3.384   6.705   0.164
 4732SOL     OW15094   0.848   4.989   4.427
 4732SOL    HW115095   0.816   5.071   4.379
 4732SOL    HW215096   0.783   4.965   4.499
 4733SOL     OW15097   1.675   3.626   3.425
 4733SOL    HW115098   1.702   3.563   3.498
 4733SOL    HW215099   1.716   3.597   3.338
 4734SOL     OW15100   4.729   3.137   0.180
 4734SOL    HW115101   4.732   3.236   0.181
 4734SOL    HW215102   4.638   3.105   0.205
 4735SOL     OW15103   6.908   0.139   5.168
 4735SOL    HW115104   6.822   0.146   5.218
 4735SOL    HW215105   6.983   0.121   5.232
 4736SOL     OW15106   6.550   2.252   3.768
 4736SOL    HW115107   6.552   2.349   3.742
 4736SOL    HW215108   6.626   2.232   3.829
 4737SOL     OW15109   2.144   5.013   0.373
 4737SOL    HW115110   2.092   4.960   0.440
 4737SOL    HW215111   2.099   5.102   0.359
 4738SOL     OW15112   1.927   6.706   3.893
 4738SOL    HW115113   1.952   6.723   3.988
 4738SOL    HW215114   1.945   6.788   3.838
 4739SOL     OW15115   5.724   3.309   3.558
 4739SOL    HW115116   5.784   3.317   3.479
 4739SOL    HW215117   5.696   3.214   3.570
 4740SOL     OW15118   0.954   0.848   1.968
 4740SOL    HW115119   0.860   0.836   2.002
 4740SOL    HW215120   0.951   0.891   1.878
 4741SOL     OW15121   4.284   4.401   1.690
 4741SOL    HW115122   4.321   4.328   1.749
 4741SOL    HW215123   4.331   4.487   1.711
 4742SOL     OW15124   2.504   6.073   2.324
 4742SOL    HW115125   2.562   6.075   2.242
 4742SOL    HW215126   2.532   6.146   2.386
 4743SOL     OW15127   2.398   2.632   0.107
 4743SOL    HW115128   2.400   2.707   0.041
 4743SOL    HW215129   2.464   2.649   0.180
 4744SOL     OW15130   1.795   3.030   5.470
 4744SOL    HW115131   1.774   3.062   5.563
 4744SOL    HW215132   1.854   3.097   5.425
 4745SOL     OW15133   3.003   5.720   4.818
 4745SOL    HW115134   3.066   5.669   4.760
 4745SOL    HW215135   2.913   5.722   4.775
 4746SOL     OW15136   6.180   0.680   0.299
 4746SOL    HW115137   6.192   0.582   0.281
 4746SOL    HW215138   6.209   0.732   0.219
 4747SOL     OW15139   5.997   2.626   1.711
 4747SOL    HW115140   5.947   2.568   1.647
 4747SOL    HW215141   5.979   2.722   1.691
 4748SOL     OW15142   1.497   0.652   1.271
 4748SOL    HW115143   1.403   0.666   1.302
 4748SOL    HW215144   1.499   0.583   1.199
 4749SOL     OW15145   1.652   0.004   6.649
 4749SOL    HW115146   1.634   0.026   6.745
 4749SOL    HW215147   1.714   6.949   6.645
 4750SOL     OW15148   0.116   1.126   4.518
 4750SOL    HW115149   0.212   1.104   4.536
 4750SOL    HW215150   0.075   1.165   4.600
 4751SOL     OW15151   1.072   3.863   6.493
 4751SOL    HW115152   0.979   3.834   6.470
 4751SOL    HW215153   1.072   3.960   6.515
 4752SOL     OW15154   2.841   5.927   1.665
 4752SOL    HW115155   2.832   6.005   1.727
 4752SOL    HW215156   2.930   5.883   1.679
 4753SOL     OW15157   6.942   6.892   5.003
 4753SOL    HW115158   6.895   6.967   4.956
 4753SOL    HW215159   0.015   6.915   5.013
 4754SOL     OW15160   0.653   6.948   5.583
 4754SOL    HW115161   0.673   0.021   5.573
 4754SOL    HW215162   0.628   6.929   5.678
 4755SOL     OW15163   2.394   1.982   0.297
 4755SOL    HW115164   2.312   1.926   0.301
 4755SOL    HW215165   2.382   2.054   0.229
 4756SOL     OW15166   5.442   2.735   1.233
 4756SOL    HW115167   5.452   2.780   1.322
 4756SOL    HW215168   5.503   2.778   1.167
 4757SOL     OW15169   2.024   1.934   0.992
 4757SOL    HW115170   1.965   1.915   1.071
 4757SOL    HW215171   2.096   1.865   0.986
 4758SOL     OW15172   5.122   4.736   5.372
 4758SOL    HW115173   5.210   4.783   5.371
 4758SOL    HW215174   5.131   4.648   5.419
 4759SOL     OW15175   5.828   5.165   5.480
 4759SOL    HW115176   5.735   5.128   5.472
 4759SOL    HW215177   5.871   5.166   5.391
 4760SOL     OW15178   1.316   2.011   0.824
 4760SOL    HW115179   1.263   2.092   0.848
 4760SOL    HW215180   1.370   2.029   0.742
 4761SOL     OW15181   0.891   6.053   5.861
 4761SOL    HW115182   0.985   6.074   5.888
 4761SOL    HW215183   0.891   6.013   5.769
 4762SOL     OW15184   3.087   6.208   2.447
 4762SOL    HW115185   3.179   6.172   2.467
 4762SOL    HW215186   3.050   6.252   2.529
 4763SOL     OW15187   5.672   5.458   4.476
 4763SOL    HW115188   5.658   5.555   4.492
 4763SOL    HW215189   5.729   5.445   4.395
 4764SOL     OW15190   3.792   3.454   4.353
 4764SOL    HW115191   3.839   3.537   4.321
 4764SOL    HW215192   3.751   3.407   4.275
 4765SOL     OW15193   6.114   5.240   5.003
 4765SOL    HW115194   6.180   5.242   5.078
 4765SOL    HW215195   6.077   5.332   4.988
 4766SOL     OW15196   2.950   0.675   2.946
 4766SOL    HW115197   3.043   0.703   2.968
 4766SOL    HW215198   2.931   0.586   2.987
 4767SOL     OW15199   4.271   5.552   6.422
 4767SOL    HW115200   4.212   5.551   6.342
 4767SOL    HW215201   4.298   5.646   6.443
 4768SOL     OW15202   0.151   0.734   5.132
 4768SOL    HW115203   0.116   0.654   5.181
 4768SOL    HW215204   0.225   0.775   5.184
 4769SOL     OW15205   3.372   6.994   1.411
 4769SOL    HW115206   3.434   6.952   1.345
 4769SOL    HW215207   3.340   6.925   1.476
 4770SOL     OW15208   2.607   0.048   3.473
 4770SOL    HW115209   2.680   0.114   3.454
 4770SOL    HW215210   2.534   0.059   3.405
 4771SOL     OW15211   4.163   4.132   5.703
 4771SOL    HW115212   4.073   4.176   5.710
 4771SOL    HW215213   4.157   4.055   5.640
 4772SOL     OW15214   2.382   2.435   1.396
 4772SOL    HW115215   2.459   2.454   1.335
 4772SOL    HW215216   2.341   2.522   1.426
 4773SOL     OW15217   6.671   6.136   4.017
 4773SOL    HW115218   6.587   6.179   4.047
 4773SOL    HW215219   6.747   6.201   4.025
 4774SOL     OW15220   0.722   4.221   1.202
 4774SOL    HW115221   0.820   4.240   1.203
 4774SOL    HW215222   0.678   4.269   1.279
 4775SOL     OW15223   3.343   1.123   1.546
 4775SOL    HW115224   3.332   1.121   1.645
 4775SOL    HW215225   3.430   1.080   1.522
 4776SOL     OW15226   3.435   5.764   1.769
 4776SOL    HW115227   3.411   5.692   1.835
 4776SOL    HW215228   3.484   5.723   1.692
 4777SOL     OW15229   3.000   4.345   1.180
 4777SOL    HW115230   2.967   4.436   1.203
 4777SOL    HW215231   2.974   4.323   1.086
 4778SOL     OW15232   5.018   3.894   2.088
 4778SOL    HW115233   4.981   3.984   2.113
 4778SOL    HW215234   5.020   3.885   1.988
 4779SOL     OW15235   5.139   0.337   2.738
 4779SOL    HW115236   5.221   0.391   2.756
 4779SOL    HW215237   5.122   0.275   2.815
 4780SOL     OW15238   1.677   6.561   6.191
 4780SOL    HW115239   1.586   6.561   6.149
 4780SOL    HW215240   1.746   6.552   6.119
 4781SOL     OW15241   2.060   5.697   2.317
 4781SOL    HW115242   2.091   5.677   2.410
 4781SOL    HW215243   2.033   5.793   2.311
 4782SOL     OW15244   5.738   6.209   6.429
 4782SOL    HW115245   5.679   6.223   6.350
 4782SOL    HW215246   5.800   6.132   6.412
 4783SOL     OW15247   6.202   4.636   1.446
 4783SOL    HW115248   6.103   4.624   1.447
 4783SOL    HW215249   6.243   4.570   1.382
 4784SOL     OW15250   5.687   4.772   5.089
 4784SOL    HW115251   5.688   4.672   5.084
 4784SOL    HW215252   5.597   4.807   5.062
 4785SOL     OW15253   6.458   0.721   0.653
 4785SOL    HW115254   6.522   0.770   0.712
 4785SOL    HW215255   6.509   0.674   0.581
 4786SOL     OW15256   1.629   3.002   2.223
 4786SOL    HW115257   1.697   3.075   2.223
 4786SOL    HW215258   1.537   3.041   2.230
 4787SOL     OW15259   3.700   2.070   2.490
 4787SOL    HW115260   3.760   1.996   2.519
 4787SOL    HW215261   3.737   2.114   2.408
 4788SOL     OW15262   1.259   5.305   4.131
 4788SOL    HW115263   1.186   5.271   4.190
 4788SOL    HW215264   1.305   5.227   4.087
 4789SOL     OW15265   6.086   0.497   0.899
 4789SOL    HW115266   6.084   0.444   0.814
 4789SOL    HW215267   6.120   0.589   0.881
 4790SOL     OW15268   5.059   1.158   6.904
 4790SOL    HW115269   5.151   1.153   6.944
 4790SOL    HW215270   4.996   1.103   6.959
 4791SOL     OW15271   4.677   6.803   2.587
 4791SOL    HW115272   4.602   6.760   2.538
 4791SOL    HW215273   4.689   6.897   2.555
 4792SOL     OW15274   2.497   2.364   1.921
 4792SOL    HW115275   2.536   2.302   1.989
 4792SOL    HW215276   2.439   2.313   1.858
 4793SOL     OW15277   1.000   6.848   5.987
 4793SOL    HW115278   1.067   6.807   5.925
 4793SOL    HW215279   0.915   6.795   5.985
 4794SOL     OW15280   3.200   0.887   1.870
 4794SOL    HW115281   3.228   0.981   1.850
 4794SOL    HW215282   3.279   0.836   1.905
 4795SOL     OW15283   6.470   3.408   4.063
 4795SOL    HW115284   6.388   3.377   4.014
 4795SOL    HW215285   6.443   3.466   4.139
 4796SOL     OW15286   6.130   3.883   1.155
 4796SOL    HW115287   6.174   3.818   1.217
 4796SOL    HW215288   6.195   3.911   1.084
 4797SOL     OW15289   0.432   5.095   5.060
 4797SOL    HW115290   0.359   5.163   5.051
 4797SOL    HW215291   0.402   5.009   5.019
 4798SOL     OW15292   6.907   3.960   4.641
 4798SOL    HW115293   6.999   3.955   4.603
 4798SOL    HW215294   6.881   3.869   4.676
 4799SOL     OW15295   3.443   1.463   4.792
 4799SOL    HW115296   3.456   1.475   4.890
 4799SOL    HW215297   3.409   1.371   4.774
 4800SOL     OW15298   2.008   1.783   4.615
 4800SOL    HW115299   1.930   1.728   4.646
 4800SOL    HW215300   1.974   1.867   4.574
 4801SOL     OW15301   1.139   2.883   0.776
 4801SOL    HW115302   1.114   2.898   0.680
 4801SOL    HW215303   1.064   2.835   0.822
 4802SOL     OW15304   2.727   0.573   2.299
 4802SOL    HW115305   2.733   0.659   2.249
 4802SOL    HW215306   2.812   0.522   2.289
 4803SOL     OW15307   1.122   6.907   0.576
 4803SOL    HW115308   1.047   6.840   0.572
 4803SOL    HW215309   1.085   6.999   0.562
 4804SOL     OW15310   4.109   5.331   6.963
 4804SOL    HW115311   4.203   5.348   6.933
 4804SOL    HW215312   4.048   5.335   6.883
 4805SOL     OW15313   0.759   2.047   0.926
 4805SOL    HW115314   0.666   2.028   0.893
 4805SOL    HW215315   0.761   2.138   0.968
 4806SOL     OW15316   0.751   2.477   2.957
 4806SOL    HW115317   0.699   2.516   2.882
 4806SOL    HW215318   0.793   2.391   2.928
 4807SOL     OW15319   6.924   6.456   1.054
 4807SOL    HW115320   6.896   6.523   1.123
 4807SOL    HW215321   6.909   6.496   0.963
 4808SOL     OW15322   4.754   3.156   1.139
 4808SOL    HW115323   4.706   3.119   1.219
 4808SOL    HW215324   4.847   3.120   1.137
 4809SOL     OW15325   3.976   5.950   6.874
 4809SOL    HW115326   4.041   6.021   6.900
 4809SOL    HW215327   3.917   5.984   6.801
 4810SOL     OW15328   0.607   0.474   1.359
 4810SOL    HW115329   0.586   0.444   1.266
 4810SOL    HW215330   0.604   0.573   1.364
 4811SOL     OW15331   4.498   6.278   2.638
 4811SOL    HW115332   4.480   6.376   2.634
 4811SOL    HW215333   4.552   6.251   2.558
 4812SOL     OW15334   6.574   5.616   4.469
 4812SOL    HW115335   6.506   5.551   4.435
 4812SOL    HW215336   6.647   5.566   4.516
 4813SOL     OW15337   6.087   2.829   3.109
 4813SOL    HW115338   6.006   2.837   3.050
 4813SOL    HW215339   6.114   2.920   3.140
 4814SOL     OW15340   7.002   3.044   2.004
 4814SOL    HW115341   0.046   3.098   1.955
 4814SOL    HW215342   6.963   3.098   2.078
 4815SOL     OW15343   4.076   6.318   1.888
 4815SOL    HW115344   4.038   6.258   1.958
 4815SOL    HW215345   4.173   6.297   1.875
 4816SOL     OW15346   5.555   5.300   3.220
 4816SOL    HW115347   5.575   5.296   3.122
 4816SOL    HW215348   5.521   5.391   3.244
 4817SOL     OW15349   6.868   1.327   6.525
 4817SOL    HW115350   6.880   1.233   6.492
 4817SOL    HW215351   6.902   1.334   6.618
 4818SOL     OW15352   1.098   0.103   4.444
 4818SOL    HW115353   1.062   0.156   4.367
 4818SOL    HW215354   1.046   0.018   4.453
 4819SOL     OW15355   1.786   3.095   0.597
 4819SOL    HW115356   1.815   3.002   0.572
 4819SOL    HW215357   1.798   3.108   0.695
 4820SOL     OW15358   0.315   3.131   2.437
 4820SOL    HW115359   0.348   3.213   2.483
 4820SOL    HW215360   0.216   3.132   2.433
 4821SOL     OW15361   0.118   5.723   2.940
 4821SOL    HW115362   0.120   5.685   2.847
 4821SOL    HW215363   0.171   5.808   2.942
 4822SOL     OW15364   1.945   4.019   4.485
 4822SOL    HW115365   2.039   3.985   4.494
 4822SOL    HW215366   1.909   3.993   4.396
 4823SOL     OW15367   1.834   3.168   1.166
 4823SOL    HW115368   1.775   3.187   1.244
 4823SOL    HW215369   1.834   3.069   1.147
 4824SOL     OW15370   6.120   1.197   6.125
 4824SOL    HW115371   6.174   1.278   6.149
 4824SOL    HW215372   6.079   1.209   6.035
 4825SOL     OW15373   1.836   6.929   4.222
 4825SOL    HW115374   1.864   6.833   4.222
 4825SOL    HW215375   1.837   6.964   4.315
 4826SOL     OW15376   3.913   0.504   1.637
 4826SOL    HW115377   3.962   0.547   1.713
 4826SOL    HW215378   3.839   0.447   1.673
 4827SOL     OW15379   6.888   2.380   0.765
 4827SOL    HW115380   6.797   2.419   0.785
 4827SOL    HW215381   6.911   2.313   0.835
 4828SOL     OW15382   4.749   0.926   4.269
 4828SOL    HW115383   4.750   0.839   4.317
 4828SOL    HW215384   4.726   1.000   4.333
 4829SOL     OW15385   4.398   6.774   4.791
 4829SOL    HW115386   4.489   6.811   4.775
 4829SOL    HW215387   4.364   6.731   4.707
 4830SOL     OW15388   2.974   6.172   2.902
 4830SOL    HW115389   2.970   6.177   3.002
 4830SOL    HW215390   2.890   6.209   2.863
 4831SOL     OW15391   2.994   4.515   5.466
 4831SOL    HW115392   3.000   4.520   5.367
 4831SOL    HW215393   2.898   4.522   5.495
 4832SOL     OW15394   3.389   3.698   4.539
 4832SOL    HW115395   3.424   3.763   4.471
 4832SOL    HW215396   3.417   3.729   4.630
 4833SOL     OW15397   6.432   3.601   4.251
 4833SOL    HW115398   6.394   3.693   4.247
 4833SOL    HW215399   6.458   3.579   4.344
 4834SOL     OW15400   0.935   5.225   1.493
 4834SOL    HW115401   0.923   5.323   1.479
 4834SOL    HW215402   0.945   5.207   1.591
 4835SOL     OW15403   6.940   2.388   5.479
 4835SOL    HW115404   6.886   2.450   5.536
 4835SOL    HW215405   6.898   2.380   5.388
 4836SOL     OW15406   4.957   1.181   5.802
 4836SOL    HW115407   4.934   1.171   5.899
 4836SOL    HW215408   5.054   1.158   5.789
 4837SOL     OW15409   0.314   4.085   4.020
 4837SOL    HW115410   0.260   4.010   3.983
 4837SOL    HW215411   0.254   4.158   4.052
 4838SOL     OW15412   2.839   3.802   6.204
 4838SOL    HW115413   2.892   3.822   6.122
 4838SOL    HW215414   2.839   3.882   6.264
 4839SOL     OW15415   2.564   1.627   0.822
 4839SOL    HW115416   2.513   1.597   0.904
 4839SOL    HW215417   2.596   1.547   0.772
 4840SOL     OW15418   5.945   4.136   4.074
 4840SOL    HW115419   6.029   4.179   4.040
 4840SOL    HW215420   5.965   4.041   4.100
 4841SOL     OW15421   3.357   6.440   3.114
 4841SOL    HW115422   3.403   6.353   3.095
 4841SOL    HW215423   3.307   6.433   3.200
 4842SOL     OW15424   3.583   5.540   3.116
 4842SOL    HW115425   3.510   5.548   3.184
 4842SOL    HW215426   3.656   5.481   3.151
 4843SOL     OW15427   0.433   2.204   0.722
 4843SOL    HW115428   0.342   2.183   0.758
 4843SOL    HW215429   0.429   2.289   0.669
 4844SOL     OW15430   2.018   5.428   5.491
 4844SOL    HW115431   2.049   5.489   5.564
 4844SOL    HW215432   1.992   5.482   5.411
 4845SOL     OW15433   4.931   3.772   4.815
 4845SOL    HW115434   4.927   3.737   4.722
 4845SOL    HW215435   4.864   3.725   4.872
 4846SOL     OW15436   6.505   3.759   4.567
 4846SOL    HW115437   6.457   3.797   4.488
 4846SOL    HW215438   6.505   3.659   4.562
 4847SOL     OW15439   2.792   6.213   6.078
 4847SOL    HW115440   2.877   6.261   6.101
 4847SOL    HW215441   2.716   6.256   6.126
 4848SOL     OW15442   3.746   0.857   4.345
 4848SOL    HW115443   3.748   0.943   4.294
 4848SOL    HW215444   3.839   0.831   4.370
 4849SOL     OW15445   2.269   6.788   1.395
 4849SOL    HW115446   2.216   6.869   1.372
 4849SOL    HW215447   2.218   6.731   1.460
 4850SOL     OW15448   4.190   0.062   0.810
 4850SOL    HW115449   4.109   0.097   0.857
 4850SOL    HW215450   4.234   7.017   0.867
 4851SOL     OW15451   3.749   4.368   6.724
 4851SOL    HW115452   3.664   4.354   6.774
 4851SOL    HW215453   3.729   4.416   6.638
 4852SOL     OW15454   5.575   5.088   5.397
 4852SOL    HW115455   5.519   5.160   5.437
 4852SOL    HW215456   5.544   5.069   5.304
 4853SOL     OW15457   3.933   6.856   2.588
 4853SOL    HW115458   3.868   6.851   2.513
 4853SOL    HW215459   3.904   6.929   2.652
 4854SOL     OW15460   5.116   6.712   1.648
 4854SOL    HW115461   5.127   6.660   1.563
 4854SOL    HW215462   5.202   6.759   1.669
 4855SOL     OW15463   5.232   4.915   6.026
 4855SOL    HW115464   5.299   4.856   6.072
 4855SOL    HW215465   5.192   4.867   5.948
 4856SOL     OW15466   0.899   3.651   2.548
 4856SOL    HW115467   0.886   3.645   2.647
 4856SOL    HW215468   0.810   3.660   2.503
 4857SOL     OW15469   2.226   2.554   5.222
 4857SOL    HW115470   2.259   2.628   5.163
 4857SOL    HW215471   2.262   2.566   5.315
 4858SOL     OW15472   0.981   6.055   4.939
 4858SOL    HW115473   1.027   5.977   4.896
 4858SOL    HW215474   1.038   6.092   5.012
 4859SOL     OW15475   0.185   6.202   2.850
 4859SOL    HW115476   0.253   6.136   2.819
 4859SOL    HW215477   0.186   6.282   2.790
 4860SOL     OW15478   4.418   5.225   1.301
 4860SOL    HW115479   4.426   5.315   1.342
 4860SOL    HW215480   4.446   5.155   1.366
 4861SOL     OW15481   0.321   3.999   6.088
 4861SOL    HW115482   0.361   4.065   6.151
 4861SOL    HW215483   0.393   3.953   6.037
 4862SOL     OW15484   2.238   5.579   5.067
 4862SOL    HW115485   2.286   5.532   4.992
 4862SOL    HW215486   2.239   5.677   5.049
 4863SOL     OW15487   4.887   2.275   2.754
 4863SOL    HW115488   4.855   2.181   2.743
 4863SOL    HW215489   4.845   2.315   2.835
 4864SOL     OW15490   1.307   1.338   1.035
 4864SOL    HW115491   1.403   1.349   1.062
 4864SOL    HW215492   1.255   1.417   1.067
 4865SOL     OW15493   3.978   5.844   5.325
 4865SOL    HW115494   3.907   5.813   5.389
 4865SOL    HW215495   4.066   5.805   5.353
 4866SOL     OW15496   0.326   4.629   2.090
 4866SOL    HW115497   0.281   4.564   2.150
 4866SOL    HW215498   0.422   4.638   2.116
 4867SOL     OW15499   4.801   5.399   3.530
 4867SOL    HW115500   4.775   5.494   3.550
 4867SOL    HW215501   4.719   5.345   3.513
 4868SOL     OW15502   1.403   6.512   1.726
 4868SOL    HW115503   1.311   6.494   1.761
 4868SOL    HW215504   1.464   6.537   1.801
 4869SOL     OW15505   6.347   1.456   1.309
 4869SOL    HW115506   6.335   1.506   1.223
 4869SOL    HW215507   6.444   1.450   1.331
 4870SOL     OW15508   6.696   0.456   0.915
 4870SOL    HW115509   6.664   0.416   0.830
 4870SOL    HW215510   6.702   0.384   0.985
 4871SOL     OW15511   1.207   3.333   4.174
 4871SOL    HW115512   1.150   3.402   4.130
 4871SOL    HW215513   1.295   3.327   4.127
 4872SOL     OW15514   0.923   0.436   3.989
 4872SOL    HW115515   0.967   0.434   3.899
 4872SOL    HW215516   0.899   0.531   4.012
 4873SOL     OW15517   1.157   5.871   4.807
 4873SOL    HW115518   1.234   5.931   4.829
 4873SOL    HW215519   1.191   5.780   4.784
 4874SOL     OW15520   5.319   3.111   3.567
 4874SOL    HW115521   5.262   3.155   3.497
 4874SOL    HW215522   5.298   3.013   3.569
 4875SOL     OW15523   6.208   2.605   6.687
 4875SOL    HW115524   6.270   2.679   6.709
 4875SOL    HW215525   6.121   2.642   6.654
 4876SOL     OW15526   0.287   1.467   6.712
 4876SOL    HW115527   0.355   1.400   6.682
 4876SOL    HW215528   0.281   1.541   6.646
 4877SOL     OW15529   6.493   1.801   0.854
 4877SOL    HW115530   6.518   1.749   0.936
 4877SOL    HW215531   6.576   1.839   0.812
 4878SOL     OW15532   6.345   2.293   1.556
 4878SOL    HW115533   6.343   2.361   1.629
 4878SOL    HW215534   6.306   2.207   1.589
 4879SOL     OW15535   4.408   6.088   3.294
 4879SOL    HW115536   4.362   6.020   3.237
 4879SOL    HW215537   4.418   6.173   3.242
 4880SOL     OW15538   6.050   2.461   6.428
 4880SOL    HW115539   6.124   2.395   6.413
 4880SOL    HW215540   6.009   2.445   6.518
 4881SOL     OW15541   2.764   5.579   6.793
 4881SOL    HW115542   2.832   5.647   6.764
 4881SOL    HW215543   2.811   5.500   6.832
 4882SOL     OW15544   4.959   0.353   6.271
 4882SOL    HW115545   5.006   0.381   6.355
 4882SOL    HW215546   5.025   0.348   6.196
 4883SOL     OW15547   6.310   5.807   0.578
 4883SOL    HW115548   6.285   5.867   0.655
 4883SOL    HW215549   6.359   5.727   0.613
 4884SOL     OW15550   3.611   6.543   2.087
 4884SOL    HW115551   3.628   6.526   1.990
 4884SOL    HW215552   3.555   6.626   2.096
 4885SOL     OW15553   2.117   6.971   2.631
 4885SOL    HW115554   2.017   6.968   2.639
 4885SOL    HW215555   2.156   7.014   2.713
 4886SOL     OW15556   6.147   0.503   6.061
 4886SOL    HW115557   6.133   0.516   6.159
 4886SOL    HW215558   6.160   0.591   6.017
 4887SOL     OW15559   0.426   2.131   5.029
 4887SOL    HW115560   0.503   2.178   4.986
 4887SOL    HW215561   0.358   2.198   5.058
 4888SOL     OW15562   3.213   5.380   1.671
 4888SOL    HW115563   3.158   5.410   1.749
 4888SOL    HW215564   3.198   5.442   1.594
 4889SOL     OW15565   1.293   2.797   6.714
 4889SOL    HW115566   1.307   2.704   6.682
 4889SOL    HW215567   1.370   2.825   6.772
 4890SOL     OW15568   1.271   0.325   4.842
 4890SOL    HW115569   1.283   0.267   4.761
 4890SOL    HW215570   1.185   0.299   4.888
 4891SOL     OW15571   1.322   3.798   0.768
 4891SOL    HW115572   1.337   3.856   0.848
 4891SOL    HW215573   1.374   3.713   0.778
 4892SOL     OW15574   1.873   5.764   1.554
 4892SOL    HW115575   1.884   5.826   1.476
 4892SOL    HW215576   1.813   5.688   1.528
 4893SOL     OW15577   0.869   3.453   6.353
 4893SOL    HW115578   0.952   3.487   6.397
 4893SOL    HW215579   0.853   3.504   6.268
 4894SOL     OW15580   1.955   1.520   3.389
 4894SOL    HW115581   1.971   1.434   3.341
 4894SOL    HW215582   1.871   1.514   3.443
 4895SOL     OW15583   5.937   4.085   6.906
 4895SOL    HW115584   5.982   4.029   6.976
 4895SOL    HW215585   5.865   4.140   6.949
 4896SOL     OW15586   4.686   5.575   3.322
 4896SOL    HW115587   4.609   5.513   3.338
 4896SOL    HW215588   4.750   5.532   3.258
 4897SOL     OW15589   2.756   5.795   5.832
 4897SOL    HW115590   2.699   5.746   5.765
 4897SOL    HW215591   2.715   5.884   5.851
 4898SOL     OW15592   5.894   2.217   5.139
 4898SOL    HW115593   5.965   2.248   5.075
 4898SOL    HW215594   5.806   2.211   5.091
 4899SOL     OW15595   5.379   4.131   4.586
 4899SOL    HW115596   5.285   4.153   4.614
 4899SOL    HW215597   5.441   4.147   4.664
 4900SOL     OW15598   0.932   6.707   5.157
 4900SOL    HW115599   0.912   6.787   5.214
 4900SOL    HW215600   0.851   6.682   5.104
 4901SOL     OW15601   1.101   6.431   2.948
 4901SOL    HW115602   1.177   6.427   2.884
 4901SOL    HW215603   1.134   6.463   3.038
 4902SOL     OW15604   3.085   4.727   1.854
 4902SOL    HW115605   3.150   4.710   1.781
 4902SOL    HW215606   3.026   4.647   1.865
 4903SOL     OW15607   5.417   6.050   5.825
 4903SOL    HW115608   5.355   6.030   5.748
 4903SOL    HW215609   5.387   6.134   5.871
 4904SOL     OW15610   3.502   6.111   3.301
 4904SOL    HW115611   3.407   6.107   3.330
 4904SOL    HW215612   3.507   6.127   3.202
 4905SOL     OW15613   6.333   3.385   3.396
 4905SOL    HW115614   6.366   3.295   3.424
 4905SOL    HW215615   6.332   3.391   3.296
 4906SOL     OW15616   5.382   0.757   1.485
 4906SOL    HW115617   5.340   0.668   1.503
 4906SOL    HW215618   5.318   0.829   1.511
 4907SOL     OW15619   2.352   1.619   2.156
 4907SOL    HW115620   2.371   1.573   2.069
 4907SOL    HW215621   2.431   1.674   2.182
 4908SOL     OW15622   3.515   5.860   6.829
 4908SOL    HW115623   3.580   5.932   6.803
 4908SOL    HW215624   3.422   5.897   6.824
 4909SOL     OW15625   6.232   7.004   5.603
 4909SOL    HW115626   6.256   6.980   5.509
 4909SOL    HW215627   6.291   6.954   5.666
 4910SOL     OW15628   6.355   0.273   6.218
 4910SOL    HW115629   6.293   0.228   6.155
 4910SOL    HW215630   6.422   0.328   6.167
 4911SOL     OW15631   0.489   3.012   6.013
 4911SOL    HW115632   0.588   3.009   6.015
 4911SOL    HW215633   0.452   2.974   6.097
 4912SOL     OW15634   2.726   2.345   2.205
 4912SOL    HW115635   2.817   2.364   2.168
 4912SOL    HW215636   2.735   2.302   2.295
 4913SOL     OW15637   2.871   3.504   2.435
 4913SOL    HW115638   2.867   3.468   2.528
 4913SOL    HW215639   2.966   3.526   2.412
 4914SOL     OW15640   1.497   6.302   3.231
 4914SOL    HW115641   1.425   6.234   3.215
 4914SOL    HW215642   1.540   6.324   3.144
 4915SOL     OW15643   3.094   6.264   3.315
 4915SOL    HW115644   3.144   6.184   3.349
 4915SOL    HW215645   3.021   6.233   3.253
 4916SOL     OW15646   2.075   1.841   2.424
 4916SOL    HW115647   2.131   1.799   2.495
 4916SOL    HW215648   2.035   1.769   2.367
 4917SOL     OW15649   2.206   5.251   6.809
 4917SOL    HW115650   2.138   5.322   6.826
 4917SOL    HW215651   2.264   5.241   6.890
 4918SOL     OW15652   2.435   0.186   2.845
 4918SOL    HW115653   2.520   0.236   2.826
 4918SOL    HW215654   2.457   0.095   2.879
 4919SOL     OW15655   2.551   3.236   1.543
 4919SOL    HW115656   2.507   3.188   1.619
 4919SOL    HW215657   2.506   3.324   1.528
 4920SOL     OW15658   4.288   0.922   0.378
 4920SOL    HW115659   4.305   0.825   0.362
 4920SOL    HW215660   4.240   0.961   0.300
 4921SOL     OW15661   1.448   4.511   1.945
 4921SOL    HW115662   1.360   4.555   1.929
 4921SOL    HW215663   1.521   4.567   1.906
 4922SOL     OW15664   0.981   2.927   5.725
 4922SOL    HW115665   0.922   2.848   5.710
 4922SOL    HW215666   1.043   2.909   5.801
 4923SOL     OW15667   3.306   1.967   0.714
 4923SOL    HW115668   3.352   2.042   0.666
 4923SOL    HW215669   3.358   1.942   0.796
 4924SOL     OW15670   0.467   3.903   4.561
 4924SOL    HW115671   0.418   3.872   4.480
 4924SOL    HW215672   0.443   3.999   4.580
 4925SOL     OW15673   5.080   5.696   6.074
 4925SOL    HW115674   5.044   5.605   6.092
 4925SOL    HW215675   5.053   5.758   6.148
 4926SOL     OW15676   4.055   2.502   1.684
 4926SOL    HW115677   4.040   2.599   1.699
 4926SOL    HW215678   4.153   2.482   1.688
 4927SOL     OW15679   3.776   3.860   2.807
 4927SOL    HW115680   3.804   3.806   2.887
 4927SOL    HW215681   3.844   3.848   2.734
 4928SOL     OW15682   0.299   6.465   0.929
 4928SOL    HW115683   0.207   6.437   0.958
 4928SOL    HW215684   0.350   6.384   0.900
 4929SOL     OW15685   0.880   4.824   4.212
 4929SOL    HW115686   0.910   4.916   4.187
 4929SOL    HW215687   0.835   4.826   4.301
 4930SOL     OW15688   0.075   2.675   0.772
 4930SOL    HW115689   7.017   2.644   0.819
 4930SOL    HW215690   0.122   2.744   0.828
 4931SOL     OW15691   0.270   0.513   1.221
 4931SOL    HW115692   0.279   0.612   1.223
 4931SOL    HW215693   0.250   0.480   1.314
 4932SOL     OW15694   4.075   2.242   0.807
 4932SOL    HW115695   4.166   2.201   0.800
 4932SOL    HW215696   4.084   2.334   0.846
 4933SOL     OW15697   2.847   0.864   5.456
 4933SOL    HW115698   2.764   0.819   5.489
 4933SOL    HW215699   2.827   0.913   5.371
 4934SOL     OW15700   1.412   6.213   5.095
 4934SOL    HW115701   1.470   6.177   5.021
 4934SOL    HW215702   1.470   6.253   5.166
 4935SOL     OW15703   1.500   1.121   0.489
 4935SOL    HW115704   1.597   1.099   0.481
 4935SOL    HW215705   1.477   1.134   0.585
 4936SOL     OW15706   4.284   5.905   0.705
 4936SOL    HW115707   4.359   5.863   0.755
 4936SOL    HW215708   4.315   5.932   0.614
 4937SOL     OW15709   1.234   3.109   6.018
 4937SOL    HW115710   1.280   3.186   5.974
 4937SOL    HW215711   1.244   3.116   6.117
 4938SOL     OW15712   3.254   4.828   1.406
 4938SOL    HW115713   3.247   4.766   1.485
 4938SOL    HW215714   3.206   4.913   1.427
 4939SOL     OW15715   1.197   1.472   1.984
 4939SOL    HW115716   1.123   1.537   1.998
 4939SOL    HW215717   1.254   1.502   1.907
 4940SOL     OW15718   6.977   2.117   5.273
 4940SOL    HW115719   6.958   2.083   5.365
 4940SOL    HW215720   7.021   2.044   5.219
 4941SOL     OW15721   4.327   1.822   5.636
 4941SOL    HW115722   4.350   1.726   5.645
 4941SOL    HW215723   4.410   1.877   5.639
 4942SOL     OW15724   0.440   1.403   3.417
 4942SOL    HW115725   0.479   1.337   3.353
 4942SOL    HW215726   0.459   1.496   3.385
 4943SOL     OW15727   5.074   2.894   6.694
 4943SOL    HW115728   4.979   2.912   6.717
 4943SOL    HW215729   5.082   2.879   6.595
 4944SOL     OW15730   0.866   5.089   0.130
 4944SOL    HW115731   0.854   5.097   0.229
 4944SOL    HW215732   0.885   5.179   0.091
 4945SOL     OW15733   1.946   0.538   5.308
 4945SOL    HW115734   2.011   0.600   5.353
 4945SOL    HW215735   1.972   0.443   5.327
 4946SOL     OW15736   3.154   5.317   6.887
 4946SOL    HW115737   3.162   5.282   6.793
 4946SOL    HW215738   3.223   5.273   6.945
 4947SOL     OW15739   1.389   0.791   1.696
 4947SOL    HW115740   1.385   0.703   1.649
 4947SOL    HW215741   1.326   0.790   1.774
 4948SOL     OW15742   1.799   2.439   1.799
 4948SOL    HW115743   1.745   2.363   1.835
 4948SOL    HW215744   1.896   2.415   1.801
 4949SOL     OW15745   7.011   4.625   6.647
 4949SOL    HW115746   6.969   4.713   6.629
 4949SOL    HW215747   0.023   4.587   6.561
 4950SOL     OW15748   3.573   4.366   5.919
 4950SOL    HW115749   3.512   4.353   5.997
 4950SOL    HW215750   3.520   4.371   5.835
 4951SOL     OW15751   5.376   5.519   3.190
 4951SOL    HW115752   5.307   5.518   3.118
 4951SOL    HW215753   5.381   5.610   3.231
 4952SOL     OW15754   0.602   0.067   6.518
 4952SOL    HW115755   0.520   0.123   6.528
 4952SOL    HW215756   0.577   6.995   6.516
 4953SOL     OW15757   0.992   1.993   4.682
 4953SOL    HW115758   0.977   2.088   4.710
 4953SOL    HW215759   0.904   1.953   4.653
 4954SOL     OW15760   3.102   3.889   4.660
 4954SOL    HW115761   3.078   3.843   4.575
 4954SOL    HW215762   3.184   3.945   4.647
 4955SOL     OW15763   3.927   5.509   5.393
 4955SOL    HW115764   3.833   5.492   5.422
 4955SOL    HW215765   3.926   5.558   5.306
 4956SOL     OW15766   2.926   0.119   5.087
 4956SOL    HW115767   2.874   0.137   5.003
 4956SOL    HW215768   2.986   0.197   5.106
 4957SOL     OW15769   6.225   4.634   6.465
 4957SOL    HW115770   6.269   4.548   6.440
 4957SOL    HW215771   6.147   4.614   6.525
 4958SOL     OW15772   3.979   6.182   0.540
 4958SOL    HW115773   3.897   6.128   0.557
 4958SOL    HW215774   3.962   6.277   0.569
 4959SOL     OW15775   0.363   2.265   3.092
 4959SOL    HW115776   0.316   2.181   3.064
 4959SOL    HW215777   0.446   2.241   3.143
 4960SOL     OW15778   4.587   4.561   4.218
 4960SOL    HW115779   4.490   4.584   4.216
 4960SOL    HW215780   4.625   4.567   4.125
 4961SOL     OW15781   3.442   1.835   0.925
 4961SOL    HW115782   3.501   1.860   1.001
 4961SOL    HW215783   3.491   1.773   0.863
 4962SOL     OW15784   1.323   4.307   0.803
 4962SOL    HW115785   1.365   4.353   0.882
 4962SOL    HW215786   1.251   4.246   0.835
 4963SOL     OW15787   0.687   3.813   6.236
 4963SOL    HW115788   0.674   3.912   6.230
 4963SOL    HW215789   0.731   3.780   6.152
 4964SOL     OW15790   2.661   6.549   4.756
 4964SOL    HW115791   2.596   6.491   4.804
 4964SOL    HW215792   2.613   6.608   4.691
 4965SOL     OW15793   1.357   6.084   3.176
 4965SOL    HW115794   1.398   6.027   3.247
 4965SOL    HW215795   1.380   6.048   3.086
 4966SOL     OW15796   3.006   6.689   4.135
 4966SOL    HW115797   3.020   6.710   4.039
 4966SOL    HW215798   2.907   6.688   4.155
 4967SOL     OW15799   4.488   4.710   4.865
 4967SOL    HW115800   4.572   4.699   4.811
 4967SOL    HW215801   4.451   4.620   4.887
 4968SOL     OW15802   6.751   2.712   3.195
 4968SOL    HW115803   6.689   2.636   3.175
 4968SOL    HW215804   6.744   2.779   3.121
 4969SOL     OW15805   0.664   6.178   3.852
 4969SOL    HW115806   0.698   6.119   3.778
 4969SOL    HW215807   0.572   6.149   3.878
 4970SOL     OW15808   1.095   1.596   1.419
 4970SOL    HW115809   1.122   1.547   1.335
 4970SOL    HW215810   1.025   1.664   1.396
 4971SOL     OW15811   0.044   6.034   2.656
 4971SOL    HW115812   0.068   6.084   2.572
 4971SOL    HW215813   0.059   6.094   2.735
 4972SOL     OW15814   0.446   4.492   1.020
 4972SOL    HW115815   0.451   4.542   1.106
 4972SOL    HW215816   0.463   4.555   0.944
 4973SOL     OW15817   6.712   1.455   0.902
 4973SOL    HW115818   6.645   1.521   0.936
 4973SOL    HW215819   6.749   1.402   0.979
 4974SOL     OW15820   3.473   6.237   5.111
 4974SOL    HW115821   3.417   6.270   5.187
 4974SOL    HW215822   3.566   6.222   5.143
 4975SOL     OW15823   4.955   4.779   0.920
 4975SOL    HW115824   5.023   4.721   0.875
 4975SOL    HW215825   4.913   4.729   0.996
 4976SOL     OW15826   1.959   6.805   2.827
 4976SOL    HW115827   1.906   6.853   2.897
 4976SOL    HW215828   1.906   6.727   2.794
 4977SOL     OW15829   1.668   4.579   5.873
 4977SOL    HW115830   1.723   4.564   5.791
 4977SOL    HW215831   1.572   4.562   5.852
 4978SOL     OW15832   5.097   4.886   4.821
 4978SOL    HW115833   5.109   4.807   4.881
 4978SOL    HW215834   5.080   4.855   4.728
 4979SOL     OW15835   2.593   6.781   5.912
 4979SOL    HW115836   2.590   6.745   6.006
 4979SOL    HW215837   2.515   6.747   5.860
 4980SOL     OW15838   5.513   3.520   3.727
 4980SOL    HW115839   5.460   3.584   3.671
 4980SOL    HW215840   5.609   3.526   3.702
 4981SOL     OW15841   3.062   4.858   2.617
 4981SOL    HW115842   3.075   4.898   2.527
 4981SOL    HW215843   3.142   4.802   2.640
 4982SOL     OW15844   4.079   1.807   5.756
 4982SOL    HW115845   4.095   1.823   5.854
 4982SOL    HW215846   4.167   1.795   5.709
 4983SOL     OW15847   5.633   5.836   2.888
 4983SOL    HW115848   5.590   5.909   2.941
 4983SOL    HW215849   5.722   5.813   2.929
 4984SOL     OW15850   4.805   4.003   3.022
 4984SOL    HW115851   4.768   3.953   2.944
 4984SOL    HW215852   4.893   4.043   2.997
 4985SOL     OW15853   5.304   6.882   2.508
 4985SOL    HW115854   5.315   6.958   2.572
 4985SOL    HW215855   5.394   6.849   2.480
 4986SOL     OW15856   0.832   5.300   2.005
 4986SOL    HW115857   0.843   5.393   2.038
 4986SOL    HW215858   0.891   5.239   2.058
 4987SOL     OW15859   0.925   0.967   2.488
 4987SOL    HW115860   1.023   0.980   2.502
 4987SOL    HW215861   0.908   0.872   2.463
 4988SOL     OW15862   6.130   6.547   3.468
 4988SOL    HW115863   6.160   6.456   3.495
 4988SOL    HW215864   6.053   6.575   3.525
 4989SOL     OW15865   4.772   0.200   3.286
 4989SOL    HW115866   4.708   0.176   3.360
 4989SOL    HW215867   4.839   0.126   3.276
 4990SOL     OW15868   4.508   2.555   4.708
 4990SOL    HW115869   4.455   2.554   4.623
 4990SOL    HW215870   4.481   2.476   4.764
 4991SOL     OW15871   1.603   4.973   5.643
 4991SOL    HW115872   1.660   5.055   5.646
 4991SOL    HW215873   1.538   4.974   5.719
 4992SOL     OW15874   0.538   3.143   3.871
 4992SOL    HW115875   0.454   3.154   3.923
 4992SOL    HW215876   0.615   3.179   3.924
 4993SOL     OW15877   3.057   6.356   4.025
 4993SOL    HW115878   3.067   6.442   4.075
 4993SOL    HW215879   3.134   6.344   3.963
 4994SOL     OW15880   3.680   4.339   5.500
 4994SOL    HW115881   3.654   4.331   5.404
 4994SOL    HW215882   3.746   4.413   5.511
 4995SOL     OW15883   0.389   0.356   6.000
 4995SOL    HW115884   0.351   0.279   5.950
 4995SOL    HW215885   0.474   0.386   5.956
 4996SOL     OW15886   6.840   1.533   4.218
 4996SOL    HW115887   6.926   1.569   4.253
 4996SOL    HW215888   6.809   1.457   4.275
 4997SOL     OW15889   3.933   1.788   1.347
 4997SOL    HW115890   3.910   1.817   1.440
 4997SOL    HW215891   3.913   1.863   1.283
 4998SOL     OW15892   0.522   3.464   3.323
 4998SOL    HW115893   0.563   3.411   3.248
 4998SOL    HW215894   0.580   3.542   3.345
 4999SOL     OW15895   0.867   3.342   4.403
 4999SOL    HW115896   0.793   3.354   4.337
 4999SOL    HW215897   0.902   3.249   4.398
 5000SOL     OW15898   3.208   5.411   2.896
 5000SOL    HW115899   3.302   5.389   2.869
 5000SOL    HW215900   3.201   5.508   2.918
 5001SOL     OW15901   0.443   5.908   3.457
 5001SOL    HW115902   0.523   5.907   3.398
 5001SOL    HW215903   0.415   5.814   3.477
 5002SOL     OW15904   0.760   3.360   3.514
 5002SOL    HW115905   0.702   3.391   3.589
 5002SOL    HW215906   0.845   3.322   3.551
 5003SOL     OW15907   4.155   0.834   3.591
 5003SOL    HW115908   4.156   0.869   3.497
 5003SOL    HW215909   4.241   0.787   3.609
 5004SOL     OW15910   2.672   5.318   6.547
 5004SOL    HW115911   2.585   5.281   6.580
 5004SOL    HW215912   2.742   5.309   6.618
 5005SOL     OW15913   3.018   2.454   0.355
 5005SOL    HW115914   3.060   2.380   0.408
 5005SOL    HW215915   2.932   2.423   0.316
 5006SOL     OW15916   4.410   1.332   1.678
 5006SOL    HW115917   4.387   1.247   1.724
 5006SOL    HW215918   4.494   1.370   1.718
 5007SOL     OW15919   5.897   6.499   1.828
 5007SOL    HW115920   5.833   6.422   1.839
 5007SOL    HW215921   5.870   6.572   1.890
 5008SOL     OW15922   5.492   6.423   2.220
 5008SOL    HW115923   5.482   6.376   2.307
 5008SOL    HW215924   5.410   6.476   2.201
 5009SOL     OW15925   6.575   2.376   1.138
 5009SOL    HW115926   6.491   2.431   1.140
 5009SOL    HW215927   6.567   2.301   1.203
 5010SOL     OW15928   3.487   3.778   1.238
 5010SOL    HW115929   3.487   3.692   1.188
 5010SOL    HW215930   3.398   3.791   1.282
 5011SOL     OW15931   2.337   3.452   6.680
 5011SOL    HW115932   2.328   3.422   6.775
 5011SOL    HW215933   2.353   3.551   6.679
 5012SOL     OW15934   6.412   1.840   5.634
 5012SOL    HW115935   6.313   1.833   5.617
 5012SOL    HW215936   6.436   1.934   5.656
 5013SOL     OW15937   5.497   6.882   5.780
 5013SOL    HW115938   5.502   6.956   5.848
 5013SOL    HW215939   5.437   6.909   5.705
 5014SOL     OW15940   6.243   3.369   1.853
 5014SOL    HW115941   6.252   3.406   1.760
 5014SOL    HW215942   6.290   3.282   1.860
 5015SOL     OW15943   5.595   6.665   3.822
 5015SOL    HW115944   5.532   6.737   3.794
 5015SOL    HW215945   5.620   6.609   3.743
 5016SOL     OW15946   2.159   3.711   5.754
 5016SOL    HW115947   2.121   3.729   5.663
 5016SOL    HW215948   2.137   3.617   5.781
 5017SOL     OW15949   0.170   3.191   1.880
 5017SOL    HW115950   0.214   3.243   1.953
 5017SOL    HW215951   0.238   3.163   1.812
 5018SOL     OW15952   0.748   0.286   1.111
 5018SOL    HW115953   0.759   0.324   1.203
 5018SOL    HW215954   0.654   0.302   1.079
 5019SOL     OW15955   1.380   4.996   5.327
 5019SOL    HW115956   1.319   4.951   5.260
 5019SOL    HW215957   1.422   4.926   5.385
 5020SOL     OW15958   2.290   6.653   4.366
 5020SOL    HW115959   2.229   6.574   4.355
 5020SOL    HW215960   2.275   6.693   4.457
 5021SOL     OW15961   1.386   1.435   0.719
 5021SOL    HW115962   1.442   1.353   0.732
 5021SOL    HW215963   1.290   1.410   0.721
 5022SOL     OW15964   6.646   3.163   1.595
 5022SOL    HW115965   6.607   3.187   1.684
 5022SOL    HW215966   6.731   3.213   1.581
 5023SOL     OW15967   6.867   4.370   2.586
 5023SOL    HW115968   6.850   4.443   2.652
 5023SOL    HW215969   6.965   4.349   2.583
 5024SOL     OW15970   4.559   3.515   1.390
 5024SOL    HW115971   4.582   3.510   1.488
 5024SOL    HW215972   4.463   3.494   1.377
 5025SOL     OW15973   4.007   1.224   4.069
 5025SOL    HW115974   4.093   1.275   4.069
 5025SOL    HW215975   3.976   1.211   3.975
 5026SOL     OW15976   3.973   7.019   4.850
 5026SOL    HW115977   3.918   0.075   4.826
 5026SOL    HW215978   3.947   6.942   4.793
 5027SOL     OW15979   5.155   6.957   0.197
 5027SOL    HW115980   5.246   6.986   0.167
 5027SOL    HW215981   5.094   0.011   0.198
 5028SOL     OW15982   6.784   1.641   2.786
 5028SOL    HW115983   6.784   1.724   2.729
 5028SOL    HW215984   6.877   1.606   2.795
 5029SOL     OW15985   6.055   1.600   2.893
 5029SOL    HW115986   6.044   1.507   2.856
 5029SOL    HW215987   6.093   1.594   2.986
 5030SOL     OW15988   0.306   4.770   6.389
 5030SOL    HW115989   0.325   4.867   6.374
 5030SOL    HW215990   0.362   4.737   6.465
 5031SOL     OW15991   6.984   6.656   6.462
 5031SOL    HW115992   6.924   6.605   6.400
 5031SOL    HW215993   6.944   6.746   6.480
 5032SOL     OW15994   2.522   3.319   5.509
 5032SOL    HW115995   2.490   3.407   5.473
 5032SOL    HW215996   2.536   3.255   5.433
 5033SOL     OW15997   2.159   0.839   0.073
 5033SOL    HW115998   2.173   0.835   0.172
 5033SOL    HW215999   2.233   0.789   0.027
 5034SOL     OW16000   4.288   6.549   4.197
 5034SOL    HW116001   4.279   6.530   4.099
 5034SOL    HW216002   4.209   6.602   4.227
 5035SOL     OW16003   1.850   3.796   3.769
 5035SOL    HW116004   1.772   3.854   3.790
 5035SOL    HW216005   1.935   3.848   3.778
 5036SOL     OW16006   6.534   2.483   5.421
 5036SOL    HW116007   6.528   2.579   5.447
 5036SOL    HW216008   6.567   2.476   5.327
 5037SOL     OW16009   4.367   4.266   1.096
 5037SOL    HW116010   4.436   4.338   1.088
 5037SOL    HW216011   4.405   4.189   1.147
 5038SOL     OW16012   3.676   3.713   3.920
 5038SOL    HW116013   3.605   3.644   3.937
 5038SOL    HW216014   3.752   3.699   3.983
 5039SOL     OW16015   0.758   3.614   6.691
 5039SOL    HW116016   0.730   3.528   6.649
 5039SOL    HW216017   0.761   3.604   6.790
 5040SOL     OW16018   0.434   6.736   6.129
 5040SOL    HW116019   0.462   6.662   6.068
 5040SOL    HW216020   0.411   6.817   6.075
 5041SOL     OW16021   6.849   3.585   2.244
 5041SOL    HW116022   6.893   3.636   2.171
 5041SOL    HW216023   6.796   3.509   2.206
 5042SOL     OW16024   0.543   2.625   6.114
 5042SOL    HW116025   0.475   2.661   6.051
 5042SOL    HW216026   0.560   2.528   6.093
 5043SOL     OW16027   3.857   6.321   1.073
 5043SOL    HW116028   3.818   6.405   1.113
 5043SOL    HW216029   3.821   6.308   0.981
 5044SOL     OW16030   6.049   5.078   1.063
 5044SOL    HW116031   6.059   5.041   1.155
 5044SOL    HW216032   6.122   5.144   1.045
 5045SOL     OW16033   6.491   3.511   6.407
 5045SOL    HW116034   6.430   3.525   6.328
 5045SOL    HW216035   6.540   3.424   6.396
 5046SOL     OW16036   3.539   3.235   3.326
 5046SOL    HW116037   3.543   3.159   3.261
 5046SOL    HW216038   3.542   3.321   3.277
 5047SOL     OW16039   0.982   3.407   3.156
 5047SOL    HW116040   0.897   3.356   3.172
 5047SOL    HW216041   1.004   3.462   3.237
 5048SOL     OW16042   1.686   1.414   5.947
 5048SOL    HW116043   1.614   1.449   6.007
 5048SOL    HW216044   1.746   1.489   5.919
 5049SOL     OW16045   5.534   0.955   6.066
 5049SOL    HW116046   5.610   0.968   6.129
 5049SOL    HW216047   5.563   0.897   5.990
 5050SOL     OW16048   1.446   0.441   1.092
 5050SOL    HW116049   1.522   0.461   1.030
 5050SOL    HW216050   1.424   0.343   1.085
 5051SOL     OW16051   3.738   5.153   1.110
 5051SOL    HW116052   3.799   5.176   1.035
 5051SOL    HW216053   3.709   5.058   1.102
 5052SOL     OW16054   2.523   1.059   5.842
 5052SOL    HW116055   2.615   1.042   5.878
 5052SOL    HW216056   2.459   0.993   5.882
 5053SOL     OW16057   0.282   0.356   2.292
 5053SOL    HW116058   0.269   0.410   2.209
 5053SOL    HW216059   0.343   0.405   2.355
 5054SOL     OW16060   3.837   4.914   4.220
 5054SOL    HW116061   3.918   4.871   4.261
 5054SOL    HW216062   3.764   4.918   4.288
 5055SOL     OW16063   6.431   3.160   6.460
 5055SOL    HW116064   6.484   3.198   6.536
 5055SOL    HW216065   6.344   3.125   6.495
 5056SOL     OW16066   5.294   4.110   4.944
 5056SOL    HW116067   5.244   4.029   4.912
 5056SOL    HW216068   5.278   4.185   4.880
 5057SOL     OW16069   1.047   6.524   2.637
 5057SOL    HW116070   0.953   6.534   2.671
 5057SOL    HW216071   1.097   6.461   2.696
 5058SOL     OW16072   3.266   4.907   5.655
 5058SOL    HW116073   3.344   4.845   5.661
 5058SOL    HW216074   3.216   4.907   5.741
 5059SOL     OW16075   0.962   0.535   2.217
 5059SOL    HW116076   0.923   0.443   2.220
 5059SOL    HW216077   0.890   0.603   2.233
 5060SOL     OW16078   6.574   2.261   5.590
 5060SOL    HW116079   6.672   2.243   5.577
 5060SOL    HW216080   6.546   2.335   5.530
 5061SOL     OW16081   5.730   4.240   6.990
 5061SOL    HW116082   5.650   4.278   0.012
 5061SOL    HW216083   5.805   4.307   6.993
 5062SOL     OW16084   0.504   0.062   0.993
 5062SOL    HW116085   0.443   0.004   1.048
 5062SOL    HW216086   0.596   0.022   0.992
 5063SOL     OW16087   1.126   6.480   1.794
 5063SOL    HW116088   1.119   6.570   1.837
 5063SOL    HW216089   1.061   6.418   1.837
 5064SOL     OW16090   4.731   3.256   6.685
 5064SOL    HW116091   4.647   3.269   6.736
 5064SOL    HW216092   4.754   3.159   6.683
 5065SOL     OW16093   2.291   6.401   5.739
 5065SOL    HW116094   2.216   6.421   5.677
 5065SOL    HW216095   2.367   6.464   5.722
 5066SOL     OW16096   5.503   4.959   1.253
 5066SOL    HW116097   5.426   4.911   1.296
 5066SOL    HW216098   5.468   5.028   1.190
 5067SOL     OW16099   5.013   1.209   0.360
 5067SOL    HW116100   5.086   1.278   0.349
 5067SOL    HW216101   5.007   1.183   0.457
 5068SOL     OW16102   2.651   5.191   1.046
 5068SOL    HW116103   2.660   5.261   1.117
 5068SOL    HW216104   2.626   5.104   1.088
 5069SOL     OW16105   0.749   4.271   3.429
 5069SOL    HW116106   0.650   4.274   3.427
 5069SOL    HW216107   0.780   4.213   3.505
 5070SOL     OW16108   5.362   2.834   3.574
 5070SOL    HW116109   5.378   2.834   3.673
 5070SOL    HW216110   5.363   2.740   3.540
 5071SOL     OW16111   4.359   1.436   6.790
 5071SOL    HW116112   4.373   1.535   6.782
 5071SOL    HW216113   4.426   1.388   6.735
 5072SOL     OW16114   1.523   4.090   1.277
 5072SOL    HW116115   1.486   4.143   1.353
 5072SOL    HW216116   1.448   4.055   1.221
 5073SOL     OW16117   4.029   1.399   3.475
 5073SOL    HW116118   4.094   1.407   3.550
 5073SOL    HW216119   3.973   1.482   3.470
 5074SOL     OW16120   2.896   4.010   6.379
 5074SOL    HW116121   2.994   4.001   6.361
 5074SOL    HW216122   2.865   4.101   6.349
 5075SOL     OW16123   0.318   5.352   4.603
 5075SOL    HW116124   0.404   5.404   4.598
 5075SOL    HW216125   0.332   5.272   4.660
 5076SOL     OW16126   3.126   0.010   1.282
 5076SOL    HW116127   3.092   6.945   1.252
 5076SOL    HW216128   3.223   0.002   1.306
 5077SOL     OW16129   6.966   2.110   2.562
 5077SOL    HW116130   6.932   2.195   2.521
 5077SOL    HW216131   0.024   2.130   2.616
 5078SOL     OW16132   1.079   1.657   3.889
 5078SOL    HW116133   1.173   1.639   3.917
 5078SOL    HW216134   1.063   1.620   3.798
 5079SOL     OW16135   3.727   5.379   5.193
 5079SOL    HW116136   3.799   5.449   5.191
 5079SOL    HW216137   3.769   5.288   5.191
 5080SOL     OW16138   5.745   6.757   5.749
 5080SOL    HW116139   5.665   6.812   5.726
 5080SOL    HW216140   5.796   6.800   5.823
 5081SOL     OW16141   3.691   3.256   3.573
 5081SOL    HW116142   3.737   3.345   3.577
 5081SOL    HW216143   3.629   3.254   3.495
 5082SOL     OW16144   6.183   5.844   4.859
 5082SOL    HW116145   6.189   5.937   4.894
 5082SOL    HW216146   6.258   5.789   4.897
 5083SOL     OW16147   1.960   6.014   2.175
 5083SOL    HW116148   2.052   6.047   2.199
 5083SOL    HW216149   1.905   6.006   2.257
 5084SOL     OW16150   1.841   5.898   3.891
 5084SOL    HW116151   1.913   5.871   3.827
 5084SOL    HW216152   1.870   5.980   3.942
 5085SOL     OW16153   6.322   2.656   6.410
 5085SOL    HW116154   6.380   2.734   6.385
 5085SOL    HW216155   6.251   2.687   6.474
 5086SOL     OW16156   6.645   5.539   3.426
 5086SOL    HW116157   6.652   5.584   3.515
 5086SOL    HW216158   6.721   5.568   3.368
 5087SOL     OW16159   0.326   5.652   5.755
 5087SOL    HW116160   0.227   5.649   5.742
 5087SOL    HW216161   0.346   5.680   5.849
 5088SOL     OW16162   5.755   0.251   6.559
 5088SOL    HW116163   5.706   0.182   6.612
 5088SOL    HW216164   5.691   0.322   6.528
 5089SOL     OW16165   5.406   3.676   3.295
 5089SOL    HW116166   5.402   3.585   3.254
 5089SOL    HW216167   5.366   3.673   3.387
 5090SOL     OW16168   1.417   4.920   0.960
 5090SOL    HW116169   1.501   4.916   1.014
 5090SOL    HW216170   1.362   4.998   0.989
 5091SOL     OW16171   1.299   5.707   2.953
 5091SOL    HW116172   1.236   5.714   3.031
 5091SOL    HW216173   1.385   5.666   2.983
 5092SOL     OW16174   3.673   2.559   1.722
 5092SOL    HW116175   3.671   2.637   1.785
 5092SOL    HW216176   3.706   2.478   1.770
 5093SOL     OW16177   0.593   2.307   1.470
 5093SOL    HW116178   0.572   2.273   1.379
 5093SOL    HW216179   0.596   2.407   1.468
 5094SOL     OW16180   6.993   0.215   6.419
 5094SOL    HW116181   6.904   0.215   6.373
 5094SOL    HW216182   0.042   0.226   6.352
 5095SOL     OW16183   2.576   6.756   5.487
 5095SOL    HW116184   2.539   6.831   5.433
 5095SOL    HW216185   2.653   6.789   5.542
 5096SOL     OW16186   3.915   4.885   1.350
 5096SOL    HW116187   3.908   4.837   1.437
 5096SOL    HW216188   3.865   4.972   1.355
 5097SOL     OW16189   1.105   0.557   6.410
 5097SOL    HW116190   1.134   0.467   6.380
 5097SOL    HW216191   1.008   0.570   6.388
 5098SOL     OW16192   0.289   1.984   2.956
 5098SOL    HW116193   0.198   1.943   2.966
 5098SOL    HW216194   0.358   1.912   2.958
 5099SOL     OW16195   0.878   0.386   5.141
 5099SOL    HW116196   0.924   0.298   5.130
 5099SOL    HW216197   0.940   0.460   5.113
 5100SOL     OW16198   4.883   6.947   5.891
 5100SOL    HW116199   4.893   0.022   5.900
 5100SOL    HW216200   4.957   6.911   5.835
 5101SOL     OW16201   4.197   6.165   0.361
 5101SOL    HW116202   4.268   6.099   0.385
 5101SOL    HW216203   4.137   6.181   0.440
 5102SOL     OW16204   3.452   6.695   5.021
 5102SOL    HW116205   3.514   6.621   5.048
 5102SOL    HW216206   3.440   6.758   5.098
 5103SOL     OW16207   1.048   0.719   4.485
 5103SOL    HW116208   1.129   0.723   4.544
 5103SOL    HW216209   1.074   0.684   4.395
 5104SOL     OW16210   1.333   6.796   1.368
 5104SOL    HW116211   1.329   6.804   1.467
 5104SOL    HW216212   1.241   6.781   1.332
 5105SOL     OW16213   2.810   3.898   6.622
 5105SOL    HW116214   2.837   3.812   6.578
 5105SOL    HW216215   2.748   3.949   6.562
 5106SOL     OW16216   3.341   0.264   2.179
 5106SOL    HW116217   3.325   0.340   2.116
 5106SOL    HW216218   3.350   0.179   2.128
 5107SOL     OW16219   1.506   6.683   5.669
 5107SOL    HW116220   1.513   6.777   5.635
 5107SOL    HW216221   1.429   6.637   5.624
 5108SOL     OW16222   3.193   3.537   3.899
 5108SOL    HW116223   3.098   3.569   3.901
 5108SOL    HW216224   3.200   3.451   3.949
 5109SOL     OW16225   6.961   1.438   1.301
 5109SOL    HW116226   0.002   1.512   1.288
 5109SOL    HW216227   6.970   1.400   1.393
 5110SOL     OW16228   2.078   5.633   5.707
 5110SOL    HW116229   2.086   5.706   5.640
 5110SOL    HW216230   2.168   5.612   5.745
 5111SOL     OW16231   1.477   1.182   0.759
 5111SOL    HW116232   1.405   1.144   0.817
 5111SOL    HW216233   1.561   1.190   0.812
 5112SOL     OW16234   0.188   6.335   3.841
 5112SOL    HW116235   0.197   6.311   3.744
 5112SOL    HW216236   0.157   6.430   3.849
 5113SOL     OW16237   1.305   6.960   6.789
 5113SOL    HW116238   1.287   6.973   6.692
 5113SOL    HW216239   1.222   6.979   6.842
 5114SOL     OW16240   4.242   4.933   0.227
 5114SOL    HW116241   4.175   4.887   0.286
 5114SOL    HW216242   4.205   5.021   0.197
 5115SOL     OW16243   1.931   3.617   5.532
 5115SOL    HW116244   1.995   3.675   5.482
 5115SOL    HW216245   1.916   3.655   5.623
 5116SOL     OW16246   0.222   3.667   1.077
 5116SOL    HW116247   0.291   3.672   1.150
 5116SOL    HW216248   0.266   3.680   0.988
 5117SOL     OW16249   2.436   4.458   4.371
 5117SOL    HW116250   2.451   4.535   4.433
 5117SOL    HW216251   2.486   4.475   4.285
 5118SOL     OW16252   4.500   6.306   0.864
 5118SOL    HW116253   4.471   6.362   0.942
 5118SOL    HW216254   4.600   6.305   0.858
 5119SOL     OW16255   5.672   6.965   2.196
 5119SOL    HW116256   5.754   6.954   2.253
 5119SOL    HW216257   5.632   0.030   2.212
 5120SOL     OW16258   4.806   1.521   2.511
 5120SOL    HW116259   4.857   1.589   2.459
 5120SOL    HW216260   4.818   1.431   2.468
 5121SOL     OW16261   0.199   4.018   5.122
 5121SOL    HW116262   0.264   4.087   5.154
 5121SOL    HW216263   0.108   4.040   5.157
 5122SOL     OW16264   1.698   6.577   3.760
 5122SOL    HW116265   1.755   6.636   3.816
 5122SOL    HW216266   1.747   6.492   3.739
 5123SOL     OW16267   5.351   4.670   2.117
 5123SOL    HW116268   5.333   4.759   2.075
 5123SOL    HW216269   5.272   4.642   2.171
 5124SOL     OW16270   2.627   6.107   6.982
 5124SOL    HW116271   2.611   6.202   7.008
 5124SOL    HW216272   2.665   6.057   0.036
 5125SOL     OW16273   6.970   2.494   5.957
 5125SOL    HW116274   0.045   2.487   5.967
 5125SOL    HW216275   6.932   2.403   5.940
 5126SOL     OW16276   5.147   3.434   6.056
 5126SOL    HW116277   5.126   3.506   5.991
 5126SOL    HW216278   5.201   3.472   6.132
 5127SOL     OW16279   5.803   2.624   6.509
 5127SOL    HW116280   5.835   2.626   6.414
 5127SOL    HW216281   5.771   2.715   6.535
 5128SOL     OW16282   0.814   0.759   6.792
 5128SOL    HW116283   0.913   0.748   6.790
 5128SOL    HW216284   0.772   0.678   6.834
 5129SOL     OW16285   4.300   2.198   2.398
 5129SOL    HW116286   4.286   2.102   2.424
 5129SOL    HW216287   4.248   2.257   2.460
 5130SOL     OW16288   1.104   6.384   4.824
 5130SOL    HW116289   1.125   6.311   4.890
 5130SOL    HW216290   1.030   6.354   4.763
 5131SOL     OW16291   3.630   4.858   3.533
 5131SOL    HW116292   3.669   4.901   3.451
 5131SOL    HW216293   3.647   4.917   3.613
 5132SOL     OW16294   3.268   1.155   6.750
 5132SOL    HW116295   3.328   1.088   6.794
 5132SOL    HW216296   3.211   1.109   6.681
 5133SOL     OW16297   4.965   4.273   6.871
 5133SOL    HW116298   4.883   4.329   6.860
 5133SOL    HW216299   5.035   4.325   6.919
 5134SOL     OW16300   6.205   6.177   1.007
 5134SOL    HW116301   6.300   6.193   1.034
 5134SOL    HW216302   6.173   6.252   0.950
 5135SOL     OW16303   6.729   2.957   3.038
 5135SOL    HW116304   6.629   2.965   3.032
 5135SOL    HW216305   6.771   3.037   2.995
 5136SOL     OW16306   1.312   1.147   5.992
 5136SOL    HW116307   1.368   1.152   6.075
 5136SOL    HW216308   1.341   1.218   5.928
 5137SOL     OW16309   6.172   0.927   4.548
 5137SOL    HW116310   6.172   1.024   4.525
 5137SOL    HW216311   6.186   0.916   4.646
 5138SOL     OW16312   3.181   3.054   3.867
 5138SOL    HW116313   3.239   2.973   3.857
 5138SOL    HW216314   3.099   3.030   3.920
 5139SOL     OW16315   2.595   0.372   5.959
 5139SOL    HW116316   2.592   0.471   5.951
 5139SOL    HW216317   2.689   0.342   5.973
 5140SOL     OW16318   3.689   3.316   6.670
 5140SOL    HW116319   3.768   3.255   6.674
 5140SOL    HW216320   3.718   3.406   6.635
 5141SOL     OW16321   6.748   2.872   1.745
 5141SOL    HW116322   6.660   2.872   1.699
 5141SOL    HW216323   6.784   2.779   1.750
 5142SOL     OW16324   0.113   0.148   2.350
 5142SOL    HW116325   0.169   0.217   2.306
 5142SOL    HW216326   0.072   0.186   2.433
 5143SOL     OW16327   7.020   6.599   2.526
 5143SOL    HW116328   7.020   6.619   2.428
 5143SOL    HW216329   6.934   6.553   2.551
 5144SOL     OW16330   2.227   2.897   5.273
 5144SOL    HW116331   2.284   2.955   5.215
 5144SOL    HW216332   2.286   2.837   5.327
 5145SOL     OW16333   2.297   5.188   6.411
 5145SOL    HW116334   2.374   5.180   6.348
 5145SOL    HW216335   2.237   5.108   6.402
 5146SOL     OW16336   5.306   5.822   6.526
 5146SOL    HW116337   5.342   5.908   6.490
 5146SOL    HW216338   5.381   5.757   6.539
 5147SOL     OW16339   4.593   2.398   3.447
 5147SOL    HW116340   4.577   2.345   3.364
 5147SOL    HW216341   4.661   2.469   3.427
 5148SOL     OW16342   0.703   0.220   6.304
 5148SOL    HW116343   0.786   0.224   6.249
 5148SOL    HW216344   0.697   0.132   6.350
 5149SOL     OW16345   4.820   4.935   4.249
 5149SOL    HW116346   4.872   4.906   4.168
 5149SOL    HW216347   4.725   4.950   4.223
 5150SOL     OW16348   0.143   6.608   3.895
 5150SOL    HW116349   0.107   6.634   3.805
 5150SOL    HW216350   0.131   6.684   3.959
 5151SOL     OW16351   6.036   6.069   2.470
 5151SOL    HW116352   5.953   6.054   2.525
 5151SOL    HW216353   6.105   6.002   2.496
 5152SOL     OW16354   1.798   1.110   0.387
 5152SOL    HW116355   1.746   1.171   0.327
 5152SOL    HW216356   1.882   1.081   0.341
 5153SOL     OW16357   0.907   1.839   0.589
 5153SOL    HW116358   0.912   1.938   0.579
 5153SOL    HW216359   0.886   1.816   0.684
 5154SOL     OW16360   6.574   2.878   0.780
 5154SOL    HW116361   6.659   2.870   0.727
 5154SOL    HW216362   6.509   2.933   0.728
 5155SOL     OW16363   1.837   1.405   0.089
 5155SOL    HW116364   1.894   1.337   0.042
 5155SOL    HW216365   1.828   1.485   0.030
 5156SOL     OW16366   5.520   5.974   5.149
 5156SOL    HW116367   5.568   5.886   5.157
 5156SOL    HW216368   5.486   6.002   5.239
 5157SOL     OW16369   3.523   0.089   1.813
 5157SOL    HW116370   3.502   7.017   1.801
 5157SOL    HW216371   3.438   0.141   1.821
 5158SOL     OW16372   1.533   2.130   1.363
 5158SOL    HW116373   1.461   2.186   1.405
 5158SOL    HW216374   1.599   2.103   1.434
 5159SOL     OW16375   6.505   2.959   5.776
 5159SOL    HW116376   6.490   2.996   5.868
 5159SOL    HW216377   6.417   2.952   5.728
 5160SOL     OW16378   6.160   6.906   3.723
 5160SOL    HW116379   6.195   6.883   3.632
 5160SOL    HW216380   6.193   6.997   3.749
 5161SOL     OW16381   1.874   3.215   0.359
 5161SOL    HW116382   1.856   3.173   0.448
 5161SOL    HW216383   1.901   3.310   0.372
 5162SOL     OW16384   6.515   0.288   3.841
 5162SOL    HW116385   6.492   0.234   3.921
 5162SOL    HW216386   6.614   0.284   3.826
 5163SOL     OW16387   2.918   0.557   1.986
 5163SOL    HW116388   2.926   0.564   1.886
 5163SOL    HW216389   2.978   0.625   2.029
 5164SOL     OW16390   2.995   3.571   6.694
 5164SOL    HW116391   2.900   3.561   6.665
 5164SOL    HW216392   3.051   3.500   6.651
 5165SOL     OW16393   1.840   4.245   6.456
 5165SOL    HW116394   1.741   4.257   6.464
 5165SOL    HW216395   1.876   4.207   6.541
 5166SOL     OW16396   1.128   5.168   0.817
 5166SOL    HW116397   1.050   5.146   0.759
 5166SOL    HW216398   1.140   5.096   0.885
 5167SOL     OW16399   5.383   3.332   5.323
 5167SOL    HW116400   5.402   3.246   5.277
 5167SOL    HW216401   5.317   3.385   5.270
 5168SOL     OW16402   4.507   2.072   2.888
 5168SOL    HW116403   4.522   2.058   2.790
 5168SOL    HW216404   4.530   1.988   2.937
 5169SOL     OW16405   4.181   5.814   4.386
 5169SOL    HW116406   4.137   5.825   4.297
 5169SOL    HW216407   4.182   5.902   4.433
 5170SOL     OW16408   1.860   3.025   6.675
 5170SOL    HW116409   1.960   3.033   6.664
 5170SOL    HW216410   1.836   3.035   6.771
 5171SOL     OW16411   2.142   5.880   6.058
 5171SOL    HW116412   2.232   5.876   6.013
 5171SOL    HW216413   2.113   5.787   6.080
 5172SOL     OW16414   5.944   5.719   5.080
 5172SOL    HW116415   5.853   5.715   5.119
 5172SOL    HW216416   5.950   5.794   5.014
 5173SOL     OW16417   4.237   4.711   5.798
 5173SOL    HW116418   4.307   4.776   5.767
 5173SOL    HW216419   4.182   4.682   5.720
 5174SOL     OW16420   2.104   6.243   3.953
 5174SOL    HW116421   2.101   6.225   3.855
 5174SOL    HW216422   2.063   6.166   4.003
 5175SOL     OW16423   3.162   3.171   6.984
 5175SOL    HW116424   3.136   3.257   0.005
 5175SOL    HW216425   3.162   3.097   0.027
 5176SOL     OW16426   5.994   6.380   6.673
 5176SOL    HW116427   6.086   6.385   6.632
 5176SOL    HW216428   5.927   6.412   6.606
 5177SOL     OW16429   6.319   0.111   0.398
 5177SOL    HW116430   6.396   0.062   0.438
 5177SOL    HW216431   6.234   0.083   0.444
 5178SOL     OW16432   1.055   4.159   1.505
 5178SOL    HW116433   1.119   4.126   1.574
 5178SOL    HW216434   0.968   4.184   1.549
 5179SOL     OW16435   5.028   5.920   2.821
 5179SOL    HW116436   4.972   5.849   2.864
 5179SOL    HW216437   5.110   5.936   2.876
 5180SOL     OW16438   2.053   6.076   2.944
 5180SOL    HW116439   2.025   6.038   3.033
 5180SOL    HW216440   2.085   6.001   2.885
 5181SOL     OW16441   6.958   0.060   6.163
 5181SOL    HW116442   6.941   0.016   6.075
 5181SOL    HW216443   6.888   0.130   6.178
 5182SOL     OW16444   2.908   6.591   3.375
 5182SOL    HW116445   2.829   6.535   3.400
 5182SOL    HW216446   2.915   6.596   3.275
 5183SOL     OW16447   4.325   1.843   3.666
 5183SOL    HW116448   4.325   1.884   3.574
 5183SOL    HW216449   4.250   1.880   3.719
 5184SOL     OW16450   2.773   1.268   3.643
 5184SOL    HW116451   2.690   1.213   3.648
 5184SOL    HW216452   2.807   1.269   3.548
 5185SOL     OW16453   6.451   0.249   1.675
 5185SOL    HW116454   6.534   0.212   1.632
 5185SOL    HW216455   6.431   0.339   1.636
 5186SOL     OW16456   6.715   3.743   6.867
 5186SOL    HW116457   6.786   3.676   6.848
 5186SOL    HW216458   6.638   3.728   6.804
 5187SOL     OW16459   1.308   4.518   4.960
 5187SOL    HW116460   1.268   4.489   4.873
 5187SOL    HW216461   1.371   4.594   4.945
 5188SOL     OW16462   5.903   7.014   2.819
 5188SOL    HW116463   5.913   6.962   2.903
 5188SOL    HW216464   5.862   6.956   2.748
 5189SOL     OW16465   5.259   0.069   6.252
 5189SOL    HW116466   5.179   0.019   6.219
 5189SOL    HW216467   5.339   0.010   6.250
 5190SOL     OW16468   1.909   4.419   0.300
 5190SOL    HW116469   1.998   4.453   0.268
 5190SOL    HW216470   1.916   4.394   0.396
 5191SOL     OW16471   2.722   4.918   1.562
 5191SOL    HW116472   2.746   4.988   1.495
 5191SOL    HW216473   2.704   4.961   1.650
 5192SOL     OW16474   1.794   5.177   2.512
 5192SOL    HW116475   1.829   5.255   2.460
 5192SOL    HW216476   1.778   5.205   2.607
 5193SOL     OW16477   5.498   0.725   5.357
 5193SOL    HW116478   5.570   0.714   5.425
 5193SOL    HW216479   5.418   0.670   5.385
 5194SOL     OW16480   5.125   1.218   6.045
 5194SOL    HW116481   5.189   1.287   6.010
 5194SOL    HW216482   5.176   1.149   6.096
 5195SOL     OW16483   0.354   0.817   4.972
 5195SOL    HW116484   0.423   0.744   4.977
 5195SOL    HW216485   0.268   0.785   5.011
 5196SOL     OW16486   6.238   6.706   3.264
 5196SOL    HW116487   6.205   6.657   3.345
 5196SOL    HW216488   6.201   6.662   3.182
 5197SOL     OW16489   0.771   3.195   4.757
 5197SOL    HW116490   0.709   3.202   4.835
 5197SOL    HW216491   0.780   3.284   4.713
 5198SOL     OW16492   5.706   5.411   3.498
 5198SOL    HW116493   5.748   5.323   3.476
 5198SOL    HW216494   5.735   5.479   3.431
 5199SOL     OW16495   0.605   4.670   1.830
 5199SOL    HW116496   0.530   4.736   1.833
 5199SOL    HW216497   0.629   4.650   1.735
 5200SOL     OW16498   0.141   3.754   4.595
 5200SOL    HW116499   0.170   3.805   4.676
 5200SOL    HW216500   0.216   3.752   4.528
 5201SOL     OW16501   0.784   5.228   4.325
 5201SOL    HW116502   0.862   5.260   4.378
 5201SOL    HW216503   0.794   5.258   4.230
 5202SOL     OW16504   1.055   4.968   1.844
 5202SOL    HW116505   0.956   4.966   1.830
 5202SOL    HW216506   1.095   4.882   1.812
 5203SOL     OW16507   0.601   3.091   0.173
 5203SOL    HW116508   0.699   3.076   0.190
 5203SOL    HW216509   0.550   3.009   0.201
 5204SOL     OW16510   4.822   4.079   0.020
 5204SOL    HW116511   4.891   4.144   7.012
 5204SOL    HW216512   4.735   4.099   7.001
 5205SOL     OW16513   1.630   6.991   1.097
 5205SOL    HW116514   1.578   6.906   1.094
 5205SOL    HW216515   1.661   7.015   1.005
 5206SOL     OW16516   0.321   4.308   4.902
 5206SOL    HW116517   0.406   4.254   4.906
 5206SOL    HW216518   0.300   4.328   4.806
 5207SOL     OW16519   1.665   4.683   4.032
 5207SOL    HW116520   1.720   4.601   4.047
 5207SOL    HW216521   1.617   4.708   4.116
 5208SOL     OW16522   4.392   1.315   7.019
 5208SOL    HW116523   4.321   1.349   0.055
 5208SOL    HW216524   4.384   1.359   6.929
 5209SOL     OW16525   5.551   6.053   3.026
 5209SOL    HW116526   5.453   6.042   3.010
 5209SOL    HW216527   5.578   6.147   3.003
 5210SOL     OW16528   4.211   4.806   3.330
 5210SOL    HW116529   4.257   4.769   3.411
 5210SOL    HW216530   4.207   4.735   3.260
 5211SOL     OW16531   3.769   3.684   2.455
 5211SOL    HW116532   3.673   3.681   2.429
 5211SOL    HW216533   3.787   3.768   2.507
 5212SOL     OW16534   0.867   1.619   0.093
 5212SOL    HW116535   0.849   1.521   0.104
 5212SOL    HW216536   0.937   1.647   0.158
 5213SOL     OW16537   4.069   2.007   6.938
 5213SOL    HW116538   4.136   1.933   6.944
 5213SOL    HW216539   4.114   2.091   6.909
 5214SOL     OW16540   5.671   1.835   6.387
 5214SOL    HW116541   5.709   1.909   6.442
 5214SOL    HW216542   5.571   1.842   6.387
 5215SOL     OW16543   5.321   5.390   2.555
 5215SOL    HW116544   5.317   5.468   2.618
 5215SOL    HW216545   5.238   5.388   2.499
 5216SOL     OW16546   4.730   5.951   0.915
 5216SOL    HW116547   4.721   5.932   0.818
 5216SOL    HW216548   4.642   5.938   0.960
 5217SOL     OW16549   2.991   4.864   3.903
 5217SOL    HW116550   2.913   4.926   3.904
 5217SOL    HW216551   3.020   4.848   3.808
 5218SOL     OW16552   1.789   6.982   4.512
 5218SOL    HW116553   1.870   0.012   4.489
 5218SOL    HW216554   1.800   6.945   4.605
 5219SOL     OW16555   2.353   5.450   0.334
 5219SOL    HW116556   2.327   5.473   0.240
 5219SOL    HW216557   2.422   5.515   0.366
 5220SOL     OW16558   0.485   6.456   2.682
 5220SOL    HW116559   0.536   6.421   2.761
 5220SOL    HW216560   0.529   6.540   2.650
 5221SOL     OW16561   4.924   1.427   5.053
 5221SOL    HW116562   4.880   1.448   4.965
 5221SOL    HW216563   4.894   1.493   5.121
 5222SOL     OW16564   1.208   0.260   2.572
 5222SOL    HW116565   1.247   0.255   2.480
 5222SOL    HW216566   1.257   0.198   2.632
 5223SOL     OW16567   5.203   6.869   1.266
 5223SOL    HW116568   5.251   6.918   1.339
 5223SOL    HW216569   5.236   6.774   1.263
 5224SOL     OW16570   5.719   1.532   2.703
 5224SOL    HW116571   5.790   1.515   2.635
 5224SOL    HW216572   5.730   1.469   2.780
 5225SOL     OW16573   5.527   5.824   5.580
 5225SOL    HW116574   5.597   5.807   5.649
 5225SOL    HW216575   5.539   5.915   5.542
 5226SOL     OW16576   1.358   6.500   4.148
 5226SOL    HW116577   1.338   6.597   4.162
 5226SOL    HW216578   1.378   6.483   4.052
 5227SOL     OW16579   5.923   4.893   3.101
 5227SOL    HW116580   5.859   4.969   3.117
 5227SOL    HW216581   5.934   4.841   3.186
 5228SOL     OW16582   5.828   1.002   1.169
 5228SOL    HW116583   5.735   0.965   1.172
 5228SOL    HW216584   5.863   0.993   1.075
 5229SOL     OW16585   0.993   4.240   4.886
 5229SOL    HW116586   1.015   4.173   4.814
 5229SOL    HW216587   1.069   4.245   4.951
 5230SOL     OW16588   1.008   6.590   6.925
 5230SOL    HW116589   0.916   6.551   6.935
 5230SOL    HW216590   1.059   6.579   7.010
 5231SOL     OW16591   3.775   3.260   4.050
 5231SOL    HW116592   3.866   3.220   4.042
 5231SOL    HW216593   3.720   3.207   4.114
 5232SOL     OW16594   4.495   3.007   5.962
 5232SOL    HW116595   4.554   2.928   5.975
 5232SOL    HW216596   4.412   2.980   5.913
 5233SOL     OW16597   0.691   0.503   2.526
 5233SOL    HW116598   0.734   0.418   2.495
 5233SOL    HW216599   0.597   0.507   2.492
 5234SOL     OW16600   3.691   6.269   1.363
 5234SOL    HW116601   3.767   6.260   1.299
 5234SOL    HW216602   3.631   6.190   1.356
 5235SOL     OW16603   0.718   3.502   1.400
 5235SOL    HW116604   0.726   3.442   1.321
 5235SOL    HW216605   0.710   3.447   1.483
 5236SOL     OW16606   5.145   3.020   0.842
 5236SOL    HW116607   5.163   2.950   0.911
 5236SOL    HW216608   5.046   3.032   0.831
 5237SOL     OW16609   2.554   1.909   4.781
 5237SOL    HW116610   2.563   1.944   4.688
 5237SOL    HW216611   2.632   1.938   4.836
 5238SOL     OW16612   1.706   4.218   1.109
 5238SOL    HW116613   1.691   4.317   1.104
 5238SOL    HW216614   1.649   4.178   1.180
 5239SOL     OW16615   2.908   3.552   4.914
 5239SOL    HW116616   2.976   3.575   4.844
 5239SOL    HW216617   2.820   3.591   4.887
 5240SOL     OW16618   3.367   2.068   4.950
 5240SOL    HW116619   3.317   2.149   4.980
 5240SOL    HW216620   3.316   1.986   4.978
 5241SOL     OW16621   2.199   5.586   6.162
 5241SOL    HW116622   2.252   5.574   6.246
 5241SOL    HW216623   2.161   5.498   6.133
 5242SOL     OW16624   5.321   1.405   5.987
 5242SOL    HW116625   5.332   1.455   5.901
 5242SOL    HW216626   5.299   1.469   6.061
 5243SOL     OW16627   1.152   4.513   1.247
 5243SOL    HW116628   1.092   4.577   1.199
 5243SOL    HW216629   1.117   4.420   1.237
 5244SOL     OW16630   5.708   4.127   6.544
 5244SOL    HW116631   5.687   4.126   6.446
 5244SOL    HW216632   5.637   4.179   6.592
 5245SOL     OW16633   5.444   4.090   6.802
 5245SOL    HW116634   5.481   3.998   6.784
 5245SOL    HW216635   5.349   4.093   6.770
 5246SOL     OW16636   0.916   3.128   2.876
 5246SOL    HW116637   0.887   3.037   2.903
 5246SOL    HW216638   0.984   3.163   2.941
 5247SOL     OW16639   0.552   5.211   1.533
 5247SOL    HW116640   0.453   5.218   1.546
 5247SOL    HW216641   0.585   5.295   1.489
 5248SOL     OW16642   4.470   0.915   6.773
 5248SOL    HW116643   4.449   0.889   6.679
 5248SOL    HW216644   4.386   0.922   6.826
 5249SOL     OW16645   1.330   5.538   5.275
 5249SOL    HW116646   1.345   5.446   5.311
 5249SOL    HW216647   1.243   5.540   5.226
 5250SOL     OW16648   0.536   0.972   5.922
 5250SOL    HW116649   0.544   0.993   5.824
 5250SOL    HW216650   0.604   1.025   5.973
 5251SOL     OW16651   6.881   2.983   1.285
 5251SOL    HW116652   6.871   2.884   1.297
 5251SOL    HW216653   6.977   3.008   1.292
 5252SOL     OW16654   3.870   5.871   0.387
 5252SOL    HW116655   3.830   5.786   0.353
 5252SOL    HW216656   3.887   5.864   0.485
 5253SOL     OW16657   5.629   3.051   3.629
 5253SOL    HW116658   5.666   3.074   3.719
 5253SOL    HW216659   5.530   3.065   3.629
 5254SOL     OW16660   4.323   1.073   3.910
 5254SOL    HW116661   4.364   1.121   3.832
 5254SOL    HW216662   4.395   1.025   3.960
 5255SOL     OW16663   3.294   6.695   4.518
 5255SOL    HW116664   3.349   6.628   4.467
 5255SOL    HW216665   3.327   6.698   4.613
 5256SOL     OW16666   5.903   6.596   3.609
 5256SOL    HW116667   5.965   6.612   3.686
 5256SOL    HW216668   5.869   6.683   3.574
 5257SOL     OW16669   3.348   1.177   1.267
 5257SOL    HW116670   3.343   1.272   1.237
 5257SOL    HW216671   3.305   1.169   1.357
 5258SOL     OW16672   6.257   2.523   1.721
 5258SOL    HW116673   6.313   2.596   1.759
 5258SOL    HW216674   6.161   2.548   1.727
 5259SOL     OW16675   4.772   4.930   2.659
 5259SOL    HW116676   4.773   4.834   2.633
 5259SOL    HW216677   4.694   4.975   2.615
 5260SOL     OW16678   5.286   3.316   1.260
 5260SOL    HW116679   5.268   3.414   1.261
 5260SOL    HW216680   5.265   3.277   1.349
 5261SOL     OW16681   1.784   2.596   4.624
 5261SOL    HW116682   1.865   2.537   4.623
 5261SOL    HW216683   1.806   2.681   4.671
 5262SOL     OW16684   2.750   6.724   2.284
 5262SOL    HW116685   2.766   6.778   2.367
 5262SOL    HW216686   2.828   6.664   2.268
 5263SOL     OW16687   0.881   6.347   0.494
 5263SOL    HW116688   0.785   6.347   0.523
 5263SOL    HW216689   0.885   6.353   0.394
 5264SOL     OW16690   0.622   2.536   0.732
 5264SOL    HW116691   0.538   2.511   0.683
 5264SOL    HW216692   0.698   2.537   0.668
 5265SOL     OW16693   4.900   5.146   2.035
 5265SOL    HW116694   4.907   5.047   2.047
 5265SOL    HW216695   4.892   5.167   1.938
 5266SOL     OW16696   1.961   6.825   1.059
 5266SOL    HW116697   1.914   6.794   1.141
 5266SOL    HW216698   1.897   6.826   0.982
 5267SOL     OW16699   5.307   4.643   4.591
 5267SOL    HW116700   5.238   4.699   4.546
 5267SOL    HW216701   5.347   4.580   4.524
 5268SOL     OW16702   6.116   4.568   4.153
 5268SOL    HW116703   6.183   4.514   4.102
 5268SOL    HW216704   6.161   4.646   4.195
 5269SOL     OW16705   1.475   5.732   4.392
 5269SOL    HW116706   1.540   5.771   4.327
 5269SOL    HW216707   1.407   5.677   4.342
 5270SOL     OW16708   6.457   2.827   2.478
 5270SOL    HW116709   6.370   2.783   2.498
 5270SOL    HW216710   6.507   2.844   2.564
 5271SOL     OW16711   4.822   4.808   4.944
 5271SOL    HW116712   4.913   4.808   4.985
 5271SOL    HW216713   4.809   4.894   4.894
 5272SOL     OW16714   1.377   0.948   4.550
 5272SOL    HW116715   1.337   0.873   4.603
 5272SOL    HW216716   1.405   0.914   4.460
 5273SOL     OW16717   0.613   0.782   4.045
 5273SOL    HW116718   0.626   0.821   3.954
 5273SOL    HW216719   0.588   0.855   4.109
 5274SOL     OW16720   6.500   5.357   3.767
 5274SOL    HW116721   6.436   5.422   3.807
 5274SOL    HW216722   6.513   5.279   3.829
 5275SOL     OW16723   2.480   0.127   0.006
 5275SOL    HW116724   2.405   0.116   6.966
 5275SOL    HW216725   2.471   0.060   0.080
 5276SOL     OW16726   0.168   6.626   1.270
 5276SOL    HW116727   0.137   6.683   1.194
 5276SOL    HW216728   0.253   6.580   1.244
 5277SOL     OW16729   0.923   2.045   2.787
 5277SOL    HW116730   0.975   1.988   2.723
 5277SOL    HW216731   0.834   2.004   2.803
 5278SOL     OW16732   1.436   5.001   5.893
 5278SOL    HW116733   1.470   5.091   5.869
 5278SOL    HW216734   1.336   5.005   5.905
 5279SOL     OW16735   2.130   6.005   6.315
 5279SOL    HW116736   2.179   6.092   6.317
 5279SOL    HW216737   2.152   5.956   6.231
 5280SOL     OW16738   4.221   6.206   4.974
 5280SOL    HW116739   4.248   6.289   5.023
 5280SOL    HW216740   4.175   6.143   5.037
 5281SOL     OW16741   2.432   0.656   4.862
 5281SOL    HW116742   2.405   0.564   4.835
 5281SOL    HW216743   2.454   0.710   4.781
 5282SOL     OW16744   1.630   6.912   1.676
 5282SOL    HW116745   1.670   6.973   1.743
 5282SOL    HW216746   1.625   6.958   1.587
 5283SOL     OW16747   0.922   0.743   4.749
 5283SOL    HW116748   0.858   0.673   4.781
 5283SOL    HW216749   0.967   0.709   4.666
 5284SOL     OW16750   4.528   2.683   1.077
 5284SOL    HW116751   4.450   2.656   1.133
 5284SOL    HW216752   4.542   2.782   1.084
 5285SOL     OW16753   1.598   2.093   4.330
 5285SOL    HW116754   1.668   2.155   4.366
 5285SOL    HW216755   1.527   2.146   4.284
 5286SOL     OW16756   6.163   3.431   0.811
 5286SOL    HW116757   6.085   3.475   0.856
 5286SOL    HW216758   6.129   3.367   0.742
 5287SOL     OW16759   2.540   5.466   1.372
 5287SOL    HW116760   2.494   5.381   1.347
 5287SOL    HW216761   2.634   5.464   1.339
 5288SOL     OW16762   3.890   0.466   1.951
 5288SOL    HW116763   3.914   0.372   1.927
 5288SOL    HW216764   3.967   0.527   1.930
 5289SOL     OW16765   2.314   4.840   6.596
 5289SOL    HW116766   2.334   4.742   6.601
 5289SOL    HW216767   2.255   4.858   6.517
 5290SOL     OW16768   1.532   2.984   5.414
 5290SOL    HW116769   1.530   2.894   5.370
 5290SOL    HW216770   1.627   3.013   5.424
 5291SOL     OW16771   2.740   4.750   4.862
 5291SOL    HW116772   2.803   4.827   4.857
 5291SOL    HW216773   2.781   4.677   4.916
 5292SOL     OW16774   6.885   4.068   5.988
 5292SOL    HW116775   6.788   4.054   5.967
 5292SOL    HW216776   6.895   4.098   6.083
 5293SOL     OW16777   2.151   6.092   4.609
 5293SOL    HW116778   2.057   6.112   4.580
 5293SOL    HW216779   2.190   6.020   4.551
 5294SOL     OW16780   3.633   0.757   5.245
 5294SOL    HW116781   3.536   0.732   5.244
 5294SOL    HW216782   3.672   0.731   5.333
 5295SOL     OW16783   2.588   1.730   2.185
 5295SOL    HW116784   2.608   1.732   2.087
 5295SOL    HW216785   2.659   1.781   2.234
 5296SOL     OW16786   4.815   4.984   1.339
 5296SOL    HW116787   4.736   4.938   1.297
 5296SOL    HW216788   4.823   4.955   1.435
 5297SOL     OW16789   2.681   4.741   0.367
 5297SOL    HW116790   2.684   4.800   0.448
 5297SOL    HW216791   2.645   4.652   0.393
 5298SOL     OW16792   2.239   0.584   0.599
 5298SOL    HW116793   2.250   0.615   0.505
 5298SOL    HW216794   2.328   0.554   0.634
 5299SOL     OW16795   2.867   2.108   0.557
 5299SOL    HW116796   2.876   2.045   0.481
 5299SOL    HW216797   2.819   2.063   0.633
 5300SOL     OW16798   2.177   4.437   0.182
 5300SOL    HW116799   2.261   4.390   0.209
 5300SOL    HW216800   2.141   4.398   0.098
 5301SOL     OW16801   5.286   0.546   5.366
 5301SOL    HW116802   5.189   0.530   5.383
 5301SOL    HW216803   5.333   0.458   5.355
 5302SOL     OW16804   5.671   5.953   3.269
 5302SOL    HW116805   5.646   6.028   3.330
 5302SOL    HW216806   5.676   5.988   3.175
 5303SOL     OW16807   0.217   5.173   5.896
 5303SOL    HW116808   0.290   5.241   5.906
 5303SOL    HW216809   0.128   5.218   5.906
 5304SOL     OW16810   6.693   0.676   1.352
 5304SOL    HW116811   6.682   0.765   1.308
 5304SOL    HW216812   6.609   0.622   1.339
 5305SOL     OW16813   1.611   5.110   3.048
 5305SOL    HW116814   1.560   5.054   3.113
 5305SOL    HW216815   1.700   5.134   3.088
 5306SOL     OW16816   6.834   3.681   5.774
 5306SOL    HW116817   6.738   3.696   5.798
 5306SOL    HW216818   6.850   3.583   5.761
 5307SOL     OW16819   5.800   2.315   1.727
 5307SOL    HW116820   5.772   2.377   1.801
 5307SOL    HW216821   5.806   2.366   1.642
 5308SOL     OW16822   1.319   4.445   2.927
 5308SOL    HW116823   1.297   4.375   2.994
 5308SOL    HW216824   1.253   4.442   2.851
 5309SOL     OW16825   5.869   6.386   2.715
 5309SOL    HW116826   5.822   6.348   2.635
 5309SOL    HW216827   5.855   6.485   2.717
 5310SOL     OW16828   6.253   3.082   2.814
 5310SOL    HW116829   6.260   3.140   2.733
 5310SOL    HW216830   6.236   2.987   2.785
 5311SOL     OW16831   6.008   0.250   0.731
 5311SOL    HW116832   6.024   0.177   0.798
 5311SOL    HW216833   5.915   0.284   0.742
 5312SOL     OW16834   6.881   6.531   0.793
 5312SOL    HW116835   6.894   6.630   0.784
 5312SOL    HW216836   6.820   6.499   0.720
 5313SOL     OW16837   0.335   4.871   5.514
 5313SOL    HW116838   0.281   4.840   5.436
 5313SOL    HW216839   0.275   4.913   5.582
 5314SOL     OW16840   6.344   0.762   1.474
 5314SOL    HW116841   6.388   0.719   1.396
 5314SOL    HW216842   6.293   0.843   1.444
 5315SOL     OW16843   4.187   1.438   3.679
 5315SOL    HW116844   4.138   1.492   3.746
 5315SOL    HW216845   4.264   1.492   3.643
 5316SOL     OW16846   0.517   2.674   4.994
 5316SOL    HW116847   0.447   2.603   4.998
 5316SOL    HW216848   0.602   2.634   4.957
 5317SOL     OW16849   6.779   1.711   6.178
 5317SOL    HW116850   6.765   1.721   6.080
 5317SOL    HW216851   6.870   1.671   6.195
 5318SOL     OW16852   6.750   2.767   0.030
 5318SOL    HW116853   6.825   2.700   0.025
 5318SOL    HW216854   6.741   2.798   0.124
 5319SOL     OW16855   4.153   6.521   1.175
 5319SOL    HW116856   4.169   6.476   1.087
 5319SOL    HW216857   4.239   6.528   1.225
 5320SOL     OW16858   3.454   5.795   1.067
 5320SOL    HW116859   3.385   5.796   1.140
 5320SOL    HW216860   3.542   5.823   1.105
 5321SOL     OW16861   1.619   4.132   5.108
 5321SOL    HW116862   1.679   4.157   5.031
 5321SOL    HW216863   1.544   4.197   5.115
 5322SOL     OW16864   5.396   6.804   1.918
 5322SOL    HW116865   5.420   6.708   1.909
 5322SOL    HW216866   5.340   6.817   2.001
 5323SOL     OW16867   4.707   1.343   5.290
 5323SOL    HW116868   4.648   1.294   5.355
 5323SOL    HW216869   4.678   1.322   5.196
 5324SOL     OW16870   2.334   1.715   0.488
 5324SOL    HW116871   2.295   1.761   0.409
 5324SOL    HW216872   2.333   1.616   0.474
 5325SOL     OW16873   2.634   2.194   4.985
 5325SOL    HW116874   2.639   2.292   5.005
 5325SOL    HW216875   2.539   2.168   4.972
 5326SOL     OW16876   6.086   6.675   2.770
 5326SOL    HW116877   6.109   6.771   2.784
 5326SOL    HW216878   6.132   6.641   2.688
 5327SOL     OW16879   5.537   2.598   4.961
 5327SOL    HW116880   5.450   2.552   4.945
 5327SOL    HW216881   5.602   2.572   4.889
 5328SOL     OW16882   4.380   4.477   6.715
 5328SOL    HW116883   4.437   4.524   6.648
 5328SOL    HW216884   4.312   4.421   6.667
 5329SOL     OW16885   1.382   6.707   6.578
 5329SOL    HW116886   1.321   6.785   6.583
 5329SOL    HW216887   1.454   6.725   6.511
 5330SOL     OW16888   2.511   3.859   0.675
 5330SOL    HW116889   2.548   3.924   0.741
 5330SOL    HW216890   2.537   3.766   0.701
 5331SOL     OW16891   6.443   0.952   6.746
 5331SOL    HW116892   6.515   1.007   6.790
 5331SOL    HW216893   6.395   0.898   6.815
 5332SOL     OW16894   1.216   5.004   2.371
 5332SOL    HW116895   1.276   5.017   2.450
 5332SOL    HW216896   1.271   4.978   2.292
 5333SOL     OW16897   0.696   6.381   4.132
 5333SOL    HW116898   0.764   6.444   4.169
 5333SOL    HW216899   0.605   6.411   4.159
 5334SOL     OW16900   3.027   0.424   4.575
 5334SOL    HW116901   2.997   0.478   4.496
 5334SOL    HW216902   3.080   0.346   4.543
 5335SOL     OW16903   6.535   5.730   0.996
 5335SOL    HW116904   6.511   5.701   0.903
 5335SOL    HW216905   6.455   5.725   1.055
 5336SOL     OW16906   1.542   4.193   2.188
 5336SOL    HW116907   1.544   4.094   2.199
 5336SOL    HW216908   1.448   4.226   2.198
 5337SOL     OW16909   4.542   4.478   1.124
 5337SOL    HW116910   4.609   4.441   1.188
 5337SOL    HW216911   4.583   4.484   1.033
 5338SOL     OW16912   6.557   2.183   6.581
 5338SOL    HW116913   6.536   2.271   6.538
 5338SOL    HW216914   6.473   2.133   6.597
 5339SOL     OW16915   6.367   2.055   3.686
 5339SOL    HW116916   6.429   2.107   3.743
 5339SOL    HW216917   6.274   2.062   3.723
 5340SOL     OW16918   5.347   2.657   6.548
 5340SOL    HW116919   5.376   2.751   6.566
 5340SOL    HW216920   5.298   2.653   6.461
 5341SOL     OW16921   4.922   0.404   6.883
 5341SOL    HW116922   4.878   0.453   6.958
 5341SOL    HW216923   4.930   0.307   6.906
 5342SOL     OW16924   4.081   1.172   5.870
 5342SOL    HW116925   4.080   1.201   5.774
 5342SOL    HW216926   4.020   1.231   5.923
 5343SOL     OW16927   4.092   3.774   2.468
 5343SOL    HW116928   4.129   3.739   2.554
 5343SOL    HW216929   4.021   3.712   2.433
 5344SOL     OW16930   1.867   2.636   2.983
 5344SOL    HW116931   1.955   2.644   2.936
 5344SOL    HW216932   1.875   2.569   3.057
 5345SOL     OW16933   4.539   6.765   1.071
 5345SOL    HW116934   4.542   6.854   1.026
 5345SOL    HW216935   4.510   6.777   1.166
 5346SOL     OW16936   2.871   6.222   3.155
 5346SOL    HW116937   2.778   6.210   3.189
 5346SOL    HW216938   2.890   6.319   3.141
 5347SOL     OW16939   6.959   2.212   0.961
 5347SOL    HW116940   0.033   2.192   0.959
 5347SOL    HW216941   6.928   2.218   1.056
 5348SOL     OW16942   1.047   1.115   6.760
 5348SOL    HW116943   1.095   1.159   6.836
 5348SOL    HW216944   1.039   1.017   6.777
 5349SOL     OW16945   6.688   0.919   1.223
 5349SOL    HW116946   6.774   0.971   1.218
 5349SOL    HW216947   6.611   0.983   1.224
 5350SOL     OW16948   2.477   1.457   6.362
 5350SOL    HW116949   2.536   1.485   6.438
 5350SOL    HW216950   2.532   1.441   6.280
 5351SOL     OW16951   4.567   6.625   1.471
 5351SOL    HW116952   4.483   6.679   1.478
 5351SOL    HW216953   4.645   6.683   1.494
 5352SOL     OW16954   3.179   5.904   3.626
 5352SOL    HW116955   3.206   5.852   3.707
 5352SOL    HW216956   3.089   5.873   3.596
 5353SOL     OW16957   5.676   5.579   5.434
 5353SOL    HW116958   5.604   5.638   5.468
 5353SOL    HW216959   5.639   5.487   5.418
 5354SOL     OW16960   1.092   3.836   1.587
 5354SOL    HW116961   1.162   3.907   1.598
 5354SOL    HW216962   1.028   3.840   1.664
 5355SOL     OW16963   4.267   2.023   4.128
 5355SOL    HW116964   4.356   1.984   4.146
 5355SOL    HW216965   4.273   2.123   4.130
 5356SOL     OW16966   6.500   3.954   1.458
 5356SOL    HW116967   6.514   4.010   1.376
 5356SOL    HW216968   6.477   3.860   1.430
 5357SOL     OW16969   3.911   0.218   0.242
 5357SOL    HW116970   3.996   0.168   0.225
 5357SOL    HW216971   3.839   0.184   0.181
 5358SOL     OW16972   4.941   3.269   0.546
 5358SOL    HW116973   4.911   3.205   0.476
 5358SOL    HW216974   4.874   3.269   0.621
 5359SOL     OW16975   2.026   1.442   0.339
 5359SOL    HW116976   2.054   1.369   0.276
 5359SOL    HW216977   2.022   1.529   0.290
 5360SOL     OW16978   3.734   6.695   6.467
 5360SOL    HW116979   3.650   6.741   6.437
 5360SOL    HW216980   3.790   6.759   6.519
 5361SOL     OW16981   1.864   0.688   5.558
 5361SOL    HW116982   1.798   0.741   5.611
 5361SOL    HW216983   1.899   0.743   5.483
 5362SOL     OW16984   4.798   5.200   3.044
 5362SOL    HW116985   4.747   5.115   3.034
 5362SOL    HW216986   4.814   5.241   2.954
 5363SOL     OW16987   0.577   4.971   6.571
 5363SOL    HW116988   0.529   5.026   6.504
 5363SOL    HW216989   0.624   4.895   6.525
 5364SOL     OW16990   6.794   6.738   0.439
 5364SOL    HW116991   6.884   6.694   0.433
 5364SOL    HW216992   6.784   6.779   0.529
 5365SOL     OW16993   4.674   1.891   5.494
 5365SOL    HW116994   4.661   1.813   5.555
 5365SOL    HW216995   4.772   1.913   5.488
 5366SOL     OW16996   4.300   3.541   0.646
 5366SOL    HW116997   4.383   3.520   0.698
 5366SOL    HW216998   4.228   3.476   0.670
 5367SOL     OW16999   0.395   4.862   1.833
 5367SOL    HW117000   0.368   4.875   1.738
 5367SOL    HW217001   0.339   4.920   1.892
 5368SOL     OW17002   5.847   2.065   3.354
 5368SOL    HW117003   5.880   2.009   3.278
 5368SOL    HW217004   5.791   2.140   3.319
 5369SOL     OW17005   1.944   4.380   2.834
 5369SOL    HW117006   2.004   4.376   2.754
 5369SOL    HW217007   1.990   4.338   2.913
 5370SOL     OW17008   3.713   2.559   1.148
 5370SOL    HW117009   3.760   2.478   1.111
 5370SOL    HW217010   3.668   2.534   1.233
 5371SOL     OW17011   1.231   4.194   4.990
 5371SOL    HW117012   1.313   4.232   5.034
 5371SOL    HW217013   1.258   4.121   4.928
 5372SOL     OW17014   2.593   5.530   3.032
 5372SOL    HW117015   2.593   5.451   2.970
 5372SOL    HW217016   2.560   5.502   3.122
 5373SOL     OW17017   3.655   5.020   4.015
 5373SOL    HW117018   3.592   5.084   4.058
 5373SOL    HW217019   3.719   4.984   4.083
 5374SOL     OW17020   2.288   2.298   6.362
 5374SOL    HW117021   2.232   2.380   6.373
 5374SOL    HW217022   2.358   2.297   6.434
 5375SOL     OW17023   1.627   4.149   4.534
 5375SOL    HW117024   1.654   4.120   4.442
 5375SOL    HW217025   1.655   4.243   4.549
 5376SOL     OW17026   1.596   3.434   1.559
 5376SOL    HW117027   1.601   3.349   1.506
 5376SOL    HW217028   1.688   3.462   1.586
 5377SOL     OW17029   0.321   0.778   1.297
 5377SOL    HW117030   0.366   0.743   1.379
 5377SOL    HW217031   0.275   0.864   1.318
 5378SOL     OW17032   5.758   0.771   0.425
 5378SOL    HW117033   5.707   0.853   0.398
 5378SOL    HW217034   5.781   0.717   0.344
 5379SOL     OW17035   0.424   5.663   2.615
 5379SOL    HW117036   0.422   5.582   2.673
 5379SOL    HW217037   0.414   5.745   2.672
 5380SOL     OW17038   2.956   0.421   3.028
 5380SOL    HW117039   3.029   0.361   2.996
 5380SOL    HW217040   2.953   0.422   3.127
 5381SOL     OW17041   5.818   3.879   1.479
 5381SOL    HW117042   5.791   3.973   1.461
 5381SOL    HW217043   5.825   3.864   1.578
 5382SOL     OW17044   2.822   1.170   1.080
 5382SOL    HW117045   2.911   1.214   1.068
 5382SOL    HW217046   2.792   1.132   0.993
 5383SOL     OW17047   2.352   2.042   4.944
 5383SOL    HW117048   2.372   2.026   5.041
 5383SOL    HW217049   2.398   1.973   4.889
 5384SOL     OW17050   6.251   7.002   4.090
 5384SOL    HW117051   6.173   7.016   4.152
 5384SOL    HW217052   6.319   6.945   4.135
 5385SOL     OW17053   3.465   3.926   2.419
 5385SOL    HW117054   3.425   3.995   2.359
 5385SOL    HW217055   3.516   3.972   2.493
 5386SOL     OW17056   5.421   6.363   4.479
 5386SOL    HW117057   5.515   6.369   4.447
 5386SOL    HW217058   5.418   6.312   4.565
 5387SOL     OW17059   2.880   5.176   2.092
 5387SOL    HW117060   2.910   5.134   2.006
 5387SOL    HW217061   2.839   5.106   2.151
 5388SOL     OW17062   5.396   6.429   2.896
 5388SOL    HW117063   5.313   6.399   2.849
 5388SOL    HW217064   5.376   6.450   2.991
 5389SOL     OW17065   4.651   1.707   1.288
 5389SOL    HW117066   4.652   1.748   1.379
 5389SOL    HW217067   4.714   1.629   1.286
 5390SOL     OW17068   6.170   5.094   5.767
 5390SOL    HW117069   6.082   5.048   5.758
 5390SOL    HW217070   6.155   5.192   5.775
 5391SOL     OW17071   2.514   3.063   0.645
 5391SOL    HW117072   2.431   3.008   0.642
 5391SOL    HW217073   2.588   3.014   0.599
 5392SOL     OW17074   6.097   3.290   2.266
 5392SOL    HW117075   6.052   3.331   2.345
 5392SOL    HW217076   6.189   3.259   2.291
 5393SOL     OW17077   6.750   6.810   0.093
 5393SOL    HW117078   6.650   6.813   0.086
 5393SOL    HW217079   6.790   6.823   0.002
 5394SOL     OW17080   0.888   3.721   5.664
 5394SOL    HW117081   0.812   3.670   5.704
 5394SOL    HW217082   0.853   3.792   5.603
 5395SOL     OW17083   3.856   0.521   0.615
 5395SOL    HW117084   3.917   0.597   0.589
 5395SOL    HW217085   3.910   0.448   0.656
 5396SOL     OW17086   5.573   3.671   2.290
 5396SOL    HW117087   5.523   3.600   2.339
 5396SOL    HW217088   5.584   3.643   2.194
 5397SOL     OW17089   0.156   3.615   1.927
 5397SOL    HW117090   0.179   3.563   1.845
 5397SOL    HW217091   0.158   3.555   2.007
 5398SOL     OW17092   2.999   2.692   1.759
 5398SOL    HW117093   3.040   2.667   1.671
 5398SOL    HW217094   2.972   2.609   1.808
 5399SOL     OW17095   1.872   6.195   1.638
 5399SOL    HW117096   1.846   6.278   1.688
 5399SOL    HW217097   1.805   6.178   1.566
 5400SOL     OW17098   3.235   4.756   0.397
 5400SOL    HW117099   3.190   4.824   0.339
 5400SOL    HW217100   3.178   4.738   0.477
 5401SOL     OW17101   6.112   2.993   2.091
 5401SOL    HW117102   6.161   3.015   2.176
 5401SOL    HW217103   6.047   3.067   2.071
 5402SOL     OW17104   1.269   6.165   1.991
 5402SOL    HW117105   1.314   6.164   2.080
 5402SOL    HW217106   1.337   6.159   1.918
 5403SOL     OW17107   0.023   3.598   6.603
 5403SOL    HW117108   0.069   3.523   6.554
 5403SOL    HW217109   6.948   3.588   6.594
 5404SOL     OW17110   1.304   2.822   4.051
 5404SOL    HW117111   1.336   2.840   4.143
 5404SOL    HW217112   1.204   2.826   4.049
 5405SOL     OW17113   6.650   5.217   5.745
 5405SOL    HW117114   6.623   5.189   5.653
 5405SOL    HW217115   6.619   5.149   5.811
 5406SOL     OW17116   1.588   0.986   6.719
 5406SOL    HW117117   1.600   0.912   6.786
 5406SOL    HW217118   1.521   1.052   6.755
 5407SOL     OW17119   3.759   3.332   0.357
 5407SOL    HW117120   3.765   3.357   0.454
 5407SOL    HW217121   3.732   3.236   0.350
 5408SOL     OW17122   2.572   0.733   0.010
 5408SOL    HW117123   2.507   0.810   0.007
 5408SOL    HW217124   2.521   0.648   0.024
 5409SOL     OW17125   3.952   0.905   3.205
 5409SOL    HW117126   3.933   0.824   3.261
 5409SOL    HW217127   3.869   0.961   3.197
 5410SOL     OW17128   2.772   1.909   1.840
 5410SOL    HW117129   2.848   1.873   1.893
 5410SOL    HW217130   2.767   2.008   1.850
 5411SOL     OW17131   0.547   5.333   5.274
 5411SOL    HW117132   0.466   5.338   5.332
 5411SOL    HW217133   0.617   5.276   5.318
 5412SOL     OW17134   5.643   2.982   0.656
 5412SOL    HW117135   5.622   2.962   0.561
 5412SOL    HW217136   5.560   2.975   0.711
 5413SOL     OW17137   2.437   1.506   1.904
 5413SOL    HW117138   2.471   1.414   1.883
 5413SOL    HW217139   2.490   1.574   1.854
 5414SOL     OW17140   4.157   1.592   5.227
 5414SOL    HW117141   4.139   1.584   5.129
 5414SOL    HW217142   4.078   1.557   5.278
 5415SOL     OW17143   6.343   5.369   2.055
 5415SOL    HW117144   6.282   5.290   2.061
 5415SOL    HW217145   6.378   5.392   2.146
 5416SOL     OW17146   4.270   4.842   4.770
 5416SOL    HW117147   4.230   4.784   4.699
 5416SOL    HW217148   4.350   4.798   4.810
 5417SOL     OW17149   3.325   6.984   4.431
 5417SOL    HW117150   3.380   6.994   4.515
 5417SOL    HW217151   3.267   6.903   4.438
 5418SOL     OW17152   3.909   0.202   3.093
 5418SOL    HW117153   3.954   0.288   3.116
 5418SOL    HW217154   3.968   0.147   3.034
 5419SOL     OW17155   3.653   5.403   6.323
 5419SOL    HW117156   3.561   5.398   6.283
 5419SOL    HW217157   3.685   5.311   6.344
 5420SOL     OW17158   1.639   1.841   2.390
 5420SOL    HW117159   1.617   1.759   2.443
 5420SOL    HW217160   1.722   1.824   2.336
 5421SOL     OW17161   1.803   4.034   2.116
 5421SOL    HW117162   1.754   3.977   2.181
 5421SOL    HW217163   1.869   4.092   2.164
 5422SOL     OW17164   2.523   3.788   1.190
 5422SOL    HW117165   2.504   3.808   1.094
 5422SOL    HW217166   2.445   3.817   1.246
 5423SOL     OW17167   6.023   2.806   6.662
 5423SOL    HW117168   5.990   2.848   6.577
 5423SOL    HW217169   5.967   2.837   6.738
 5424SOL     OW17170   5.007   3.469   4.365
 5424SOL    HW117171   4.973   3.449   4.273
 5424SOL    HW217172   4.981   3.395   4.427
 5425SOL     OW17173   4.965   0.991   5.170
 5425SOL    HW117174   5.051   1.035   5.147
 5425SOL    HW217175   4.890   1.036   5.122
 5426SOL     OW17176   6.216   6.943   4.938
 5426SOL    HW117177   6.257   7.017   4.992
 5426SOL    HW217178   6.129   6.974   4.901
 5427SOL     OW17179   4.497   6.032   6.473
 5427SOL    HW117180   4.555   6.075   6.543
 5427SOL    HW217181   4.511   6.076   6.385
 5428SOL     OW17182   1.228   0.592   1.011
 5428SOL    HW117183   1.253   0.646   1.091
 5428SOL    HW217184   1.247   0.496   1.028
 5429SOL     OW17185   0.752   2.112   6.672
 5429SOL    HW117186   0.722   2.032   6.620
 5429SOL    HW217187   0.846   2.135   6.647
 5430SOL     OW17188   1.397   2.619   6.146
 5430SOL    HW117189   1.306   2.603   6.184
 5430SOL    HW217190   1.430   2.535   6.101
 5431SOL     OW17191   3.853   6.329   6.025
 5431SOL    HW117192   3.843   6.427   6.044
 5431SOL    HW217193   3.948   6.302   6.041
 5432SOL     OW17194   4.850   6.588   0.629
 5432SOL    HW117195   4.766   6.601   0.681
 5432SOL    HW217196   4.929   6.586   0.691
 5433SOL     OW17197   0.147   1.626   4.799
 5433SOL    HW117198   0.141   1.700   4.732
 5433SOL    HW217199   0.221   1.646   4.864
 5434SOL     OW17200   2.844   0.330   6.357
 5434SOL    HW117201   2.941   0.329   6.380
 5434SOL    HW217202   2.814   0.238   6.331
 5435SOL     OW17203   4.445   0.218   1.806
 5435SOL    HW117204   4.468   0.185   1.897
 5435SOL    HW217205   4.346   0.226   1.796
 5436SOL     OW17206   4.727   4.300   2.965
 5436SOL    HW117207   4.742   4.208   3.002
 5436SOL    HW217208   4.814   4.339   2.934
 5437SOL     OW17209   2.917   3.818   0.061
 5437SOL    HW117210   2.841   3.822   0.126
 5437SOL    HW217211   2.925   3.906   0.015
 5438SOL     OW17212   5.907   2.099   1.553
 5438SOL    HW117213   5.849   2.017   1.559
 5438SOL    HW217214   5.886   2.160   1.629
 5439SOL     OW17215   0.809   2.615   1.259
 5439SOL    HW117216   0.882   2.595   1.194
 5439SOL    HW217217   0.828   2.571   1.346
 5440SOL     OW17218   0.899   2.053   1.186
 5440SOL    HW117219   0.820   1.993   1.170
 5440SOL    HW217220   0.878   2.145   1.153
 5441SOL     OW17221   3.199   1.974   3.332
 5441SOL    HW117222   3.208   1.883   3.372
 5441SOL    HW217223   3.253   2.040   3.385
 5442SOL     OW17224   3.659   0.599   2.014
 5442SOL    HW117225   3.744   0.547   2.013
 5442SOL    HW217226   3.584   0.544   1.977
 5443SOL     OW17227   3.113   6.712   5.614
 5443SOL    HW117228   3.117   6.726   5.713
 5443SOL    HW217229   3.190   6.758   5.570
 5444SOL     OW17230   0.048   6.850   4.025
 5444SOL    HW117231   7.011   6.799   4.086
 5444SOL    HW217232   7.019   6.891   3.951
 5445SOL     OW17233   5.803   3.558   2.432
 5445SOL    HW117234   5.733   3.593   2.370
 5445SOL    HW217235   5.823   3.627   2.501
 5446SOL     OW17236   5.887   5.723   5.600
 5446SOL    HW117237   5.821   5.685   5.535
 5446SOL    HW217238   5.882   5.823   5.597
 5447SOL     OW17239   3.931   2.471   0.201
 5447SOL    HW117240   3.867   2.403   0.164
 5447SOL    HW217241   3.970   2.437   0.286
 5448SOL     OW17242   5.329   2.255   5.174
 5448SOL    HW117243   5.270   2.176   5.159
 5448SOL    HW217244   5.301   2.330   5.113
 5449SOL     OW17245   0.755   3.973   6.889
 5449SOL    HW117246   0.692   3.925   6.949
 5449SOL    HW217247   0.754   3.930   6.798
 5450SOL     OW17248   2.080   0.236   1.600
 5450SOL    HW117249   2.083   0.301   1.523
 5450SOL    HW217250   2.136   0.157   1.579
 5451SOL     OW17251   0.858   5.588   3.288
 5451SOL    HW117252   0.786   5.647   3.325
 5451SOL    HW217253   0.948   5.627   3.311
 5452SOL     OW17254   2.385   4.287   6.868
 5452SOL    HW117255   2.325   4.365   6.849
 5452SOL    HW217256   2.399   4.234   6.784
 5453SOL     OW17257   5.744   4.868   0.401
 5453SOL    HW117258   5.713   4.862   0.495
 5453SOL    HW217259   5.802   4.948   0.389
 5454SOL     OW17260   6.888   4.300   6.969
 5454SOL    HW117261   6.885   4.350   0.031
 5454SOL    HW217262   6.876   4.363   6.893
 5455SOL     OW17263   6.533   3.309   0.975
 5455SOL    HW117264   6.446   3.344   1.007
 5455SOL    HW217265   6.551   3.220   1.017
 5456SOL     OW17266   3.115   7.000   6.801
 5456SOL    HW117267   3.087   6.913   6.841
 5456SOL    HW217268   3.076   7.010   6.709
 5457SOL     OW17269   5.777   3.000   0.877
 5457SOL    HW117270   5.812   3.093   0.885
 5457SOL    HW217271   5.723   2.992   0.793
 5458SOL     OW17272   1.886   4.113   6.718
 5458SOL    HW117273   1.980   4.099   6.747
 5458SOL    HW217274   1.836   4.161   6.790
 5459SOL     OW17275   1.697   4.526   6.755
 5459SOL    HW117276   1.654   4.522   6.665
 5459SOL    HW217277   1.666   4.449   6.811
 5460SOL     OW17278   2.598   0.245   0.964
 5460SOL    HW117279   2.669   0.311   0.989
 5460SOL    HW217280   2.517   0.260   1.020
 5461SOL     OW17281   4.522   0.090   4.960
 5461SOL    HW117282   4.557   0.004   4.923
 5461SOL    HW217283   4.434   0.112   4.918
 5462SOL     OW17284   1.407   0.343   0.691
 5462SOL    HW117285   1.317   0.366   0.729
 5462SOL    HW217286   1.478   0.397   0.736
 5463SOL     OW17287   6.296   2.743   0.828
 5463SOL    HW117288   6.252   2.803   0.894
 5463SOL    HW217289   6.241   2.739   0.744
 5464SOL     OW17290   2.382   0.233   4.472
 5464SOL    HW117291   2.401   0.149   4.421
 5464SOL    HW217292   2.467   0.273   4.505
 5465SOL     OW17293   2.892   0.446   4.796
 5465SOL    HW117294   2.949   0.441   4.714
 5465SOL    HW217295   2.825   0.372   4.794
 5466SOL     OW17296   4.750   4.104   4.306
 5466SOL    HW117297   4.759   4.150   4.394
 5466SOL    HW217298   4.750   4.005   4.320
 5467SOL     OW17299   5.324   1.447   2.837
 5467SOL    HW117300   5.225   1.434   2.850
 5467SOL    HW217301   5.369   1.358   2.837
 5468SOL     OW17302   4.387   2.169   4.539
 5468SOL    HW117303   4.338   2.245   4.496
 5468SOL    HW217304   4.485   2.178   4.520
 5469SOL     OW17305   3.700   4.501   6.489
 5469SOL    HW117306   3.619   4.542   6.446
 5469SOL    HW217307   3.756   4.456   6.419
 5470SOL     OW17308   2.015   4.970   3.844
 5470SOL    HW117309   2.072   5.006   3.918
 5470SOL    HW217310   1.956   4.897   3.880
 5471SOL     OW17311   6.910   6.105   1.826
 5471SOL    HW117312   6.960   6.160   1.892
 5471SOL    HW217313   6.974   6.056   1.767
 5472SOL     OW17314   4.106   4.615   6.004
 5472SOL    HW117315   4.022   4.580   5.962
 5472SOL    HW217316   4.169   4.644   5.932
 5473SOL     OW17317   1.588   3.373   3.618
 5473SOL    HW117318   1.523   3.449   3.626
 5473SOL    HW217319   1.570   3.322   3.534
 5474SOL     OW17320   1.579   5.306   4.114
 5474SOL    HW117321   1.509   5.265   4.056
 5474SOL    HW217322   1.562   5.404   4.123
 5475SOL     OW17323   2.984   2.279   1.361
 5475SOL    HW117324   3.051   2.215   1.399
 5475SOL    HW217325   2.945   2.334   1.435
 5476SOL     OW17326   1.177   2.840   6.411
 5476SOL    HW117327   1.254   2.882   6.460
 5476SOL    HW217328   1.103   2.822   6.476
 5477SOL     OW17329   2.117   3.119   3.079
 5477SOL    HW117330   2.060   3.036   3.079
 5477SOL    HW217331   2.174   3.120   3.162
 5478SOL     OW17332   5.395   5.597   5.504
 5478SOL    HW117333   5.308   5.581   5.456
 5478SOL    HW217334   5.398   5.692   5.535
 5479SOL     OW17335   4.757   0.682   4.386
 5479SOL    HW117336   4.844   0.686   4.434
 5479SOL    HW217337   4.718   0.590   4.396
 5480SOL     OW17338   1.051   3.566   4.423
 5480SOL    HW117339   0.987   3.489   4.412
 5480SOL    HW217340   1.119   3.542   4.492
 5481SOL     OW17341   3.813   0.036   3.995
 5481SOL    HW117342   3.717   0.023   4.018
 5481SOL    HW217343   3.849   6.978   3.951
 5482SOL     OW17344   2.369   4.812   1.377
 5482SOL    HW117345   2.452   4.787   1.326
 5482SOL    HW217346   2.375   4.774   1.469
 5483SOL     OW17347   0.125   2.428   6.374
 5483SOL    HW117348   0.099   2.470   6.461
 5483SOL    HW217349   0.150   2.499   6.308
 5484SOL     OW17350   4.682   0.996   4.784
 5484SOL    HW117351   4.585   1.022   4.782
 5484SOL    HW217352   4.690   0.897   4.775
 5485SOL     OW17353   2.950   0.225   5.625
 5485SOL    HW117354   2.865   0.193   5.666
 5485SOL    HW217355   2.939   0.320   5.596
 5486SOL     OW17356   3.053   6.300   5.577
 5486SOL    HW117357   3.102   6.262   5.655
 5486SOL    HW217358   3.028   6.227   5.514
 5487SOL     OW17359   3.678   5.042   5.602
 5487SOL    HW117360   3.708   5.130   5.641
 5487SOL    HW217361   3.580   5.046   5.583
 5488SOL     OW17362   6.265   1.647   1.091
 5488SOL    HW117363   6.169   1.628   1.070
 5488SOL    HW217364   6.277   1.744   1.111
 5489SOL     OW17365   6.283   4.140   3.055
 5489SOL    HW117366   6.380   4.116   3.063
 5489SOL    HW217367   6.257   4.144   2.959
 5490SOL     OW17368   1.531   6.581   2.785
 5490SOL    HW117369   1.511   6.618   2.695
 5490SOL    HW217370   1.566   6.653   2.844
 5491SOL     OW17371   6.526   4.324   0.423
 5491SOL    HW117372   6.547   4.228   0.441
 5491SOL    HW217373   6.558   4.348   0.332
 5492SOL     OW17374   0.171   1.670   5.714
 5492SOL    HW117375   0.118   1.753   5.729
 5492SOL    HW217376   0.200   1.666   5.618
 5493SOL     OW17377   3.635   3.839   1.452
 5493SOL    HW117378   3.720   3.789   1.470
 5493SOL    HW217379   3.585   3.793   1.378
 5494SOL     OW17380   6.144   4.091   5.531
 5494SOL    HW117381   6.180   4.009   5.575
 5494SOL    HW217382   6.220   4.149   5.501
 5495SOL     OW17383   5.747   0.287   0.838
 5495SOL    HW117384   5.686   0.356   0.877
 5495SOL    HW217385   5.719   0.197   0.869
 5496SOL     OW17386   3.816   0.552   4.030
 5496SOL    HW117387   3.722   0.547   4.065
 5496SOL    HW217388   3.844   0.462   3.998
 5497SOL     OW17389   1.158   0.278   5.879
 5497SOL    HW117390   1.088   0.348   5.866
 5497SOL    HW217391   1.129   0.216   5.952
 5498SOL     OW17392   0.747   5.307   1.732
 5498SOL    HW117393   0.695   5.243   1.675
 5498SOL    HW217394   0.767   5.265   1.820
 5499SOL     OW17395   1.706   0.496   4.803
 5499SOL    HW117396   1.662   0.465   4.888
 5499SOL    HW217397   1.795   0.452   4.793
 5500SOL     OW17398   2.681   1.090   0.833
 5500SOL    HW117399   2.752   1.024   0.855
 5500SOL    HW217400   2.611   1.047   0.776
 5501SOL     OW17401   3.747   3.577   6.555
 5501SOL    HW117402   3.788   3.555   6.467
 5501SOL    HW217403   3.649   3.593   6.543
 5502SOL     OW17404   4.355   2.683   6.623
 5502SOL    HW117405   4.258   2.658   6.618
 5502SOL    HW217406   4.408   2.606   6.659
 5503SOL     OW17407   6.747   4.180   0.869
 5503SOL    HW117408   6.795   4.159   0.954
 5503SOL    HW217409   6.687   4.259   0.883
 5504SOL     OW17410   3.247   1.920   6.453
 5504SOL    HW117411   3.241   1.829   6.411
 5504SOL    HW217412   3.260   1.911   6.551
 5505SOL     OW17413   2.785   5.030   3.937
 5505SOL    HW117414   2.748   5.123   3.945
 5505SOL    HW217415   2.711   4.967   3.916
 5506SOL     OW17416   0.592   3.465   5.980
 5506SOL    HW117417   0.558   3.466   6.074
 5506SOL    HW217418   0.679   3.416   5.976
 5507SOL     OW17419   2.444   6.806   0.040
 5507SOL    HW117420   2.446   6.828   6.967
 5507SOL    HW217421   2.537   6.796   0.074
 5508SOL     OW17422   0.045   0.859   6.202
 5508SOL    HW117423   0.138   0.854   6.236
 5508SOL    HW217424   7.015   0.785   6.242
 5509SOL     OW17425   0.073   4.945   0.913
 5509SOL    HW117426   0.031   4.859   0.884
 5509SOL    HW217427   0.081   5.006   0.834
 5510SOL     OW17428   4.100   5.151   0.146
 5510SOL    HW117429   4.033   5.183   0.213
 5510SOL    HW217430   4.100   5.213   0.067
 5511SOL     OW17431   0.872   1.869   5.564
 5511SOL    HW117432   0.947   1.880   5.630
 5511SOL    HW217433   0.864   1.953   5.510
 5512SOL     OW17434   3.103   0.779   2.278
 5512SOL    HW117435   3.075   0.731   2.361
 5512SOL    HW217436   3.028   0.838   2.247
 5513SOL     OW17437   3.744   4.170   6.939
 5513SOL    HW117438   3.710   4.261   6.964
 5513SOL    HW217439   3.782   4.173   6.847
 5514SOL     OW17440   3.189   1.091   0.200
 5514SOL    HW117441   3.153   1.029   0.269
 5514SOL    HW217442   3.196   1.044   0.113
 5515SOL     OW17443   2.857   5.988   2.539
 5515SOL    HW117444   2.928   6.055   2.519
 5515SOL    HW217445   2.873   5.948   2.630
 5516SOL     OW17446   2.499   2.352   5.476
 5516SOL    HW117447   2.464   2.288   5.544
 5516SOL    HW217448   2.595   2.372   5.495
 5517SOL     OW17449   1.282   3.067   3.221
 5517SOL    HW117450   1.381   3.053   3.213
 5517SOL    HW217451   1.256   3.062   3.318
 5518SOL     OW17452   4.293   4.752   6.355
 5518SOL    HW117453   4.245   4.683   6.409
 5518SOL    HW217454   4.232   4.828   6.335
 5519SOL     OW17455   4.700   2.814   3.350
 5519SOL    HW117456   4.721   2.837   3.445
 5519SOL    HW217457   4.721   2.892   3.291
 5520SOL     OW17458   4.797   6.749   1.562
 5520SOL    HW117459   4.829   6.781   1.473
 5520SOL    HW217460   4.820   6.818   1.631
 5521SOL     OW17461   5.367   5.814   1.877
 5521SOL    HW117462   5.308   5.872   1.933
 5521SOL    HW217463   5.326   5.799   1.787
 5522SOL     OW17464   5.850   5.971   1.026
 5522SOL    HW117465   5.929   5.934   1.074
 5522SOL    HW217466   5.766   5.937   1.068
 5523SOL     OW17467   5.753   1.419   1.781
 5523SOL    HW117468   5.692   1.343   1.805
 5523SOL    HW217469   5.820   1.387   1.714
 5524SOL     OW17470   3.076   1.704   4.214
 5524SOL    HW117471   3.022   1.757   4.279
 5524SOL    HW217472   3.030   1.618   4.194
 5525SOL     OW17473   6.281   1.291   1.614
 5525SOL    HW117474   6.344   1.368   1.605
 5525SOL    HW217475   6.200   1.307   1.559
 5526SOL     OW17476   5.032   4.474   3.727
 5526SOL    HW117477   4.991   4.383   3.741
 5526SOL    HW217478   5.068   4.507   3.814
 5527SOL     OW17479   5.740   1.384   3.514
 5527SOL    HW117480   5.828   1.385   3.466
 5527SOL    HW217481   5.682   1.457   3.478
 5528SOL     OW17482   1.141   1.332   0.581
 5528SOL    HW117483   1.110   1.427   0.575
 5528SOL    HW217484   1.178   1.303   0.493
 5529SOL     OW17485   3.620   0.345   2.279
 5529SOL    HW117486   3.649   0.432   2.320
 5529SOL    HW217487   3.522   0.349   2.259
 5530SOL     OW17488   6.468   2.167   0.813
 5530SOL    HW117489   6.548   2.126   0.856
 5530SOL    HW217490   6.393   2.102   0.812
 5531SOL     OW17491   2.138   3.751   1.257
 5531SOL    HW117492   2.064   3.767   1.323
 5531SOL    HW217493   2.197   3.678   1.291
 5532SOL     OW17494   1.471   3.042   0.556
 5532SOL    HW117495   1.561   3.085   0.547
 5532SOL    HW217496   1.400   3.112   0.555
 5533SOL     OW17497   3.523   1.832   2.723
 5533SOL    HW117498   3.619   1.809   2.737
 5533SOL    HW217499   3.466   1.752   2.741
 5534SOL     OW17500   1.259   0.524   4.646
 5534SOL    HW117501   1.225   0.464   4.573
 5534SOL    HW217502   1.272   0.471   4.729
 5535SOL     OW17503   0.573   1.972   3.721
 5535SOL    HW117504   0.515   2.033   3.775
 5535SOL    HW217505   0.548   1.978   3.624
 5536SOL     OW17506   4.026   6.334   4.095
 5536SOL    HW117507   4.103   6.277   4.124
 5536SOL    HW217508   4.058   6.403   4.030
 5537SOL     OW17509   2.879   1.308   3.399
 5537SOL    HW117510   2.832   1.385   3.357
 5537SOL    HW217511   2.904   1.241   3.329
 5538SOL     OW17512   4.224   5.235   4.997
 5538SOL    HW117513   4.218   5.261   4.901
 5538SOL    HW217514   4.191   5.142   5.010
 5539SOL     OW17515   2.672   4.301   0.609
 5539SOL    HW117516   2.581   4.280   0.643
 5539SOL    HW217517   2.677   4.283   0.511
 5540SOL     OW17518   5.397   5.154   1.504
 5540SOL    HW117519   5.423   5.250   1.501
 5540SOL    HW217520   5.472   5.098   1.468
 5541SOL     OW17521   4.330   1.532   5.661
 5541SOL    HW117522   4.240   1.496   5.682
 5541SOL    HW217523   4.354   1.508   5.567
 5542SOL     OW17524   5.132   4.674   6.277
 5542SOL    HW117525   5.185   4.717   6.349
 5542SOL    HW217526   5.079   4.598   6.314
 5543SOL     OW17527   0.129   2.044   6.370
 5543SOL    HW117528   0.169   2.132   6.393
 5543SOL    HW217529   0.029   2.052   6.366
 5544SOL     OW17530   5.648   1.026   0.103
 5544SOL    HW117531   5.742   1.042   0.133
 5544SOL    HW217532   5.602   0.965   0.168
 5545SOL     OW17533   2.688   2.496   1.788
 5545SOL    HW117534   2.768   2.501   1.848
 5545SOL    HW217535   2.612   2.455   1.838
 5546SOL     OW17536   2.812   4.730   5.558
 5546SOL    HW117537   2.724   4.721   5.603
 5546SOL    HW217538   2.800   4.726   5.459
 5547SOL     OW17539   3.694   6.230   4.832
 5547SOL    HW117540   3.609   6.190   4.800
 5547SOL    HW217541   3.771   6.191   4.781
 5548SOL     OW17542   0.099   2.796   5.510
 5548SOL    HW117543   0.014   2.742   5.511
 5548SOL    HW217544   0.100   2.855   5.430
 5549SOL     OW17545   3.516   4.342   6.867
 5549SOL    HW117546   3.450   4.416   6.854
 5549SOL    HW217547   3.499   4.296   6.954
 5550SOL     OW17548   3.442   6.894   2.369
 5550SOL    HW117549   3.477   6.981   2.403
 5550SOL    HW217550   3.342   6.899   2.361
 5551SOL     OW17551   0.618   1.240   3.245
 5551SOL    HW117552   0.696   1.232   3.307
 5551SOL    HW217553   0.651   1.257   3.152
 5552SOL     OW17554   0.583   2.991   0.659
 5552SOL    HW117555   0.536   2.923   0.604
 5552SOL    HW217556   0.672   3.011   0.619
 5553SOL     OW17557   5.200   6.403   6.849
 5553SOL    HW117558   5.225   6.308   6.830
 5553SOL    HW217559   5.217   6.424   6.946
 5554SOL     OW17560   2.884   1.728   4.871
 5554SOL    HW117561   2.826   1.647   4.865
 5554SOL    HW217562   2.835   1.801   4.918
 5555SOL     OW17563   0.357   6.305   2.192
 5555SOL    HW117564   0.288   6.364   2.150
 5555SOL    HW217565   0.361   6.322   2.290
 5556SOL     OW17566   0.684   1.023   4.209
 5556SOL    HW117567   0.775   0.984   4.197
 5556SOL    HW217568   0.650   0.999   4.300
 5557SOL     OW17569   2.657   0.706   3.606
 5557SOL    HW117570   2.588   0.649   3.650
 5557SOL    HW217571   2.612   0.778   3.553
 5558SOL     OW17572   5.476   2.637   4.537
 5558SOL    HW117573   5.497   2.582   4.456
 5558SOL    HW217574   5.546   2.621   4.607
 5559SOL     OW17575   2.378   0.293   1.161
 5559SOL    HW117576   2.344   0.386   1.150
 5559SOL    HW217577   2.343   0.254   1.246
 5560SOL     OW17578   0.118   0.658   4.481
 5560SOL    HW117579   0.096   0.570   4.523
 5560SOL    HW217580   0.185   0.707   4.537
 5561SOL     OW17581   1.402   4.095   2.854
 5561SOL    HW117582   1.458   4.021   2.891
 5561SOL    HW217583   1.461   4.173   2.833
 5562SOL     OW17584   2.638   2.836   5.921
 5562SOL    HW117585   2.580   2.849   6.002
 5562SOL    HW217586   2.599   2.764   5.864
 5563SOL     OW17587   4.351   4.066   1.639
 5563SOL    HW117588   4.351   4.127   1.559
 5563SOL    HW217589   4.375   4.119   1.720
 5564SOL     OW17590   6.214   3.893   1.573
 5564SOL    HW117591   6.265   3.970   1.535
 5564SOL    HW217592   6.123   3.924   1.602
 5565SOL     OW17593   3.088   2.805   5.313
 5565SOL    HW117594   3.001   2.756   5.312
 5565SOL    HW217595   3.081   2.885   5.373
 5566SOL     OW17596   1.966   4.947   0.594
 5566SOL    HW117597   1.915   4.864   0.569
 5566SOL    HW217598   1.903   5.013   0.635
 5567SOL     OW17599   1.946   5.825   3.406
 5567SOL    HW117600   2.034   5.779   3.394
 5567SOL    HW217601   1.872   5.757   3.406
 5568SOL     OW17602   4.119   2.093   1.057
 5568SOL    HW117603   4.116   2.161   0.984
 5568SOL    HW217604   4.213   2.063   1.071
 5569SOL     OW17605   5.515   2.406   0.021
 5569SOL    HW117606   5.516   2.453   6.956
 5569SOL    HW217607   5.589   2.443   0.077
 5570SOL     OW17608   0.256   3.718   5.893
 5570SOL    HW117609   0.172   3.768   5.874
 5570SOL    HW217610   0.335   3.775   5.872
 5571SOL     OW17611   6.739   4.728   6.498
 5571SOL    HW117612   6.678   4.660   6.538
 5571SOL    HW217613   6.809   4.683   6.443
 5572SOL     OW17614   5.551   2.549   5.230
 5572SOL    HW117615   5.561   2.532   5.132
 5572SOL    HW217616   5.509   2.469   5.273
 5573SOL     OW17617   1.181   4.080   0.615
 5573SOL    HW117618   1.091   4.071   0.657
 5573SOL    HW217619   1.186   4.167   0.567
 5574SOL     OW17620   0.309   5.692   4.529
 5574SOL    HW117621   0.300   5.665   4.625
 5574SOL    HW217622   0.240   5.645   4.475
 5575SOL     OW17623   1.332   0.941   1.464
 5575SOL    HW117624   1.364   0.909   1.552
 5575SOL    HW217625   1.315   0.863   1.403
 5576SOL     OW17626   6.068   5.599   0.458
 5576SOL    HW117627   6.041   5.531   0.390
 5576SOL    HW217628   6.168   5.600   0.465
 5577SOL     OW17629   2.080   3.841   4.989
 5577SOL    HW117630   2.138   3.910   4.947
 5577SOL    HW217631   2.132   3.791   5.059
 5578SOL     OW17632   3.351   1.738   5.724
 5578SOL    HW117633   3.449   1.715   5.729
 5578SOL    HW217634   3.297   1.656   5.741
 5579SOL     OW17635   5.090   4.948   1.377
 5579SOL    HW117636   4.994   4.953   1.352
 5579SOL    HW217637   5.112   5.023   1.440
 5580SOL     OW17638   4.929   0.524   1.443
 5580SOL    HW117639   4.833   0.541   1.424
 5580SOL    HW217640   4.976   0.496   1.359
 5581SOL     OW17641   2.324   2.592   0.746
 5581SOL    HW117642   2.224   2.590   0.751
 5581SOL    HW217643   2.361   2.511   0.793
 5582SOL     OW17644   4.110   3.406   3.586
 5582SOL    HW117645   4.194   3.414   3.533
 5582SOL    HW217646   4.066   3.496   3.592
 5583SOL     OW17647   3.977   0.773   0.509
 5583SOL    HW117648   4.056   0.794   0.452
 5583SOL    HW217649   3.985   0.821   0.596
 5584SOL     OW17650   5.731   3.185   2.898
 5584SOL    HW117651   5.778   3.187   2.986
 5584SOL    HW217652   5.699   3.276   2.875
 5585SOL     OW17653   6.705   6.732   4.448
 5585SOL    HW117654   6.764   6.804   4.412
 5585SOL    HW217655   6.670   6.677   4.372
 5586SOL     OW17656   2.287   1.693   6.476
 5586SOL    HW117657   2.326   1.608   6.440
 5586SOL    HW217658   2.189   1.681   6.491
 5587SOL     OW17659   3.663   6.859   3.685
 5587SOL    HW117660   3.648   6.958   3.677
 5587SOL    HW217661   3.761   6.841   3.691
 5588SOL     OW17662   4.376   0.506   5.970
 5588SOL    HW117663   4.467   0.474   5.997
 5588SOL    HW217664   4.308   0.435   5.990
 5589SOL     OW17665   3.494   3.650   6.442
 5589SOL    HW117666   3.427   3.721   6.464
 5589SOL    HW217667   3.450   3.576   6.392
 5590SOL     OW17668   6.767   6.821   3.549
 5590SOL    HW117669   6.851   6.864   3.515
 5590SOL    HW217670   6.788   6.767   3.631
 5591SOL     OW17671   5.084   0.293   0.104
 5591SOL    HW117672   5.090   0.223   0.033
 5591SOL    HW217673   5.151   0.275   0.175
 5592SOL     OW17674   2.167   1.867   2.065
 5592SOL    HW117675   2.203   1.776   2.043
 5592SOL    HW217676   2.209   1.899   2.150
 5593SOL     OW17677   1.984   3.592   4.761
 5593SOL    HW117678   1.924   3.659   4.716
 5593SOL    HW217679   2.013   3.628   4.849
 5594SOL     OW17680   2.393   1.389   6.733
 5594SOL    HW117681   2.316   1.440   6.770
 5594SOL    HW217682   2.367   1.293   6.718
 5595SOL     OW17683   0.319   1.436   5.907
 5595SOL    HW117684   0.266   1.518   5.886
 5595SOL    HW217685   0.399   1.431   5.847
 5596SOL     OW17686   5.201   1.983   3.326
 5596SOL    HW117687   5.112   2.009   3.364
 5596SOL    HW217688   5.205   1.883   3.316
 5597SOL     OW17689   0.704   1.084   6.108
 5597SOL    HW117690   0.736   1.178   6.100
 5597SOL    HW217691   0.641   1.076   6.185
 5598SOL     OW17692   6.736   2.195   4.323
 5598SOL    HW117693   6.756   2.255   4.245
 5598SOL    HW217694   6.638   2.174   4.324
 5599SOL     OW17695   4.902   2.670   2.953
 5599SOL    HW117696   4.879   2.698   2.860
 5599SOL    HW217697   4.838   2.713   3.017
 5600SOL     OW17698   2.017   2.095   2.006
 5600SOL    HW117699   2.026   2.002   2.041
 5600SOL    HW217700   2.036   2.161   2.079
 5601SOL     OW17701   5.702   3.110   6.175
 5601SOL    HW117702   5.726   3.033   6.116
 5601SOL    HW217703   5.642   3.173   6.125
 5602SOL     OW17704   6.552   2.083   2.105
 5602SOL    HW117705   6.550   2.002   2.164
 5602SOL    HW217706   6.642   2.127   2.112
 5603SOL     OW17707   4.066   1.868   6.015
 5603SOL    HW117708   4.128   1.945   6.032
 5603SOL    HW217709   3.972   1.901   6.011
 5604SOL     OW17710   1.327   6.176   3.533
 5604SOL    HW117711   1.363   6.236   3.605
 5604SOL    HW217712   1.236   6.207   3.505
 5605SOL     OW17713   4.229   6.999   4.342
 5605SOL    HW117714   4.291   0.017   4.408
 5605SOL    HW217715   4.279   6.931   4.288
 5606SOL     OW17716   5.068   2.896   0.374
 5606SOL    HW117717   4.986   2.952   0.385
 5606SOL    HW217718   5.133   2.918   0.447
 5607SOL     OW17719   6.714   2.134   3.024
 5607SOL    HW117720   6.763   2.186   2.954
 5607SOL    HW217721   6.659   2.197   3.080
 5608SOL     OW17722   5.122   0.635   2.992
 5608SOL    HW117723   5.085   0.542   2.983
 5608SOL    HW217724   5.069   0.685   3.060
 5609SOL     OW17725   6.623   0.649   0.421
 5609SOL    HW117726   6.611   0.638   0.322
 5609SOL    HW217727   6.717   0.625   0.446
 5610SOL     OW17728   5.878   5.746   0.054
 5610SOL    HW117729   5.869   5.748   6.979
 5610SOL    HW217730   5.902   5.654   0.083
 5611SOL     OW17731   6.116   4.542   1.979
 5611SOL    HW117732   6.019   4.517   1.980
 5611SOL    HW217733   6.166   4.482   2.041
 5612SOL     OW17734   3.927   1.761   0.220
 5612SOL    HW117735   3.967   1.852   0.229
 5612SOL    HW217736   3.999   1.692   0.231
 5613SOL     OW17737   5.852   5.216   6.057
 5613SOL    HW117738   5.930   5.259   6.101
 5613SOL    HW217739   5.882   5.138   6.002
 5614SOL     OW17740   5.017   2.950   3.957
 5614SOL    HW117741   5.017   2.925   3.860
 5614SOL    HW217742   5.099   2.912   4.001
 5615SOL     OW17743   0.459   2.734   3.208
 5615SOL    HW117744   0.481   2.796   3.284
 5615SOL    HW217745   0.529   2.662   3.203
 5616SOL     OW17746   2.129   3.331   2.429
 5616SOL    HW117747   2.160   3.245   2.471
 5616SOL    HW217748   2.112   3.315   2.331
 5617SOL     OW17749   1.352   4.459   6.566
 5617SOL    HW117750   1.378   4.508   6.649
 5617SOL    HW217751   1.434   4.419   6.525
 5618SOL     OW17752   5.234   6.500   2.119
 5618SOL    HW117753   5.223   6.514   2.217
 5618SOL    HW217754   5.199   6.579   2.070
 5619SOL     OW17755   3.554   3.267   3.825
 5619SOL    HW117756   3.593   3.247   3.735
 5619SOL    HW217757   3.623   3.253   3.895
 5620SOL     OW17758   4.954   4.456   4.030
 5620SOL    HW117759   5.028   4.400   4.067
 5620SOL    HW217760   4.866   4.415   4.054
 5621SOL     OW17761   0.878   2.556   6.645
 5621SOL    HW117762   0.836   2.537   6.734
 5621SOL    HW217763   0.806   2.571   6.577
 5622SOL     OW17764   4.946   5.246   4.445
 5622SOL    HW117765   4.866   5.272   4.392
 5622SOL    HW217766   4.975   5.323   4.502
 5623SOL     OW17767   4.536   4.910   4.173
 5623SOL    HW117768   4.516   4.880   4.080
 5623SOL    HW217769   4.464   4.877   4.234
 5624SOL     OW17770   4.977   4.873   3.389
 5624SOL    HW117771   4.887   4.836   3.367
 5624SOL    HW217772   5.006   4.933   3.315
 5625SOL     OW17773   2.598   6.390   6.127
 5625SOL    HW117774   2.514   6.336   6.114
 5625SOL    HW217775   2.574   6.487   6.137
 5626SOL     OW17776   0.180   4.928   6.817
 5626SOL    HW117777   0.218   4.891   6.901
 5626SOL    HW217778   0.230   4.890   6.739
 5627SOL     OW17779   1.402   5.711   6.928
 5627SOL    HW117780   1.471   5.692   6.859
 5627SOL    HW217781   1.315   5.668   6.901
 5628SOL     OW17782   2.325   3.892   0.478
 5628SOL    HW117783   2.234   3.885   0.519
 5628SOL    HW217784   2.395   3.883   0.549
 5629SOL     OW17785   6.894   3.509   3.080
 5629SOL    HW117786   6.925   3.414   3.084
 5629SOL    HW217787   6.799   3.514   3.112
 5630SOL     OW17788   1.073   3.944   0.094
 5630SOL    HW117789   0.977   3.969   0.104
 5630SOL    HW217790   1.121   4.015   0.042
 5631SOL     OW17791   4.119   1.529   1.822
 5631SOL    HW117792   4.076   1.581   1.896
 5631SOL    HW217793   4.175   1.591   1.767
 5632SOL     OW17794   4.965   0.124   5.613
 5632SOL    HW117795   5.019   0.089   5.536
 5632SOL    HW217796   4.948   0.222   5.600
 5633SOL     OW17797   1.133   5.510   5.561
 5633SOL    HW117798   1.206   5.445   5.583
 5633SOL    HW217799   1.065   5.466   5.503
 5634SOL     OW17800   3.001   0.553   1.685
 5634SOL    HW117801   3.073   0.486   1.664
 5634SOL    HW217802   3.022   0.639   1.640
 5635SOL     OW17803   3.559   0.935   1.636
 5635SOL    HW117804   3.543   0.856   1.576
 5635SOL    HW217805   3.571   0.902   1.730
 5636SOL     OW17806   4.902   0.831   5.739
 5636SOL    HW117807   4.978   0.799   5.795
 5636SOL    HW217808   4.937   0.872   5.655
 5637SOL     OW17809   4.368   0.080   4.564
 5637SOL    HW117810   4.364   0.172   4.604
 5637SOL    HW217811   4.290   0.027   4.596
 5638SOL     OW17812   6.956   5.414   1.136
 5638SOL    HW117813   6.929   5.324   1.102
 5638SOL    HW217814   6.881   5.479   1.122
 5639SOL     OW17815   2.322   0.056   1.643
 5639SOL    HW117816   2.407   0.007   1.657
 5639SOL    HW217817   2.244   7.018   1.654
 5640SOL     OW17818   3.489   6.787   3.043
 5640SOL    HW117819   3.487   6.687   3.045
 5640SOL    HW217820   3.397   6.823   3.061
 5641SOL     OW17821   6.784   4.201   4.051
 5641SOL    HW117822   6.845   4.137   4.005
 5641SOL    HW217823   6.732   4.153   4.122
 5642SOL     OW17824   2.303   3.732   6.698
 5642SOL    HW117825   2.274   3.812   6.645
 5642SOL    HW217826   2.227   3.702   6.756
 5643SOL     OW17827   5.882   1.901   4.288
 5643SOL    HW117828   5.806   1.844   4.258
 5643SOL    HW217829   5.963   1.879   4.233
 5644SOL     OW17830   3.854   0.470   4.893
 5644SOL    HW117831   3.936   0.525   4.909
 5644SOL    HW217832   3.776   0.513   4.938
 5645SOL     OW17833   6.965   5.891   3.965
 5645SOL    HW117834   6.904   5.830   3.914
 5645SOL    HW217835   7.014   5.838   4.035
 5646SOL     OW17836   6.981   6.174   4.050
 5646SOL    HW117837   6.982   6.211   3.957
 5646SOL    HW217838   6.951   6.078   4.047
 5647SOL     OW17839   6.869   5.185   6.570
 5647SOL    HW117840   6.948   5.217   6.518
 5647SOL    HW217841   6.785   5.200   6.517
 5648SOL     OW17842   2.111   1.232   4.917
 5648SOL    HW117843   2.111   1.205   5.013
 5648SOL    HW217844   2.017   1.245   4.886
 5649SOL     OW17845   1.459   0.066   4.900
 5649SOL    HW117846   1.550   0.032   4.875
 5649SOL    HW217847   1.446   0.157   4.861
 5650SOL     OW17848   6.567   4.938   6.664
 5650SOL    HW117849   6.601   4.945   6.570
 5650SOL    HW217850   6.489   4.876   6.667
 5651SOL     OW17851   5.948   0.900   2.845
 5651SOL    HW117852   6.016   0.928   2.777
 5651SOL    HW217853   5.875   0.849   2.800
 5652SOL     OW17854   5.770   3.841   0.413
 5652SOL    HW117855   5.842   3.774   0.428
 5652SOL    HW217856   5.690   3.796   0.371
 5653SOL     OW17857   2.392   6.538   0.017
 5653SOL    HW117858   2.409   6.632   0.046
 5653SOL    HW217859   2.308   6.535   6.987
 5654SOL     OW17860   0.692   6.072   6.074
 5654SOL    HW117861   0.746   6.092   5.992
 5654SOL    HW217862   0.655   6.158   6.111
 5655SOL     OW17863   0.020   4.745   3.076
 5655SOL    HW117864   0.066   4.656   3.081
 5655SOL    HW217865   0.073   4.812   3.127
 5656SOL     OW17866   3.633   5.419   5.888
 5656SOL    HW117867   3.536   5.400   5.874
 5656SOL    HW217868   3.643   5.497   5.951
 5657SOL     OW17869   4.144   5.620   2.018
 5657SOL    HW117870   4.231   5.644   1.975
 5657SOL    HW217871   4.141   5.658   2.111
 5658SOL     OW17872   5.074   6.932   5.039
 5658SOL    HW117873   5.067   6.845   4.990
 5658SOL    HW217874   5.001   6.938   5.107
 5659SOL     OW17875   3.397   4.121   2.771
 5659SOL    HW117876   3.388   4.142   2.868
 5659SOL    HW217877   3.309   4.087   2.737
 5660SOL     OW17878   6.349   6.743   0.587
 5660SOL    HW117879   6.415   6.810   0.556
 5660SOL    HW217880   6.268   6.789   0.622
 5661SOL     OW17881   6.428   5.571   4.844
 5661SOL    HW117882   6.356   5.556   4.912
 5661SOL    HW217883   6.497   5.499   4.853
 5662SOL     OW17884   2.047   3.732   4.236
 5662SOL    HW117885   2.120   3.788   4.276
 5662SOL    HW217886   1.972   3.723   4.301
 5663SOL     OW17887   1.936   3.488   0.392
 5663SOL    HW117888   1.928   3.521   0.486
 5663SOL    HW217889   1.903   3.559   0.330
 5664SOL     OW17890   0.192   5.226   2.273
 5664SOL    HW117891   0.173   5.197   2.179
 5664SOL    HW217892   0.121   5.190   2.334
 5665SOL     OW17893   1.666   1.323   6.228
 5665SOL    HW117894   1.659   1.392   6.300
 5665SOL    HW217895   1.753   1.335   6.180
 5666SOL     OW17896   5.942   5.467   0.105
 5666SOL    HW117897   5.877   5.392   0.119
 5666SOL    HW217898   6.005   5.472   0.182
 5667SOL     OW17899   6.925   6.239   3.679
 5667SOL    HW117900   6.916   6.139   3.687
 5667SOL    HW217901   7.021   6.265   3.682
 5668SOL     OW17902   5.780   2.932   5.987
 5668SOL    HW117903   5.826   2.934   5.899
 5668SOL    HW217904   5.773   2.837   6.018
 5669SOL     OW17905   6.886   3.235   5.144
 5669SOL    HW117906   6.885   3.147   5.191
 5669SOL    HW217907   6.950   3.296   5.191
 5670SOL     OW17908   1.778   3.630   2.880
 5670SOL    HW117909   1.845   3.705   2.873
 5670SOL    HW217910   1.686   3.666   2.869
 5671SOL     OW17911   1.669   1.096   4.978
 5671SOL    HW117912   1.718   1.131   5.058
 5671SOL    HW217913   1.674   1.163   4.904
 5672SOL     OW17914   5.380   4.529   5.678
 5672SOL    HW117915   5.446   4.593   5.719
 5672SOL    HW217916   5.394   4.526   5.579
 5673SOL     OW17917   1.816   0.689   1.852
 5673SOL    HW117918   1.898   0.730   1.892
 5673SOL    HW217919   1.743   0.758   1.849
 5674SOL     OW17920   6.873   3.567   1.230
 5674SOL    HW117921   6.927   3.492   1.267
 5674SOL    HW217922   6.776   3.542   1.230
 5675SOL     OW17923   4.076   2.072   5.362
 5675SOL    HW117924   4.160   2.122   5.383
 5675SOL    HW217925   4.009   2.134   5.322
 5676SOL     OW17926   3.378   6.754   1.606
 5676SOL    HW117927   3.401   6.780   1.700
 5676SOL    HW217928   3.460   6.719   1.561
 5677SOL     OW17929   0.152   0.773   4.235
 5677SOL    HW117930   0.141   0.726   4.323
 5677SOL    HW217931   0.222   0.727   4.181
 5678SOL     OW17932   2.008   4.927   3.542
 5678SOL    HW117933   1.915   4.891   3.553
 5678SOL    HW217934   2.048   4.943   3.632
 5679SOL     OW17935   2.904   6.008   5.521
 5679SOL    HW117936   2.806   6.023   5.507
 5679SOL    HW217937   2.918   5.941   5.594
 5680SOL     OW17938   2.162   6.874   6.079
 5680SOL    HW117939   2.112   6.940   6.022
 5680SOL    HW217940   2.168   6.909   6.172
 5681SOL     OW17941   2.029   3.930   0.505
 5681SOL    HW117942   1.983   4.012   0.539
 5681SOL    HW217943   1.966   3.877   0.449
 5682SOL     OW17944   0.635   3.446   3.740
 5682SOL    HW117945   0.578   3.527   3.750
 5682SOL    HW217946   0.619   3.385   3.818
 5683SOL     OW17947   3.720   3.117   5.007
 5683SOL    HW117948   3.802   3.084   5.055
 5683SOL    HW217949   3.746   3.188   4.941
 5684SOL     OW17950   3.031   3.228   3.392
 5684SOL    HW117951   2.935   3.250   3.404
 5684SOL    HW217952   3.085   3.277   3.461
 5685SOL     OW17953   0.921   5.608   2.410
 5685SOL    HW117954   0.940   5.584   2.506
 5685SOL    HW217955   0.929   5.707   2.398
 5686SOL     OW17956   3.366   5.548   0.106
 5686SOL    HW117957   3.353   5.491   0.186
 5686SOL    HW217958   3.462   5.547   0.080
 5687SOL     OW17959   4.748   5.203   5.649
 5687SOL    HW117960   4.816   5.260   5.604
 5687SOL    HW217961   4.730   5.122   5.595
 5688SOL     OW17962   6.186   2.029   2.518
 5688SOL    HW117963   6.247   1.978   2.579
 5688SOL    HW217964   6.128   1.965   2.468
 5689SOL     OW17965   4.277   2.329   6.325
 5689SOL    HW117966   4.347   2.325   6.397
 5689SOL    HW217967   4.298   2.404   6.262
 5690SOL     OW17968   4.836   6.581   1.990
 5690SOL    HW117969   4.889   6.573   1.905
 5690SOL    HW217970   4.772   6.505   1.996
 5691SOL     OW17971   1.835   0.237   2.659
 5691SOL    HW117972   1.770   0.285   2.599
 5691SOL    HW217973   1.858   0.148   2.620
 5692SOL     OW17974   6.250   2.949   0.407
 5692SOL    HW117975   6.251   2.864   0.355
 5692SOL    HW217976   6.238   3.026   0.344
 5693SOL     OW17977   4.576   2.624   2.889
 5693SOL    HW117978   4.621   2.672   2.814
 5693SOL    HW217979   4.485   2.596   2.860
 5694SOL     OW17980   1.361   1.948   4.375
 5694SOL    HW117981   1.329   1.871   4.320
 5694SOL    HW217982   1.447   1.983   4.338
 5695SOL     OW17983   1.441   3.608   3.609
 5695SOL    HW117984   1.454   3.609   3.510
 5695SOL    HW217985   1.488   3.686   3.650
 5696SOL     OW17986   3.803   0.172   5.785
 5696SOL    HW117987   3.726   0.233   5.803
 5696SOL    HW217988   3.769   0.081   5.763
 5697SOL     OW17989   6.609   3.345   7.010
 5697SOL    HW117990   6.615   3.444   7.022
 5697SOL    HW217991   6.524   3.322   6.963
 5698SOL     OW17992   1.034   4.168   2.254
 5698SOL    HW117993   1.063   4.171   2.349
 5698SOL    HW217994   1.092   4.104   2.203
 5699SOL     OW17995   6.474   1.370   4.730
 5699SOL    HW117996   6.381   1.405   4.728
 5699SOL    HW217997   6.523   1.409   4.808
 5700SOL     OW17998   0.911   5.015   3.447
 5700SOL    HW117999   0.984   5.010   3.515
 5700SOL    HW218000   0.844   5.085   3.473
 5701SOL     OW18001   5.186   5.073   1.645
 5701SOL    HW118002   5.153   5.128   1.721
 5701SOL    HW218003   5.273   5.110   1.612
 5702SOL     OW18004   1.847   0.582   6.535
 5702SOL    HW118005   1.810   0.673   6.553
 5702SOL    HW218006   1.924   0.589   6.470
 5703SOL     OW18007   4.384   4.659   0.786
 5703SOL    HW118008   4.448   4.655   0.863
 5703SOL    HW218009   4.295   4.623   0.815
 5704SOL     OW18010   4.082   5.674   4.043
 5704SOL    HW118011   4.144   5.748   4.068
 5704SOL    HW218012   4.042   5.693   3.953
 5705SOL     OW18013   6.141   1.503   2.588
 5705SOL    HW118014   6.180   1.468   2.674
 5705SOL    HW218015   6.210   1.497   2.516
 5706SOL     OW18016   1.820   1.132   6.478
 5706SOL    HW118017   1.786   1.151   6.570
 5706SOL    HW218018   1.841   1.218   6.432
 5707SOL     OW18019   3.384   2.218   6.105
 5707SOL    HW118020   3.383   2.305   6.055
 5707SOL    HW218021   3.448   2.155   6.060
 5708SOL     OW18022   5.712   6.957   1.909
 5708SOL    HW118023   5.675   6.959   2.001
 5708SOL    HW218024   5.794   7.014   1.904
 5709SOL     OW18025   1.034   0.993   3.302
 5709SOL    HW118026   1.022   0.897   3.274
 5709SOL    HW218027   0.946   1.030   3.330
 5710SOL     OW18028   2.944   4.494   6.139
 5710SOL    HW118029   2.965   4.434   6.061
 5710SOL    HW218030   2.885   4.445   6.203
 5711SOL     OW18031   4.374   1.627   4.162
 5711SOL    HW118032   4.274   1.625   4.156
 5711SOL    HW218033   4.411   1.676   4.083
 5712SOL     OW18034   6.899   5.667   6.726
 5712SOL    HW118035   6.969   5.642   6.792
 5712SOL    HW218036   6.918   5.624   6.638
 5713SOL     OW18037   0.110   1.843   3.488
 5713SOL    HW118038   0.174   1.809   3.557
 5713SOL    HW218039   0.116   1.785   3.406
 5714SOL     OW18040   1.969   0.959   6.769
 5714SOL    HW118041   2.058   0.986   6.805
 5714SOL    HW218042   1.975   0.948   6.669
 5715SOL     OW18043   1.823   0.336   3.290
 5715SOL    HW118044   1.862   0.394   3.362
 5715SOL    HW218045   1.743   0.382   3.251
 5716SOL     OW18046   2.109   3.006   5.519
 5716SOL    HW118047   2.180   2.977   5.455
 5716SOL    HW218048   2.150   3.050   5.598
 5717SOL     OW18049   0.530   4.076   0.422
 5717SOL    HW118050   0.437   4.111   0.432
 5717SOL    HW218051   0.571   4.114   0.339
 5718SOL     OW18052   2.016   4.710   5.445
 5718SOL    HW118053   2.104   4.703   5.491
 5718SOL    HW218054   1.993   4.623   5.401
 5719SOL     OW18055   2.888   0.573   6.530
 5719SOL    HW118056   2.883   0.493   6.470
 5719SOL    HW218057   2.875   0.545   6.625
 5720SOL     OW18058   2.326   5.000   4.013
 5720SOL    HW118059   2.357   5.087   3.976
 5720SOL    HW218060   2.290   5.014   4.105
 5721SOL     OW18061   0.875   4.692   1.773
 5721SOL    HW118062   0.784   4.673   1.812
 5721SOL    HW218063   0.941   4.627   1.811
 5722SOL     OW18064   5.076   0.880   3.774
 5722SOL    HW118065   5.105   0.784   3.784
 5722SOL    HW218066   4.980   0.888   3.799
 5723SOL     OW18067   1.528   4.771   1.189
 5723SOL    HW118068   1.587   4.823   1.251
 5723SOL    HW218069   1.582   4.699   1.144
 5724SOL     OW18070   4.863   1.789   6.890
 5724SOL    HW118071   4.941   1.840   6.926
 5724SOL    HW218072   4.790   1.854   6.867
 5725SOL     OW18073   5.336   5.823   6.076
 5725SOL    HW118074   5.254   5.771   6.052
 5725SOL    HW218075   5.411   5.797   6.015
 5726SOL     OW18076   4.665   3.148   6.143
 5726SOL    HW118077   4.609   3.117   6.066
 5726SOL    HW218078   4.745   3.196   6.109
 5727SOL     OW18079   5.819   1.632   3.889
 5727SOL    HW118080   5.801   1.544   3.845
 5727SOL    HW218081   5.801   1.706   3.824
 5728SOL     OW18082   5.832   0.795   6.363
 5728SOL    HW118083   5.839   0.778   6.461
 5728SOL    HW218084   5.922   0.785   6.321
 5729SOL     OW18085   0.647   2.956   5.315
 5729SOL    HW118086   0.692   2.877   5.274
 5729SOL    HW218087   0.685   3.040   5.276
 5730SOL     OW18088   4.386   5.358   6.889
 5730SOL    HW118089   4.352   5.452   6.895
 5730SOL    HW218090   4.471   5.350   6.941
 5731SOL     OW18091   3.681   1.063   4.619
 5731SOL    HW118092   3.670   1.004   4.539
 5731SOL    HW218093   3.709   1.008   4.698
 5732SOL     OW18094   5.842   4.391   3.956
 5732SOL    HW118095   5.866   4.322   4.025
 5732SOL    HW218096   5.835   4.480   3.999
 5733SOL     OW18097   3.104   0.126   0.601
 5733SOL    HW118098   3.155   0.058   0.548
 5733SOL    HW218099   3.168   0.187   0.648
 5734SOL     OW18100   2.431   5.795   6.471
 5734SOL    HW118101   2.489   5.806   6.391
 5734SOL    HW218102   2.418   5.698   6.491
 5735SOL     OW18103   4.938   0.470   2.096
 5735SOL    HW118104   4.960   0.406   2.022
 5735SOL    HW218105   4.876   0.425   2.160
 5736SOL     OW18106   5.607   4.085   0.348
 5736SOL    HW118107   5.678   4.155   0.354
 5736SOL    HW218108   5.649   3.995   0.362
 5737SOL     OW18109   4.140   5.188   1.103
 5737SOL    HW118110   4.154   5.284   1.128
 5737SOL    HW218111   4.136   5.132   1.185
 5738SOL     OW18112   2.963   0.516   0.572
 5738SOL    HW118113   2.982   0.494   0.476
 5738SOL    HW218114   3.031   0.472   0.630
 5739SOL     OW18115   2.001   0.779   5.787
 5739SOL    HW118116   1.972   0.744   5.698
 5739SOL    HW218117   2.027   0.875   5.778
 5740SOL     OW18118   4.748   3.441   1.656
 5740SOL    HW118119   4.843   3.426   1.630
 5740SOL    HW218120   4.695   3.358   1.638
 5741SOL     OW18121   0.778   3.657   4.061
 5741SOL    HW118122   0.689   3.613   4.074
 5741SOL    HW218123   0.813   3.636   3.970
 5742SOL     OW18124   4.972   0.362   3.077
 5742SOL    HW118125   5.029   0.288   3.041
 5742SOL    HW218126   4.876   0.333   3.076
 5743SOL     OW18127   3.875   4.899   0.327
 5743SOL    HW118128   3.964   4.870   0.363
 5743SOL    HW218129   3.803   4.858   0.383
 5744SOL     OW18130   5.044   6.755   2.871
 5744SOL    HW118131   5.077   6.698   2.946
 5744SOL    HW218132   4.949   6.731   2.851
 5745SOL     OW18133   1.566   2.620   2.011
 5745SOL    HW118134   1.666   2.620   2.016
 5745SOL    HW218135   1.537   2.606   1.917
 5746SOL     OW18136   4.871   6.933   3.240
 5746SOL    HW118137   4.803   6.929   3.167
 5746SOL    HW218138   4.884   6.842   3.279
 5747SOL     OW18139   0.797   6.366   0.847
 5747SOL    HW118140   0.826   6.371   0.942
 5747SOL    HW218141   0.823   6.450   0.800
 5748SOL     OW18142   0.066   5.952   0.651
 5748SOL    HW118143   0.040   5.880   0.715
 5748SOL    HW218144   0.117   6.023   0.699
 5749SOL     OW18145   1.656   5.670   6.352
 5749SOL    HW118146   1.638   5.768   6.341
 5749SOL    HW218147   1.592   5.617   6.296
 5750SOL     OW18148   6.656   3.491   3.771
 5750SOL    HW118149   6.645   3.577   3.821
 5750SOL    HW218150   6.569   3.469   3.726
 5751SOL     OW18151   1.618   3.708   4.760
 5751SOL    HW118152   1.695   3.755   4.718
 5751SOL    HW218153   1.585   3.762   4.837
 5752SOL     OW18154   4.733   0.200   1.064
 5752SOL    HW118155   4.768   0.292   1.085
 5752SOL    HW218156   4.804   0.147   1.019
 5753SOL     OW18157   3.756   4.227   5.217
 5753SOL    HW118158   3.808   4.151   5.178
 5753SOL    HW218159   3.658   4.208   5.210
 5754SOL     OW18160   0.819   5.815   1.564
 5754SOL    HW118161   0.794   5.762   1.645
 5754SOL    HW218162   0.765   5.899   1.561
 5755SOL     OW18163   1.045   2.127   6.588
 5755SOL    HW118164   1.139   2.092   6.585
 5755SOL    HW218165   1.047   2.227   6.597
 5756SOL     OW18166   5.695   6.153   1.210
 5756SOL    HW118167   5.756   6.158   1.130
 5756SOL    HW218168   5.600   6.144   1.179
 5757SOL     OW18169   6.619   0.459   4.327
 5757SOL    HW118170   6.618   0.558   4.342
 5757SOL    HW218171   6.699   0.420   4.372
 5758SOL     OW18172   6.189   6.934   3.007
 5758SOL    HW118173   6.091   6.933   3.026
 5758SOL    HW218174   6.231   6.854   3.049
 5759SOL     OW18175   3.705   7.004   1.000
 5759SOL    HW118176   3.727   6.952   0.918
 5759SOL    HW218177   3.781   0.040   1.022
 5760SOL     OW18178   1.185   3.167   0.808
 5760SOL    HW118179   1.128   3.162   0.889
 5760SOL    HW218180   1.168   3.088   0.750
 5761SOL     OW18181   6.037   0.073   4.260
 5761SOL    HW118182   6.046   0.145   4.329
 5761SOL    HW218183   5.979   7.024   4.295
 5762SOL     OW18184   6.450   5.717   6.654
 5762SOL    HW118185   6.518   5.686   6.720
 5762SOL    HW218186   6.367   5.661   6.662
 5763SOL     OW18187   6.124   6.960   6.765
 5763SOL    HW118188   6.085   6.868   6.775
 5763SOL    HW218189   6.081   7.021   6.831
 5764SOL     OW18190   4.883   6.801   3.784
 5764SOL    HW118191   4.850   6.707   3.792
 5764SOL    HW218192   4.823   6.862   3.836
 5765SOL     OW18193   5.909   5.405   2.176
 5765SOL    HW118194   5.821   5.359   2.187
 5765SOL    HW218195   5.911   5.454   2.089
 5766SOL     OW18196   0.093   1.553   4.265
 5766SOL    HW118197   0.091   1.453   4.253
 5766SOL    HW218198   0.176   1.578   4.316
 5767SOL     OW18199   3.466   6.759   6.711
 5767SOL    HW118200   3.455   6.789   6.616
 5767SOL    HW218201   3.563   6.759   6.734
 5768SOL     OW18202   0.485   0.599   4.472
 5768SOL    HW118203   0.478   0.698   4.462
 5768SOL    HW218204   0.420   0.568   4.541
 5769SOL     OW18205   1.673   4.524   6.480
 5769SOL    HW118206   1.641   4.577   6.401
 5769SOL    HW218207   1.633   4.432   6.476
 5770SOL     OW18208   1.702   4.847   1.620
 5770SOL    HW118209   1.797   4.840   1.652
 5770SOL    HW218210   1.671   4.942   1.629
 5771SOL     OW18211   3.139   5.274   3.254
 5771SOL    HW118212   3.099   5.243   3.168
 5771SOL    HW218213   3.199   5.202   3.290
 5772SOL     OW18214   2.972   0.460   2.299
 5772SOL    HW118215   2.948   0.368   2.331
 5772SOL    HW218216   3.071   0.465   2.284
 5773SOL     OW18217   4.944   1.770   2.305
 5773SOL    HW118218   4.912   1.840   2.368
 5773SOL    HW218219   5.008   1.810   2.239
 5774SOL     OW18220   0.254   6.687   2.286
 5774SOL    HW118221   0.275   6.761   2.350
 5774SOL    HW218222   0.314   6.609   2.306
 5775SOL     OW18223   6.600   5.784   1.954
 5775SOL    HW118224   6.507   5.819   1.963
 5775SOL    HW218225   6.665   5.852   1.989
 5776SOL     OW18226   2.594   1.030   4.266
 5776SOL    HW118227   2.643   1.016   4.352
 5776SOL    HW218228   2.497   1.045   4.285
 5777SOL     OW18229   1.530   6.121   2.905
 5777SOL    HW118230   1.523   6.131   2.806
 5777SOL    HW218231   1.531   6.211   2.948
 5778SOL     OW18232   0.313   1.851   0.688
 5778SOL    HW118233   0.230   1.896   0.720
 5778SOL    HW218234   0.307   1.836   0.590
 5779SOL     OW18235   5.978   1.708   5.863
 5779SOL    HW118236   5.900   1.651   5.888
 5779SOL    HW218237   5.964   1.800   5.900
 5780SOL     OW18238   5.103   6.144   3.805
 5780SOL    HW118239   5.170   6.190   3.863
 5780SOL    HW218240   5.143   6.123   3.716
 5781SOL     OW18241   0.388   4.798   5.003
 5781SOL    HW118242   0.457   4.734   4.971
 5781SOL    HW218243   0.337   4.835   4.925
 5782SOL     OW18244   0.769   0.471   0.445
 5782SOL    HW118245   0.793   0.525   0.364
 5782SOL    HW218246   0.669   0.465   0.452
 5783SOL     OW18247   1.328   1.777   0.992
 5783SOL    HW118248   1.312   1.847   0.922
 5783SOL    HW218249   1.401   1.716   0.962
 5784SOL     OW18250   6.652   6.075   6.384
 5784SOL    HW118251   6.626   6.006   6.452
 5784SOL    HW218252   6.617   6.047   6.294
 5785SOL     OW18253   1.213   1.793   0.653
 5785SOL    HW118254   1.220   1.846   0.738
 5785SOL    HW218255   1.220   1.855   0.575
 5786SOL     OW18256   5.756   4.479   0.967
 5786SOL    HW118257   5.728   4.531   1.048
 5786SOL    HW218258   5.745   4.382   0.985
 5787SOL     OW18259   3.549   2.034   5.956
 5787SOL    HW118260   3.574   2.059   5.862
 5787SOL    HW218261   3.517   1.939   5.957
 5788SOL     OW18262   2.603   0.952   3.892
 5788SOL    HW118263   2.623   0.942   3.794
 5788SOL    HW218264   2.526   1.014   3.904
 5789SOL     OW18265   4.107   4.937   6.069
 5789SOL    HW118266   4.135   4.844   6.044
 5789SOL    HW218267   4.147   5.003   6.005
 5790SOL     OW18268   0.509   2.509   3.573
 5790SOL    HW118269   0.458   2.547   3.495
 5790SOL    HW218270   0.502   2.409   3.570
 5791SOL     OW18271   2.665   1.094   2.639
 5791SOL    HW118272   2.618   1.108   2.726
 5791SOL    HW218273   2.755   1.137   2.643
 5792SOL     OW18274   6.646   2.631   2.827
 5792SOL    HW118275   6.610   2.657   2.917
 5792SOL    HW218276   6.602   2.546   2.797
 5793SOL     OW18277   0.285   0.603   3.775
 5793SOL    HW118278   0.215   0.547   3.819
 5793SOL    HW218279   0.261   0.617   3.679
 5794SOL     OW18280   4.584   3.524   7.015
 5794SOL    HW118281   4.538   3.479   6.940
 5794SOL    HW218282   4.534   3.607   0.016
 5795SOL     OW18283   5.625   4.084   6.270
 5795SOL    HW118284   5.572   4.000   6.261
 5795SOL    HW218285   5.634   4.128   6.181
 5796SOL     OW18286   3.858   1.372   0.341
 5796SOL    HW118287   3.920   1.450   0.333
 5796SOL    HW218288   3.893   1.310   0.411
 5797SOL     OW18289   3.105   1.937   4.706
 5797SOL    HW118290   3.032   1.885   4.752
 5797SOL    HW218291   3.191   1.888   4.716
 5798SOL     OW18292   6.442   4.780   4.753
 5798SOL    HW118293   6.520   4.733   4.713
 5798SOL    HW218294   6.363   4.719   4.755
 5799SOL     OW18295   5.400   0.175   3.722
 5799SOL    HW118296   5.488   0.185   3.769
 5799SOL    HW218297   5.405   0.098   3.658
 5800SOL     OW18298   6.130   4.979   0.764
 5800SOL    HW118299   6.167   4.908   0.704
 5800SOL    HW218300   6.089   4.938   0.845
 5801SOL     OW18301   2.012   1.852   3.841
 5801SOL    HW118302   2.086   1.842   3.775
 5801SOL    HW218303   2.027   1.790   3.918
 5802SOL     OW18304   0.345   3.410   5.535
 5802SOL    HW118305   0.370   3.315   5.553
 5802SOL    HW218306   0.342   3.461   5.621
 5803SOL     OW18307   1.357   4.478   0.449
 5803SOL    HW118308   1.385   4.531   0.368
 5803SOL    HW218309   1.358   4.537   0.529
 5804SOL     OW18310   6.264   4.207   4.570
 5804SOL    HW118311   6.234   4.122   4.526
 5804SOL    HW218312   6.362   4.203   4.587
 5805SOL     OW18313   4.966   3.148   6.510
 5805SOL    HW118314   4.965   3.211   6.588
 5805SOL    HW218315   5.048   3.092   6.512
 5806SOL     OW18316   0.776   6.396   6.987
 5806SOL    HW118317   0.683   6.358   6.989
 5806SOL    HW218318   0.842   6.323   6.973
 5807SOL     OW18319   1.942   3.127   1.766
 5807SOL    HW118320   1.929   3.184   1.685
 5807SOL    HW218321   1.882   3.158   1.839
 5808SOL     OW18322   6.423   3.903   2.770
 5808SOL    HW118323   6.385   3.995   2.759
 5808SOL    HW218324   6.371   3.838   2.715
 5809SOL     OW18325   7.023   3.800   4.330
 5809SOL    HW118326   0.060   3.760   4.261
 5809SOL    HW218327   0.027   3.769   4.420
 5810SOL     OW18328   2.662   2.099   2.120
 5810SOL    HW118329   2.713   2.027   2.167
 5810SOL    HW218330   2.707   2.187   2.136
 5811SOL     OW18331   2.703   1.300   4.029
 5811SOL    HW118332   2.606   1.324   4.024
 5811SOL    HW218333   2.713   1.211   4.074
 5812SOL     OW18334   4.462   0.672   4.024
 5812SOL    HW118335   4.434   0.673   4.120
 5812SOL    HW218336   4.397   0.726   3.970
 5813SOL     OW18337   1.218   0.705   5.478
 5813SOL    HW118338   1.236   0.703   5.379
 5813SOL    HW218339   1.281   0.645   5.525
 5814SOL     OW18340   0.596   5.300   1.198
 5814SOL    HW118341   0.609   5.203   1.217
 5814SOL    HW218342   0.656   5.354   1.257
 5815SOL     OW18343   3.683   1.417   3.049
 5815SOL    HW118344   3.771   1.440   3.090
 5815SOL    HW218345   3.645   1.337   3.094
 5816SOL     OW18346   4.694   0.516   0.458
 5816SOL    HW118347   4.698   0.522   0.358
 5816SOL    HW218348   4.611   0.467   0.485
 5817SOL     OW18349   4.840   3.114   4.956
 5817SOL    HW118350   4.816   3.099   5.052
 5817SOL    HW218351   4.812   3.034   4.902
 5818SOL     OW18352   6.096   6.646   6.289
 5818SOL    HW118353   5.997   6.638   6.293
 5818SOL    HW218354   6.133   6.661   6.381
 5819SOL     OW18355   5.895   0.238   1.613
 5819SOL    HW118356   5.928   0.332   1.627
 5819SOL    HW218357   5.876   0.223   1.516
 5820SOL     OW18358   5.662   6.483   3.635
 5820SOL    HW118359   5.755   6.519   3.634
 5820SOL    HW218360   5.656   6.404   3.575
 5821SOL     OW18361   2.751   0.920   1.792
 5821SOL    HW118362   2.668   0.963   1.825
 5821SOL    HW218363   2.732   0.824   1.768
 5822SOL     OW18364   7.024   1.595   1.955
 5822SOL    HW118365   0.081   1.645   1.926
 5822SOL    HW218366   6.951   1.608   1.888
 5823SOL     OW18367   2.659   1.714   4.235
 5823SOL    HW118368   2.575   1.673   4.272
 5823SOL    HW218369   2.728   1.718   4.307
 5824SOL     OW18370   5.311   7.000   3.531
 5824SOL    HW118371   5.304   6.975   3.434
 5824SOL    HW218372   5.220   7.004   3.571
 5825SOL     OW18373   2.698   0.599   0.432
 5825SOL    HW118374   2.771   0.580   0.497
 5825SOL    HW218375   2.609   0.578   0.475
 5826SOL     OW18376   6.252   0.029   5.263
 5826SOL    HW118377   6.333   7.008   5.224
 5826SOL    HW218378   6.241   0.118   5.219
 5827SOL     OW18379   0.809   5.674   5.000
 5827SOL    HW118380   0.838   5.610   5.072
 5827SOL    HW218381   0.874   5.670   4.924
 5828SOL     OW18382   6.943   3.754   1.994
 5828SOL    HW118383   6.970   3.818   2.067
 5828SOL    HW218384   7.024   3.731   1.940
 5829SOL     OW18385   2.044   1.159   1.675
 5829SOL    HW118386   1.955   1.202   1.657
 5829SOL    HW218387   2.109   1.187   1.605
 5830SOL     OW18388   3.105   1.520   6.093
 5830SOL    HW118389   3.068   1.613   6.095
 5830SOL    HW218390   3.202   1.523   6.072
 5831SOL     OW18391   5.535   6.799   3.373
 5831SOL    HW118392   5.483   6.878   3.342
 5831SOL    HW218393   5.472   6.724   3.395
 5832SOL     OW18394   4.061   4.064   5.237
 5832SOL    HW118395   4.012   4.077   5.323
 5832SOL    HW218396   4.133   4.133   5.229
 5833SOL     OW18397   3.399   3.277   5.103
 5833SOL    HW118398   3.480   3.241   5.057
 5833SOL    HW218399   3.319   3.226   5.073
 5834SOL     OW18400   6.154   1.182   0.955
 5834SOL    HW118401   6.173   1.164   1.051
 5834SOL    HW218402   6.176   1.278   0.934
 5835SOL     OW18403   5.557   2.370   3.492
 5835SOL    HW118404   5.527   2.278   3.467
 5835SOL    HW218405   5.494   2.438   3.453
 5836SOL     OW18406   3.675   5.816   2.057
 5836SOL    HW118407   3.648   5.720   2.054
 5836SOL    HW218408   3.745   5.832   1.987
 5837SOL     OW18409   5.143   4.011   6.827
 5837SOL    HW118410   5.126   3.935   6.890
 5837SOL    HW218411   5.068   4.077   6.834
 5838SOL     OW18412   1.072   1.186   5.274
 5838SOL    HW118413   1.142   1.257   5.272
 5838SOL    HW218414   0.983   1.224   5.248
 5839SOL     OW18415   6.703   3.235   3.223
 5839SOL    HW118416   6.696   3.332   3.244
 5839SOL    HW218417   6.732   3.223   3.128
 5840SOL     OW18418   1.583   5.158   6.760
 5840SOL    HW118419   1.490   5.121   6.753
 5840SOL    HW218420   1.648   5.082   6.763
 5841SOL     OW18421   6.584   2.516   3.749
 5841SOL    HW118422   6.541   2.607   3.755
 5841SOL    HW218423   6.675   2.525   3.709
 5842SOL     OW18424   3.932   3.002   0.569
 5842SOL    HW118425   3.887   2.933   0.625
 5842SOL    HW218426   3.866   3.042   0.505
 5843SOL     OW18427   2.034   4.187   2.240
 5843SOL    HW118428   2.047   4.220   2.334
 5843SOL    HW218429   2.090   4.106   2.225
 5844SOL     OW18430   1.172   6.453   6.359
 5844SOL    HW118431   1.125   6.538   6.383
 5844SOL    HW218432   1.159   6.386   6.433
 5845SOL     OW18433   0.728   2.481   4.350
 5845SOL    HW118434   0.763   2.511   4.261
 5845SOL    HW218435   0.658   2.411   4.335
 5846SOL     OW18436   0.061   2.984   5.764
 5846SOL    HW118437   0.095   3.044   5.691
 5846SOL    HW218438   0.081   2.889   5.740
 5847SOL     OW18439   2.202   2.922   2.314
 5847SOL    HW118440   2.159   2.938   2.225
 5847SOL    HW218441   2.185   3.000   2.374
 5848SOL     OW18442   1.122   4.464   3.325
 5848SOL    HW118443   1.217   4.496   3.323
 5848SOL    HW218444   1.096   4.442   3.419
 5849SOL     OW18445   2.516   0.184   5.440
 5849SOL    HW118446   2.544   0.275   5.470
 5849SOL    HW218447   2.558   0.163   5.352
 5850SOL     OW18448   0.780   4.782   2.354
 5850SOL    HW118449   0.716   4.711   2.384
 5850SOL    HW218450   0.751   4.870   2.392
 5851SOL     OW18451   6.256   3.949   1.903
 5851SOL    HW118452   6.208   4.024   1.948
 5851SOL    HW218453   6.285   3.883   1.972
 5852SOL     OW18454   4.448   6.046   2.794
 5852SOL    HW118455   4.505   6.001   2.726
 5852SOL    HW218456   4.472   6.143   2.799
 5853SOL     OW18457   3.464   4.704   5.697
 5853SOL    HW118458   3.531   4.688   5.770
 5853SOL    HW218459   3.486   4.647   5.618
 5854SOL     OW18460   6.920   1.167   6.003
 5854SOL    HW118461   6.918   1.211   5.913
 5854SOL    HW218462   6.826   1.160   6.038
 5855SOL     OW18463   0.960   1.106   4.514
 5855SOL    HW118464   0.896   1.068   4.581
 5855SOL    HW218465   0.975   1.203   4.533
 5856SOL     OW18466   1.970   4.122   3.857
 5856SOL    HW118467   1.881   4.082   3.835
 5856SOL    HW218468   1.960   4.188   3.931
 5857SOL     OW18469   6.461   2.953   5.365
 5857SOL    HW118470   6.371   2.911   5.352
 5857SOL    HW218471   6.456   3.050   5.340
 5858SOL     OW18472   3.509   1.286   2.555
 5858SOL    HW118473   3.564   1.204   2.570
 5858SOL    HW218474   3.570   1.365   2.545
 5859SOL     OW18475   5.960   6.384   0.665
 5859SOL    HW118476   5.884   6.449   0.667
 5859SOL    HW218477   6.003   6.386   0.574
 5860SOL     OW18478   1.700   3.938   1.724
 5860SOL    HW118479   1.786   3.951   1.674
 5860SOL    HW218480   1.650   3.860   1.686
 5861SOL     OW18481   6.342   2.254   4.233
 5861SOL    HW118482   6.399   2.336   4.233
 5861SOL    HW218483   6.400   2.173   4.237
 5862SOL     OW18484   4.188   4.699   3.069
 5862SOL    HW118485   4.105   4.737   3.110
 5862SOL    HW218486   4.186   4.713   2.970
 5863SOL     OW18487   2.509   1.486   7.009
 5863SOL    HW118488   2.497   1.451   6.917
 5863SOL    HW218489   2.600   1.528   7.018
 5864SOL     OW18490   4.620   4.548   1.594
 5864SOL    HW118491   4.705   4.599   1.596
 5864SOL    HW218492   4.572   4.560   1.682
 5865SOL     OW18493   4.566   1.081   3.170
 5865SOL    HW118494   4.630   1.074   3.093
 5865SOL    HW218495   4.548   0.990   3.207
 5866SOL     OW18496   4.170   0.321   6.018
 5866SOL    HW118497   4.089   0.375   5.997
 5866SOL    HW218498   4.195   0.266   5.938
 5867SOL     OW18499   0.189   2.890   1.661
 5867SOL    HW118500   0.135   2.851   1.736
 5867SOL    HW218501   0.284   2.861   1.671
 5868SOL     OW18502   1.900   0.036   5.420
 5868SOL    HW118503   1.848   0.052   5.336
 5868SOL    HW218504   1.848   0.070   5.498
 5869SOL     OW18505   2.828   4.764   4.127
 5869SOL    HW118506   2.835   4.860   4.101
 5869SOL    HW218507   2.885   4.708   4.066
 5870SOL     OW18508   5.198   5.193   4.770
 5870SOL    HW118509   5.122   5.136   4.801
 5870SOL    HW218510   5.274   5.135   4.743
 5871SOL     OW18511   3.387   3.134   6.810
 5871SOL    HW118512   3.318   3.063   6.793
 5871SOL    HW218513   3.364   3.183   6.893
 5872SOL     OW18514   3.225   6.231   6.017
 5872SOL    HW118515   3.253   6.137   6.036
 5872SOL    HW218516   3.300   6.279   5.971
 5873SOL     OW18517   3.142   3.423   0.035
 5873SOL    HW118518   3.070   3.479   7.018
 5873SOL    HW218519   3.231   3.461   0.011
 5874SOL     OW18520   1.997   3.392   1.247
 5874SOL    HW118521   1.941   3.310   1.233
 5874SOL    HW218522   2.021   3.431   1.158
 5875SOL     OW18523   3.465   1.709   6.934
 5875SOL    HW118524   3.419   1.723   7.022
 5875SOL    HW218525   3.560   1.740   6.941
 5876SOL     OW18526   3.394   4.277   6.133
 5876SOL    HW118527   3.432   4.226   6.211
 5876SOL    HW218528   3.307   4.236   6.106
 5877SOL     OW18529   6.953   0.196   3.235
 5877SOL    HW118530   6.995   0.263   3.296
 5877SOL    HW218531   6.947   0.234   3.143
 5878SOL     OW18532   4.687   4.697   2.871
 5878SOL    HW118533   4.637   4.621   2.913
 5878SOL    HW218534   4.686   4.776   2.933
 5879SOL     OW18535   4.114   3.476   5.885
 5879SOL    HW118536   4.019   3.473   5.916
 5879SOL    HW218537   4.167   3.408   5.934
 5880SOL     OW18538   5.097   2.541   5.597
 5880SOL    HW118539   5.009   2.553   5.643
 5880SOL    HW218540   5.142   2.459   5.631
 5881SOL     OW18541   1.285   5.971   2.513
 5881SOL    HW118542   1.374   5.952   2.472
 5881SOL    HW218543   1.284   5.938   2.608
 5882SOL     OW18544   1.939   5.666   6.176
 5882SOL    HW118545   1.908   5.719   6.255
 5882SOL    HW218546   2.036   5.644   6.186
 5883SOL     OW18547   0.515   4.224   1.030
 5883SOL    HW118548   0.496   4.322   1.021
 5883SOL    HW218549   0.603   4.212   1.076
 5884SOL     OW18550   6.398   1.794   3.731
 5884SOL    HW118551   6.379   1.889   3.708
 5884SOL    HW218552   6.320   1.737   3.703
 5885SOL     OW18553   0.252   5.239   0.228
 5885SOL    HW118554   0.268   5.200   0.138
 5885SOL    HW218555   0.157   5.222   0.256
 5886SOL     OW18556   1.653   4.206   3.554
 5886SOL    HW118557   1.726   4.275   3.553
 5886SOL    HW218558   1.678   4.130   3.494
 5887SOL     OW18559   2.075   2.648   0.802
 5887SOL    HW118560   2.051   2.658   0.899
 5887SOL    HW218561   1.994   2.663   0.746
 5888SOL     OW18562   3.515   6.817   0.704
 5888SOL    HW118563   3.593   6.875   0.726
 5888SOL    HW218564   3.525   6.782   0.611
 5889SOL     OW18565   5.945   0.581   2.086
 5889SOL    HW118566   5.873   0.650   2.086
 5889SOL    HW218567   5.918   0.505   2.028
 5890SOL     OW18568   2.300   6.205   2.628
 5890SOL    HW118569   2.274   6.208   2.724
 5890SOL    HW218570   2.393   6.169   2.619
 5891SOL     OW18571   2.548   3.622   0.756
 5891SOL    HW118572   2.457   3.621   0.797
 5891SOL    HW218573   2.566   3.535   0.711
 5892SOL     OW18574   1.039   3.939   1.330
 5892SOL    HW118575   0.943   3.967   1.334
 5892SOL    HW218576   1.068   3.906   1.420
 5893SOL     OW18577   0.617   6.402   2.042
 5893SOL    HW118578   0.540   6.382   2.102
 5893SOL    HW218579   0.692   6.440   2.095
 5894SOL     OW18580   1.981   5.117   6.031
 5894SOL    HW118581   2.068   5.079   6.064
 5894SOL    HW218582   1.906   5.059   6.062
 5895SOL     OW18583   5.329   3.090   4.614
 5895SOL    HW118584   5.290   3.070   4.704
 5895SOL    HW218585   5.344   3.004   4.565
 5896SOL     OW18586   5.262   2.338   1.745
 5896SOL    HW118587   5.273   2.424   1.695
 5896SOL    HW218588   5.172   2.335   1.788
 5897SOL     OW18589   4.324   2.433   0.351
 5897SOL    HW118590   4.324   2.533   0.353
 5897SOL    HW218591   4.405   2.399   0.399
 5898SOL     OW18592   1.994   1.332   5.607
 5898SOL    HW118593   2.004   1.347   5.705
 5898SOL    HW218594   1.898   1.315   5.586
 5899SOL     OW18595   0.002   5.672   5.956
 5899SOL    HW118596   0.082   5.644   6.008
 5899SOL    HW218597   6.951   5.692   6.019
 5900SOL     OW18598   5.809   6.586   3.319
 5900SOL    HW118599   5.760   6.646   3.255
 5900SOL    HW218600   5.828   6.636   3.403
 5901SOL     OW18601   1.642   0.853   5.630
 5901SOL    HW118602   1.626   0.910   5.711
 5901SOL    HW218603   1.578   0.775   5.631
 5902SOL     OW18604   4.978   3.844   5.640
 5902SOL    HW118605   4.981   3.782   5.563
 5902SOL    HW218606   4.946   3.934   5.610
 5903SOL     OW18607   6.152   2.029   5.695
 5903SOL    HW118608   6.099   2.023   5.779
 5903SOL    HW218609   6.246   2.054   5.717
 5904SOL     OW18610   2.145   4.688   1.982
 5904SOL    HW118611   2.171   4.664   1.889
 5904SOL    HW218612   2.123   4.786   1.986
 5905SOL     OW18613   5.735   1.203   4.202
 5905SOL    HW118614   5.804   1.131   4.193
 5905SOL    HW218615   5.652   1.164   4.242
 5906SOL     OW18616   4.736   0.808   5.444
 5906SOL    HW118617   4.664   0.859   5.493
 5906SOL    HW218618   4.747   0.718   5.486
 5907SOL     OW18619   1.711   3.452   6.306
 5907SOL    HW118620   1.783   3.503   6.352
 5907SOL    HW218621   1.622   3.482   6.341
 5908SOL     OW18622   4.841   3.142   5.886
 5908SOL    HW118623   4.853   3.232   5.929
 5908SOL    HW218624   4.903   3.076   5.928
 5909SOL     OW18625   6.961   4.995   4.212
 5909SOL    HW118626   6.985   5.087   4.180
 5909SOL    HW218627   6.999   4.927   4.149
 5910SOL     OW18628   2.200   4.023   1.283
 5910SOL    HW118629   2.106   4.050   1.263
 5910SOL    HW218630   2.213   3.927   1.256
 5911SOL     OW18631   5.560   6.730   6.227
 5911SOL    HW118632   5.526   6.821   6.252
 5911SOL    HW218633   5.538   6.711   6.131
 5912SOL     OW18634   6.798   3.444   6.811
 5912SOL    HW118635   6.719   3.391   6.842
 5912SOL    HW218636   6.805   3.439   6.712
 5913SOL     OW18637   1.216   1.770   5.999
 5913SOL    HW118638   1.234   1.677   5.967
 5913SOL    HW218639   1.291   1.800   6.058
 5914SOL     OW18640   2.038   6.270   0.824
 5914SOL    HW118641   2.099   6.335   0.870
 5914SOL    HW218642   2.093   6.208   0.767
 5915SOL     OW18643   4.939   3.429   2.620
 5915SOL    HW118644   4.933   3.346   2.564
 5915SOL    HW218645   4.950   3.403   2.716
 5916SOL     OW18646   3.595   0.300   5.890
 5916SOL    HW118647   3.538   0.337   5.963
 5916SOL    HW218648   3.556   0.325   5.801
 5917SOL     OW18649   3.657   2.896   2.828
 5917SOL    HW118650   3.721   2.972   2.830
 5917SOL    HW218651   3.685   2.831   2.757
 5918SOL     OW18652   2.220   3.010   4.243
 5918SOL    HW118653   2.247   3.067   4.320
 5918SOL    HW218654   2.286   2.937   4.229
 5919SOL     OW18655   1.102   3.518   6.684
 5919SOL    HW118656   1.011   3.533   6.724
 5919SOL    HW218657   1.172   3.528   6.754
 5920SOL     OW18658   3.758   6.758   6.788
 5920SOL    HW118659   3.824   6.708   6.732
 5920SOL    HW218660   3.800   6.843   6.821
 5921SOL     OW18661   4.218   5.518   5.103
 5921SOL    HW118662   4.302   5.570   5.090
 5921SOL    HW218663   4.239   5.421   5.105
 5922SOL     OW18664   5.745   4.112   1.926
 5922SOL    HW118665   5.826   4.156   1.888
 5922SOL    HW218666   5.732   4.141   2.021
 5923SOL     OW18667   0.372   6.871   3.686
 5923SOL    HW118668   0.288   6.884   3.738
 5923SOL    HW218669   0.437   6.944   3.709
 5924SOL     OW18670   5.456   2.101   4.110
 5924SOL    HW118671   5.531   2.123   4.172
 5924SOL    HW218672   5.467   2.153   4.025
 5925SOL     OW18673   5.938   6.503   1.233
 5925SOL    HW118674   5.905   6.412   1.260
 5925SOL    HW218675   5.908   6.523   1.140
 5926SOL     OW18676   3.787   5.161   1.581
 5926SOL    HW118677   3.743   5.077   1.549
 5926SOL    HW218678   3.724   5.238   1.570
 5927SOL     OW18679   2.553   5.800   2.677
 5927SOL    HW118680   2.627   5.734   2.667
 5927SOL    HW218681   2.535   5.843   2.588
 5928SOL     OW18682   1.184   0.032   1.982
 5928SOL    HW118683   1.158   0.048   1.886
 5928SOL    HW218684   1.280   0.005   1.986
 5929SOL     OW18685   1.112   0.064   6.066
 5929SOL    HW118686   1.189   0.064   6.130
 5929SOL    HW218687   1.085   6.994   6.047
 5930SOL     OW18688   6.955   1.946   4.776
 5930SOL    HW118689   6.900   2.016   4.730
 5930SOL    HW218690   0.008   1.921   4.717
 5931SOL     OW18691   6.148   5.184   1.383
 5931SOL    HW118692   6.152   5.135   1.470
 5931SOL    HW218693   6.080   5.257   1.389
 5932SOL     OW18694   2.133   6.442   0.495
 5932SOL    HW118695   2.112   6.523   0.549
 5932SOL    HW218696   2.132   6.465   0.398
 5933SOL     OW18697   6.224   3.683   2.673
 5933SOL    HW118698   6.279   3.616   2.624
 5933SOL    HW218699   6.200   3.758   2.612
 5934SOL     OW18700   3.411   3.808   3.205
 5934SOL    HW118701   3.470   3.866   3.150
 5934SOL    HW218702   3.323   3.796   3.158
 5935SOL     OW18703   4.008   3.238   3.794
 5935SOL    HW118704   3.931   3.179   3.770
 5935SOL    HW218705   4.055   3.267   3.710
 5936SOL     OW18706   5.402   6.030   6.386
 5936SOL    HW118707   5.418   6.114   6.438
 5936SOL    HW218708   5.325   6.045   6.324
 5937SOL     OW18709   2.008   3.495   0.975
 5937SOL    HW118710   1.949   3.571   0.950
 5937SOL    HW218711   1.981   3.413   0.924
 5938SOL     OW18712   1.954   4.818   1.745
 5938SOL    HW118713   1.954   4.863   1.834
 5938SOL    HW218714   2.028   4.750   1.742
 5939SOL     OW18715   3.531   0.369   3.196
 5939SOL    HW118716   3.524   0.402   3.290
 5939SOL    HW218717   3.440   0.351   3.159
 5940SOL     OW18718   4.137   5.841   3.542
 5940SOL    HW118719   4.104   5.754   3.506
 5940SOL    HW218720   4.060   5.899   3.567
 5941SOL     OW18721   6.200   4.804   2.053
 5941SOL    HW118722   6.162   4.713   2.039
 5941SOL    HW218723   6.159   4.846   2.134
 5942SOL     OW18724   4.963   1.843   5.543
 5942SOL    HW118725   4.901   1.803   5.610
 5942SOL    HW218726   5.000   1.770   5.485
 5943SOL     OW18727   1.297   6.236   0.076
 5943SOL    HW118728   1.381   6.283   0.051
 5943SOL    HW218729   1.222   6.302   0.079
 5944SOL     OW18730   4.220   1.671   2.542
 5944SOL    HW118731   4.218   1.617   2.458
 5944SOL    HW218732   4.285   1.629   2.606
 5945SOL     OW18733   0.086   4.655   4.934
 5945SOL    HW118734   0.166   4.651   4.995
 5945SOL    HW218735   0.067   4.751   4.911
 5946SOL     OW18736   3.973   2.996   5.172
 5946SOL    HW118737   4.039   3.058   5.129
 5946SOL    HW218738   4.010   2.904   5.172
 5947SOL     OW18739   4.308   3.400   1.744
 5947SOL    HW118740   4.378   3.469   1.724
 5947SOL    HW218741   4.225   3.445   1.777
 5948SOL     OW18742   3.604   4.885   2.244
 5948SOL    HW118743   3.571   4.832   2.166
 5948SOL    HW218744   3.527   4.925   2.292
 5949SOL     OW18745   4.433   4.764   1.988
 5949SOL    HW118746   4.458   4.703   2.064
 5949SOL    HW218747   4.511   4.823   1.966
 5950SOL     OW18748   5.982   2.665   3.448
 5950SOL    HW118749   5.936   2.723   3.516
 5950SOL    HW218750   6.065   2.711   3.416
 5951SOL     OW18751   1.568   5.570   4.105
 5951SOL    HW118752   1.496   5.591   4.039
 5951SOL    HW218753   1.646   5.630   4.091
 5952SOL     OW18754   6.815   6.751   5.223
 5952SOL    HW118755   6.875   6.806   5.166
 5952SOL    HW218756   6.731   6.731   5.173
 5953SOL     OW18757   0.275   3.339   6.193
 5953SOL    HW118758   0.240   3.249   6.218
 5953SOL    HW218759   0.268   3.351   6.094
 5954SOL     OW18760   0.240   5.221   6.809
 5954SOL    HW118761   0.214   5.260   6.721
 5954SOL    HW218762   0.208   5.126   6.814
 5955SOL     OW18763   5.436   5.585   2.370
 5955SOL    HW118764   5.367   5.625   2.431
 5955SOL    HW218765   5.517   5.642   2.369
 5956SOL     OW18766   5.759   1.948   0.238
 5956SOL    HW118767   5.764   1.980   0.143
 5956SOL    HW218768   5.850   1.921   0.268
 5957SOL     OW18769   5.278   6.842   5.990
 5957SOL    HW118770   5.203   6.873   5.933
 5957SOL    HW218771   5.358   6.900   5.974
 5958SOL     OW18772   0.317   5.315   1.966
 5958SOL    HW118773   0.276   5.380   2.030
 5958SOL    HW218774   0.416   5.312   1.979
 5959SOL     OW18775   2.402   1.534   6.070
 5959SOL    HW118776   2.460   1.551   5.991
 5959SOL    HW218777   2.419   1.442   6.105
 5960SOL     OW18778   3.058   0.642   3.704
 5960SOL    HW118779   2.971   0.624   3.750
 5960SOL    HW218780   3.040   0.682   3.614
 5961SOL     OW18781   2.847   0.760   5.783
 5961SOL    HW118782   2.873   0.770   5.879
 5961SOL    HW218783   2.880   0.838   5.730
 5962SOL     OW18784   5.078   5.346   2.445
 5962SOL    HW118785   4.988   5.388   2.429
 5962SOL    HW218786   5.067   5.265   2.502
 5963SOL     OW18787   4.141   3.704   2.136
 5963SOL    HW118788   4.083   3.647   2.195
 5963SOL    HW218789   4.184   3.775   2.192
 5964SOL     OW18790   0.990   4.631   5.495
 5964SOL    HW118791   1.006   4.550   5.438
 5964SOL    HW218792   0.892   4.654   5.493
 5965SOL     OW18793   2.771   2.362   5.530
 5965SOL    HW118794   2.778   2.328   5.624
 5965SOL    HW218795   2.857   2.347   5.482
 5966SOL     OW18796   2.360   6.296   3.630
 5966SOL    HW118797   2.451   6.324   3.660
 5966SOL    HW218798   2.304   6.376   3.610
 5967SOL     OW18799   4.678   6.800   2.102
 5967SOL    HW118800   4.714   6.730   2.040
 5967SOL    HW218801   4.752   6.838   2.157
 5968SOL     OW18802   0.369   3.041   4.734
 5968SOL    HW118803   0.366   2.995   4.823
 5968SOL    HW218804   0.437   2.996   4.676
 5969SOL     OW18805   5.665   3.359   3.213
 5969SOL    HW118806   5.566   3.348   3.224
 5969SOL    HW218807   5.707   3.370   3.303
 5970SOL     OW18808   1.551   3.023   3.152
 5970SOL    HW118809   1.615   2.948   3.138
 5970SOL    HW218810   1.581   3.079   3.229
 5971SOL     OW18811   2.305   6.800   2.339
 5971SOL    HW118812   2.268   6.891   2.321
 5971SOL    HW218813   2.261   6.762   2.421
 5972SOL     OW18814   4.417   6.021   0.468
 5972SOL    HW118815   4.503   6.001   0.421
 5972SOL    HW218816   4.422   6.113   0.509
 5973SOL     OW18817   1.693   4.056   3.792
 5973SOL    HW118818   1.696   4.109   3.707
 5973SOL    HW218819   1.623   4.094   3.853
 5974SOL     OW18820   0.932   4.185   6.868
 5974SOL    HW118821   0.867   4.109   6.874
 5974SOL    HW218822   0.901   4.249   6.797
 5975SOL     OW18823   2.723   2.994   0.893
 5975SOL    HW118824   2.752   2.906   0.931
 5975SOL    HW218825   2.654   2.979   0.822
 5976SOL     OW18826   3.175   3.231   5.355
 5976SOL    HW118827   3.197   3.324   5.384
 5976SOL    HW218828   3.260   3.182   5.336
 5977SOL     OW18829   1.249   3.153   2.782
 5977SOL    HW118830   1.242   3.163   2.881
 5977SOL    HW218831   1.162   3.118   2.746
 5978SOL     OW18832   4.822   5.738   1.958
 5978SOL    HW118833   4.818   5.656   2.014
 5978SOL    HW218834   4.729   5.776   1.948
 5979SOL     OW18835   0.432   0.349   3.766
 5979SOL    HW118836   0.509   0.339   3.703
 5979SOL    HW218837   0.396   0.442   3.760
 5980SOL     OW18838   6.135   4.274   6.808
 5980SOL    HW118839   6.213   4.238   6.859
 5980SOL    HW218840   6.071   4.200   6.788
 5981SOL     OW18841   4.512   0.710   2.179
 5981SOL    HW118842   4.415   0.687   2.183
 5981SOL    HW218843   4.564   0.643   2.233
 5982SOL     OW18844   6.897   1.983   6.297
 5982SOL    HW118845   6.906   1.901   6.241
 5982SOL    HW218846   6.830   1.966   6.370
 5983SOL     OW18847   1.178   1.045   4.376
 5983SOL    HW118848   1.233   0.976   4.424
 5983SOL    HW218849   1.096   1.065   4.430
 5984SOL     OW18850   0.064   0.074   5.348
 5984SOL    HW118851   0.048   0.132   5.427
 5984SOL    HW218852   0.034   7.005   5.369
 5985SOL     OW18853   4.630   2.291   4.102
 5985SOL    HW118854   4.645   2.232   4.181
 5985SOL    HW218855   4.641   2.239   4.018
 5986SOL     OW18856   3.575   2.948   2.478
 5986SOL    HW118857   3.564   3.027   2.418
 5986SOL    HW218858   3.486   2.907   2.497
 5987SOL     OW18859   3.887   0.142   5.310
 5987SOL    HW118860   3.908   0.181   5.220
 5987SOL    HW218861   3.789   0.129   5.319
 5988SOL     OW18862   3.902   0.298   3.982
 5988SOL    HW118863   3.940   0.308   3.890
 5988SOL    HW218864   3.846   0.215   3.986
 5989SOL     OW18865   2.805   1.052   5.874
 5989SOL    HW118866   2.835   1.142   5.905
 5989SOL    HW218867   2.875   1.012   5.815
 5990SOL     OW18868   3.149   4.600   1.597
 5990SOL    HW118869   3.074   4.535   1.609
 5990SOL    HW218870   3.235   4.549   1.591
 5991SOL     OW18871   2.937   5.126   4.437
 5991SOL    HW118872   2.918   5.047   4.496
 5991SOL    HW218873   2.866   5.135   4.368
 5992SOL     OW18874   4.474   0.483   3.793
 5992SOL    HW118875   4.562   0.442   3.767
 5992SOL    HW218876   4.480   0.516   3.887
 5993SOL     OW18877   2.925   5.602   5.244
 5993SOL    HW118878   3.011   5.651   5.253
 5993SOL    HW218879   2.881   5.595   5.334
 5994SOL     OW18880   0.254   2.028   2.122
 5994SOL    HW118881   0.209   2.084   2.192
 5994SOL    HW218882   0.220   2.055   2.032
 5995SOL     OW18883   6.980   4.541   1.485
 5995SOL    HW118884   0.030   4.573   1.544
 5995SOL    HW218885   6.942   4.457   1.522
 5996SOL     OW18886   0.556   5.267   5.666
 5996SOL    HW118887   0.486   5.215   5.617
 5996SOL    HW218888   0.541   5.364   5.651
 5997SOL     OW18889   0.322   6.417   2.450
 5997SOL    HW118890   0.227   6.408   2.482
 5997SOL    HW218891   0.382   6.437   2.528
 5998SOL     OW18892   5.303   1.884   2.739
 5998SOL    HW118893   5.236   1.900   2.667
 5998SOL    HW218894   5.328   1.971   2.782
 5999SOL     OW18895   1.649   1.290   2.582
 5999SOL    HW118896   1.624   1.343   2.501
 5999SOL    HW218897   1.746   1.267   2.579
 6000SOL     OW18898   4.595   5.925   2.054
 6000SOL    HW118899   4.611   5.999   2.120
 6000SOL    HW218900   4.543   5.960   1.977
 6001SOL     OW18901   6.457   2.066   0.013
 6001SOL    HW118902   6.358   2.061   0.007
 6001SOL    HW218903   6.484   2.075   0.109
 6002SOL     OW18904   1.792   0.165   2.127
 6002SOL    HW118905   1.844   0.183   2.043
 6002SOL    HW218906   1.746   0.248   2.157
 6003SOL     OW18907   4.872   3.796   4.102
 6003SOL    HW118908   4.853   3.816   4.198
 6003SOL    HW218909   4.968   3.815   4.082
 6004SOL     OW18910   0.075   3.786   2.656
 6004SOL    HW118911   0.016   3.835   2.592
 6004SOL    HW218912   0.161   3.835   2.667
 6005SOL     OW18913   3.255   6.121   2.895
 6005SOL    HW118914   3.165   6.163   2.880
 6005SOL    HW218915   3.250   6.023   2.878
 6006SOL     OW18916   2.688   6.488   0.030
 6006SOL    HW118917   2.595   6.453   0.044
 6006SOL    HW218918   2.695   6.581   0.065
 6007SOL     OW18919   5.651   2.793   3.414
 6007SOL    HW118920   5.662   2.858   3.489
 6007SOL    HW218921   5.623   2.704   3.451
 6008SOL     OW18922   3.453   4.970   6.462
 6008SOL    HW118923   3.526   5.006   6.520
 6008SOL    HW218924   3.393   4.912   6.517
 6009SOL     OW18925   3.335   1.961   4.208
 6009SOL    HW118926   3.238   1.966   4.234
 6009SOL    HW218927   3.352   1.875   4.160
 6010SOL     OW18928   1.066   3.549   3.384
 6010SOL    HW118929   1.081   3.531   3.481
 6010SOL    HW218930   1.137   3.612   3.351
 6011SOL     OW18931   5.908   3.185   3.137
 6011SOL    HW118932   5.860   3.102   3.162
 6011SOL    HW218933   5.919   3.243   3.217
 6012SOL     OW18934   6.731   3.368   0.372
 6012SOL    HW118935   6.825   3.339   0.351
 6012SOL    HW218936   6.699   3.429   0.300
 6013SOL     OW18937   5.776   1.239   2.377
 6013SOL    HW118938   5.847   1.172   2.356
 6013SOL    HW218939   5.739   1.276   2.292
 6014SOL     OW18940   6.109   0.467   1.232
 6014SOL    HW118941   6.117   0.543   1.168
 6014SOL    HW218942   6.089   0.383   1.182
 6015SOL     OW18943   5.827   1.599   4.928
 6015SOL    HW118944   5.736   1.572   4.959
 6015SOL    HW218945   5.884   1.517   4.918
 6016SOL     OW18946   1.864   6.754   5.110
 6016SOL    HW118947   1.960   6.745   5.083
 6016SOL    HW218948   1.834   6.672   5.157
 6017SOL     OW18949   6.707   4.828   2.710
 6017SOL    HW118950   6.782   4.809   2.773
 6017SOL    HW218951   6.743   4.862   2.623
 6018SOL     OW18952   2.119   4.630   1.057
 6018SOL    HW118953   2.100   4.623   0.959
 6018SOL    HW218954   2.131   4.539   1.095
 6019SOL     OW18955   3.930   6.989   4.259
 6019SOL    HW118956   4.028   6.987   4.279
 6019SOL    HW218957   3.915   7.023   4.167
 6020SOL     OW18958   3.861   0.610   2.886
 6020SOL    HW118959   3.951   0.653   2.881
 6020SOL    HW218960   3.833   0.602   2.981
 6021SOL     OW18961   4.147   1.120   2.658
 6021SOL    HW118962   4.057   1.123   2.615
 6021SOL    HW218963   4.212   1.170   2.601
 6022SOL     OW18964   4.288   1.891   4.489
 6022SOL    HW118965   4.326   1.983   4.498
 6022SOL    HW218966   4.267   1.855   4.580
 6023SOL     OW18967   6.765   1.165   2.164
 6023SOL    HW118968   6.674   1.202   2.182
 6023SOL    HW218969   6.759   1.094   2.093
 6024SOL     OW18970   0.773   4.752   2.697
 6024SOL    HW118971   0.804   4.679   2.636
 6024SOL    HW218972   0.689   4.792   2.660
 6025SOL     OW18973   4.435   1.948   1.537
 6025SOL    HW118974   4.350   1.899   1.516
 6025SOL    HW218975   4.461   2.004   1.458
 6026SOL     OW18976   0.734   4.785   5.327
 6026SOL    HW118977   0.654   4.725   5.324
 6026SOL    HW218978   0.742   4.833   5.239
 6027SOL     OW18979   3.142   3.583   0.327
 6027SOL    HW118980   3.103   3.526   0.255
 6027SOL    HW218981   3.076   3.592   0.402
 6028SOL     OW18982   1.507   3.735   0.185
 6028SOL    HW118983   1.505   3.825   0.142
 6028SOL    HW218984   1.543   3.743   0.278
 6029SOL     OW18985   1.795   5.393   1.518
 6029SOL    HW118986   1.782   5.465   1.450
 6029SOL    HW218987   1.851   5.428   1.593
 6030SOL     OW18988   2.178   0.466   1.376
 6030SOL    HW118989   2.096   0.502   1.332
 6030SOL    HW218990   2.251   0.458   1.307
 6031SOL     OW18991   5.010   0.209   4.957
 6031SOL    HW118992   4.933   0.254   5.003
 6031SOL    HW218993   5.049   0.140   5.017
 6032SOL     OW18994   0.337   3.465   2.722
 6032SOL    HW118995   0.403   3.437   2.653
 6032SOL    HW218996   0.381   3.465   2.812
 6033SOL     OW18997   1.289   0.641   4.315
 6033SOL    HW118998   1.310   0.550   4.351
 6033SOL    HW218999   1.371   0.698   4.317
 6034SOL     OW19000   2.112   3.806   5.461
 6034SOL    HW119001   2.065   3.888   5.430
 6034SOL    HW219002   2.163   3.766   5.384
 6035SOL     OW19003   6.128   1.197   4.484
 6035SOL    HW119004   6.208   1.196   4.424
 6035SOL    HW219005   6.060   1.261   4.447
 6036SOL     OW19006   6.811   0.081   4.911
 6036SOL    HW119007   6.731   0.135   4.886
 6036SOL    HW219008   6.856   0.122   4.991
 6037SOL     OW19009   6.256   5.539   4.623
 6037SOL    HW119010   6.305   5.519   4.538
 6037SOL    HW219011   6.317   5.526   4.701
 6038SOL     OW19012   4.720   3.863   6.504
 6038SOL    HW119013   4.680   3.793   6.444
 6038SOL    HW219014   4.808   3.830   6.538
 6039SOL     OW19015   3.296   4.081   3.025
 6039SOL    HW119016   3.215   4.025   3.008
 6039SOL    HW219017   3.301   4.104   3.122
 6040SOL     OW19018   0.212   1.711   0.265
 6040SOL    HW119019   0.277   1.645   0.227
 6040SOL    HW219020   0.152   1.744   0.192
 6041SOL     OW19021   0.802   2.682   0.410
 6041SOL    HW119022   0.832   2.777   0.418
 6041SOL    HW219023   0.866   2.623   0.458
 6042SOL     OW19024   4.915   5.222   3.712
 6042SOL    HW119025   4.883   5.300   3.658
 6042SOL    HW219026   4.898   5.240   3.809
 6043SOL     OW19027   1.150   4.632   3.807
 6043SOL    HW119028   1.090   4.553   3.792
 6043SOL    HW219029   1.142   4.696   3.731
 6044SOL     OW19030   0.989   0.532   1.618
 6044SOL    HW119031   1.066   0.501   1.674
 6044SOL    HW219032   0.919   0.461   1.617
 6045SOL     OW19033   0.027   4.402   1.933
 6045SOL    HW119034   7.001   4.374   1.851
 6045SOL    HW219035   0.069   4.492   1.917
 6046SOL     OW19036   2.716   2.881   0.552
 6046SOL    HW119037   2.722   2.841   0.460
 6046SOL    HW219038   2.801   2.865   0.601
 6047SOL     OW19039   0.053   6.857   4.430
 6047SOL    HW119040   0.028   6.773   4.478
 6047SOL    HW219041   6.998   6.894   4.381
 6048SOL     OW19042   4.259   6.442   5.112
 6048SOL    HW119043   4.234   6.518   5.051
 6048SOL    HW219044   4.321   6.475   5.183
 6049SOL     OW19045   6.694   5.317   1.250
 6049SOL    HW119046   6.703   5.416   1.239
 6049SOL    HW219047   6.776   5.272   1.213
 6050SOL     OW19048   4.868   4.388   5.046
 6050SOL    HW119049   4.931   4.314   5.072
 6050SOL    HW219050   4.785   4.349   5.007
 6051SOL     OW19051   2.030   1.537   2.754
 6051SOL    HW119052   2.087   1.618   2.764
 6051SOL    HW219053   1.935   1.559   2.776
 6052SOL     OW19054   6.718   1.132   0.362
 6052SOL    HW119055   6.803   1.163   0.405
 6052SOL    HW219056   6.683   1.052   0.411
 6053SOL     OW19057   1.826   0.189   6.065
 6053SOL    HW119058   1.870   0.141   6.141
 6053SOL    HW219059   1.761   0.256   6.101
 6054SOL     OW19060   2.448   4.854   0.231
 6054SOL    HW119061   2.540   4.818   0.237
 6054SOL    HW219062   2.448   4.937   0.174
 6055SOL     OW19063   5.000   0.440   4.449
 6055SOL    HW119064   5.067   0.450   4.376
 6055SOL    HW219065   4.985   0.529   4.493
 6056SOL     OW19066   5.006   2.173   6.287
 6056SOL    HW119067   4.960   2.222   6.361
 6056SOL    HW219068   5.001   2.227   6.203
 6057SOL     OW19069   3.844   1.055   5.329
 6057SOL    HW119070   3.927   1.030   5.379
 6057SOL    HW219071   3.773   1.082   5.394
 6058SOL     OW19072   5.726   2.131   4.312
 6058SOL    HW119073   5.792   2.057   4.316
 6058SOL    HW219074   5.673   2.134   4.397
 6059SOL     OW19075   0.025   4.920   6.262
 6059SOL    HW119076   7.017   4.982   6.333
 6059SOL    HW219077   0.105   4.960   6.217
 6060SOL     OW19078   4.321   6.167   5.801
 6060SOL    HW119079   4.410   6.125   5.817
 6060SOL    HW219080   4.261   6.101   5.756
 6061SOL     OW19081   2.349   1.762   6.210
 6061SOL    HW119082   2.379   1.738   6.303
 6061SOL    HW219083   2.362   1.684   6.150
 6062SOL     OW19084   2.560   0.039   4.097
 6062SOL    HW119085   2.607   0.127   4.090
 6062SOL    HW219086   2.554   7.022   4.006
 6063SOL     OW19087   4.631   0.509   6.520
 6063SOL    HW119088   4.574   0.554   6.589
 6063SOL    HW219089   4.722   0.493   6.557
 6064SOL     OW19090   1.534   5.746   3.589
 6064SOL    HW119091   1.446   5.697   3.587
 6064SOL    HW219092   1.563   5.758   3.684
 6065SOL     OW19093   0.335   0.479   0.760
 6065SOL    HW119094   0.248   0.461   0.715
 6065SOL    HW219095   0.325   0.559   0.820
 6066SOL     OW19096   4.308   2.817   6.863
 6066SOL    HW119097   4.210   2.837   6.868
 6066SOL    HW219098   4.323   2.743   6.798
 6067SOL     OW19099   6.538   1.827   6.878
 6067SOL    HW119100   6.498   1.915   6.904
 6067SOL    HW219101   6.488   1.790   6.800
 6068SOL     OW19102   4.739   2.692   4.676
 6068SOL    HW119103   4.648   2.657   4.696
 6068SOL    HW219104   4.755   2.689   4.577
 6069SOL     OW19105   6.279   4.459   4.448
 6069SOL    HW119106   6.255   4.401   4.370
 6069SOL    HW219107   6.240   4.420   4.532
 6070SOL     OW19108   4.471   2.237   6.057
 6070SOL    HW119109   4.479   2.334   6.080
 6070SOL    HW219110   4.451   2.185   6.141
 6071SOL     OW19111   4.476   5.937   5.045
 6071SOL    HW119112   4.507   5.842   5.044
 6071SOL    HW219113   4.404   5.948   5.113
 6072SOL     OW19114   0.189   1.757   1.060
 6072SOL    HW119115   0.276   1.796   1.090
 6072SOL    HW219116   0.147   1.818   0.993
 6073SOL     OW19117   6.911   2.599   0.949
 6073SOL    HW119118   6.936   2.530   1.017
 6073SOL    HW219119   6.823   2.574   0.908
 6074SOL     OW19120   0.646   0.137   4.641
 6074SOL    HW119121   0.709   0.149   4.718
 6074SOL    HW219122   0.657   0.045   4.603
 6075SOL     OW19123   5.813   4.377   6.730
 6075SOL    HW119124   5.871   4.387   6.811
 6075SOL    HW219125   5.719   4.357   6.759
 6076SOL     OW19126   2.109   6.174   4.277
 6076SOL    HW119127   2.028   6.185   4.334
 6076SOL    HW219128   2.183   6.232   4.312
 6077SOL     OW19129   6.024   6.079   2.186
 6077SOL    HW119130   6.000   5.992   2.143
 6077SOL    HW219131   6.038   6.065   2.284
 6078SOL     OW19132   2.595   4.621   3.620
 6078SOL    HW119133   2.650   4.678   3.559
 6078SOL    HW219134   2.549   4.550   3.566
 6079SOL     OW19135   2.241   1.472   0.050
 6079SOL    HW119136   2.337   1.489   0.027
 6079SOL    HW219137   2.235   1.396   0.114
 6080SOL     OW19138   6.001   2.443   2.185
 6080SOL    HW119139   5.922   2.403   2.232
 6080SOL    HW219140   5.975   2.465   2.090
 6081SOL     OW19141   0.311   3.769   3.414
 6081SOL    HW119142   0.227   3.795   3.462
 6081SOL    HW219143   0.371   3.849   3.407
 6082SOL     OW19144   4.084   1.543   3.905
 6082SOL    HW119145   3.984   1.535   3.911
 6082SOL    HW219146   4.120   1.568   3.995
 6083SOL     OW19147   1.503   6.668   0.542
 6083SOL    HW119148   1.492   6.765   0.565
 6083SOL    HW219149   1.435   6.642   0.473
 6084SOL     OW19150   0.615   4.900   5.575
 6084SOL    HW119151   0.650   4.808   5.555
 6084SOL    HW219152   0.526   4.893   5.620
 6085SOL     OW19153   5.527   4.102   1.200
 6085SOL    HW119154   5.493   4.008   1.208
 6085SOL    HW219155   5.468   4.153   1.137
 6086SOL     OW19156   3.185   1.729   3.477
 6086SOL    HW119157   3.204   1.658   3.546
 6086SOL    HW219158   3.137   1.688   3.400
 6087SOL     OW19159   5.077   6.775   6.997
 6087SOL    HW119160   5.035   6.836   6.930
 6087SOL    HW219161   5.094   6.826   0.057
 6088SOL     OW19162   0.992   0.049   4.725
 6088SOL    HW119163   1.067   0.015   4.781
 6088SOL    HW219164   0.986   7.021   4.641
 6089SOL     OW19165   0.383   3.566   0.130
 6089SOL    HW119166   0.343   3.574   0.221
 6089SOL    HW219167   0.345   3.636   0.070
 6090SOL     OW19168   0.305   5.971   4.708
 6090SOL    HW119169   0.390   5.918   4.718
 6090SOL    HW219170   0.273   5.964   4.614
 6091SOL     OW19171   6.028   1.909   2.220
 6091SOL    HW119172   6.014   1.947   2.128
 6091SOL    HW219173   6.092   1.833   2.214
 6092SOL     OW19174   1.811   2.048   1.616
 6092SOL    HW119175   1.715   2.032   1.642
 6092SOL    HW219176   1.871   2.003   1.682
 6093SOL     OW19177   0.847   3.233   0.966
 6093SOL    HW119178   0.930   3.187   0.996
 6093SOL    HW219179   0.811   3.186   0.885
 6094SOL     OW19180   1.222   0.761   1.312
 6094SOL    HW119181   1.170   0.690   1.360
 6094SOL    HW219182   1.160   0.817   1.258
 6095SOL     OW19183   6.566   3.743   5.816
 6095SOL    HW119184   6.518   3.690   5.886
 6095SOL    HW219185   6.548   3.704   5.726
 6096SOL     OW19186   3.612   1.864   3.062
 6096SOL    HW119187   3.539   1.924   3.031
 6096SOL    HW219188   3.592   1.770   3.033
 6097SOL     OW19189   2.940   2.133   2.234
 6097SOL    HW119190   3.031   2.142   2.274
 6097SOL    HW219191   2.931   2.198   2.159
 6098SOL     OW19192   1.913   2.210   5.757
 6098SOL    HW119193   1.861   2.248   5.833
 6098SOL    HW219194   2.007   2.245   5.760
 6099SOL     OW19195   6.019   5.484   4.902
 6099SOL    HW119196   6.004   5.578   4.933
 6099SOL    HW219197   5.970   5.469   4.816
 6100SOL     OW19198   6.491   2.868   0.043
 6100SOL    HW119199   6.558   2.802   0.010
 6100SOL    HW219200   6.539   2.945   0.086
 6101SOL     OW19201   6.190   1.338   5.061
 6101SOL    HW119202   6.223   1.243   5.057
 6101SOL    HW219203   6.169   1.362   5.155
 6102SOL     OW19204   2.822   0.587   5.375
 6102SOL    HW119205   2.741   0.567   5.321
 6102SOL    HW219206   2.832   0.686   5.384
 6103SOL     OW19207   6.044   6.705   5.946
 6103SOL    HW119208   6.059   6.623   6.000
 6103SOL    HW219209   5.973   6.761   5.988
 6104SOL     OW19210   0.444   2.503   6.782
 6104SOL    HW119211   0.536   2.484   6.817
 6104SOL    HW219212   0.411   2.425   6.729
 6105SOL     OW19213   3.559   6.072   4.334
 6105SOL    HW119214   3.492   6.057   4.261
 6105SOL    HW219215   3.570   6.170   4.349
 6106SOL     OW19216   3.210   5.545   5.061
 6106SOL    HW119217   3.204   5.643   5.080
 6106SOL    HW219218   3.213   5.531   4.962
 6107SOL     OW19219   2.178   4.265   5.455
 6107SOL    HW119220   2.278   4.268   5.446
 6107SOL    HW219221   2.152   4.190   5.516
 6108SOL     OW19222   0.303   2.472   5.047
 6108SOL    HW119223   0.262   2.424   4.971
 6108SOL    HW219224   0.273   2.431   5.133
 6109SOL     OW19225   6.640   4.705   1.256
 6109SOL    HW119226   6.640   4.608   1.281
 6109SOL    HW219227   6.734   4.736   1.241
 6110SOL     OW19228   2.942   1.422   4.558
 6110SOL    HW119229   2.931   1.521   4.555
 6110SOL    HW219230   2.853   1.378   4.546
 6111SOL     OW19231   1.443   4.698   2.986
 6111SOL    HW119232   1.415   4.602   2.982
 6111SOL    HW219233   1.378   4.749   3.041
 6112SOL     OW19234   0.638   1.686   2.473
 6112SOL    HW119235   0.640   1.596   2.429
 6112SOL    HW219236   0.549   1.700   2.516
 6113SOL     OW19237   1.615   6.425   5.520
 6113SOL    HW119238   1.543   6.384   5.576
 6113SOL    HW219239   1.705   6.401   5.559
 6114SOL     OW19240   5.014   5.655   0.276
 6114SOL    HW119241   5.017   5.566   0.322
 6114SOL    HW219242   5.103   5.676   0.236
 6115SOL     OW19243   5.879   5.006   2.513
 6115SOL    HW119244   5.878   5.101   2.547
 6115SOL    HW219245   5.799   4.990   2.456
 6116SOL     OW19246   4.513   0.626   1.916
 6116SOL    HW119247   4.555   0.657   2.001
 6116SOL    HW219248   4.427   0.579   1.937
 6117SOL     OW19249   5.255   0.595   4.665
 6117SOL    HW119250   5.156   0.604   4.677
 6117SOL    HW219251   5.285   0.508   4.705
 6118SOL     OW19252   5.992   0.216   3.178
 6118SOL    HW119253   6.003   0.308   3.216
 6118SOL    HW219254   5.896   0.204   3.151
 6119SOL     OW19255   6.873   5.268   4.444
 6119SOL    HW119256   6.825   5.203   4.386
 6119SOL    HW219257   6.968   5.238   4.458
 6120SOL     OW19258   2.593   1.165   3.172
 6120SOL    HW119259   2.662   1.095   3.191
 6120SOL    HW219260   2.507   1.140   3.217
 6121SOL     OW19261   6.755   2.514   4.403
 6121SOL    HW119262   6.786   2.443   4.467
 6121SOL    HW219263   6.832   2.574   4.380
 6122SOL     OW19264   4.591   5.339   3.168
 6122SOL    HW119265   4.533   5.299   3.238
 6122SOL    HW219266   4.654   5.270   3.132
 6123SOL     OW19267   5.902   1.095   2.136
 6123SOL    HW119268   5.956   1.178   2.126
 6123SOL    HW219269   5.835   1.089   2.062
 6124SOL     OW19270   3.488   0.706   5.680
 6124SOL    HW119271   3.436   0.639   5.627
 6124SOL    HW219272   3.584   0.679   5.683
 6125SOL     OW19273   1.927   5.836   1.950
 6125SOL    HW119274   1.942   5.874   1.859
 6125SOL    HW219275   1.919   5.910   2.016
 6126SOL     OW19276   5.274   5.702   2.534
 6126SOL    HW119277   5.298   5.675   2.627
 6126SOL    HW219278   5.191   5.758   2.536
 6127SOL     OW19279   2.584   5.050   1.758
 6127SOL    HW119280   2.611   5.146   1.757
 6127SOL    HW219281   2.603   5.010   1.847
 6128SOL     OW19282   5.518   1.804   0.824
 6128SOL    HW119283   5.571   1.889   0.820
 6128SOL    HW219284   5.471   1.790   0.737
 6129SOL     OW19285   6.204   4.912   3.629
 6129SOL    HW119286   6.213   4.923   3.530
 6129SOL    HW219287   6.218   4.815   3.653
 6130SOL     OW19288   5.171   3.243   2.328
 6130SOL    HW119289   5.225   3.314   2.373
 6130SOL    HW219290   5.134   3.278   2.243
 6131SOL     OW19291   6.490   0.706   5.167
 6131SOL    HW119292   6.472   0.695   5.265
 6131SOL    HW219293   6.588   0.702   5.151
 6132SOL     OW19294   5.517   2.597   0.813
 6132SOL    HW119295   5.543   2.684   0.771
 6132SOL    HW219296   5.598   2.551   0.849
 6133SOL     OW19297   0.840   4.324   0.555
 6133SOL    HW119298   0.855   4.417   0.588
 6133SOL    HW219299   0.777   4.327   0.477
 6134SOL     OW19300   4.665   3.546   6.106
 6134SOL    HW119301   4.684   3.601   6.025
 6134SOL    HW219302   4.568   3.525   6.111
 6135SOL     OW19303   5.630   6.979   1.209
 6135SOL    HW119304   5.698   6.933   1.266
 6135SOL    HW219305   5.546   6.924   1.206
 6136SOL     OW19306   0.469   1.786   1.424
 6136SOL    HW119307   0.381   1.739   1.430
 6136SOL    HW219308   0.491   1.827   1.513
 6137SOL     OW19309   2.700   0.005   6.286
 6137SOL    HW119310   2.777   6.967   6.296
 6137SOL    HW219311   2.615   6.979   6.295
 6138SOL     OW19312   4.288   0.448   2.766
 6138SOL    HW119313   4.269   0.519   2.699
 6138SOL    HW219314   4.330   0.369   2.721
 6139SOL     OW19315   1.962   4.356   4.005
 6139SOL    HW119316   2.048   4.407   4.009
 6139SOL    HW219317   1.905   4.378   4.084
 6140SOL     OW19318   1.913   6.753   1.348
 6140SOL    HW119319   1.851   6.719   1.419
 6140SOL    HW219320   1.916   6.852   1.351
 6141SOL     OW19321   6.375   6.293   6.209
 6141SOL    HW119322   6.445   6.339   6.264
 6141SOL    HW219323   6.286   6.304   6.253
 6142SOL     OW19324   0.698   4.517   2.085
 6142SOL    HW119325   0.694   4.564   2.173
 6142SOL    HW219326   0.688   4.584   2.011
 6143SOL     OW19327   6.327   5.106   6.392
 6143SOL    HW119328   6.360   5.101   6.487
 6143SOL    HW219329   6.230   5.130   6.392
 6144SOL     OW19330   0.479   4.763   3.830
 6144SOL    HW119331   0.532   4.684   3.860
 6144SOL    HW219332   0.381   4.743   3.841
 6145SOL     OW19333   5.349   6.210   3.434
 6145SOL    HW119334   5.302   6.240   3.517
 6145SOL    HW219335   5.444   6.188   3.456
 6146SOL     OW19336   5.273   0.873   3.132
 6146SOL    HW119337   5.295   0.844   3.039
 6146SOL    HW219338   5.332   0.824   3.197
 6147SOL     OW19339   1.798   3.577   3.168
 6147SOL    HW119340   1.788   3.576   3.069
 6147SOL    HW219341   1.839   3.492   3.199
 6148SOL     OW19342   6.687   6.667   4.853
 6148SOL    HW119343   6.664   6.640   4.760
 6148SOL    HW219344   6.778   6.634   4.876
 6149SOL     OW19345   2.096   6.515   3.802
 6149SOL    HW119346   2.028   6.582   3.833
 6149SOL    HW219347   2.096   6.437   3.864
 6150SOL     OW19348   4.707   5.210   5.902
 6150SOL    HW119349   4.714   5.210   5.802
 6150SOL    HW219350   4.799   5.212   5.941
 6151SOL     OW19351   5.131   2.261   5.612
 6151SOL    HW119352   5.152   2.286   5.518
 6151SOL    HW219353   5.194   2.188   5.641
 6152SOL     OW19354   6.804   4.471   6.766
 6152SOL    HW119355   6.727   4.526   6.800
 6152SOL    HW219356   6.867   4.530   6.715
 6153SOL     OW19357   4.655   3.363   0.998
 6153SOL    HW119358   4.669   3.288   1.062
 6153SOL    HW219359   4.740   3.381   0.948
 6154SOL     OW19360   5.302   3.323   2.798
 6154SOL    HW119361   5.307   3.350   2.701
 6154SOL    HW219362   5.286   3.224   2.804
 6155SOL     OW19363   0.701   4.038   4.941
 6155SOL    HW119364   0.715   3.974   4.865
 6155SOL    HW219365   0.689   3.987   5.026
 6156SOL     OW19366   6.724   0.496   3.387
 6156SOL    HW119367   6.786   0.547   3.327
 6156SOL    HW219368   6.692   0.414   3.339
 6157SOL     OW19369   2.186   1.829   3.557
 6157SOL    HW119370   2.251   1.753   3.549
 6157SOL    HW219371   2.165   1.865   3.466
 6158SOL     OW19372   4.628   0.709   6.897
 6158SOL    HW119373   4.728   0.707   6.885
 6158SOL    HW219374   4.591   0.788   6.848
 6159SOL     OW19375   5.453   3.437   6.601
 6159SOL    HW119376   5.414   3.478   6.518
 6159SOL    HW219377   5.550   3.460   6.606
 6160SOL     OW19378   5.978   5.804   1.652
 6160SOL    HW119379   6.011   5.826   1.744
 6160SOL    HW219380   5.990   5.884   1.593
 6161SOL     OW19381   5.791   0.658   6.020
 6161SOL    HW119382   5.840   0.741   6.047
 6161SOL    HW219383   5.845   0.607   5.954
 6162SOL     OW19384   6.281   5.277   3.974
 6162SOL    HW119385   6.257   5.373   3.958
 6162SOL    HW219386   6.244   5.221   3.900
 6163SOL     OW19387   6.432   4.138   1.807
 6163SOL    HW119388   6.360   4.084   1.850
 6163SOL    HW219389   6.394   4.225   1.775
 6164SOL     OW19390   4.288   2.719   0.338
 6164SOL    HW119391   4.313   2.746   0.431
 6164SOL    HW219392   4.189   2.725   0.327
 6165SOL     OW19393   4.128   6.167   6.957
 6165SOL    HW119394   4.176   6.208   6.879
 6165SOL    HW219395   4.192   6.111   7.010
 6166SOL     OW19396   3.457   1.869   6.191
 6166SOL    HW119397   3.377   1.870   6.250
 6166SOL    HW219398   3.532   1.919   6.235
 6167SOL     OW19399   6.463   4.497   3.621
 6167SOL    HW119400   6.402   4.425   3.588
 6167SOL    HW219401   6.523   4.461   3.691
 6168SOL     OW19402   0.440   2.684   2.472
 6168SOL    HW119403   0.459   2.782   2.471
 6168SOL    HW219404   0.341   2.669   2.466
 6169SOL     OW19405   1.767   4.273   2.346
 6169SOL    HW119406   1.696   4.241   2.283
 6169SOL    HW219407   1.844   4.311   2.293
 6170SOL     OW19408   0.175   2.896   4.460
 6170SOL    HW119409   0.135   2.933   4.376
 6170SOL    HW219410   0.145   2.951   4.539
 6171SOL     OW19411   0.333   0.760   6.357
 6171SOL    HW119412   0.281   0.675   6.363
 6171SOL    HW219413   0.407   0.749   6.290
 6172SOL     OW19414   0.885   3.582   3.825
 6172SOL    HW119415   0.952   3.508   3.834
 6172SOL    HW219416   0.805   3.549   3.776
 6173SOL     OW19417   6.422   6.483   3.491
 6173SOL    HW119418   6.388   6.417   3.424
 6173SOL    HW219419   6.478   6.435   3.560
 6174SOL     OW19420   6.010   4.110   2.241
 6174SOL    HW119421   5.945   4.185   2.230
 6174SOL    HW219422   6.093   4.131   2.189
 6175SOL     OW19423   3.545   2.182   5.687
 6175SOL    HW119424   3.455   2.183   5.643
 6175SOL    HW219425   3.560   2.268   5.735
 6176SOL     OW19426   4.773   4.095   6.088
 6176SOL    HW119427   4.728   4.106   6.176
 6176SOL    HW219428   4.751   4.172   6.028
 6177SOL     OW19429   6.292   1.117   1.803
 6177SOL    HW119430   6.203   1.073   1.817
 6177SOL    HW219431   6.281   1.194   1.740
 6178SOL     OW19432   3.813   4.605   1.281
 6178SOL    HW119433   3.854   4.695   1.298
 6178SOL    HW219434   3.751   4.612   1.203
 6179SOL     OW19435   6.007   4.995   3.884
 6179SOL    HW119436   5.909   5.010   3.879
 6179SOL    HW219437   6.054   5.059   3.823
 6180SOL     OW19438   3.230   4.306   0.314
 6180SOL    HW119439   3.247   4.281   0.409
 6180SOL    HW219440   3.197   4.400   0.309
 6181SOL     OW19441   6.202   5.935   6.694
 6181SOL    HW119442   6.301   5.939   6.687
 6181SOL    HW219443   6.170   5.844   6.666
 6182SOL     OW19444   3.375   2.579   0.510
 6182SOL    HW119445   3.325   2.659   0.477
 6182SOL    HW219446   3.321   2.533   0.580
 6183SOL     OW19447   0.626   0.108   0.570
 6183SOL    HW119448   0.558   0.153   0.627
 6183SOL    HW219449   0.642   0.162   0.488
 6184SOL     OW19450   2.270   0.302   5.457
 6184SOL    HW119451   2.358   0.253   5.454
 6184SOL    HW219452   2.276   0.384   5.400
 6185SOL     OW19453   3.863   2.826   5.409
 6185SOL    HW119454   3.787   2.837   5.345
 6185SOL    HW219455   3.948   2.813   5.359
 6186SOL     OW19456   0.249   1.675   1.884
 6186SOL    HW119457   0.294   1.763   1.896
 6186SOL    HW219458   0.264   1.642   1.790
 6187SOL     OW19459   5.042   1.518   5.754
 6187SOL    HW119460   4.996   1.571   5.825
 6187SOL    HW219461   5.015   1.422   5.761
 6188SOL     OW19462   1.471   1.638   4.941
 6188SOL    HW119463   1.412   1.566   4.904
 6188SOL    HW219464   1.420   1.723   4.949
 6189SOL     OW19465   6.331   6.238   1.369
 6189SOL    HW119466   6.313   6.155   1.422
 6189SOL    HW219467   6.275   6.313   1.404
 6190SOL     OW19468   0.584   3.169   5.001
 6190SOL    HW119469   0.522   3.092   5.021
 6190SOL    HW219470   0.666   3.161   5.057
 6191SOL     OW19471   4.015   3.797   0.015
 6191SOL    HW119472   4.018   3.740   0.097
 6191SOL    HW219473   4.089   3.771   6.977
 6192SOL     OW19474   2.967   1.138   0.649
 6192SOL    HW119475   2.870   1.160   0.640
 6192SOL    HW219476   3.018   1.185   0.577
 6193SOL     OW19477   4.496   5.641   6.661
 6193SOL    HW119478   4.433   5.713   6.631
 6193SOL    HW219479   4.448   5.580   6.724
 6194SOL     OW19480   5.826   6.705   6.244
 6194SOL    HW119481   5.729   6.684   6.232
 6194SOL    HW219482   5.841   6.803   6.233
 6195SOL     OW19483   6.512   6.444   6.424
 6195SOL    HW119484   6.474   6.534   6.445
 6195SOL    HW219485   6.602   6.455   6.382
 6196SOL     OW19486   5.863   3.821   3.042
 6196SOL    HW119487   5.874   3.758   2.966
 6196SOL    HW219488   5.887   3.776   3.128
 6197SOL     OW19489   2.234   5.610   1.901
 6197SOL    HW119490   2.137   5.605   1.924
 6197SOL    HW219491   2.248   5.585   1.805
 6198SOL     OW19492   6.268   0.937   0.022
 6198SOL    HW119493   6.258   0.982   0.111
 6198SOL    HW219494   6.203   0.977   6.981
 6199SOL     OW19495   1.427   0.111   6.533
 6199SOL    HW119496   1.516   0.075   6.562
 6199SOL    HW219497   1.410   0.198   6.579
 6200SOL     OW19498   1.709   1.358   2.161
 6200SOL    HW119499   1.761   1.291   2.107
 6200SOL    HW219500   1.625   1.382   2.112
 6201SOL     OW19501   0.304   4.501   3.436
 6201SOL    HW119502   0.223   4.451   3.467
 6201SOL    HW219503   0.327   4.472   3.343
 6202SOL     OW19504   6.068   1.768   2.495
 6202SOL    HW119505   5.998   1.827   2.535
 6202SOL    HW219506   6.052   1.674   2.524
 6203SOL     OW19507   6.701   0.126   1.525
 6203SOL    HW119508   6.773   0.189   1.553
 6203SOL    HW219509   6.689   0.056   1.595
 6204SOL     OW19510   1.779   0.021   5.127
 6204SOL    HW119511   1.803   6.949   5.124
 6204SOL    HW219512   1.713   0.042   5.055
 6205SOL     OW19513   5.164   4.690   3.473
 6205SOL    HW119514   5.083   4.644   3.508
 6205SOL    HW219515   5.136   4.769   3.419
 6206SOL     OW19516   6.024   1.520   4.619
 6206SOL    HW119517   6.089   1.523   4.543
 6206SOL    HW219518   5.948   1.461   4.595
 6207SOL     OW19519   2.016   4.819   4.425
 6207SOL    HW119520   2.068   4.746   4.382
 6207SOL    HW219521   2.078   4.893   4.452
 6208SOL     OW19522   4.075   3.687   6.135
 6208SOL    HW119523   4.171   3.666   6.120
 6208SOL    HW219524   4.033   3.616   6.192
 6209SOL     OW19525   3.253   2.358   1.465
 6209SOL    HW119526   3.306   2.280   1.431
 6209SOL    HW219527   3.215   2.336   1.555
 6210SOL     OW19528   4.709   2.050   4.188
 6210SOL    HW119529   4.746   2.072   4.278
 6210SOL    HW219530   4.784   2.032   4.125
 6211SOL     OW19531   5.455   4.532   5.422
 6211SOL    HW119532   5.411   4.616   5.392
 6211SOL    HW219533   5.533   4.511   5.363
 6212SOL     OW19534   4.239   5.698   4.842
 6212SOL    HW119535   4.261   5.692   4.744
 6212SOL    HW219536   4.324   5.695   4.895
 6213SOL     OW19537   4.318   6.054   0.093
 6213SOL    HW119538   4.400   6.095   0.132
 6213SOL    HW219539   4.253   6.033   0.166
 6214SOL     OW19540   6.820   5.830   6.137
 6214SOL    HW119541   6.848   5.784   6.221
 6214SOL    HW219542   6.728   5.867   6.149
 6215SOL     OW19543   5.647   2.502   5.549
 6215SOL    HW119544   5.625   2.433   5.481
 6215SOL    HW219545   5.651   2.592   5.506
 6216SOL     OW19546   4.737   1.814   3.548
 6216SOL    HW119547   4.704   1.739   3.605
 6216SOL    HW219548   4.687   1.815   3.461
 6217SOL     OW19549   0.185   4.466   3.170
 6217SOL    HW119550   0.121   4.474   3.247
 6217SOL    HW219551   0.152   4.396   3.106
 6218SOL     OW19552   4.657   6.447   0.179
 6218SOL    HW119553   4.614   6.532   0.149
 6218SOL    HW219554   4.698   6.400   0.100
 6219SOL     OW19555   1.933   1.331   6.133
 6219SOL    HW119556   1.951   1.341   6.231
 6219SOL    HW219557   1.895   1.416   6.096
 6220SOL     OW19558   3.653   6.760   0.463
 6220SOL    HW119559   3.617   6.726   0.377
 6220SOL    HW219560   3.710   6.690   0.505
 6221SOL     OW19561   5.875   5.225   6.841
 6221SOL    HW119562   5.837   5.272   6.761
 6221SOL    HW219563   5.967   5.191   6.820
 6222SOL     OW19564   6.406   1.538   1.945
 6222SOL    HW119565   6.332   1.471   1.934
 6222SOL    HW219566   6.367   1.629   1.956
 6223SOL     OW19567   0.279   4.654   4.112
 6223SOL    HW119568   0.341   4.713   4.164
 6223SOL    HW219569   0.256   4.698   4.025
 6224SOL     OW19570   3.810   0.683   0.323
 6224SOL    HW119571   3.792   0.585   0.332
 6224SOL    HW219572   3.860   0.715   0.403
 6225SOL     OW19573   4.726   6.409   6.580
 6225SOL    HW119574   4.800   6.438   6.641
 6225SOL    HW219575   4.765   6.383   6.491
 6226SOL     OW19576   1.645   1.346   4.794
 6226SOL    HW119577   1.591   1.309   4.718
 6226SOL    HW219578   1.587   1.404   4.851
 6227SOL     OW19579   2.780   4.386   5.333
 6227SOL    HW119580   2.847   4.323   5.371
 6227SOL    HW219581   2.828   4.457   5.280
 6228SOL     OW19582   0.587   3.032   3.224
 6228SOL    HW119583   0.549   3.019   3.315
 6228SOL    HW219584   0.662   2.968   3.210
 6229SOL     OW19585   0.323   3.223   4.026
 6229SOL    HW119586   0.247   3.176   3.981
 6229SOL    HW219587   0.289   3.279   4.101
 6230SOL     OW19588   0.090   0.473   1.812
 6230SOL    HW119589   0.144   0.398   1.772
 6230SOL    HW219590   0.087   0.549   1.747
 6231SOL     OW19591   1.944   5.081   6.960
 6231SOL    HW119592   2.009   5.013   6.926
 6231SOL    HW219593   1.903   5.048   0.021
 6232SOL     OW19594   3.918   0.892   6.538
 6232SOL    HW119595   3.876   0.856   6.454
 6232SOL    HW219596   3.881   0.984   6.556
 6233SOL     OW19597   6.689   3.066   1.916
 6233SOL    HW119598   6.767   3.116   1.879
 6233SOL    HW219599   6.684   2.976   1.873
 6234SOL     OW19600   4.946   5.726   4.513
 6234SOL    HW119601   4.976   5.672   4.591
 6234SOL    HW219602   4.904   5.811   4.546
 6235SOL     OW19603   7.024   0.221   2.590
 6235SOL    HW119604   6.963   0.147   2.617
 6235SOL    HW219605   6.975   0.308   2.596
 6236SOL     OW19606   0.067   6.009   1.591
 6236SOL    HW119607   0.113   6.030   1.677
 6236SOL    HW219608   0.106   5.926   1.551
 6237SOL     OW19609   3.192   1.758   0.962
 6237SOL    HW119610   3.135   1.840   0.965
 6237SOL    HW219611   3.288   1.783   0.951
 6238SOL     OW19612   2.349   0.594   3.992
 6238SOL    HW119613   2.268   0.650   3.977
 6238SOL    HW219614   2.417   0.648   4.042
 6239SOL     OW19615   4.595   1.457   4.316
 6239SOL    HW119616   4.535   1.499   4.248
 6239SOL    HW219617   4.544   1.389   4.369
 6240SOL     OW19618   3.768   2.932   4.048
 6240SOL    HW119619   3.720   2.874   3.982
 6240SOL    HW219620   3.701   2.977   4.107
 6241SOL     OW19621   3.018   0.530   3.318
 6241SOL    HW119622   2.980   0.609   3.367
 6241SOL    HW219623   2.989   0.446   3.362
 6242SOL     OW19624   2.481   2.223   3.269
 6242SOL    HW119625   2.567   2.224   3.217
 6242SOL    HW219626   2.482   2.295   3.338
 6243SOL     OW19627   4.626   1.840   6.266
 6243SOL    HW119628   4.581   1.789   6.192
 6243SOL    HW219629   4.719   1.863   6.239
 6244SOL     OW19630   5.386   3.539   2.425
 6244SOL    HW119631   5.436   3.529   2.511
 6244SOL    HW219632   5.293   3.569   2.444
 6245SOL     OW19633   0.206   4.411   2.231
 6245SOL    HW119634   0.110   4.439   2.228
 6245SOL    HW219635   0.216   4.319   2.192
 6246SOL     OW19636   6.772   6.990   4.104
 6246SOL    HW119637   6.829   0.039   4.068
 6246SOL    HW219638   6.725   6.944   4.029
 6247SOL     OW19639   6.244   6.617   4.147
 6247SOL    HW119640   6.158   6.601   4.099
 6247SOL    HW219641   6.275   6.710   4.128
 6248SOL     OW19642   3.973   2.653   5.610
 6248SOL    HW119643   3.929   2.714   5.543
 6248SOL    HW219644   3.919   2.570   5.620
 6249SOL     OW19645   5.905   2.869   1.960
 6249SOL    HW119646   5.856   2.815   2.027
 6249SOL    HW219647   5.982   2.915   2.004
 6250SOL     OW19648   6.318   0.372   6.990
 6250SOL    HW119649   6.279   0.450   6.941
 6250SOL    HW219650   6.283   0.371   0.059
 6251SOL     OW19651   2.934   0.101   4.019
 6251SOL    HW119652   2.943   0.120   3.922
 6251SOL    HW219653   3.025   0.103   4.062
 6252SOL     OW19654   2.989   5.711   6.397
 6252SOL    HW119655   3.016   5.803   6.370
 6252SOL    HW219656   2.897   5.714   6.436
 6253SOL     OW19657   3.849   5.690   4.644
 6253SOL    HW119658   3.855   5.668   4.547
 6253SOL    HW219659   3.940   5.679   4.686
 6254SOL     OW19660   0.071   0.007   1.196
 6254SOL    HW119661   0.033   0.088   1.239
 6254SOL    HW219662   0.022   6.950   1.227
 6255SOL     OW19663   0.604   1.264   1.442
 6255SOL    HW119664   0.589   1.166   1.428
 6255SOL    HW219665   0.690   1.291   1.398
 6256SOL     OW19666   5.726   6.161   2.239
 6256SOL    HW119667   5.808   6.202   2.198
 6256SOL    HW219668   5.663   6.134   2.167
 6257SOL     OW19669   3.198   3.855   1.145
 6257SOL    HW119670   3.245   3.942   1.154
 6257SOL    HW219671   3.231   3.806   1.064
 6258SOL     OW19672   4.458   5.348   5.056
 6258SOL    HW119673   4.530   5.291   5.016
 6258SOL    HW219674   4.369   5.310   5.033
 6259SOL     OW19675   3.507   0.676   4.347
 6259SOL    HW119676   3.432   0.728   4.389
 6259SOL    HW219677   3.592   0.729   4.355
 6260SOL     OW19678   1.582   1.260   6.851
 6260SOL    HW119679   1.674   1.251   6.889
 6260SOL    HW219680   1.515   1.255   6.925
 6261SOL     OW19681   3.782   6.898   0.740
 6261SOL    HW119682   3.787   6.965   0.666
 6261SOL    HW219683   3.859   6.835   0.733
 6262SOL     OW19684   5.199   0.616   2.458
 6262SOL    HW119685   5.260   0.538   2.468
 6262SOL    HW219686   5.229   0.689   2.520
 6263SOL     OW19687   5.543   6.069   5.442
 6263SOL    HW119688   5.497   6.132   5.504
 6263SOL    HW219689   5.637   6.100   5.427
 6264SOL     OW19690   2.412   6.702   0.380
 6264SOL    HW119691   2.510   6.724   0.384
 6264SOL    HW219692   2.399   6.604   0.396
 6265SOL     OW19693   4.812   0.111   6.306
 6265SOL    HW119694   4.857   0.194   6.274
 6265SOL    HW219695   4.850   0.084   6.394
 6266SOL     OW19696   2.643   5.033   3.103
 6266SOL    HW119697   2.552   4.994   3.091
 6266SOL    HW219698   2.709   4.982   3.049
 6267SOL     OW19699   2.476   6.375   4.838
 6267SOL    HW119700   2.389   6.381   4.886
 6267SOL    HW219701   2.462   6.342   4.745
 6268SOL     OW19702   2.935   1.525   0.643
 6268SOL    HW119703   3.019   1.552   0.595
 6268SOL    HW219704   2.958   1.457   0.714
 6269SOL     OW19705   6.289   4.788   0.261
 6269SOL    HW119706   6.364   4.829   0.210
 6269SOL    HW219707   6.206   4.842   0.248
 6270SOL     OW19708   1.772   6.014   0.643
 6270SOL    HW119709   1.792   6.084   0.574
 6270SOL    HW219710   1.689   5.965   0.617
 6271SOL     OW19711   6.518   3.341   5.583
 6271SOL    HW119712   6.421   3.319   5.583
 6271SOL    HW219713   6.558   3.317   5.671
 6272SOL     OW19714   6.946   0.209   0.118
 6272SOL    HW119715   6.878   0.142   0.149
 6272SOL    HW219716   6.970   0.269   0.195
 6273SOL     OW19717   0.708   6.550   1.590
 6273SOL    HW119718   0.633   6.581   1.532
 6273SOL    HW219719   0.734   6.623   1.653
 6274SOL     OW19720   3.339   5.193   3.705
 6274SOL    HW119721   3.355   5.176   3.607
 6274SOL    HW219722   3.348   5.107   3.755
 6275SOL     OW19723   2.518   5.556   6.640
 6275SOL    HW119724   2.473   5.468   6.631
 6275SOL    HW219725   2.598   5.547   6.699
 6276SOL     OW19726   1.766   5.204   2.786
 6276SOL    HW119727   1.721   5.275   2.839
 6276SOL    HW219728   1.859   5.190   2.820
 6277SOL     OW19729   5.570   2.893   1.043
 6277SOL    HW119730   5.549   2.976   1.093
 6277SOL    HW219731   5.661   2.901   1.002
 6278SOL     OW19732   2.965   2.146   0.180
 6278SOL    HW119733   2.999   2.198   0.102
 6278SOL    HW219734   2.907   2.204   0.237
 6279SOL     OW19735   2.979   6.764   2.060
 6279SOL    HW119736   3.040   6.718   1.995
 6279SOL    HW219737   2.886   6.727   2.051
 6280SOL     OW19738   5.571   2.505   6.380
 6280SOL    HW119739   5.565   2.412   6.415
 6280SOL    HW219740   5.661   2.544   6.404
 6281SOL     OW19741   5.660   4.081   6.003
 6281SOL    HW119742   5.720   4.142   5.952
 6281SOL    HW219743   5.654   3.993   5.956
 6282SOL     OW19744   6.829   3.308   6.052
 6282SOL    HW119745   6.791   3.248   6.123
 6282SOL    HW219746   6.803   3.403   6.071
 6283SOL     OW19747   1.709   6.568   4.745
 6283SOL    HW119748   1.677   6.624   4.821
 6283SOL    HW219749   1.674   6.605   4.659
 6284SOL     OW19750   1.489   3.740   5.200
 6284SOL    HW119751   1.476   3.679   5.277
 6284SOL    HW219752   1.425   3.817   5.207
 6285SOL     OW19753   1.377   3.484   3.241
 6285SOL    HW119754   1.279   3.479   3.223
 6285SOL    HW219755   1.427   3.500   3.156
 6286SOL     OW19756   0.209   2.559   6.945
 6286SOL    HW119757   0.180   2.635   7.003
 6286SOL    HW219758   0.307   2.568   6.926
 6287SOL     OW19759   4.671   5.077   5.253
 6287SOL    HW119760   4.634   5.167   5.277
 6287SOL    HW219761   4.763   5.068   5.291
 6288SOL     OW19762   3.174   3.932   6.413
 6288SOL    HW119763   3.237   3.978   6.350
 6288SOL    HW219764   3.163   3.837   6.385
 6289SOL     OW19765   2.521   4.424   5.977
 6289SOL    HW119766   2.474   4.337   5.993
 6289SOL    HW219767   2.599   4.408   5.916
 6290SOL     OW19768   6.255   6.175   4.732
 6290SOL    HW119769   6.205   6.260   4.747
 6290SOL    HW219770   6.294   6.144   4.818
 6291SOL     OW19771   4.033   3.280   2.950
 6291SOL    HW119772   4.041   3.379   2.963
 6291SOL    HW219773   4.083   3.253   2.868
 6292SOL     OW19774   1.859   3.946   4.243
 6292SOL    HW119775   1.806   3.863   4.225
 6292SOL    HW219776   1.941   3.945   4.186
 6293SOL     OW19777   3.090   1.016   6.563
 6293SOL    HW119778   3.155   0.941   6.574
 6293SOL    HW219779   2.997   0.979   6.558
 6294SOL     OW19780   1.627   1.110   2.318
 6294SOL    HW119781   1.557   1.113   2.389
 6294SOL    HW219782   1.606   1.178   2.248
 6295SOL     OW19783   5.067   3.407   6.368
 6295SOL    HW119784   5.031   3.334   6.426
 6295SOL    HW219785   4.992   3.467   6.341
 6296SOL     OW19786   1.164   3.384   0.156
 6296SOL    HW119787   1.199   3.352   0.068
 6296SOL    HW219788   1.239   3.394   0.220
 6297SOL     OW19789   5.899   1.336   4.410
 6297SOL    HW119790   5.923   1.430   4.387
 6297SOL    HW219791   5.862   1.289   4.329
 6298SOL     OW19792   6.792   5.810   0.957
 6298SOL    HW119793   6.788   5.903   0.994
 6298SOL    HW219794   6.701   5.770   0.960
 6299SOL     OW19795   3.699   1.364   3.510
 6299SOL    HW119796   3.674   1.375   3.606
 6299SOL    HW219797   3.730   1.452   3.474
 6300SOL     OW19798   2.872   1.523   6.762
 6300SOL    HW119799   2.881   1.609   6.711
 6300SOL    HW219800   2.942   1.519   6.832
 6301SOL     OW19801   3.940   6.399   0.212
 6301SOL    HW119802   3.886   6.334   0.266
 6301SOL    HW219803   4.023   6.423   0.263
 6302SOL     OW19804   3.456   2.869   6.078
 6302SOL    HW119805   3.512   2.941   6.037
 6302SOL    HW219806   3.360   2.899   6.079
 6303SOL     OW19807   0.336   5.626   4.779
 6303SOL    HW119808   0.299   5.649   4.869
 6303SOL    HW219809   0.435   5.641   4.779
 6304SOL     OW19810   4.040   0.794   4.402
 6304SOL    HW119811   4.081   0.881   4.431
 6304SOL    HW219812   4.009   0.743   4.482
 6305SOL     OW19813   0.982   5.814   6.329
 6305SOL    HW119814   1.067   5.863   6.347
 6305SOL    HW219815   0.975   5.735   6.390
 6306SOL     OW19816   0.654   5.122   4.650
 6306SOL    HW119817   0.707   5.191   4.602
 6306SOL    HW219818   0.648   5.146   4.747
 6307SOL     OW19819   3.637   2.908   2.114
 6307SOL    HW119820   3.541   2.880   2.105
 6307SOL    HW219821   3.643   3.007   2.106
 6308SOL     OW19822   0.385   2.347   0.308
 6308SOL    HW119823   0.418   2.333   0.214
 6308SOL    HW219824   0.324   2.272   0.334
 6309SOL     OW19825   2.594   6.164   4.965
 6309SOL    HW119826   2.688   6.142   4.991
 6309SOL    HW219827   2.582   6.264   4.965
 6310SOL     OW19828   1.569   0.009   3.099
 6310SOL    HW119829   1.654   0.055   3.127
 6310SOL    HW219830   1.506   0.006   3.177
 6311SOL     OW19831   6.021   0.913   6.767
 6311SOL    HW119832   6.012   0.829   6.713
 6311SOL    HW219833   6.072   0.981   6.713
 6312SOL     OW19834   3.353   6.148   6.862
 6312SOL    HW119835   3.430   6.202   6.830
 6312SOL    HW219836   3.360   6.133   6.961
 6313SOL     OW19837   6.123   5.217   4.465
 6313SOL    HW119838   6.210   5.193   4.507
 6313SOL    HW219839   6.057   5.243   4.536
 6314SOL     OW19840   1.924   6.509   2.911
 6314SOL    HW119841   1.893   6.557   2.993
 6314SOL    HW219842   1.936   6.412   2.933
 6315SOL     OW19843   2.446   2.101   3.755
 6315SOL    HW119844   2.520   2.141   3.700
 6315SOL    HW219845   2.369   2.078   3.695
 6316SOL     OW19846   4.552   1.330   4.550
 6316SOL    HW119847   4.502   1.271   4.614
 6316SOL    HW219848   4.651   1.319   4.566
 6317SOL     OW19849   5.196   5.201   1.884
 6317SOL    HW119850   5.197   5.154   1.973
 6317SOL    HW219851   5.183   5.299   1.899
 6318SOL     OW19852   6.545   6.851   0.370
 6318SOL    HW119853   6.524   6.871   0.274
 6318SOL    HW219854   6.629   6.796   0.374
 6319SOL     OW19855   5.467   1.717   3.817
 6319SOL    HW119856   5.431   1.754   3.902
 6319SOL    HW219857   5.446   1.619   3.811
 6320SOL     OW19858   6.076   1.139   5.837
 6320SOL    HW119859   6.168   1.148   5.799
 6320SOL    HW219860   6.008   1.149   5.764
 6321SOL     OW19861   6.726   2.676   6.779
 6321SOL    HW119862   6.656   2.606   6.762
 6321SOL    HW219863   6.775   2.654   6.863
 6322SOL     OW19864   0.822   0.722   2.424
 6322SOL    HW119865   0.789   0.645   2.478
 6322SOL    HW219866   0.782   0.717   2.332
 6323SOL     OW19867   2.349   5.029   0.838
 6323SOL    HW119868   2.254   4.999   0.846
 6323SOL    HW219869   2.371   5.090   0.914
 6324SOL     OW19870   4.357   3.019   1.301
 6324SOL    HW119871   4.374   2.993   1.396
 6324SOL    HW219872   4.282   3.085   1.297
 6325SOL     OW19873   1.492   2.532   4.031
 6325SOL    HW119874   1.563   2.601   4.034
 6325SOL    HW219875   1.533   2.441   4.032
 6326SOL     OW19876   5.133   4.816   5.801
 6326SOL    HW119877   5.078   4.733   5.803
 6326SOL    HW219878   5.091   4.882   5.739
 6327SOL     OW19879   0.562   1.178   3.702
 6327SOL    HW119880   0.471   1.156   3.667
 6327SOL    HW219881   0.557   1.262   3.758
 6328SOL     OW19882   4.471   3.514   5.331
 6328SOL    HW119883   4.551   3.520   5.271
 6328SOL    HW219884   4.390   3.549   5.283
 6329SOL     OW19885   0.806   2.111   5.378
 6329SOL    HW119886   0.828   2.160   5.463
 6329SOL    HW219887   0.707   2.110   5.364
 6330SOL     OW19888   5.270   1.490   3.615
 6330SOL    HW119889   5.256   1.398   3.578
 6330SOL    HW219890   5.322   1.484   3.700
 6331SOL     OW19891   0.505   2.929   3.461
 6331SOL    HW119892   0.415   2.945   3.501
 6331SOL    HW219893   0.575   2.944   3.530
 6332SOL     OW19894   3.244   1.679   6.379
 6332SOL    HW119895   3.150   1.653   6.399
 6332SOL    HW219896   3.280   1.620   6.306
 6333SOL     OW19897   5.930   1.296   1.212
 6333SOL    HW119898   5.862   1.331   1.147
 6333SOL    HW219899   5.949   1.200   1.192
 6334SOL     OW19900   1.559   1.262   1.625
 6334SOL    HW119901   1.526   1.190   1.685
 6334SOL    HW219902   1.512   1.257   1.537
 6335SOL     OW19903   6.404   2.793   6.681
 6335SOL    HW119904   6.448   2.707   6.705
 6335SOL    HW219905   6.466   2.849   6.627
 6336SOL     OW19906   0.888   4.057   5.260
 6336SOL    HW119907   0.791   4.036   5.250
 6336SOL    HW219908   0.939   4.016   5.185
 6337SOL     OW19909   5.429   6.852   4.976
 6337SOL    HW119910   5.507   6.882   5.031
 6337SOL    HW219911   5.365   6.800   5.033
 6338SOL     OW19912   1.343   1.299   2.951
 6338SOL    HW119913   1.323   1.222   3.012
 6338SOL    HW219914   1.277   1.373   2.968
 6339SOL     OW19915   0.473   4.444   4.137
 6339SOL    HW119916   0.507   4.486   4.221
 6339SOL    HW219917   0.400   4.500   4.099
 6340SOL     OW19918   2.768   3.849   0.524
 6340SOL    HW119919   2.725   3.903   0.596
 6340SOL    HW219920   2.731   3.878   0.435
 6341SOL     OW19921   0.735   5.070   2.389
 6341SOL    HW119922   0.743   5.128   2.470
 6341SOL    HW219923   0.826   5.051   2.352
 6342SOL     OW19924   1.687   1.120   1.172
 6342SOL    HW119925   1.674   1.024   1.150
 6342SOL    HW219926   1.765   1.131   1.233
 6343SOL     OW19927   0.941   5.523   0.351
 6343SOL    HW119928   0.859   5.466   0.343
 6343SOL    HW219929   0.923   5.597   0.416
 6344SOL     OW19930   0.604   1.405   3.853
 6344SOL    HW119931   0.696   1.421   3.887
 6344SOL    HW219932   0.538   1.423   3.926
 6345SOL     OW19933   6.036   2.677   2.331
 6345SOL    HW119934   6.010   2.604   2.269
 6345SOL    HW219935   5.955   2.712   2.377
 6346SOL     OW19936   0.257   4.530   5.447
 6346SOL    HW119937   0.253   4.431   5.438
 6346SOL    HW219938   0.218   4.557   5.534
 6347SOL     OW19939   2.347   2.067   3.074
 6347SOL    HW119940   2.357   2.027   2.983
 6347SOL    HW219941   2.435   2.104   3.104
 6348SOL     OW19942   0.813   2.107   6.124
 6348SOL    HW119943   0.740   2.038   6.132
 6348SOL    HW219944   0.885   2.087   6.190
 6349SOL     OW19945   6.952   1.208   0.510
 6349SOL    HW119946   6.937   1.294   0.559
 6349SOL    HW219947   7.016   1.151   0.562
 6350SOL     OW19948   0.683   6.074   1.536
 6350SOL    HW119949   0.588   6.055   1.511
 6350SOL    HW219950   0.686   6.147   1.604
 6351SOL     OW19951   5.731   3.845   1.754
 6351SOL    HW119952   5.821   3.889   1.761
 6351SOL    HW219953   5.665   3.893   1.811
 6352SOL     OW19954   3.277   0.777   4.446
 6352SOL    HW119955   3.260   0.875   4.446
 6352SOL    HW219956   3.208   0.731   4.502
 6353SOL     OW19957   3.446   6.408   6.217
 6353SOL    HW119958   3.507   6.331   6.235
 6353SOL    HW219959   3.442   6.425   6.119
 6354SOL     OW19960   4.470   5.456   1.416
 6354SOL    HW119961   4.408   5.496   1.483
 6354SOL    HW219962   4.564   5.483   1.437
 6355SOL     OW19963   3.310   5.098   0.605
 6355SOL    HW119964   3.221   5.140   0.586
 6355SOL    HW219965   3.376   5.168   0.627
 6356SOL     OW19966   0.128   5.372   6.173
 6356SOL    HW119967   0.061   5.335   6.108
 6356SOL    HW219968   0.131   5.471   6.165
 6357SOL     OW19969   5.086   1.057   1.897
 6357SOL    HW119970   5.167   1.049   1.956
 6357SOL    HW219971   5.063   0.967   1.860
 6358SOL     OW19972   1.188   1.824   5.541
 6358SOL    HW119973   1.217   1.912   5.504
 6358SOL    HW219974   1.189   1.756   5.469
 6359SOL     OW19975   5.484   6.600   0.518
 6359SOL    HW119976   5.471   6.609   0.419
 6359SOL    HW219977   5.398   6.569   0.560
 6360SOL     OW19978   0.768   1.228   1.662
 6360SOL    HW119979   0.686   1.254   1.610
 6360SOL    HW219980   0.848   1.275   1.625
 6361SOL     OW19981   0.535   1.160   0.563
 6361SOL    HW119982   0.579   1.204   0.641
 6361SOL    HW219983   0.523   1.063   0.581
 6362SOL     OW19984   0.979   5.535   0.667
 6362SOL    HW119985   1.028   5.511   0.751
 6362SOL    HW219986   0.892   5.485   0.664
 6363SOL     OW19987   2.273   4.145   2.859
 6363SOL    HW119988   2.264   4.120   2.763
 6363SOL    HW219989   2.203   4.099   2.913
 6364SOL     OW19990   2.550   2.550   4.202
 6364SOL    HW119991   2.483   2.496   4.252
 6364SOL    HW219992   2.540   2.647   4.226
 6365SOL     OW19993   5.644   6.717   3.123
 6365SOL    HW119994   5.605   6.773   3.197
 6365SOL    HW219995   5.574   6.657   3.086
 6366SOL     OW19996   5.946   0.743   5.231
 6366SOL    HW119997   5.992   0.830   5.246
 6366SOL    HW219998   5.908   0.740   5.139
 6367SOL     OW19999   1.254   2.269   2.671
 6367SOL    HW120000   1.197   2.346   2.698
 6367SOL    HW220001   1.241   2.250   2.573
 6368SOL     OW20002   5.331   3.620   4.799
 6368SOL    HW120003   5.286   3.531   4.804
 6368SOL    HW220004   5.313   3.661   4.710
 6369SOL     OW20005   4.027   5.300   0.602
 6369SOL    HW120006   4.006   5.397   0.590
 6369SOL    HW220007   4.011   5.252   0.515
 6370SOL     OW20008   5.273   3.789   4.566
 6370SOL    HW120009   5.264   3.707   4.510
 6370SOL    HW220010   5.295   3.867   4.508
 6371SOL     OW20011   5.471   3.925   1.561
 6371SOL    HW120012   5.493   3.921   1.658
 6371SOL    HW220013   5.381   3.883   1.545
 6372SOL     OW20014   6.624   1.738   2.102
 6372SOL    HW120015   6.642   1.669   2.171
 6372SOL    HW220016   6.527   1.762   2.104
 6373SOL     OW20017   5.159   3.885   1.845
 6373SOL    HW120018   5.235   3.821   1.830
 6373SOL    HW220019   5.195   3.978   1.854
 6374SOL     OW20020   4.217   3.700   6.877
 6374SOL    HW120021   4.240   3.608   6.907
 6374SOL    HW220022   4.279   3.727   6.803
 6375SOL     OW20023   4.816   1.405   1.996
 6375SOL    HW120024   4.894   1.466   1.985
 6375SOL    HW220025   4.758   1.438   2.071
 6376SOL     OW20026   3.296   0.677   0.366
 6376SOL    HW120027   3.387   0.654   0.401
 6376SOL    HW220028   3.292   0.657   0.268
 6377SOL     OW20029   0.985   0.794   0.745
 6377SOL    HW120030   1.053   0.732   0.706
 6377SOL    HW220031   0.925   0.742   0.806
 6378SOL     OW20032   5.053   4.771   1.943
 6378SOL    HW120033   5.001   4.783   1.859
 6378SOL    HW220034   5.137   4.825   1.939
 6379SOL     OW20035   1.966   5.316   0.145
 6379SOL    HW120036   1.925   5.407   0.137
 6379SOL    HW220037   1.982   5.278   0.054
 6380SOL     OW20038   1.048   3.910   5.039
 6380SOL    HW120039   0.959   3.865   5.034
 6380SOL    HW220040   1.063   3.962   4.955
 6381SOL     OW20041   4.581   2.942   0.503
 6381SOL    HW120042   4.580   3.002   0.583
 6381SOL    HW220043   4.558   2.995   0.421
 6382SOL     OW20044   1.403   1.337   0.078
 6382SOL    HW120045   1.341   1.341   0.157
 6382SOL    HW220046   1.406   1.426   0.033
 6383SOL     OW20047   2.390   2.199   2.208
 6383SOL    HW120048   2.428   2.107   2.215
 6383SOL    HW220049   2.290   2.194   2.211
 6384SOL     OW20050   6.405   2.895   2.097
 6384SOL    HW120051   6.464   2.831   2.048
 6384SOL    HW220052   6.315   2.854   2.110
 6385SOL     OW20053   0.366   3.190   0.678
 6385SOL    HW120054   0.436   3.122   0.698
 6385SOL    HW220055   0.313   3.209   0.761
 6386SOL     OW20056   2.407   2.943   0.280
 6386SOL    HW120057   2.386   2.938   0.182
 6386SOL    HW220058   2.329   2.984   0.328
 6387SOL     OW20059   0.183   0.049   0.223
 6387SOL    HW120060   0.090   0.015   0.207
 6387SOL    HW220061   0.223   0.002   0.301
 6388SOL     OW20062   5.655   5.292   2.192
 6388SOL    HW120063   5.630   5.195   2.185
 6388SOL    HW220064   5.575   5.345   2.218
 6389SOL     OW20065   0.016   0.276   0.788
 6389SOL    HW120066   0.005   0.372   0.814
 6389SOL    HW220067   0.082   0.269   0.714
 6390SOL     OW20068   5.225   0.427   6.894
 6390SOL    HW120069   5.222   0.353   6.826
 6390SOL    HW220070   5.188   0.394   6.981
 6391SOL     OW20071   1.299   2.066   4.690
 6391SOL    HW120072   1.278   1.985   4.744
 6391SOL    HW220073   1.215   2.104   4.652
 6392SOL     OW20074   4.076   6.602   3.725
 6392SOL    HW120075   4.064   6.657   3.642
 6392SOL    HW220076   4.022   6.519   3.719
 6393SOL     OW20077   0.990   5.343   0.101
 6393SOL    HW120078   1.089   5.329   0.100
 6393SOL    HW220079   0.962   5.378   0.190
 6394SOL     OW20080   1.589   5.224   1.909
 6394SOL    HW120081   1.651   5.272   1.971
 6394SOL    HW220082   1.548   5.146   1.956
 6395SOL     OW20083   2.099   3.580   3.614
 6395SOL    HW120084   2.108   3.526   3.530
 6395SOL    HW220085   2.012   3.558   3.659
 6396SOL     OW20086   1.297   3.066   5.546
 6396SOL    HW120087   1.256   2.991   5.599
 6396SOL    HW220088   1.384   3.036   5.507
 6397SOL     OW20089   6.016   3.792   4.691
 6397SOL    HW120090   6.107   3.784   4.732
 6397SOL    HW220091   5.962   3.710   4.714
 6398SOL     OW20092   1.844   0.013   2.463
 6398SOL    HW120093   1.815   6.947   2.432
 6398SOL    HW220094   1.878   0.065   2.385
 6399SOL     OW20095   3.197   0.603   6.784
 6399SOL    HW120096   3.255   0.545   6.727
 6399SOL    HW220097   3.148   0.547   6.851
 6400SOL     OW20098   0.820   5.838   3.450
 6400SOL    HW120099   0.870   5.917   3.414
 6400SOL    HW220100   0.777   5.863   3.537
 6401SOL     OW20101   4.011   5.275   3.056
 6401SOL    HW120102   3.972   5.225   2.979
 6401SOL    HW220103   4.110   5.262   3.056
 6402SOL     OW20104   2.363   4.666   5.385
 6402SOL    HW120105   2.387   4.731   5.457
 6402SOL    HW220106   2.439   4.601   5.373
 6403SOL     OW20107   5.162   5.011   5.103
 6403SOL    HW120108   5.127   5.103   5.116
 6403SOL    HW220109   5.115   4.968   5.026
 6404SOL     OW20110   4.815   6.981   1.716
 6404SOL    HW120111   4.849   0.040   1.673
 6404SOL    HW220112   4.718   6.994   1.740
 6405SOL     OW20113   5.296   1.708   2.976
 6405SOL    HW120114   5.281   1.614   2.947
 6405SOL    HW220115   5.281   1.770   2.899
 6406SOL     OW20116   0.005   3.338   2.824
 6406SOL    HW120117   0.047   3.416   2.778
 6406SOL    HW220118   0.054   3.317   2.908
 6407SOL     OW20119   0.558   6.266   2.863
 6407SOL    HW120120   0.613   6.224   2.935
 6407SOL    HW220121   0.490   6.327   2.906
 6408SOL     OW20122   6.527   0.550   2.364
 6408SOL    HW120123   6.586   0.574   2.441
 6408SOL    HW220124   6.452   0.616   2.358
 6409SOL     OW20125   5.137   4.767   3.814
 6409SOL    HW120126   5.217   4.820   3.838
 6409SOL    HW220127   5.078   4.820   3.753
 6410SOL     OW20128   1.592   1.728   0.116
 6410SOL    HW120129   1.571   1.643   0.164
 6410SOL    HW220130   1.691   1.741   0.114
 6411SOL     OW20131   0.589   2.848   1.816
 6411SOL    HW120132   0.539   2.900   1.885
 6411SOL    HW220133   0.637   2.772   1.860
 6412SOL     OW20134   3.243   1.390   0.392
 6412SOL    HW120135   3.261   1.348   0.481
 6412SOL    HW220136   3.222   1.487   0.405
 6413SOL     OW20137   4.849   6.165   3.274
 6413SOL    HW120138   4.779   6.196   3.338
 6413SOL    HW220139   4.806   6.115   3.199
 6414SOL     OW20140   2.175   0.168   0.560
 6414SOL    HW120141   2.240   0.204   0.627
 6414SOL    HW220142   2.091   0.141   0.606
 6415SOL     OW20143   0.300   2.586   3.845
 6415SOL    HW120144   0.397   2.580   3.820
 6415SOL    HW220145   0.270   2.681   3.836
 6416SOL     OW20146   2.742   5.501   0.117
 6416SOL    HW120147   2.744   5.449   0.203
 6416SOL    HW220148   2.826   5.483   0.065
 6417SOL     OW20149   4.388   2.613   6.317
 6417SOL    HW120150   4.432   2.703   6.316
 6417SOL    HW220151   4.404   2.569   6.405
 6418SOL     OW20152   4.763   4.434   0.398
 6418SOL    HW120153   4.676   4.400   0.436
 6418SOL    HW220154   4.832   4.435   0.470
 6419SOL     OW20155   0.583   6.333   6.129
 6419SOL    HW120156   0.556   6.382   6.212
 6419SOL    HW220157   0.573   6.394   6.050
 6420SOL     OW20158   2.182   4.539   4.016
 6420SOL    HW120159   2.179   4.615   4.081
 6420SOL    HW220160   2.273   4.533   3.976
 6421SOL     OW20161   3.705   0.849   1.868
 6421SOL    HW120162   3.800   0.851   1.836
 6421SOL    HW220163   3.689   0.766   1.921
 6422SOL     OW20164   5.918   2.014   4.720
 6422SOL    HW120165   5.891   1.937   4.662
 6422SOL    HW220166   5.996   2.061   4.677
 6423SOL     OW20167   1.760   4.670   4.569
 6423SOL    HW120168   1.722   4.730   4.639
 6423SOL    HW220169   1.851   4.704   4.542
 6424SOL     OW20170   6.541   5.055   5.560
 6424SOL    HW120171   6.603   4.983   5.594
 6424SOL    HW220172   6.529   5.045   5.462
 6425SOL     OW20173   7.019   5.657   4.079
 6425SOL    HW120174   7.006   5.596   4.157
 6425SOL    HW220175   6.943   5.645   4.015
 6426SOL     OW20176   4.846   4.197   4.555
 6426SOL    HW120177   4.800   4.205   4.643
 6426SOL    HW220178   4.907   4.276   4.543
 6427SOL     OW20179   3.891   3.552   3.328
 6427SOL    HW120180   3.823   3.556   3.255
 6427SOL    HW220181   3.846   3.526   3.414
 6428SOL     OW20182   5.678   2.753   0.450
 6428SOL    HW120183   5.756   2.742   0.513
 6428SOL    HW220184   5.599   2.703   0.487
 6429SOL     OW20185   2.098   1.126   5.449
 6429SOL    HW120186   2.065   1.209   5.494
 6429SOL    HW220187   2.195   1.112   5.470
 6430SOL     OW20188   6.129   0.310   5.285
 6430SOL    HW120189   6.188   0.381   5.248
 6430SOL    HW220190   6.147   0.300   5.383
 6431SOL     OW20191   3.677   4.976   1.826
 6431SOL    HW120192   3.662   4.885   1.865
 6431SOL    HW220193   3.617   4.989   1.747
 6432SOL     OW20194   5.252   4.339   6.311
 6432SOL    HW120195   5.195   4.264   6.277
 6432SOL    HW220196   5.207   4.383   6.389
 6433SOL     OW20197   3.206   4.611   6.070
 6433SOL    HW120198   3.254   4.592   5.985
 6433SOL    HW220199   3.135   4.541   6.084
 6434SOL     OW20200   5.026   5.798   6.316
 6434SOL    HW120201   5.025   5.738   6.395
 6434SOL    HW220202   5.067   5.886   6.341
 6435SOL     OW20203   4.620   2.305   0.780
 6435SOL    HW120204   4.599   2.313   0.683
 6435SOL    HW220205   4.645   2.395   0.816
 6436SOL     OW20206   6.377   3.117   3.657
 6436SOL    HW120207   6.362   3.089   3.562
 6436SOL    HW220208   6.471   3.095   3.683
 6437SOL     OW20209   1.394   2.150   5.869
 6437SOL    HW120210   1.412   2.190   5.780
 6437SOL    HW220211   1.452   2.070   5.883
 6438SOL     OW20212   0.599   4.800   0.125
 6438SOL    HW120213   0.520   4.857   0.144
 6438SOL    HW220214   0.568   4.713   0.085
 6439SOL     OW20215   4.965   6.679   3.271
 6439SOL    HW120216   5.062   6.699   3.255
 6439SOL    HW220217   4.952   6.657   3.368
 6440SOL     OW20218   3.006   1.777   6.091
 6440SOL    HW120219   3.091   1.829   6.084
 6440SOL    HW220220   2.952   1.791   6.008
 6441SOL     OW20221   0.184   1.591   2.514
 6441SOL    HW120222   0.245   1.653   2.466
 6441SOL    HW220223   0.181   1.503   2.466
 6442SOL     OW20224   3.022   2.060   5.097
 6442SOL    HW120225   3.067   2.149   5.083
 6442SOL    HW220226   2.937   2.074   5.149
 6443SOL     OW20227   3.962   3.269   6.692
 6443SOL    HW120228   3.962   3.360   6.734
 6443SOL    HW220229   3.987   3.277   6.596
 6444SOL     OW20230   6.357   4.092   4.815
 6444SOL    HW120231   6.260   4.118   4.812
 6444SOL    HW220232   6.406   4.153   4.877
 6445SOL     OW20233   3.133   3.261   3.641
 6445SOL    HW120234   3.147   3.194   3.714
 6445SOL    HW220235   3.189   3.342   3.660
 6446SOL     OW20236   1.497   1.326   6.599
 6446SOL    HW120237   1.527   1.277   6.681
 6446SOL    HW220238   1.467   1.418   6.624
 6447SOL     OW20239   5.954   3.193   2.014
 6447SOL    HW120240   5.916   3.264   1.954
 6447SOL    HW220241   5.993   3.237   2.096
 6448SOL     OW20242   2.984   4.982   1.839
 6448SOL    HW120243   3.033   4.895   1.849
 6448SOL    HW220244   2.988   5.012   1.744
 6449SOL     OW20245   2.683   5.374   0.837
 6449SOL    HW120246   2.664   5.296   0.896
 6449SOL    HW220247   2.604   5.395   0.781
 6450SOL     OW20248   0.103   4.181   7.006
 6450SOL    HW120249   0.007   4.203   7.021
 6450SOL    HW220250   0.116   4.151   6.912
 6451SOL     OW20251   4.059   2.775   1.604
 6451SOL    HW120252   4.002   2.767   1.522
 6451SOL    HW220253   4.040   2.862   1.649
 6452SOL     OW20254   4.138   1.952   3.823
 6452SOL    HW120255   4.146   2.050   3.842
 6452SOL    HW220256   4.087   1.907   3.896
 6453SOL     OW20257   1.992   0.619   2.432
 6453SOL    HW120258   2.086   0.632   2.400
 6453SOL    HW220259   1.974   0.679   2.510
 6454SOL     OW20260   5.026   2.540   3.158
 6454SOL    HW120261   5.020   2.590   3.072
 6454SOL    HW220262   5.024   2.442   3.140
 6455SOL     OW20263   6.360   2.766   3.967
 6455SOL    HW120264   6.293   2.743   4.036
 6455SOL    HW220265   6.434   2.820   4.008
 6456SOL     OW20266   5.965   0.888   2.311
 6456SOL    HW120267   5.955   0.969   2.253
 6456SOL    HW220268   5.878   0.839   2.316
 6457SOL     OW20269   3.554   0.096   2.455
 6457SOL    HW120270   3.560   0.129   2.550
 6457SOL    HW220271   3.579   0.170   2.393
 6458SOL     OW20272   0.195   5.566   3.924
 6458SOL    HW120273   0.229   5.634   3.859
 6458SOL    HW220274   0.122   5.605   3.979
 6459SOL     OW20275   0.322   3.662   3.068
 6459SOL    HW120276   0.244   3.636   3.011
 6459SOL    HW220277   0.290   3.681   3.161
 6460SOL     OW20278   0.333   5.506   6.861
 6460SOL    HW120279   0.421   5.469   6.891
 6460SOL    HW220280   0.277   5.433   6.822
 6461SOL     OW20281   1.428   6.426   1.171
 6461SOL    HW120282   1.474   6.398   1.087
 6461SOL    HW220283   1.496   6.456   1.238
 6462SOL     OW20284   1.728   4.002   5.322
 6462SOL    HW120285   1.683   4.022   5.410
 6462SOL    HW220286   1.676   4.045   5.248
 6463SOL     OW20287   4.380   2.463   0.887
 6463SOL    HW120288   4.381   2.368   0.856
 6463SOL    HW220289   4.461   2.481   0.943
 6464SOL     OW20290   1.134   4.116   3.704
 6464SOL    HW120291   1.222   4.163   3.698
 6464SOL    HW220292   1.123   4.057   3.623
 6465SOL     OW20293   3.479   1.147   3.558
 6465SOL    HW120294   3.569   1.154   3.601
 6465SOL    HW220295   3.477   1.201   3.475
 6466SOL     OW20296   6.238   4.365   0.037
 6466SOL    HW120297   6.181   4.447   0.035
 6466SOL    HW220298   6.265   4.346   0.132
 6467SOL     OW20299   2.509   3.099   6.979
 6467SOL    HW120300   2.584   3.093   0.020
 6467SOL    HW220301   2.542   3.071   6.889
 6468SOL     OW20302   2.542   1.001   1.392
 6468SOL    HW120303   2.550   1.085   1.339
 6468SOL    HW220304   2.628   0.983   1.440
 6469SOL     OW20305   2.835   1.357   1.917
 6469SOL    HW120306   2.841   1.310   1.829
 6469SOL    HW220307   2.780   1.302   1.980
 6470SOL     OW20308   0.011   1.510   0.033
 6470SOL    HW120309   6.962   1.486   0.097
 6470SOL    HW220310   7.007   1.588   7.002
 6471SOL     OW20311   0.655   6.180   5.670
 6471SOL    HW120312   0.589   6.180   5.745
 6471SOL    HW220313   0.743   6.147   5.704
 6472SOL     OW20314   6.826   6.739   2.841
 6472SOL    HW120315   6.800   6.750   2.937
 6472SOL    HW220316   6.745   6.741   2.784
 6473SOL     OW20317   2.265   1.198   3.623
 6473SOL    HW120318   2.209   1.116   3.631
 6473SOL    HW220319   2.255   1.236   3.531
 6474SOL     OW20320   4.200   5.709   5.342
 6474SOL    HW120321   4.259   5.656   5.403
 6474SOL    HW220322   4.160   5.649   5.274
 6475SOL     OW20323   6.015   5.679   2.378
 6475SOL    HW120324   5.998   5.710   2.472
 6475SOL    HW220325   6.113   5.662   2.365
 6476SOL     OW20326   3.864   2.825   6.582
 6476SOL    HW120327   3.775   2.849   6.544
 6476SOL    HW220328   3.852   2.784   6.672
 6477SOL     OW20329   0.191   6.055   1.822
 6477SOL    HW120330   0.281   6.013   1.805
 6477SOL    HW220331   0.179   6.068   1.920
 6478SOL     OW20332   2.883   5.945   1.131
 6478SOL    HW120333   2.828   5.999   1.067
 6478SOL    HW220334   2.850   5.959   1.224
 6479SOL     OW20335   3.928   6.050   3.244
 6479SOL    HW120336   3.850   6.105   3.212
 6479SOL    HW220337   3.895   5.960   3.272
 6480SOL     OW20338   3.863   1.124   6.624
 6480SOL    HW120339   3.794   1.124   6.696
 6480SOL    HW220340   3.937   1.188   6.648
 6481SOL     OW20341   3.887   2.977   1.985
 6481SOL    HW120342   3.894   3.049   2.054
 6481SOL    HW220343   3.813   2.914   2.009
 6482SOL     OW20344   5.656   3.851   5.748
 6482SOL    HW120345   5.753   3.873   5.739
 6482SOL    HW220346   5.646   3.754   5.770
 6483SOL     OW20347   2.141   6.424   5.504
 6483SOL    HW120348   2.164   6.361   5.430
 6483SOL    HW220349   2.181   6.514   5.485
 6484SOL     OW20350   2.564   1.075   3.643
 6484SOL    HW120351   2.474   1.119   3.647
 6484SOL    HW220352   2.566   1.012   3.565
 6485SOL     OW20353   2.510   5.692   5.143
 6485SOL    HW120354   2.504   5.595   5.169
 6485SOL    HW220355   2.606   5.718   5.134
 6486SOL     OW20356   0.668   4.891   2.954
 6486SOL    HW120357   0.687   4.834   3.034
 6486SOL    HW220358   0.639   4.832   2.878
 6487SOL     OW20359   6.024   4.274   3.754
 6487SOL    HW120360   5.954   4.328   3.801
 6487SOL    HW220361   6.100   4.256   3.817
 6488SOL     OW20362   3.708   5.504   4.871
 6488SOL    HW120363   3.749   5.549   4.791
 6488SOL    HW220364   3.774   5.442   4.912
 6489SOL     OW20365   5.097   2.917   5.178
 6489SOL    HW120366   5.097   2.863   5.094
 6489SOL    HW220367   5.018   2.892   5.233
 6490SOL     OW20368   1.869   2.476   0.026
 6490SOL    HW120369   1.959   2.453   0.061
 6490SOL    HW220370   1.845   2.569   0.052
 6491SOL     OW20371   2.219   6.709   2.047
 6491SOL    HW120372   2.319   6.706   2.055
 6491SOL    HW220373   2.187   6.800   2.073
 6492SOL     OW20374   4.083   3.237   5.028
 6492SOL    HW120375   4.029   3.305   5.076
 6492SOL    HW220376   4.088   3.259   4.930
 6493SOL     OW20377   1.403   4.605   4.382
 6493SOL    HW120378   1.425   4.698   4.411
 6493SOL    HW220379   1.307   4.585   4.405
 6494SOL     OW20380   6.425   0.542   1.263
 6494SOL    HW120381   6.424   0.549   1.163
 6494SOL    HW220382   6.347   0.488   1.294
 6495SOL     OW20383   6.261   0.490   3.046
 6495SOL    HW120384   6.340   0.552   3.049
 6495SOL    HW220385   6.203   0.507   3.125
 6496SOL     OW20386   3.437   2.113   1.427
 6496SOL    HW120387   3.496   2.098   1.347
 6496SOL    HW220388   3.490   2.155   1.500
 6497SOL     OW20389   0.241   1.406   1.037
 6497SOL    HW120390   0.206   1.433   1.127
 6497SOL    HW220391   0.271   1.487   0.987
 6498SOL     OW20392   2.215   4.017   3.995
 6498SOL    HW120393   2.134   4.061   3.957
 6498SOL    HW220394   2.201   3.918   3.995
 6499SOL     OW20395   4.809   3.023   3.228
 6499SOL    HW120396   4.852   3.113   3.238
 6499SOL    HW220397   4.792   3.005   3.131
 6500SOL     OW20398   1.582   4.414   3.124
 6500SOL    HW120399   1.544   4.322   3.137
 6500SOL    HW220400   1.663   4.425   3.182
 6501SOL     OW20401   5.848   1.911   2.616
 6501SOL    HW120402   5.888   1.957   2.696
 6501SOL    HW220403   5.764   1.864   2.643
 6502SOL     OW20404   6.980   4.016   2.117
 6502SOL    HW120405   0.013   4.076   2.061
 6502SOL    HW220406   6.892   4.060   2.133
 6503SOL     OW20407   6.905   3.390   5.771
 6503SOL    HW120408   6.975   3.416   5.837
 6503SOL    HW220409   6.828   3.348   5.819
 6504SOL     OW20410   4.131   6.693   6.247
 6504SOL    HW120411   4.175   6.775   6.211
 6504SOL    HW220412   4.142   6.618   6.183
 6505SOL     OW20413   0.147   5.556   1.067
 6505SOL    HW120414   0.082   5.497   1.115
 6505SOL    HW220415   0.226   5.573   1.126
 6506SOL     OW20416   1.069   4.129   2.548
 6506SOL    HW120417   1.129   4.075   2.607
 6506SOL    HW220418   1.012   4.189   2.605
 6507SOL     OW20419   3.936   5.204   0.372
 6507SOL    HW120420   3.934   5.104   0.375
 6507SOL    HW220421   3.845   5.240   0.393
 6508SOL     OW20422   0.719   0.241   3.235
 6508SOL    HW120423   0.731   0.180   3.157
 6508SOL    HW220424   0.803   0.293   3.250
 6509SOL     OW20425   2.629   1.480   6.627
 6509SOL    HW120426   2.702   1.465   6.694
 6509SOL    HW220427   2.544   1.441   6.661
 6510SOL     OW20428   2.986   6.543   5.455
 6510SOL    HW120429   3.038   6.590   5.526
 6510SOL    HW220430   2.980   6.445   5.478
 6511SOL     OW20431   3.337   2.172   0.528
 6511SOL    HW120432   3.241   2.195   0.546
 6511SOL    HW220433   3.365   2.210   0.441
 6512SOL     OW20434   4.027   1.219   0.507
 6512SOL    HW120435   4.077   1.298   0.542
 6512SOL    HW220436   4.087   1.139   0.506
 6513SOL     OW20437   2.812   4.787   2.965
 6513SOL    HW120438   2.863   4.864   2.926
 6513SOL    HW220439   2.785   4.725   2.892
 6514SOL     OW20440   5.305   6.760   5.279
 6514SOL    HW120441   5.346   6.796   5.363
 6514SOL    HW220442   5.227   6.702   5.303
 6515SOL     OW20443   1.151   5.050   2.754
 6515SOL    HW120444   1.094   4.984   2.804
 6515SOL    HW220445   1.093   5.120   2.712
 6516SOL     OW20446   6.432   3.161   1.909
 6516SOL    HW120447   6.524   3.121   1.902
 6516SOL    HW220448   6.365   3.096   1.872
 6517SOL     OW20449   6.938   3.289   0.672
 6517SOL    HW120450   6.964   3.336   0.587
 6517SOL    HW220451   6.867   3.342   0.719
 6518SOL     OW20452   0.806   1.283   1.928
 6518SOL    HW120453   0.867   1.210   1.959
 6518SOL    HW220454   0.792   1.274   1.829
 6519SOL     OW20455   1.168   1.719   2.874
 6519SOL    HW120456   1.170   1.754   2.968
 6519SOL    HW220457   1.249   1.749   2.824
 6520SOL     OW20458   0.165   5.113   0.706
 6520SOL    HW120459   0.152   5.204   0.745
 6520SOL    HW220460   0.227   5.119   0.628
 6521SOL     OW20461   1.533   3.799   3.745
 6521SOL    HW120462   1.519   3.896   3.768
 6521SOL    HW220463   1.547   3.747   3.829
 6522SOL     OW20464   2.471   2.762   5.321
 6522SOL    HW120465   2.485   2.837   5.256
 6522SOL    HW220466   2.516   2.785   5.408
 6523SOL     OW20467   6.102   6.971   0.459
 6523SOL    HW120468   6.011   6.937   0.434
 6523SOL    HW220469   6.129   6.931   0.547
 6524SOL     OW20470   2.947   2.793   0.716
 6524SOL    HW120471   2.904   2.747   0.794
 6524SOL    HW220472   3.007   2.866   0.749
 6525SOL     OW20473   1.036   4.767   3.583
 6525SOL    HW120474   1.040   4.684   3.528
 6525SOL    HW220475   1.093   4.838   3.540
 6526SOL     OW20476   0.705   5.636   0.569
 6526SOL    HW120477   0.641   5.698   0.523
 6526SOL    HW220478   0.789   5.685   0.590
 6527SOL     OW20479   6.751   1.734   0.767
 6527SOL    HW120480   6.761   1.652   0.823
 6527SOL    HW220481   6.755   1.710   0.670
 6528SOL     OW20482   4.171   7.020   6.715
 6528SOL    HW120483   4.269   7.004   6.708
 6528SOL    HW220484   4.155   0.092   6.739
 6529SOL     OW20485   5.567   0.255   1.915
 6529SOL    HW120486   5.509   0.222   1.841
 6529SOL    HW220487   5.552   0.199   1.997
 6530SOL     OW20488   0.254   2.407   2.850
 6530SOL    HW120489   0.292   2.390   2.942
 6530SOL    HW220490   0.204   2.494   2.851
 6531SOL     OW20491   3.747   4.091   4.524
 6531SOL    HW120492   3.650   4.116   4.523
 6531SOL    HW220493   3.763   4.017   4.589
 6532SOL     OW20494   1.263   0.136   0.145
 6532SOL    HW120495   1.342   0.197   0.143
 6532SOL    HW220496   1.295   0.041   0.138
 6533SOL     OW20497   4.532   5.000   1.630
 6533SOL    HW120498   4.575   4.943   1.700
 6533SOL    HW220499   4.464   5.059   1.672
 6534SOL     OW20500   6.872   4.102   2.972
 6534SOL    HW120501   6.846   4.087   2.877
 6534SOL    HW220502   6.795   4.080   3.032
 6535SOL     OW20503   4.857   3.017   4.561
 6535SOL    HW120504   4.793   2.955   4.607
 6535SOL    HW220505   4.947   3.008   4.602
 6536SOL     OW20506   0.824   4.469   5.063
 6536SOL    HW120507   0.869   4.399   5.008
 6536SOL    HW220508   0.880   4.552   5.063
 6537SOL     OW20509   6.294   6.041   3.885
 6537SOL    HW120510   6.284   6.122   3.943
 6537SOL    HW220511   6.338   5.968   3.936
 6538SOL     OW20512   1.473   2.375   5.292
 6538SOL    HW120513   1.483   2.425   5.378
 6538SOL    HW220514   1.558   2.380   5.240
 6539SOL     OW20515   5.162   0.253   6.089
 6539SOL    HW120516   5.215   0.183   6.137
 6539SOL    HW220517   5.217   0.294   6.016
 6540SOL     OW20518   6.570   2.686   5.737
 6540SOL    HW120519   6.486   2.660   5.690
 6540SOL    HW220520   6.565   2.783   5.764
 6541SOL     OW20521   5.843   1.653   5.576
 6541SOL    HW120522   5.902   1.577   5.600
 6541SOL    HW220523   5.898   1.737   5.566
 6542SOL     OW20524   1.258   4.217   3.058
 6542SOL    HW120525   1.283   4.201   3.153
 6542SOL    HW220526   1.314   4.160   2.998
 6543SOL     OW20527   3.339   1.476   4.415
 6543SOL    HW120528   3.433   1.502   4.394
 6543SOL    HW220529   3.296   1.549   4.468
 6544SOL     OW20530   0.632   6.525   1.046
 6544SOL    HW120531   0.670   6.469   1.120
 6544SOL    HW220532   0.671   6.496   0.959
 6545SOL     OW20533   4.812   6.750   0.963
 6545SOL    HW120534   4.765   6.772   1.049
 6545SOL    HW220535   4.748   6.756   0.887
 6546SOL     OW20536   4.627   4.054   6.327
 6546SOL    HW120537   4.664   3.982   6.386
 6546SOL    HW220538   4.579   4.122   6.384
 6547SOL     OW20539   0.598   5.827   6.034
 6547SOL    HW120540   0.631   5.920   6.052
 6547SOL    HW220541   0.657   5.784   5.966
 6548SOL     OW20542   7.019   1.516   5.861
 6548SOL    HW120543   0.063   1.577   5.822
 6548SOL    HW220544   6.989   1.451   5.791
 6549SOL     OW20545   4.263   1.493   2.359
 6549SOL    HW120546   4.176   1.444   2.352
 6549SOL    HW220547   4.330   1.451   2.298
 6550SOL     OW20548   6.594   6.361   3.243
 6550SOL    HW120549   6.648   6.330   3.321
 6550SOL    HW220550   6.506   6.313   3.242
 6551SOL     OW20551   2.960   3.966   1.035
 6551SOL    HW120552   2.877   3.959   1.090
 6551SOL    HW220553   3.037   3.927   1.086
 6552SOL     OW20554   1.728   5.113   0.456
 6552SOL    HW120555   1.630   5.098   0.440
 6552SOL    HW220556   1.746   5.115   0.554
 6553SOL     OW20557   0.983   1.488   3.208
 6553SOL    HW120558   1.066   1.544   3.207
 6553SOL    HW220559   0.912   1.536   3.259
 6554SOL     OW20560   1.220   2.044   4.094
 6554SOL    HW120561   1.278   1.963   4.099
 6554SOL    HW220562   1.275   2.125   4.114
 6555SOL     OW20563   6.470   4.092   3.670
 6555SOL    HW120564   6.402   4.057   3.735
 6555SOL    HW220565   6.526   4.161   3.716
 6556SOL     OW20566   4.844   3.024   2.643
 6556SOL    HW120567   4.855   3.047   2.740
 6556SOL    HW220568   4.834   3.107   2.589
 6557SOL     OW20569   1.943   0.838   2.189
 6557SOL    HW120570   1.958   0.830   2.091
 6557SOL    HW220571   1.958   0.749   2.233
 6558SOL     OW20572   5.574   6.252   6.205
 6558SOL    HW120573   5.515   6.326   6.239
 6558SOL    HW220574   5.645   6.290   6.146
 6559SOL     OW20575   0.016   2.808   6.241
 6559SOL    HW120576   6.953   2.779   6.201
 6559SOL    HW220577   0.005   2.825   6.339
 6560SOL     OW20578   5.695   4.330   0.373
 6560SOL    HW120579   5.667   4.390   0.449
 6560SOL    HW220580   5.619   4.323   0.308
 6561SOL     OW20581   3.719   4.503   6.981
 6561SOL    HW120582   3.634   4.523   0.005
 6561SOL    HW220583   3.723   4.556   6.897
 6562SOL     OW20584   5.244   2.569   1.133
 6562SOL    HW120585   5.230   2.486   1.187
 6562SOL    HW220586   5.339   2.598   1.141
 6563SOL     OW20587   6.335   5.278   5.614
 6563SOL    HW120588   6.419   5.224   5.608
 6563SOL    HW220589   6.258   5.218   5.637
 6564SOL     OW20590   6.384   3.589   2.908
 6564SOL    HW120591   6.454   3.659   2.921
 6564SOL    HW220592   6.314   3.623   2.845
 6565SOL     OW20593   5.161   0.205   2.979
 6565SOL    HW120594   5.260   0.195   2.981
 6565SOL    HW220595   5.119   0.115   2.984
 6566SOL     OW20596   4.890   5.776   3.273
 6566SOL    HW120597   4.946   5.727   3.207
 6566SOL    HW220598   4.803   5.729   3.285
 6567SOL     OW20599   4.097   0.391   1.476
 6567SOL    HW120600   4.027   0.428   1.536
 6567SOL    HW220601   4.155   0.465   1.442
 6568SOL     OW20602   4.333   2.156   0.767
 6568SOL    HW120603   4.406   2.116   0.822
 6568SOL    HW220604   4.362   2.158   0.671
 6569SOL     OW20605   0.656   4.705   4.639
 6569SOL    HW120606   0.667   4.777   4.707
 6569SOL    HW220607   0.595   4.634   4.675
 6570SOL     OW20608   4.388   6.819   2.065
 6570SOL    HW120609   4.337   6.756   2.124
 6570SOL    HW220610   4.483   6.823   2.095
 6571SOL     OW20611   3.610   5.727   2.913
 6571SOL    HW120612   3.541   5.705   2.843
 6571SOL    HW220613   3.592   5.673   2.995
 6572SOL     OW20614   1.394   5.645   3.918
 6572SOL    HW120615   1.299   5.677   3.917
 6572SOL    HW220616   1.455   5.721   3.897
 6573SOL     OW20617   1.289   2.021   2.863
 6573SOL    HW120618   1.206   2.018   2.920
 6573SOL    HW220619   1.271   2.076   2.782
 6574SOL     OW20620   1.499   5.517   2.500
 6574SOL    HW120621   1.476   5.419   2.505
 6574SOL    HW220622   1.418   5.571   2.524
 6575SOL     OW20623   0.389   1.152   3.076
 6575SOL    HW120624   0.292   1.173   3.086
 6575SOL    HW220625   0.442   1.203   3.143
 6576SOL     OW20626   4.885   5.727   0.919
 6576SOL    HW120627   4.980   5.744   0.944
 6576SOL    HW220628   4.828   5.802   0.952
 6577SOL     OW20629   3.113   1.037   4.154
 6577SOL    HW120630   3.156   1.084   4.077
 6577SOL    HW220631   3.025   0.998   4.126
 6578SOL     OW20632   1.279   4.757   1.293
 6578SOL    HW120633   1.374   4.750   1.263
 6578SOL    HW220634   1.232   4.670   1.278
 6579SOL     OW20635   6.585   0.729   4.341
 6579SOL    HW120636   6.675   0.744   4.300
 6579SOL    HW220637   6.579   0.782   4.426
 6580SOL     OW20638   2.161   2.228   0.221
 6580SOL    HW120639   2.175   2.232   0.320
 6580SOL    HW220640   2.148   2.132   0.193
 6581SOL     OW20641   0.675   1.939   1.307
 6581SOL    HW120642   0.628   1.861   1.349
 6581SOL    HW220643   0.609   2.014   1.293
 6582SOL     OW20644   6.148   1.332   2.808
 6582SOL    HW120645   6.096   1.297   2.886
 6582SOL    HW220646   6.166   1.257   2.744
 6583SOL     OW20647   3.721   5.368   6.854
 6583SOL    HW120648   3.775   5.372   6.770
 6583SOL    HW220649   3.646   5.434   6.849
 6584SOL     OW20650   4.445   2.422   6.527
 6584SOL    HW120651   4.531   2.400   6.572
 6584SOL    HW220652   4.369   2.407   6.590
 6585SOL     OW20653   5.416   6.497   1.512
 6585SOL    HW120654   5.416   6.518   1.609
 6585SOL    HW220655   5.426   6.398   1.499
 6586SOL     OW20656   0.375   1.209   0.110
 6586SOL    HW120657   0.352   1.241   0.202
 6586SOL    HW220658   0.340   1.274   0.042
 6587SOL     OW20659   1.988   4.456   5.373
 6587SOL    HW120660   2.005   4.470   5.276
 6587SOL    HW220661   2.053   4.389   5.409
 6588SOL     OW20662   0.227   2.458   0.914
 6588SOL    HW120663   0.134   2.480   0.883
 6588SOL    HW220664   0.287   2.537   0.898
 6589SOL     OW20665   6.739   0.113   2.348
 6589SOL    HW120666   6.730   0.197   2.294
 6589SOL    HW220667   6.656   0.057   2.337
 6590SOL     OW20668   1.079   6.368   4.150
 6590SOL    HW120669   1.009   6.412   4.205
 6590SOL    HW220670   1.163   6.423   4.154
 6591SOL     OW20671   6.011   4.702   3.315
 6591SOL    HW120672   6.020   4.673   3.410
 6591SOL    HW220673   6.023   4.623   3.254
 6592SOL     OW20674   6.056   6.913   3.367
 6592SOL    HW120675   5.964   6.877   3.384
 6592SOL    HW220676   6.114   6.839   3.333
 6593SOL     OW20677   2.155   1.377   1.905
 6593SOL    HW120678   2.101   1.346   1.827
 6593SOL    HW220679   2.174   1.475   1.896
 6594SOL     OW20680   5.284   0.217   6.492
 6594SOL    HW120681   5.264   0.150   6.420
 6594SOL    HW220682   5.229   0.298   6.477
 6595SOL     OW20683   0.863   1.928   5.186
 6595SOL    HW120684   0.846   1.997   5.257
 6595SOL    HW220685   0.819   1.956   5.101
 6596SOL     OW20686   5.311   0.022   2.724
 6596SOL    HW120687   5.359   0.079   2.791
 6596SOL    HW220688   5.214   0.017   2.749
 6597SOL     OW20689   1.000   4.466   1.830
 6597SOL    HW120690   1.089   4.489   1.870
 6597SOL    HW220691   0.954   4.399   1.888
 6598SOL     OW20692   1.740   4.729   4.300
 6598SOL    HW120693   1.778   4.688   4.382
 6598SOL    HW220694   1.663   4.788   4.325
 6599SOL     OW20695   6.673   5.168   6.183
 6599SOL    HW120696   6.721   5.251   6.158
 6599SOL    HW220697   6.698   5.094   6.120
 6600SOL     OW20698   4.367   0.449   5.155
 6600SOL    HW120699   4.357   0.503   5.071
 6600SOL    HW220700   4.461   0.453   5.186
 6601SOL     OW20701   1.429   2.313   1.543
 6601SOL    HW120702   1.420   2.294   1.641
 6601SOL    HW220703   1.519   2.355   1.525
 6602SOL     OW20704   1.281   5.797   1.869
 6602SOL    HW120705   1.266   5.713   1.817
 6602SOL    HW220706   1.194   5.841   1.888
 6603SOL     OW20707   0.407   3.744   2.611
 6603SOL    HW120708   0.462   3.785   2.684
 6603SOL    HW220709   0.348   3.673   2.649
 6604SOL     OW20710   1.892   6.089   3.433
 6604SOL    HW120711   1.830   6.102   3.510
 6604SOL    HW220712   1.896   5.992   3.408
 6605SOL     OW20713   0.302   5.812   0.804
 6605SOL    HW120714   0.337   5.778   0.717
 6605SOL    HW220715   0.205   5.788   0.812
 6606SOL     OW20716   1.880   2.982   2.941
 6606SOL    HW120717   1.787   2.994   2.906
 6606SOL    HW220718   1.876   2.956   3.037
 6607SOL     OW20719   5.787   3.601   3.510
 6607SOL    HW120720   5.777   3.553   3.597
 6607SOL    HW220721   5.875   3.648   3.507
 6608SOL     OW20722   1.214   5.893   5.997
 6608SOL    HW120723   1.149   5.946   6.052
 6608SOL    HW220724   1.164   5.839   5.929
 6609SOL     OW20725   4.732   1.338   6.371
 6609SOL    HW120726   4.709   1.375   6.280
 6609SOL    HW220727   4.782   1.252   6.360
 6610SOL     OW20728   3.031   5.713   0.620
 6610SOL    HW120729   2.988   5.800   0.642
 6610SOL    HW220730   3.078   5.721   0.532
 6611SOL     OW20731   3.663   1.536   4.540
 6611SOL    HW120732   3.594   1.507   4.606
 6611SOL    HW220733   3.620   1.595   4.471
 6612SOL     OW20734   0.503   0.400   6.300
 6612SOL    HW120735   0.510   0.451   6.213
 6612SOL    HW220736   0.573   0.328   6.302
 6613SOL     OW20737   4.609   0.410   0.809
 6613SOL    HW120738   4.644   0.316   0.812
 6613SOL    HW220739   4.567   0.433   0.897
 6614SOL     OW20740   4.493   5.379   0.930
 6614SOL    HW120741   4.419   5.313   0.937
 6614SOL    HW220742   4.561   5.362   1.001
 6615SOL     OW20743   3.727   5.307   5.665
 6615SOL    HW120744   3.718   5.367   5.585
 6615SOL    HW220745   3.710   5.360   5.748
 6616SOL     OW20746   3.890   1.588   6.352
 6616SOL    HW120747   3.896   1.531   6.270
 6616SOL    HW220748   3.959   1.558   6.418
 6617SOL     OW20749   3.558   0.235   3.997
 6617SOL    HW120750   3.615   0.288   4.060
 6617SOL    HW220751   3.500   0.173   4.049
 6618SOL     OW20752   6.095   2.637   4.159
 6618SOL    HW120753   6.102   2.541   4.132
 6618SOL    HW220754   6.013   2.650   4.214
 6619SOL     OW20755   4.631   5.972   4.340
 6619SOL    HW120756   4.720   5.956   4.381
 6619SOL    HW220757   4.642   6.026   4.256
 6620SOL     OW20758   0.931   3.080   3.444
 6620SOL    HW120759   0.938   2.990   3.401
 6620SOL    HW220760   0.837   3.113   3.437
 6621SOL     OW20761   3.620   3.370   4.549
 6621SOL    HW120762   3.587   3.276   4.544
 6621SOL    HW220763   3.659   3.396   4.460
 6622SOL     OW20764   0.796   5.316   0.949
 6622SOL    HW120765   0.867   5.334   1.017
 6622SOL    HW220766   0.706   5.328   0.991
 6623SOL     OW20767   3.253   4.161   5.091
 6623SOL    HW120768   3.295   4.157   5.001
 6623SOL    HW220769   3.214   4.073   5.114
 6624SOL     OW20770   2.581   1.671   3.178
 6624SOL    HW120771   2.539   1.740   3.237
 6624SOL    HW220772   2.546   1.581   3.202
 6625SOL     OW20773   5.858   4.251   5.869
 6625SOL    HW120774   5.870   4.298   5.781
 6625SOL    HW220775   5.925   4.177   5.877
 6626SOL     OW20776   3.082   6.131   5.333
 6626SOL    HW120777   3.014   6.079   5.384
 6626SOL    HW220778   3.146   6.068   5.289
 6627SOL     OW20779   2.305   6.337   4.619
 6627SOL    HW120780   2.262   6.247   4.622
 6627SOL    HW220781   2.347   6.352   4.530
 6628SOL     OW20782   3.895   6.075   4.699
 6628SOL    HW120783   3.920   6.101   4.605
 6628SOL    HW220784   3.969   6.021   4.739
 6629SOL     OW20785   4.985   6.078   6.239
 6629SOL    HW120786   4.980   6.129   6.325
 6629SOL    HW220787   5.080   6.055   6.220
 6630SOL     OW20788   1.842   0.803   0.387
 6630SOL    HW120789   1.781   0.882   0.379
 6630SOL    HW220790   1.808   0.741   0.457
 6631SOL     OW20791   1.831   3.689   5.980
 6631SOL    HW120792   1.777   3.605   5.976
 6631SOL    HW220793   1.928   3.667   5.976
 6632SOL     OW20794   1.774   0.057   0.416
 6632SOL    HW120795   1.684   0.083   0.449
 6632SOL    HW220796   1.783   6.982   0.418
 6633SOL     OW20797   3.853   5.229   5.958
 6633SOL    HW120798   3.843   5.132   5.934
 6633SOL    HW220799   3.771   5.278   5.929
 6634SOL     OW20800   3.746   1.741   3.694
 6634SOL    HW120801   3.709   1.737   3.602
 6634SOL    HW220802   3.677   1.711   3.760
 6635SOL     OW20803   5.063   4.773   4.557
 6635SOL    HW120804   5.091   4.858   4.513
 6635SOL    HW220805   4.984   4.735   4.509
 6636SOL     OW20806   4.081   1.072   0.225
 6636SOL    HW120807   4.032   0.985   0.230
 6636SOL    HW220808   4.114   1.086   0.132
 6637SOL     OW20809   1.005   2.112   0.818
 6637SOL    HW120810   1.084   2.174   0.823
 6637SOL    HW220811   0.957   2.111   0.906
 6638SOL     OW20812   2.924   3.300   4.049
 6638SOL    HW120813   2.903   3.309   3.951
 6638SOL    HW220814   3.021   3.279   4.060
 6639SOL     OW20815   4.774   2.993   0.727
 6639SOL    HW120816   4.723   2.954   0.804
 6639SOL    HW220817   4.777   3.092   0.736
 6640SOL     OW20818   1.817   3.804   4.618
 6640SOL    HW120819   1.838   3.749   4.537
 6640SOL    HW220820   1.838   3.900   4.599
 6641SOL     OW20821   5.111   2.011   1.132
 6641SOL    HW120822   5.088   1.915   1.149
 6641SOL    HW220823   5.196   2.017   1.079
 6642SOL     OW20824   1.562   5.577   0.111
 6642SOL    HW120825   1.539   5.647   0.043
 6642SOL    HW220826   1.589   5.622   0.197
 6643SOL     OW20827   3.773   5.971   6.350
 6643SOL    HW120828   3.861   6.019   6.351
 6643SOL    HW220829   3.776   5.897   6.284
 6644SOL     OW20830   2.250   6.556   3.565
 6644SOL    HW120831   2.197   6.556   3.650
 6644SOL    HW220832   2.239   6.644   3.519
 6645SOL     OW20833   5.989   2.124   0.107
 6645SOL    HW120834   6.079   2.168   0.107
 6645SOL    HW220835   5.977   2.074   0.192
 6646SOL     OW20836   4.399   6.648   5.673
 6646SOL    HW120837   4.454   6.648   5.757
 6646SOL    HW220838   4.323   6.712   5.684
 6647SOL     OW20839   4.359   5.123   0.936
 6647SOL    HW120840   4.301   5.155   1.010
 6647SOL    HW220841   4.311   5.134   0.849
 6648SOL     OW20842   3.302   6.444   5.662
 6648SOL    HW120843   3.327   6.394   5.579
 6648SOL    HW220844   3.216   6.494   5.646
 6649SOL     OW20845   5.392   2.910   6.583
 6649SOL    HW120846   5.420   2.927   6.677
 6649SOL    HW220847   5.343   2.990   6.548
 6650SOL     OW20848   2.176   1.679   4.788
 6650SOL    HW120849   2.132   1.739   4.722
 6650SOL    HW220850   2.107   1.636   4.846
 6651SOL     OW20851   6.575   1.771   6.331
 6651SOL    HW120852   6.531   1.693   6.377
 6651SOL    HW220853   6.656   1.740   6.282
 6652SOL     OW20854   6.985   4.278   0.424
 6652SOL    HW120855   6.994   4.180   0.406
 6652SOL    HW220856   6.916   4.293   0.495
 6653SOL     OW20857   5.523   4.872   0.225
 6653SOL    HW120858   5.614   4.884   0.265
 6653SOL    HW220859   5.508   4.943   0.156
 6654SOL     OW20860   6.609   4.224   3.323
 6654SOL    HW120861   6.611   4.283   3.243
 6654SOL    HW220862   6.536   4.156   3.313
 6655SOL     OW20863   0.225   5.074   1.887
 6655SOL    HW120864   0.191   5.013   1.960
 6655SOL    HW220865   0.256   5.160   1.928
 6656SOL     OW20866   4.257   1.700   3.211
 6656SOL    HW120867   4.240   1.647   3.128
 6656SOL    HW220868   4.282   1.638   3.286
 6657SOL     OW20869   5.878   2.177   3.595
 6657SOL    HW120870   5.916   2.269   3.584
 6657SOL    HW220871   5.857   2.139   3.505
 6658SOL     OW20872   6.578   5.657   5.117
 6658SOL    HW120873   6.555   5.702   5.203
 6658SOL    HW220874   6.496   5.649   5.060
 6659SOL     OW20875   0.728   4.995   1.837
 6659SOL    HW120876   0.720   5.001   1.936
 6659SOL    HW220877   0.638   4.979   1.796
 6660SOL     OW20878   6.388   6.464   4.314
 6660SOL    HW120879   6.342   6.532   4.258
 6660SOL    HW220880   6.364   6.477   4.410
 6661SOL     OW20881   3.800   5.798   4.031
 6661SOL    HW120882   3.765   5.728   4.093
 6661SOL    HW220883   3.884   5.838   4.069
 6662SOL     OW20884   4.018   6.522   2.419
 6662SOL    HW120885   3.945   6.545   2.354
 6662SOL    HW220886   4.002   6.430   2.455
 6663SOL     OW20887   0.833   4.042   5.802
 6663SOL    HW120888   0.867   4.127   5.843
 6663SOL    HW220889   0.848   4.045   5.703
 6664SOL     OW20890   2.734   7.012   0.896
 6664SOL    HW120891   2.715   0.042   0.978
 6664SOL    HW220892   2.701   0.036   0.815
 6665SOL     OW20893   2.568   1.106   6.156
 6665SOL    HW120894   2.546   1.186   6.101
 6665SOL    HW220895   2.501   1.034   6.139
 6666SOL     OW20896   3.967   6.561   5.655
 6666SOL    HW120897   4.054   6.518   5.677
 6666SOL    HW220898   3.931   6.608   5.736
 6667SOL     OW20899   1.109   6.193   6.515
 6667SOL    HW120900   1.036   6.253   6.546
 6667SOL    HW220901   1.115   6.113   6.575
 6668SOL     OW20902   6.763   4.713   0.469
 6668SOL    HW120903   6.859   4.693   0.451
 6668SOL    HW220904   6.708   4.691   0.389
 6669SOL     OW20905   1.372   1.794   3.068
 6669SOL    HW120906   1.388   1.833   2.977
 6669SOL    HW220907   1.460   1.779   3.113
 6670SOL     OW20908   4.281   2.679   0.707
 6670SOL    HW120909   4.326   2.638   0.787
 6670SOL    HW220910   4.227   2.758   0.736
 6671SOL     OW20911   4.279   5.505   0.244
 6671SOL    HW120912   4.202   5.510   0.181
 6671SOL    HW220913   4.292   5.594   0.288
 6672SOL     OW20914   1.526   2.731   1.440
 6672SOL    HW120915   1.594   2.722   1.512
 6672SOL    HW220916   1.569   2.767   1.357
 6673SOL     OW20917   6.092   3.531   3.719
 6673SOL    HW120918   6.006   3.494   3.753
 6673SOL    HW220919   6.166   3.507   3.782
 6674SOL     OW20920   0.556   1.394   0.392
 6674SOL    HW120921   0.615   1.474   0.406
 6674SOL    HW220922   0.554   1.338   0.474
 6675SOL     OW20923   4.955   1.144   6.297
 6675SOL    HW120924   5.007   1.173   6.217
 6675SOL    HW220925   5.017   1.105   6.365
 6676SOL     OW20926   1.270   4.157   4.131
 6676SOL    HW120927   1.222   4.125   4.049
 6676SOL    HW220928   1.212   4.145   4.211
 6677SOL     OW20929   0.776   1.243   6.790
 6677SOL    HW120930   0.876   1.239   6.791
 6677SOL    HW220931   0.743   1.269   6.880
 6678SOL     OW20932   2.546   4.301   6.598
 6678SOL    HW120933   2.646   4.303   6.598
 6678SOL    HW220934   2.514   4.218   6.643
 6679SOL     OW20935   1.686   1.177   3.863
 6679SOL    HW120936   1.689   1.162   3.962
 6679SOL    HW220937   1.622   1.112   3.821
 6680SOL     OW20938   5.894   6.673   1.434
 6680SOL    HW120939   5.824   6.662   1.505
 6680SOL    HW220940   5.901   6.589   1.381
 6681SOL     OW20941   3.469   5.956   1.965
 6681SOL    HW120942   3.543   5.911   2.015
 6681SOL    HW220943   3.435   5.894   1.894
 6682SOL     OW20944   3.226   5.511   5.698
 6682SOL    HW120945   3.208   5.422   5.656
 6682SOL    HW220946   3.212   5.505   5.797
 6683SOL     OW20947   6.692   4.004   6.293
 6683SOL    HW120948   6.672   4.084   6.349
 6683SOL    HW220949   6.785   3.972   6.312
 6684SOL     OW20950   3.021   5.461   0.127
 6684SOL    HW120951   3.102   5.449   0.070
 6684SOL    HW220952   3.008   5.379   0.184
 6685SOL     OW20953   5.192   3.106   6.843
 6685SOL    HW120954   5.176   3.029   6.780
 6685SOL    HW220955   5.107   3.125   6.893
 6686SOL     OW20956   5.137   5.021   4.436
 6686SOL    HW120957   5.221   5.030   4.488
 6686SOL    HW220958   5.074   5.095   4.461
 6687SOL     OW20959   6.352   1.835   2.177
 6687SOL    HW120960   6.351   1.789   2.265
 6687SOL    HW220961   6.360   1.934   2.192
 6688SOL     OW20962   4.435   4.961   0.715
 6688SOL    HW120963   4.495   4.996   0.787
 6688SOL    HW220964   4.390   4.877   0.747
 6689SOL     OW20965   2.123   4.556   5.884
 6689SOL    HW120966   2.159   4.536   5.794
 6689SOL    HW220967   2.077   4.475   5.922
 6690SOL     OW20968   0.405   6.762   5.818
 6690SOL    HW120969   0.397   6.772   5.719
 6690SOL    HW220970   0.438   6.848   5.857
 6691SOL     OW20971   3.062   2.201   2.705
 6691SOL    HW120972   3.063   2.124   2.642
 6691SOL    HW220973   3.039   2.169   2.797
 6692SOL     OW20974   4.341   5.134   2.351
 6692SOL    HW120975   4.340   5.176   2.260
 6692SOL    HW220976   4.247   5.119   2.381
 6693SOL     OW20977   3.937   1.645   4.771
 6693SOL    HW120978   3.876   1.566   4.767
 6693SOL    HW220979   3.893   1.720   4.821
 6694SOL     OW20980   3.416   4.120   1.715
 6694SOL    HW120981   3.422   4.024   1.686
 6694SOL    HW220982   3.364   4.172   1.648
 6695SOL     OW20983   2.260   2.059   6.855
 6695SOL    HW120984   2.252   2.159   6.854
 6695SOL    HW220985   2.278   2.026   6.762
 6696SOL     OW20986   4.066   3.532   4.584
 6696SOL    HW120987   3.995   3.565   4.522
 6696SOL    HW220988   4.076   3.596   4.660
 6697SOL     OW20989   4.103   2.252   2.674
 6697SOL    HW120990   4.174   2.319   2.653
 6697SOL    HW220991   4.126   2.204   2.758
 6698SOL     OW20992   3.168   3.963   1.523
 6698SOL    HW120993   3.268   3.958   1.529
 6698SOL    HW220994   3.143   4.030   1.453
 6699SOL     OW20995   1.121   4.354   5.657
 6699SOL    HW120996   1.112   4.302   5.742
 6699SOL    HW220997   1.099   4.295   5.579
 6700SOL     OW20998   5.789   6.994   6.897
 6700SOL    HW120999   5.850   0.038   6.937
 6700SOL    HW221000   5.787   6.912   6.956
 6701SOL     OW21001   6.413   0.395   1.007
 6701SOL    HW121002   6.500   0.400   0.959
 6701SOL    HW221003   6.338   0.405   0.941
 6702SOL     OW21004   3.097   2.592   1.518
 6702SOL    HW121005   3.118   2.501   1.483
 6702SOL    HW221006   3.021   2.631   1.466
 6703SOL     OW21007   0.343   0.937   0.241
 6703SOL    HW121008   0.331   0.954   0.143
 6703SOL    HW221009   0.363   1.023   0.287
 6704SOL     OW21010   2.879   0.491   6.143
 6704SOL    HW121011   2.820   0.458   6.217
 6704SOL    HW221012   2.874   0.428   6.066
 6705SOL     OW21013   6.645   4.271   2.460
 6705SOL    HW121014   6.665   4.251   2.364
 6705SOL    HW221015   6.730   4.296   2.507
 6706SOL     OW21016   0.130   6.729   1.526
 6706SOL    HW121017   0.169   6.659   1.586
 6706SOL    HW221018   0.151   6.706   1.430
 6707SOL     OW21019   5.267   0.778   2.225
 6707SOL    HW121020   5.266   0.746   2.320
 6707SOL    HW221021   5.176   0.769   2.186
 6708SOL     OW21022   0.679   3.714   1.118
 6708SOL    HW121023   0.776   3.708   1.141
 6708SOL    HW221024   0.669   3.728   1.019
 6709SOL     OW21025   1.986   4.501   2.260
 6709SOL    HW121026   2.036   4.430   2.210
 6709SOL    HW221027   2.049   4.574   2.286
 6710SOL     OW21028   5.072   1.537   0.831
 6710SOL    HW121029   4.994   1.500   0.880
 6710SOL    HW221030   5.086   1.633   0.856
 6711SOL     OW21031   3.612   6.259   6.806
 6711SOL    HW121032   3.686   6.300   6.859
 6711SOL    HW221033   3.641   6.249   6.711
 6712SOL     OW21034   5.755   3.867   2.072
 6712SOL    HW121035   5.777   3.925   1.994
 6712SOL    HW221036   5.687   3.799   2.046
 6713SOL     OW21037   1.782   5.268   5.008
 6713SOL    HW121038   1.867   5.313   4.980
 6713SOL    HW221039   1.704   5.314   4.967
 6714SOL     OW21040   4.696   1.418   1.299
 6714SOL    HW121041   4.661   1.440   1.208
 6714SOL    HW221042   4.622   1.377   1.353
 6715SOL     OW21043   0.987   0.455   6.952
 6715SOL    HW121044   1.004   0.406   0.013
 6715SOL    HW221045   1.066   0.513   6.931
 6716SOL     OW21046   0.414   6.038   2.810
 6716SOL    HW121047   0.426   6.000   2.718
 6716SOL    HW221048   0.486   6.103   2.829
 6717SOL     OW21049   5.716   1.968   5.397
 6717SOL    HW121050   5.769   2.053   5.395
 6717SOL    HW221051   5.688   1.943   5.304
 6718SOL     OW21052   3.888   0.989   1.342
 6718SOL    HW121053   3.881   0.932   1.425
 6718SOL    HW221054   3.984   1.001   1.317
 6719SOL     OW21055   2.192   1.249   0.192
 6719SOL    HW121056   2.265   1.219   0.253
 6719SOL    HW221057   2.130   1.173   0.173
 6720SOL     OW21058   1.914   0.457   6.223
 6720SOL    HW121059   1.939   0.360   6.221
 6720SOL    HW221060   1.815   0.466   6.212
 6721SOL     OW21061   6.214   1.079   0.722
 6721SOL    HW121062   6.122   1.102   0.690
 6721SOL    HW221063   6.230   1.122   0.810
 6722SOL     OW21064   5.980   3.450   6.888
 6722SOL    HW121065   6.006   3.408   6.975
 6722SOL    HW221066   5.880   3.458   6.884
 6723SOL     OW21067   1.002   2.377   5.925
 6723SOL    HW121068   1.009   2.477   5.926
 6723SOL    HW221069   1.029   2.343   5.835
 6724SOL     OW21070   2.027   3.574   5.237
 6724SOL    HW121071   1.968   3.654   5.221
 6724SOL    HW221072   2.121   3.604   5.252
 6725SOL     OW21073   5.186   2.623   2.948
 6725SOL    HW121074   5.262   2.684   2.973
 6725SOL    HW221075   5.099   2.673   2.958
 6726SOL     OW21076   0.566   0.782   5.258
 6726SOL    HW121077   0.659   0.751   5.279
 6726SOL    HW221078   0.563   0.882   5.258
 6727SOL     OW21079   1.151   4.747   5.249
 6727SOL    HW121080   1.173   4.774   5.342
 6727SOL    HW221081   1.155   4.648   5.241
 6728SOL     OW21082   3.232   1.832   3.104
 6728SOL    HW121083   3.237   1.871   3.012
 6728SOL    HW221084   3.255   1.903   3.170
 6729SOL     OW21085   4.392   1.061   2.323
 6729SOL    HW121086   4.321   0.991   2.311
 6729SOL    HW221087   4.481   1.023   2.300
 6730SOL     OW21088   0.575   0.997   1.425
 6730SOL    HW121089   0.525   0.983   1.510
 6730SOL    HW221090   0.596   0.908   1.384
 6731SOL     OW21091   3.697   0.047   6.197
 6731SOL    HW121092   3.701   0.142   6.166
 6731SOL    HW221093   3.610   0.031   6.244
 6732SOL     OW21094   6.973   5.726   4.447
 6732SOL    HW121095   6.974   5.820   4.412
 6732SOL    HW221096   6.960   5.727   4.546
 6733SOL     OW21097   4.917   5.107   6.341
 6733SOL    HW121098   4.845   5.176   6.343
 6733SOL    HW221099   4.925   5.068   6.249
 6734SOL     OW21100   6.493   1.375   4.137
 6734SOL    HW121101   6.518   1.469   4.161
 6734SOL    HW221102   6.565   1.334   4.081
 6735SOL     OW21103   6.421   3.087   3.396
 6735SOL    HW121104   6.342   3.068   3.338
 6735SOL    HW221105   6.474   3.004   3.410
 6736SOL     OW21106   3.467   3.630   0.721
 6736SOL    HW121107   3.548   3.647   0.776
 6736SOL    HW221108   3.453   3.532   0.711
 6737SOL     OW21109   7.006   3.333   0.374
 6737SOL    HW121110   0.062   3.293   0.330
 6737SOL    HW221111   0.000   3.429   0.396
 6738SOL     OW21112   1.049   5.632   3.601
 6738SOL    HW121113   0.976   5.679   3.551
 6738SOL    HW221114   1.062   5.541   3.564
 6739SOL     OW21115   6.489   6.946   4.707
 6739SOL    HW121116   6.412   6.904   4.756
 6739SOL    HW221117   6.552   6.875   4.675
 6740SOL     OW21118   0.599   6.652   3.404
 6740SOL    HW121119   0.501   6.644   3.421
 6740SOL    HW221120   0.643   6.696   3.482
 6741SOL     OW21121   4.320   1.848   6.948
 6741SOL    HW121122   4.333   1.806   6.859
 6741SOL    HW221123   4.269   1.785   7.007
 6742SOL     OW21124   5.522   4.964   3.454
 6742SOL    HW121125   5.492   4.895   3.389
 6742SOL    HW221126   5.472   4.953   3.540
 6743SOL     OW21127   4.270   4.108   0.521
 6743SOL    HW121128   4.353   4.099   0.466
 6743SOL    HW221129   4.203   4.041   0.491
 6744SOL     OW21130   0.432   6.144   6.319
 6744SOL    HW121131   0.496   6.165   6.245
 6744SOL    HW221132   0.380   6.227   6.342
 6745SOL     OW21133   0.236   4.740   5.278
 6745SOL    HW121134   0.329   4.747   5.243
 6745SOL    HW221135   0.229   4.662   5.339
 6746SOL     OW21136   0.789   2.271   2.302
 6746SOL    HW121137   0.872   2.217   2.311
 6746SOL    HW221138   0.813   2.368   2.295
 6747SOL     OW21139   1.917   6.226   5.975
 6747SOL    HW121140   1.954   6.155   5.915
 6747SOL    HW221141   1.866   6.184   6.050
 6748SOL     OW21142   1.916   1.348   4.762
 6748SOL    HW121143   1.962   1.338   4.674
 6748SOL    HW221144   1.817   1.356   4.748
 6749SOL     OW21145   3.562   5.039   1.376
 6749SOL    HW121146   3.498   5.071   1.306
 6749SOL    HW221147   3.650   5.018   1.333
 6750SOL     OW21148   3.156   1.366   5.073
 6750SOL    HW121149   3.090   1.358   4.998
 6750SOL    HW221150   3.191   1.275   5.096
 6751SOL     OW21151   4.650   0.157   4.355
 6751SOL    HW121152   4.658   0.059   4.335
 6751SOL    HW221153   4.557   0.188   4.335
 6752SOL     OW21154   2.280   5.556   2.179
 6752SOL    HW121155   2.207   5.588   2.239
 6752SOL    HW221156   2.267   5.595   2.088
 6753SOL     OW21157   3.781   3.202   5.749
 6753SOL    HW121158   3.857   3.207   5.685
 6753SOL    HW221159   3.764   3.107   5.775
 6754SOL     OW21160   6.328   1.918   1.109
 6754SOL    HW121161   6.328   2.013   1.138
 6754SOL    HW221162   6.421   1.883   1.109
 6755SOL     OW21163   2.723   5.771   6.187
 6755SOL    HW121164   2.704   5.741   6.281
 6755SOL    HW221165   2.693   5.701   6.123
 6756SOL     OW21166   2.383   2.004   5.422
 6756SOL    HW121167   2.330   1.926   5.387
 6756SOL    HW221168   2.438   2.043   5.349
 6757SOL     OW21169   3.986   6.628   0.480
 6757SOL    HW121170   3.907   6.568   0.491
 6757SOL    HW221171   4.053   6.586   0.419
 6758SOL     OW21172   5.954   2.132   2.803
 6758SOL    HW121173   6.025   2.063   2.815
 6758SOL    HW221174   5.957   2.197   2.880
 6759SOL     OW21175   0.886   2.546   2.598
 6759SOL    HW121176   0.906   2.510   2.507
 6759SOL    HW221177   0.849   2.473   2.656
 6760SOL     OW21178   5.235   2.245   3.256
 6760SOL    HW121179   5.147   2.256   3.208
 6760SOL    HW221180   5.237   2.156   3.302
 6761SOL     OW21181   4.003   2.173   4.579
 6761SOL    HW121182   3.994   2.153   4.677
 6761SOL    HW221183   4.035   2.092   4.531
 6762SOL     OW21184   6.982   5.977   3.721
 6762SOL    HW121185   0.035   5.949   3.664
 6762SOL    HW221186   7.000   5.951   3.816
 6763SOL     OW21187   5.111   5.362   5.387
 6763SOL    HW121188   5.073   5.440   5.436
 6763SOL    HW221189   5.138   5.291   5.452
 6764SOL     OW21190   1.680   5.349   1.130
 6764SOL    HW121191   1.727   5.437   1.129
 6764SOL    HW221192   1.590   5.358   1.089
 6765SOL     OW21193   6.649   5.194   2.758
 6765SOL    HW121194   6.618   5.104   2.785
 6765SOL    HW221195   6.619   5.262   2.825
 6766SOL     OW21196   6.091   0.642   0.586
 6766SOL    HW121197   6.130   0.682   0.503
 6766SOL    HW221198   6.160   0.587   0.633
 6767SOL     OW21199   2.826   0.184   0.589
 6767SOL    HW121200   2.835   0.264   0.530
 6767SOL    HW221201   2.916   0.153   0.618
 6768SOL     OW21202   1.642   0.871   0.603
 6768SOL    HW121203   1.679   0.778   0.606
 6768SOL    HW221204   1.542   0.868   0.602
 6769SOL     OW21205   4.321   2.691   1.542
 6769SOL    HW121206   4.353   2.627   1.611
 6769SOL    HW221207   4.232   2.728   1.569
 6770SOL     OW21208   0.235   0.265   1.673
 6770SOL    HW121209   0.285   0.304   1.595
 6770SOL    HW221210   0.192   0.179   1.644
 6771SOL     OW21211   4.106   2.250   3.243
 6771SOL    HW121212   4.102   2.280   3.338
 6771SOL    HW221213   4.199   2.261   3.209
 6772SOL     OW21214   2.652   1.614   2.545
 6772SOL    HW121215   2.651   1.552   2.466
 6772SOL    HW221216   2.587   1.582   2.613
 6773SOL     OW21217   0.557   4.172   2.374
 6773SOL    HW121218   0.549   4.179   2.275
 6773SOL    HW221219   0.492   4.233   2.418
 6774SOL     OW21220   0.784   1.767   6.876
 6774SOL    HW121221   0.827   1.736   6.961
 6774SOL    HW221222   0.743   1.689   6.829
 6775SOL     OW21223   2.449   4.713   0.698
 6775SOL    HW121224   2.506   4.795   0.701
 6775SOL    HW221225   2.357   4.735   0.732
 6776SOL     OW21226   6.235   5.146   0.039
 6776SOL    HW121227   6.244   5.136   0.138
 6776SOL    HW221228   6.327   5.147   7.022
 6777SOL     OW21229   4.583   4.618   6.472
 6777SOL    HW121230   4.654   4.686   6.490
 6777SOL    HW221231   4.518   4.655   6.406
 6778SOL     OW21232   0.838   5.634   3.014
 6778SOL    HW121233   0.885   5.552   2.979
 6778SOL    HW221234   0.852   5.640   3.112
 6779SOL     OW21235   0.016   4.440   0.663
 6779SOL    HW121236   0.028   4.385   0.581
 6779SOL    HW221237   0.105   4.468   0.698
 6780SOL     OW21238   0.361   2.352   1.764
 6780SOL    HW121239   0.349   2.426   1.831
 6780SOL    HW221240   0.333   2.384   1.674
 6781SOL     OW21241   5.420   5.653   5.815
 6781SOL    HW121242   5.387   5.711   5.740
 6781SOL    HW221243   5.492   5.702   5.865
 6782SOL     OW21244   6.354   1.494   2.909
 6782SOL    HW121245   6.293   1.436   2.856
 6782SOL    HW221246   6.334   1.483   3.006
 6783SOL     OW21247   0.197   6.122   6.778
 6783SOL    HW121248   0.202   6.024   6.757
 6783SOL    HW221249   0.166   6.134   6.872
 6784SOL     OW21250   3.288   3.164   0.212
 6784SOL    HW121251   3.282   3.150   0.311
 6784SOL    HW221252   3.287   3.262   0.192
 6785SOL     OW21253   5.613   5.885   2.295
 6785SOL    HW121254   5.640   5.801   2.248
 6785SOL    HW221255   5.681   5.956   2.277
 6786SOL     OW21256   1.697   2.780   5.775
 6786SOL    HW121257   1.717   2.694   5.821
 6786SOL    HW221258   1.732   2.777   5.681
 6787SOL     OW21259   1.366   3.611   2.196
 6787SOL    HW121260   1.418   3.654   2.122
 6787SOL    HW221261   1.397   3.517   2.210
 6788SOL     OW21262   3.282   3.627   0.942
 6788SOL    HW121263   3.186   3.600   0.938
 6788SOL    HW221264   3.321   3.627   0.850
 6789SOL     OW21265   0.577   6.236   2.528
 6789SOL    HW121266   0.659   6.255   2.582
 6789SOL    HW221267   0.500   6.288   2.566
 6790SOL     OW21268   1.996   2.910   0.015
 6790SOL    HW121269   2.073   2.961   0.055
 6790SOL    HW221270   1.959   2.847   0.084
 6791SOL     OW21271   4.277   3.057   6.179
 6791SOL    HW121272   4.342   2.991   6.140
 6791SOL    HW221273   4.193   3.058   6.124
 6792SOL     OW21274   6.540   6.206   0.760
 6792SOL    HW121275   6.579   6.193   0.669
 6792SOL    HW221276   6.509   6.300   0.771
 6793SOL     OW21277   0.870   2.905   1.306
 6793SOL    HW121278   0.850   2.939   1.398
 6793SOL    HW221279   0.851   2.807   1.301
 6794SOL     OW21280   5.349   1.523   5.301
 6794SOL    HW121281   5.296   1.445   5.335
 6794SOL    HW221282   5.437   1.527   5.347
 6795SOL     OW21283   2.964   6.018   6.927
 6795SOL    HW121284   2.947   5.961   6.847
 6795SOL    HW221285   2.960   5.962   7.009
 6796SOL     OW21286   4.488   1.649   2.947
 6796SOL    HW121287   4.391   1.633   2.967
 6796SOL    HW221288   4.514   1.601   2.864
 6797SOL     OW21289   5.562   3.205   2.352
 6797SOL    HW121290   5.632   3.213   2.423
 6797SOL    HW221291   5.583   3.267   2.277
 6798SOL     OW21292   5.297   6.138   2.439
 6798SOL    HW121293   5.318   6.107   2.532
 6798SOL    HW221294   5.317   6.064   2.374
 6799SOL     OW21295   5.468   6.185   0.363
 6799SOL    HW121296   5.464   6.122   0.441
 6799SOL    HW221297   5.563   6.205   0.341
 6800SOL     OW21298   1.939   4.806   0.211
 6800SOL    HW121299   1.913   4.902   0.203
 6800SOL    HW221300   1.910   4.756   0.130
 6801SOL     OW21301   1.611   2.295   2.227
 6801SOL    HW121302   1.628   2.388   2.258
 6801SOL    HW221303   1.646   2.230   2.295
 6802SOL     OW21304   2.446   6.209   1.753
 6802SOL    HW121305   2.378   6.137   1.739
 6802SOL    HW221306   2.498   6.191   1.837
 6803SOL     OW21307   5.144   1.848   0.052
 6803SOL    HW121308   5.110   1.913   7.009
 6803SOL    HW221309   5.243   1.840   0.044
 6804SOL     OW21310   1.566   5.852   3.873
 6804SOL    HW121311   1.502   5.912   3.923
 6804SOL    HW221312   1.656   5.894   3.872
 6805SOL     OW21313   5.987   0.479   4.847
 6805SOL    HW121314   5.969   0.496   4.750
 6805SOL    HW221315   5.953   0.388   4.871
 6806SOL     OW21316   4.322   0.838   5.320
 6806SOL    HW121317   4.365   0.842   5.411
 6806SOL    HW221318   4.351   0.918   5.267
 6807SOL     OW21319   3.046   2.912   0.044
 6807SOL    HW121320   2.974   2.955   0.098
 6807SOL    HW221321   3.006   2.867   6.988
 6808SOL     OW21322   0.788   2.740   6.041
 6808SOL    HW121323   0.723   2.665   6.058
 6808SOL    HW221324   0.785   2.804   6.117
 6809SOL     OW21325   2.547   3.731   6.800
 6809SOL    HW121326   2.456   3.731   6.758
 6809SOL    HW221327   2.576   3.825   6.817
 6810SOL     OW21328   6.310   0.757   2.547
 6810SOL    HW121329   6.240   0.766   2.475
 6810SOL    HW221330   6.271   0.706   2.624
 6811SOL     OW21331   5.685   5.011   1.439
 6811SOL    HW121332   5.609   5.001   1.375
 6811SOL    HW221333   5.731   4.924   1.450
 6812SOL     OW21334   3.463   3.430   3.084
 6812SOL    HW121335   3.462   3.423   2.984
 6812SOL    HW221336   3.372   3.411   3.120
 6813SOL     OW21337   4.314   3.152   0.840
 6813SOL    HW121338   4.286   3.231   0.895
 6813SOL    HW221339   4.330   3.074   0.901
 6814SOL     OW21340   2.343   3.620   0.934
 6814SOL    HW121341   2.340   3.719   0.945
 6814SOL    HW221342   2.252   3.582   0.951
 6815SOL     OW21343   2.158   0.426   1.880
 6815SOL    HW121344   2.094   0.491   1.921
 6815SOL    HW221345   2.172   0.449   1.784
 6816SOL     OW21346   6.751   4.818   0.171
 6816SOL    HW121347   6.670   4.775   0.213
 6816SOL    HW221348   6.725   4.905   0.130
 6817SOL     OW21349   0.125   1.447   6.095
 6817SOL    HW121350   0.054   1.437   6.026
 6817SOL    HW221351   0.214   1.451   6.051
 6818SOL     OW21352   3.977   6.011   2.942
 6818SOL    HW121353   4.076   6.026   2.948
 6818SOL    HW221354   3.957   5.951   2.865
 6819SOL     OW21355   3.751   1.131   3.800
 6819SOL    HW121356   3.836   1.108   3.753
 6819SOL    HW221357   3.748   1.085   3.889
 6820SOL     OW21358   1.030   4.057   3.331
 6820SOL    HW121359   1.042   4.009   3.418
 6820SOL    HW221360   1.100   4.128   3.322
 6821SOL     OW21361   2.421   2.385   4.403
 6821SOL    HW121362   2.462   2.295   4.385
 6821SOL    HW221363   2.467   2.427   4.481
 6822SOL     OW21364   5.457   2.222   5.756
 6822SOL    HW121365   5.421   2.162   5.685
 6822SOL    HW221366   5.423   2.315   5.742
 6823SOL     OW21367   3.220   2.995   3.271
 6823SOL    HW121368   3.194   2.976   3.177
 6823SOL    HW221369   3.150   3.053   3.313
 6824SOL     OW21370   0.814   4.352   0.059
 6824SOL    HW121371   0.738   4.387   0.006
 6824SOL    HW221372   0.855   4.274   0.012
 6825SOL     OW21373   4.937   6.892   2.235
 6825SOL    HW121374   5.003   6.908   2.308
 6825SOL    HW221375   4.979   6.837   2.163
 6826SOL     OW21376   1.760   3.357   2.731
 6826SOL    HW121377   1.763   3.391   2.826
 6826SOL    HW221378   1.835   3.398   2.679
 6827SOL     OW21379   6.012   5.747   6.042
 6827SOL    HW121380   5.962   5.677   6.094
 6827SOL    HW221381   6.109   5.743   6.068
 6828SOL     OW21382   1.132   2.367   1.163
 6828SOL    HW121383   1.215   2.319   1.132
 6828SOL    HW221384   1.130   2.366   1.263
 6829SOL     OW21385   5.200   6.004   3.571
 6829SOL    HW121386   5.222   5.910   3.546
 6829SOL    HW221387   5.219   6.064   3.493
 6830SOL     OW21388   5.229   2.189   3.615
 6830SOL    HW121389   5.310   2.211   3.559
 6830SOL    HW221390   5.197   2.097   3.592
 6831SOL     OW21391   0.440   0.703   5.852
 6831SOL    HW121392   0.488   0.615   5.859
 6831SOL    HW221393   0.504   0.778   5.871
 6832SOL     OW21394   3.332   5.169   2.096
 6832SOL    HW121395   3.367   5.086   2.053
 6832SOL    HW221396   3.264   5.212   2.037
 6833SOL     OW21397   4.113   4.785   0.431
 6833SOL    HW121398   4.136   4.689   0.419
 6833SOL    HW221399   4.108   4.806   0.529
 6834SOL     OW21400   3.973   6.152   2.087
 6834SOL    HW121401   3.974   6.119   2.181
 6834SOL    HW221402   3.878   6.167   2.058
 6835SOL     OW21403   4.034   6.939   5.115
 6835SOL    HW121404   3.978   6.860   5.140
 6835SOL    HW221405   3.991   6.987   5.039
 6836SOL     OW21406   3.687   6.737   0.061
 6836SOL    HW121407   3.705   6.693   6.998
 6836SOL    HW221408   3.755   6.708   0.128
 6837SOL     OW21409   1.802   3.251   2.001
 6837SOL    HW121410   1.814   3.236   2.099
 6837SOL    HW221411   1.709   3.281   1.983
 6838SOL     OW21412   2.702   1.198   0.485
 6838SOL    HW121413   2.764   1.229   0.412
 6838SOL    HW221414   2.638   1.271   0.507
 6839SOL     OW21415   4.167   1.191   0.787
 6839SOL    HW121416   4.094   1.246   0.827
 6839SOL    HW221417   4.208   1.240   0.710
 6840SOL     OW21418   1.408   1.447   6.141
 6840SOL    HW121419   1.413   1.359   6.188
 6840SOL    HW221420   1.321   1.491   6.163
 6841SOL     OW21421   6.515   2.917   6.334
 6841SOL    HW121422   6.582   2.860   6.382
 6841SOL    HW221423   6.485   2.991   6.394
 6842SOL     OW21424   2.295   4.758   2.881
 6842SOL    HW121425   2.344   4.779   2.966
 6842SOL    HW221426   2.199   4.739   2.903
 6843SOL     OW21427   4.836   6.701   6.751
 6843SOL    HW121428   4.873   6.649   6.828
 6843SOL    HW221429   4.756   6.753   6.781
 6844SOL     OW21430   5.190   0.803   5.539
 6844SOL    HW121431   5.109   0.769   5.491
 6844SOL    HW221432   5.272   0.779   5.487
 6845SOL     OW21433   5.167   1.769   2.155
 6845SOL    HW121434   5.205   1.749   2.246
 6845SOL    HW221435   5.238   1.807   2.096
 6846SOL     OW21436   2.385   3.728   0.268
 6846SOL    HW121437   2.383   3.790   0.346
 6846SOL    HW221438   2.375   3.780   0.183
 6847SOL     OW21439   6.093   3.914   4.136
 6847SOL    HW121440   6.139   3.826   4.124
 6847SOL    HW221441   6.133   3.962   4.213
 6848SOL     OW21442   5.899   5.249   3.129
 6848SOL    HW121443   5.819   5.221   3.181
 6848SOL    HW221444   5.931   5.338   3.161
 6849SOL     OW21445   4.012   4.526   6.772
 6849SOL    HW121446   4.001   4.618   6.809
 6849SOL    HW221447   3.926   4.475   6.781
 6850SOL     OW21448   3.978   1.815   3.603
 6850SOL    HW121449   4.029   1.825   3.688
 6850SOL    HW221450   3.880   1.813   3.624
 6851SOL     OW21451   1.726   2.876   3.819
 6851SOL    HW121452   1.742   2.965   3.862
 6851SOL    HW221453   1.764   2.876   3.726
 6852SOL     OW21454   2.731   5.180   0.281
 6852SOL    HW121455   2.638   5.157   0.255
 6852SOL    HW221456   2.740   5.177   0.380
 6853SOL     OW21457   4.959   3.148   6.980
 6853SOL    HW121458   4.866   3.151   7.018
 6853SOL    HW221459   5.018   3.209   0.007
 6854SOL     OW21460   5.233   6.535   6.048
 6854SOL    HW121461   5.207   6.525   6.144
 6854SOL    HW221462   5.282   6.622   6.036
 6855SOL     OW21463   3.971   5.427   4.032
 6855SOL    HW121464   3.906   5.478   4.088
 6855SOL    HW221465   4.020   5.491   3.972
 6856SOL     OW21466   1.059   1.811   6.808
 6856SOL    HW121467   1.092   1.731   6.859
 6856SOL    HW221468   0.959   1.810   6.804
 6857SOL     OW21469   0.789   4.004   5.531
 6857SOL    HW121470   0.690   4.015   5.525
 6857SOL    HW221471   0.830   4.022   5.441
 6858SOL     OW21472   2.694   4.047   1.642
 6858SOL    HW121473   2.641   4.109   1.698
 6858SOL    HW221474   2.792   4.063   1.657
 6859SOL     OW21475   0.790   1.208   2.639
 6859SOL    HW121476   0.834   1.124   2.606
 6859SOL    HW221477   0.792   1.276   2.566
 6860SOL     OW21478   0.750   6.660   2.287
 6860SOL    HW121479   0.743   6.686   2.383
 6860SOL    HW221480   0.802   6.575   2.280
 6861SOL     OW21481   5.087   2.787   4.942
 6861SOL    HW121482   5.096   2.712   5.007
 6861SOL    HW221483   5.176   2.806   4.900
 6862SOL     OW21484   0.681   4.410   5.309
 6862SOL    HW121485   0.719   4.430   5.219
 6862SOL    HW221486   0.581   4.421   5.307
 6863SOL     OW21487   6.531   6.863   5.849
 6863SOL    HW121488   6.569   6.833   5.937
 6863SOL    HW221489   6.447   6.812   5.829
 6864SOL     OW21490   1.376   3.880   6.143
 6864SOL    HW121491   1.467   3.857   6.110
 6864SOL    HW221492   1.308   3.829   6.090
 6865SOL     OW21493   2.359   0.028   4.281
 6865SOL    HW121494   2.424   0.030   4.206
 6865SOL    HW221495   2.266   0.018   4.245
 6866SOL     OW21496   0.660   4.287   1.495
 6866SOL    HW121497   0.579   4.334   1.529
 6866SOL    HW221498   0.739   4.347   1.502
 6867SOL     OW21499   2.075   3.707   6.855
 6867SOL    HW121500   2.022   3.773   6.801
 6867SOL    HW221501   2.012   3.645   6.901
 6868SOL     OW21502   2.674   5.123   4.345
 6868SOL    HW121503   2.651   5.074   4.428
 6868SOL    HW221504   2.644   5.070   4.265
 6869SOL     OW21505   3.803   0.979   5.969
 6869SOL    HW121506   3.851   0.980   5.881
 6869SOL    HW221507   3.737   0.904   5.970
 6870SOL     OW21508   6.417   2.628   1.068
 6870SOL    HW121509   6.449   2.665   0.981
 6870SOL    HW221510   6.318   2.643   1.076
 6871SOL     OW21511   0.780   4.017   2.717
 6871SOL    HW121512   0.852   3.984   2.777
 6871SOL    HW221513   0.793   3.978   2.625
 6872SOL     OW21514   2.074   3.557   0.626
 6872SOL    HW121515   2.065   3.460   0.649
 6872SOL    HW221516   2.123   3.566   0.539
 6873SOL     OW21517   1.008   4.263   3.926
 6873SOL    HW121518   1.042   4.177   3.889
 6873SOL    HW221519   1.023   4.265   4.024
 6874SOL     OW21520   5.409   6.552   3.514
 6874SOL    HW121521   5.507   6.549   3.529
 6874SOL    HW221522   5.364   6.482   3.569
 6875SOL     OW21523   1.492   2.363   0.455
 6875SOL    HW121524   1.399   2.327   0.444
 6875SOL    HW221525   1.518   2.361   0.551
 6876SOL     OW21526   4.498   5.442   3.662
 6876SOL    HW121527   4.574   5.463   3.723
 6876SOL    HW221528   4.412   5.462   3.708
 6877SOL     OW21529   1.752   3.610   2.415
 6877SOL    HW121530   1.740   3.567   2.326
 6877SOL    HW221531   1.666   3.654   2.443
 6878SOL     OW21532   1.920   0.351   4.574
 6878SOL    HW121533   1.945   0.382   4.666
 6878SOL    HW221534   1.823   0.329   4.571
 6879SOL     OW21535   1.896   2.025   0.327
 6879SOL    HW121536   1.868   2.120   0.318
 6879SOL    HW221537   1.940   2.012   0.417
 6880SOL     OW21538   1.442   5.501   6.729
 6880SOL    HW121539   1.441   5.592   6.688
 6880SOL    HW221540   1.348   5.474   6.754
 6881SOL     OW21541   1.512   2.749   0.481
 6881SOL    HW121542   1.552   2.737   0.572
 6881SOL    HW221543   1.449   2.827   0.483
 6882SOL     OW21544   2.777   6.694   6.346
 6882SOL    HW121545   2.721   6.646   6.278
 6882SOL    HW221546   2.751   6.664   6.438
 6883SOL     OW21547   5.143   0.115   6.938
 6883SOL    HW121548   5.091   0.044   6.890
 6883SOL    HW221549   5.218   0.145   6.879
 6884SOL     OW21550   2.029   4.006   2.892
 6884SOL    HW121551   1.964   4.022   2.817
 6884SOL    HW221552   2.024   3.910   2.920
 6885SOL     OW21553   5.562   5.086   4.864
 6885SOL    HW121554   5.592   5.031   4.786
 6885SOL    HW221555   5.602   5.178   4.858
 6886SOL     OW21556   4.876   1.666   6.528
 6886SOL    HW121557   4.961   1.685   6.577
 6886SOL    HW221558   4.800   1.714   6.572
 6887SOL     OW21559   5.599   5.948   6.180
 6887SOL    HW121560   5.555   6.035   6.155
 6887SOL    HW221561   5.529   5.882   6.208
 6888SOL     OW21562   5.903   5.008   6.540
 6888SOL    HW121563   5.928   5.037   6.633
 6888SOL    HW221564   5.826   4.945   6.545
 6889SOL     OW21565   0.512   2.198   6.789
 6889SOL    HW121566   0.430   2.163   6.744
 6889SOL    HW221567   0.593   2.151   6.754
 6890SOL     OW21568   4.297   5.008   3.058
 6890SOL    HW121569   4.248   4.923   3.036
 6890SOL    HW221570   4.389   5.005   3.020
 6891SOL     OW21571   1.728   1.185   0.872
 6891SOL    HW121572   1.694   1.218   0.960
 6891SOL    HW221573   1.738   1.086   0.875
 6892SOL     OW21574   2.667   0.968   4.513
 6892SOL    HW121575   2.761   0.937   4.524
 6892SOL    HW221576   2.633   1.002   4.601
 6893SOL     OW21577   6.256   3.315   0.436
 6893SOL    HW121578   6.349   3.329   0.468
 6893SOL    HW221579   6.257   3.259   0.352
 6894SOL     OW21580   5.933   5.349   0.825
 6894SOL    HW121581   5.886   5.423   0.873
 6894SOL    HW221582   5.876   5.266   0.827
 6895SOL     OW21583   0.482   6.605   1.439
 6895SOL    HW121584   0.448   6.582   1.348
 6895SOL    HW221585   0.405   6.622   1.500
 6896SOL     OW21586   4.202   2.329   4.422
 6896SOL    HW121587   4.124   2.300   4.478
 6896SOL    HW221588   4.191   2.294   4.329
 6897SOL     OW21589   4.864   3.349   5.204
 6897SOL    HW121590   4.960   3.376   5.208
 6897SOL    HW221591   4.808   3.428   5.179
 6898SOL     OW21592   2.294   1.031   1.479
 6898SOL    HW121593   2.302   1.129   1.462
 6898SOL    HW221594   2.384   0.989   1.472
 6899SOL     OW21595   6.352   6.224   2.776
 6899SOL    HW121596   6.412   6.304   2.767
 6899SOL    HW221597   6.349   6.175   2.689
 6900SOL     OW21598   6.281   3.864   5.500
 6900SOL    HW121599   6.288   3.765   5.495
 6900SOL    HW221600   6.293   3.903   5.409
 6901SOL     OW21601   4.794   4.510   6.850
 6901SOL    HW121602   4.856   4.515   6.928
 6901SOL    HW221603   4.793   4.597   6.801
 6902SOL     OW21604   0.735   5.719   5.797
 6902SOL    HW121605   0.759   5.787   5.728
 6902SOL    HW221606   0.727   5.629   5.754
 6903SOL     OW21607   1.739   5.611   4.579
 6903SOL    HW121608   1.655   5.575   4.537
 6903SOL    HW221609   1.723   5.622   4.677
 6904SOL     OW21610   6.361   6.653   5.344
 6904SOL    HW121611   6.317   6.657   5.255
 6904SOL    HW221612   6.360   6.559   5.378
 6905SOL     OW21613   4.794   5.883   6.173
 6905SOL    HW121614   4.862   5.948   6.207
 6905SOL    HW221615   4.789   5.804   6.234
 6906SOL     OW21616   3.557   1.807   3.329
 6906SOL    HW121617   3.591   1.868   3.401
 6906SOL    HW221618   3.566   1.852   3.240
 6907SOL     OW21619   5.796   2.420   0.676
 6907SOL    HW121620   5.766   2.397   0.584
 6907SOL    HW221621   5.723   2.400   0.741
 6908SOL     OW21622   2.632   4.296   6.967
 6908SOL    HW121623   2.619   4.353   0.024
 6908SOL    HW221624   2.543   4.275   6.926
 6909SOL     OW21625   6.042   5.788   2.126
 6909SOL    HW121626   6.001   5.732   2.198
 6909SOL    HW221627   6.139   5.764   2.117
 6910SOL     OW21628   1.045   2.904   3.098
 6910SOL    HW121629   0.971   2.867   3.041
 6910SOL    HW221630   1.128   2.852   3.082
 6911SOL     OW21631   2.364   6.741   5.752
 6911SOL    HW121632   2.315   6.706   5.672
 6911SOL    HW221633   2.370   6.840   5.746
 6912SOL     OW21634   2.948   3.585   6.959
 6912SOL    HW121635   2.935   3.677   6.997
 6912SOL    HW221636   2.950   3.590   6.860
 6913SOL     OW21637   4.944   6.365   5.827
 6913SOL    HW121638   4.957   6.268   5.804
 6913SOL    HW221639   4.928   6.374   5.925
 6914SOL     OW21640   6.828   2.953   2.539
 6914SOL    HW121641   6.743   2.931   2.587
 6914SOL    HW221642   6.825   2.916   2.447
 6915SOL     OW21643   0.929   2.809   2.859
 6915SOL    HW121644   0.871   2.728   2.856
 6915SOL    HW221645   0.977   2.820   2.772
 6916SOL     OW21646   5.070   6.005   0.163
 6916SOL    HW121647   5.033   6.028   0.073
 6916SOL    HW221648   5.099   5.909   0.163
 6917SOL     OW21649   5.098   5.373   1.259
 6917SOL    HW121650   5.052   5.459   1.237
 6917SOL    HW221651   5.131   5.330   1.175
 6918SOL     OW21652   2.173   3.452   1.638
 6918SOL    HW121653   2.167   3.549   1.658
 6918SOL    HW221654   2.255   3.414   1.681
 6919SOL     OW21655   6.402   6.244   3.725
 6919SOL    HW121656   6.359   6.168   3.774
 6919SOL    HW221657   6.343   6.325   3.733
 6920SOL     OW21658   5.986   0.403   5.859
 6920SOL    HW121659   6.001   0.304   5.860
 6920SOL    HW221660   6.045   0.446   5.928
 6921SOL     OW21661   4.108   0.578   4.106
 6921SOL    HW121662   4.067   0.512   4.170
 6921SOL    HW221663   4.050   0.584   4.025
 6922SOL     OW21664   1.354   4.737   6.079
 6922SOL    HW121665   1.268   4.690   6.056
 6922SOL    HW221666   1.404   4.755   5.994
 6923SOL     OW21667   6.385   0.056   2.875
 6923SOL    HW121668   6.314   0.008   2.928
 6923SOL    HW221669   6.390   0.151   2.905
 6924SOL     OW21670   3.158   6.054   1.042
 6924SOL    HW121671   3.215   5.999   1.103
 6924SOL    HW221672   3.063   6.049   1.072
 6925SOL     OW21673   5.705   6.155   5.859
 6925SOL    HW121674   5.641   6.151   5.783
 6925SOL    HW221675   5.772   6.081   5.851
 6926SOL     OW21676   2.780   2.295   0.296
 6926SOL    HW121677   2.734   2.344   0.222
 6926SOL    HW221678   2.711   2.254   0.356
 6927SOL     OW21679   4.825   0.566   0.784
 6927SOL    HW121680   4.741   0.518   0.761
 6927SOL    HW221681   4.899   0.533   0.726
 6928SOL     OW21682   4.613   5.032   0.914
 6928SOL    HW121683   4.682   5.102   0.931
 6928SOL    HW221684   4.524   5.063   0.947
 6929SOL     OW21685   6.433   5.361   1.432
 6929SOL    HW121686   6.525   5.361   1.395
 6929SOL    HW221687   6.368   5.388   1.361
 6930SOL     OW21688   1.451   0.190   1.033
 6930SOL    HW121689   1.509   0.120   1.075
 6930SOL    HW221690   1.361   0.152   1.013
 6931SOL     OW21691   3.147   3.025   0.820
 6931SOL    HW121692   3.146   3.125   0.822
 6931SOL    HW221693   3.118   2.990   0.909
 6932SOL     OW21694   4.740   5.788   0.278
 6932SOL    HW121695   4.677   5.712   0.258
 6932SOL    HW221696   4.831   5.752   0.295
 6933SOL     OW21697   3.467   5.713   6.348
 6933SOL    HW121698   3.567   5.716   6.358
 6933SOL    HW221699   3.425   5.769   6.419
 6934SOL     OW21700   5.051   3.862   0.023
 6934SOL    HW121701   5.102   3.789   0.068
 6934SOL    HW221702   5.006   3.919   0.092
 6935SOL     OW21703   4.953   5.818   1.523
 6935SOL    HW121704   4.967   5.872   1.606
 6935SOL    HW221705   4.857   5.791   1.516
 6936SOL     OW21706   0.843   2.403   5.064
 6936SOL    HW121707   0.942   2.396   5.052
 6936SOL    HW221708   0.822   2.441   5.154
 6937SOL     OW21709   5.413   5.830   6.791
 6937SOL    HW121710   5.332   5.821   6.850
 6937SOL    HW221711   5.384   5.840   6.696
 6938SOL     OW21712   1.511   0.406   4.981
 6938SOL    HW121713   1.424   0.384   4.935
 6938SOL    HW221714   1.501   0.491   5.032
 6939SOL     OW21715   6.064   3.997   3.294
 6939SOL    HW121716   6.080   4.006   3.392
 6939SOL    HW221717   5.966   3.980   3.278
 6940SOL     OW21718   3.269   5.951   0.558
 6940SOL    HW121719   3.364   5.930   0.536
 6940SOL    HW221720   3.210   5.927   0.480
 6941SOL     OW21721   3.385   3.824   2.653
 6941SOL    HW121722   3.396   3.826   2.554
 6941SOL    HW221723   3.399   3.915   2.691
 6942SOL     OW21724   6.275   6.657   1.687
 6942SOL    HW121725   6.281   6.736   1.626
 6942SOL    HW221726   6.259   6.687   1.780
 6943SOL     OW21727   4.769   4.846   6.498
 6943SOL    HW121728   4.770   4.939   6.533
 6943SOL    HW221729   4.812   4.844   6.407
 6944SOL     OW21730   1.149   4.461   5.208
 6944SOL    HW121731   1.197   4.498   5.129
 6944SOL    HW221732   1.076   4.399   5.177
 6945SOL     OW21733   5.916   2.151   0.913
 6945SOL    HW121734   5.905   2.162   0.815
 6945SOL    HW221735   5.839   2.099   0.950
 6946SOL     OW21736   4.098   5.381   3.288
 6946SOL    HW121737   4.192   5.411   3.274
 6946SOL    HW221738   4.066   5.331   3.208
 6947SOL     OW21739   5.427   4.740   4.978
 6947SOL    HW121740   5.372   4.683   4.916
 6947SOL    HW221741   5.381   4.747   5.066
 6948SOL     OW21742   7.004   4.636   0.325
 6948SOL    HW121743   0.063   4.587   0.348
 6948SOL    HW221744   6.965   4.598   0.241
 6949SOL     OW21745   2.375   1.378   3.784
 6949SOL    HW121746   2.440   1.422   3.722
 6949SOL    HW221747   2.295   1.347   3.733
 6950SOL     OW21748   0.400   0.404   4.198
 6950SOL    HW121749   0.389   0.503   4.186
 6950SOL    HW221750   0.386   0.381   4.294
 6951SOL     OW21751   0.372   5.045   6.348
 6951SOL    HW121752   0.322   5.123   6.384
 6951SOL    HW221753   0.417   5.070   6.262
 6952SOL     OW21754   4.018   5.578   3.459
 6952SOL    HW121755   4.037   5.501   3.399
 6952SOL    HW221756   4.010   5.545   3.554
 6953SOL     OW21757   5.524   1.098   0.994
 6953SOL    HW121758   5.501   1.057   1.083
 6953SOL    HW221759   5.484   1.190   0.989
 6954SOL     OW21760   6.034   3.948   0.098
 6954SOL    HW121761   6.058   3.999   0.181
 6954SOL    HW221762   5.948   3.900   0.113
 6955SOL     OW21763   4.592   6.563   2.283
 6955SOL    HW121764   4.619   6.475   2.245
 6955SOL    HW221765   4.564   6.624   2.210
 6956SOL     OW21766   5.766   5.594   2.525
 6956SOL    HW121767   5.839   5.658   2.548
 6956SOL    HW221768   5.793   5.539   2.445
 6957SOL     OW21769   5.565   5.849   5.940
 6957SOL    HW121770   5.541   5.937   5.899
 6957SOL    HW221771   5.631   5.863   6.013
 6958SOL     OW21772   2.921   3.661   3.822
 6958SOL    HW121773   2.910   3.631   3.917
 6958SOL    HW221774   2.903   3.585   3.760
 6959SOL     OW21775   0.524   4.009   3.152
 6959SOL    HW121776   0.593   4.081   3.149
 6959SOL    HW221777   0.568   3.921   3.169
 6960SOL     OW21778   3.030   4.229   0.602
 6960SOL    HW121779   3.091   4.307   0.617
 6960SOL    HW221780   2.935   4.261   0.599
 6961SOL     OW21781   4.958   2.118   4.924
 6961SOL    HW121782   4.987   2.158   4.837
 6961SOL    HW221783   4.964   2.019   4.919
 6962SOL     OW21784   2.190   6.508   6.634
 6962SOL    HW121785   2.146   6.418   6.628
 6962SOL    HW221786   2.150   6.569   6.565
 6963SOL     OW21787   5.398   6.387   1.079
 6963SOL    HW121788   5.476   6.437   1.040
 6963SOL    HW221789   5.330   6.452   1.112
 6964SOL     OW21790   1.330   0.266   5.280
 6964SOL    HW121791   1.238   0.234   5.257
 6964SOL    HW221792   1.396   0.193   5.262
 6965SOL     OW21793   0.534   1.755   0.106
 6965SOL    HW121794   0.485   1.691   0.165
 6965SOL    HW221795   0.629   1.761   0.136
 6966SOL     OW21796   1.375   6.813   1.647
 6966SOL    HW121797   1.364   6.714   1.657
 6966SOL    HW221798   1.469   6.838   1.670
 6967SOL     OW21799   4.512   1.569   6.388
 6967SOL    HW121800   4.526   1.541   6.483
 6967SOL    HW221801   4.441   1.639   6.383
 6968SOL     OW21802   3.813   6.425   2.895
 6968SOL    HW121803   3.859   6.472   2.820
 6968SOL    HW221804   3.728   6.473   2.917
 6969SOL     OW21805   2.042   1.965   1.743
 6969SOL    HW121806   2.099   1.954   1.661
 6969SOL    HW221807   2.089   2.024   1.808
 6970SOL     OW21808   3.670   5.461   5.444
 6970SOL    HW121809   3.625   5.431   5.359
 6970SOL    HW221810   3.600   5.492   5.509
 6971SOL     OW21811   6.884   4.417   0.182
 6971SOL    HW121812   6.914   4.394   0.275
 6971SOL    HW221813   6.785   4.425   0.180
 6972SOL     OW21814   5.368   3.741   2.025
 6972SOL    HW121815   5.295   3.675   2.042
 6972SOL    HW221816   5.407   3.771   2.112
 6973SOL     OW21817   1.522   3.181   2.923
 6973SOL    HW121818   1.547   3.277   2.936
 6973SOL    HW221819   1.524   3.134   3.011
 6974SOL     OW21820   3.889   3.734   3.049
 6974SOL    HW121821   3.916   3.804   3.115
 6974SOL    HW221822   3.811   3.683   3.085
 6975SOL     OW21823   3.091   5.306   4.581
 6975SOL    HW121824   2.999   5.282   4.549
 6975SOL    HW221825   3.089   5.397   4.622
 6976SOL     OW21826   4.430   3.909   6.190
 6976SOL    HW121827   4.510   3.924   6.248
 6976SOL    HW221828   4.460   3.892   6.096
 6977SOL     OW21829   4.256   4.896   0.975
 6977SOL    HW121830   4.168   4.907   1.021
 6977SOL    HW221831   4.302   4.985   0.970
 6978SOL     OW21832   6.538   3.531   1.846
 6978SOL    HW121833   6.573   3.619   1.878
 6978SOL    HW221834   6.457   3.506   1.899
 6979SOL     OW21835   1.595   3.067   1.543
 6979SOL    HW121836   1.665   3.009   1.586
 6979SOL    HW221837   1.639   3.132   1.481
 6980SOL     OW21838   1.533   5.724   2.760
 6980SOL    HW121839   1.452   5.675   2.729
 6980SOL    HW221840   1.509   5.819   2.781
 6981SOL     OW21841   3.897   3.128   6.930
 6981SOL    HW121842   3.950   3.162   6.852
 6981SOL    HW221843   3.815   3.184   6.941
 6982SOL     OW21844   1.339   1.059   3.132
 6982SOL    HW121845   1.275   1.048   3.057
 6982SOL    HW221846   1.326   0.985   3.199
 6983SOL     OW21847   4.732   0.658   4.038
 6983SOL    HW121848   4.632   0.657   4.033
 6983SOL    HW221849   4.760   0.710   4.119
 6984SOL     OW21850   1.038   2.407   3.307
 6984SOL    HW121851   1.084   2.412   3.218
 6984SOL    HW221852   1.085   2.339   3.364
 6985SOL     OW21853   5.921   3.689   0.193
 6985SOL    HW121854   5.836   3.637   0.185
 6985SOL    HW221855   5.997   3.627   0.212
 6986SOL     OW21856   4.859   4.846   5.347
 6986SOL    HW121857   4.958   4.840   5.338
 6986SOL    HW221858   4.818   4.757   5.328
 6987SOL     OW21859   0.428   1.328   6.223
 6987SOL    HW121860   0.368   1.328   6.303
 6987SOL    HW221861   0.441   1.234   6.192
 6988SOL     OW21862   3.507   1.563   6.361
 6988SOL    HW121863   3.574   1.636   6.346
 6988SOL    HW221864   3.447   1.587   6.437
 6989SOL     OW21865   0.572   5.371   2.084
 6989SOL    HW121866   0.651   5.312   2.065
 6989SOL    HW221867   0.575   5.400   2.179
 6990SOL     OW21868   3.768   2.873   0.741
 6990SOL    HW121869   3.768   2.774   0.728
 6990SOL    HW221870   3.676   2.904   0.765
 6991SOL     OW21871   6.589   3.395   2.474
 6991SOL    HW121872   6.579   3.320   2.539
 6991SOL    HW221873   6.675   3.443   2.491
 6992SOL     OW21874   1.301   6.068   0.306
 6992SOL    HW121875   1.252   5.981   0.312
 6992SOL    HW221876   1.285   6.109   0.216
 6993SOL     OW21877   4.801   1.748   1.048
 6993SOL    HW121878   4.736   1.756   1.124
 6993SOL    HW221879   4.760   1.787   0.966
 6994SOL     OW21880   2.463   0.547   3.313
 6994SOL    HW121881   2.488   0.578   3.221
 6994SOL    HW221882   2.423   0.623   3.364
 6995SOL     OW21883   0.376   3.877   1.569
 6995SOL    HW121884   0.292   3.823   1.562
 6995SOL    HW221885   0.456   3.817   1.561
 6996SOL     OW21886   1.336   0.930   6.993
 6996SOL    HW121887   1.358   0.933   0.067
 6996SOL    HW221888   1.393   0.861   6.948
 6997SOL     OW21889   5.656   5.558   6.240
 6997SOL    HW121890   5.560   5.587   6.240
 6997SOL    HW221891   5.680   5.522   6.150
 6998SOL     OW21892   6.032   1.297   0.108
 6998SOL    HW121893   6.126   1.287   0.075
 6998SOL    HW221894   6.023   1.382   0.160
 6999SOL     OW21895   0.183   3.122   0.041
 6999SOL    HW121896   0.233   3.181   7.002
 6999SOL    HW221897   0.160   3.036   7.021
 7000SOL     OW21898   6.684   6.389   3.729
 7000SOL    HW121899   6.761   6.344   3.684
 7000SOL    HW221900   6.606   6.328   3.731
 7001SOL     OW21901   0.451   2.069   4.474
 7001SOL    HW121902   0.395   2.096   4.553
 7001SOL    HW221903   0.541   2.113   4.481
 7002SOL     OW21904   0.535   5.035   2.760
 7002SOL    HW121905   0.592   5.002   2.835
 7002SOL    HW221906   0.522   4.962   2.693
 7003SOL     OW21907   6.958   4.037   0.676
 7003SOL    HW121908   6.993   3.950   0.712
 7003SOL    HW221909   6.906   4.084   0.747
 7004SOL     OW21910   1.706   6.619   0.753
 7004SOL    HW121911   1.790   6.625   0.699
 7004SOL    HW221912   1.628   6.643   0.695
 7005SOL     OW21913   0.541   5.911   0.928
 7005SOL    HW121914   0.612   5.842   0.947
 7005SOL    HW221915   0.454   5.865   0.910
 7006SOL     OW21916   1.529   0.033   4.464
 7006SOL    HW121917   1.495   6.984   4.406
 7006SOL    HW221918   1.624   0.015   4.490
 7007SOL     OW21919   2.319   0.372   5.879
 7007SOL    HW121920   2.282   0.459   5.912
 7007SOL    HW221921   2.415   0.364   5.906
 7008SOL     OW21922   5.600   3.873   2.929
 7008SOL    HW121923   5.571   3.836   2.840
 7008SOL    HW221924   5.668   3.812   2.969
 7009SOL     OW21925   4.449   5.684   1.960
 7009SOL    HW121926   4.493   5.764   1.999
 7009SOL    HW221927   4.455   5.687   1.860
 7010SOL     OW21928   5.182   3.466   1.839
 7010SOL    HW121929   5.108   3.482   1.773
 7010SOL    HW221930   5.261   3.522   1.812
 7011SOL     OW21931   3.449   6.116   0.115
 7011SOL    HW121932   3.536   6.080   0.082
 7011SOL    HW221933   3.454   6.215   0.124
 7012SOL     OW21934   6.628   2.395   0.516
 7012SOL    HW121935   6.559   2.435   0.575
 7012SOL    HW221936   6.702   2.356   0.571
 7013SOL     OW21937   2.819   1.701   0.274
 7013SOL    HW121938   2.868   1.780   0.308
 7013SOL    HW221939   2.797   1.640   0.350
 7014SOL     OW21940   6.103   2.833   1.352
 7014SOL    HW121941   6.133   2.746   1.392
 7014SOL    HW221942   6.131   2.908   1.411
 7015SOL     OW21943   5.155   6.010   0.580
 7015SOL    HW121944   5.255   6.005   0.588
 7015SOL    HW221945   5.129   6.104   0.557
 7016SOL     OW21946   2.885   5.042   0.874
 7016SOL    HW121947   2.805   5.097   0.898
 7016SOL    HW221948   2.959   5.103   0.842
 7017SOL     OW21949   5.898   5.095   4.927
 7017SOL    HW121950   5.849   5.107   5.013
 7017SOL    HW221951   5.986   5.143   4.932
 7018SOL     OW21952   5.366   3.253   4.199
 7018SOL    HW121953   5.311   3.228   4.279
 7018SOL    HW221954   5.441   3.313   4.228
 7019SOL     OW21955   4.366   5.558   2.225
 7019SOL    HW121956   4.434   5.608   2.172
 7019SOL    HW221957   4.392   5.559   2.322
 7020SOL     OW21958   0.731   2.956   6.306
 7020SOL    HW121959   0.795   2.970   6.382
 7020SOL    HW221960   0.687   3.042   6.283
 7021SOL     OW21961   1.156   2.141   5.234
 7021SOL    HW121962   1.116   2.066   5.181
 7021SOL    HW221963   1.225   2.188   5.179
 7022SOL     OW21964   3.078   2.248   0.548
 7022SOL    HW121965   2.993   2.198   0.562
 7022SOL    HW221966   3.076   2.332   0.602
 7023SOL     OW21967   0.802   2.096   0.620
 7023SOL    HW121968   0.872   2.109   0.690
 7023SOL    HW221969   0.726   2.042   0.657
 7024SOL     OW21970   3.941   3.048   4.294
 7024SOL    HW121971   3.928   2.949   4.294
 7024SOL    HW221972   3.972   3.078   4.204
 7025SOL     OW21973   3.935   6.588   0.844
 7025SOL    HW121974   3.981   6.500   0.830
 7025SOL    HW221975   3.988   6.661   0.801
 7026SOL     OW21976   3.459   2.504   1.386
 7026SOL    HW121977   3.542   2.479   1.436
 7026SOL    HW221978   3.388   2.436   1.403
 7027SOL     OW21979   2.307   5.444   3.035
 7027SOL    HW121980   2.254   5.400   2.962
 7027SOL    HW221981   2.288   5.398   3.122
 7028SOL     OW21982   2.912   0.292   3.435
 7028SOL    HW121983   2.817   0.313   3.456
 7028SOL    HW221984   2.917   0.246   3.347
 7029SOL     OW21985   3.153   3.734   4.422
 7029SOL    HW121986   3.180   3.769   4.332
 7029SOL    HW221987   3.234   3.720   4.478
 7030SOL     OW21988   6.565   1.137   5.185
 7030SOL    HW121989   6.639   1.101   5.129
 7030SOL    HW221990   6.477   1.114   5.143
 7031SOL     OW21991   4.388   6.597   0.410
 7031SOL    HW121992   4.470   6.544   0.432
 7031SOL    HW221993   4.370   6.663   0.483
 7032SOL     OW21994   4.169   6.056   4.513
 7032SOL    HW121995   4.221   6.047   4.598
 7032SOL    HW221996   4.195   6.142   4.468
 7033SOL     OW21997   1.568   2.098   4.916
 7033SOL    HW121998   1.621   2.013   4.921
 7033SOL    HW221999   1.626   2.175   4.943
 7034SOL     OW22000   6.875   0.633   3.942
 7034SOL    HW122001   6.777   0.625   3.925
 7034SOL    HW222002   6.901   0.573   4.018
 7035SOL     OW22003   1.796   0.631   0.126
 7035SOL    HW122004   1.724   0.567   0.149
 7035SOL    HW222005   1.834   0.672   0.209
 7036SOL     OW22006   6.337   1.120   2.547
 7036SOL    HW122007   6.424   1.079   2.518
 7036SOL    HW222008   6.341   1.219   2.533
 7037SOL     OW22009   1.116   0.772   6.195
 7037SOL    HW122010   1.138   0.684   6.235
 7037SOL    HW222011   1.198   0.811   6.154
 7038SOL     OW22012   1.513   3.752   6.724
 7038SOL    HW122013   1.424   3.796   6.717
 7038SOL    HW222014   1.534   3.706   6.638
 7039SOL     OW22015   0.833   6.221   2.360
 7039SOL    HW122016   0.834   6.130   2.320
 7039SOL    HW222017   0.744   6.238   2.403
 7040SOL     OW22018   4.909   3.318   4.573
 7040SOL    HW122019   4.894   3.221   4.554
 7040SOL    HW222020   4.885   3.337   4.668
 7041SOL     OW22021   1.843   0.016   3.918
 7041SOL    HW122022   1.771   6.992   3.867
 7041SOL    HW222023   1.861   6.993   4.004
 7042SOL     OW22024   4.922   6.233   5.290
 7042SOL    HW122025   4.841   6.254   5.345
 7042SOL    HW222026   4.965   6.150   5.324
 7043SOL     OW22027   2.305   5.251   1.243
 7043SOL    HW122028   2.360   5.184   1.293
 7043SOL    HW222029   2.216   5.261   1.288
 7044SOL     OW22030   5.270   6.373   4.809
 7044SOL    HW122031   5.241   6.403   4.718
 7044SOL    HW222032   5.351   6.315   4.801
 7045SOL     OW22033   6.642   6.348   2.276
 7045SOL    HW122034   6.655   6.442   2.308
 7045SOL    HW222035   6.553   6.340   2.232
 7046SOL     OW22036   2.963   2.209   4.329
 7046SOL    HW122037   3.051   2.162   4.324
 7046SOL    HW222038   2.911   2.176   4.408
 7047SOL     OW22039   1.233   6.047   1.116
 7047SOL    HW122040   1.221   6.126   1.057
 7047SOL    HW222041   1.263   6.077   1.207
 7048SOL     OW22042   6.838   6.229   4.870
 7048SOL    HW122043   6.774   6.237   4.794
 7048SOL    HW222044   6.788   6.219   4.955
 7049SOL     OW22045   3.504   0.840   2.748
 7049SOL    HW122046   3.562   0.854   2.828
 7049SOL    HW222047   3.413   0.811   2.778
 7050SOL     OW22048   4.321   3.921   0.913
 7050SOL    HW122049   4.403   3.917   0.971
 7050SOL    HW222050   4.240   3.913   0.970
 7051SOL     OW22051   0.684   0.821   1.988
 7051SOL    HW122052   0.638   0.791   1.904
 7051SOL    HW222053   0.632   0.896   2.028
 7052SOL     OW22054   5.016   6.970   2.707
 7052SOL    HW122055   4.921   6.991   2.732
 7052SOL    HW222056   5.045   6.887   2.754
 7053SOL     OW22057   2.124   3.476   3.092
 7053SOL    HW122058   2.120   3.570   3.126
 7053SOL    HW222059   2.157   3.476   2.998
 7054SOL     OW22060   6.672   1.031   0.117
 7054SOL    HW122061   6.696   1.082   0.199
 7054SOL    HW222062   6.639   0.940   0.143
 7055SOL     OW22063   2.648   1.118   0.096
 7055SOL    HW122064   2.684   1.038   0.144
 7055SOL    HW222065   2.700   1.199   0.123
 7056SOL     OW22066   0.326   5.537   1.547
 7056SOL    HW122067   0.413   5.529   1.596
 7056SOL    HW222068   0.252   5.506   1.607
 7057SOL     OW22069   2.950   4.802   4.592
 7057SOL    HW122070   2.900   4.745   4.527
 7057SOL    HW222071   2.887   4.841   4.658
 7058SOL     OW22072   5.570   2.934   5.707
 7058SOL    HW122073   5.615   2.850   5.738
 7058SOL    HW222074   5.496   2.958   5.770
 7059SOL     OW22075   1.966   0.192   5.051
 7059SOL    HW122076   1.981   0.240   5.138
 7059SOL    HW222077   1.892   0.126   5.062
 7060SOL     OW22078   3.836   0.831   1.578
 7060SOL    HW122079   3.749   0.870   1.606
 7060SOL    HW222080   3.823   0.736   1.549
 7061SOL     OW22081   0.710   1.703   1.679
 7061SOL    HW122082   0.745   1.776   1.620
 7061SOL    HW222083   0.787   1.651   1.716
 7062SOL     OW22084   3.269   0.828   3.290
 7062SOL    HW122085   3.222   0.859   3.208
 7062SOL    HW222086   3.237   0.882   3.369
 7063SOL     OW22087   0.800   0.739   1.617
 7063SOL    HW122088   0.863   0.661   1.620
 7063SOL    HW222089   0.847   0.820   1.652
 7064SOL     OW22090   4.396   1.552   5.350
 7064SOL    HW122091   4.460   1.628   5.356
 7064SOL    HW222092   4.312   1.582   5.305
 7065SOL     OW22093   3.975   5.233   5.442
 7065SOL    HW122094   3.974   5.319   5.391
 7065SOL    HW222095   3.890   5.183   5.425
 7066SOL     OW22096   3.735   0.138   0.045
 7066SOL    HW122097   3.700   0.203   7.002
 7066SOL    HW222098   3.662   0.075   0.072
 7067SOL     OW22099   1.815   3.540   6.743
 7067SOL    HW122100   1.845   3.628   6.706
 7067SOL    HW222101   1.837   3.534   6.840
 7068SOL     OW22102   5.425   3.122   3.937
 7068SOL    HW122103   5.377   3.188   3.879
 7068SOL    HW222104   5.413   3.147   4.033
 7069SOL     OW22105   5.969   0.409   6.604
 7069SOL    HW122106   6.068   0.396   6.595
 7069SOL    HW222107   5.921   0.343   6.546
 7070SOL     OW22108   0.192   6.932   4.973
 7070SOL    HW122109   0.213   6.900   4.881
 7070SOL    HW222110   0.260   6.895   5.037
 7071SOL     OW22111   5.106   5.912   6.823
 7071SOL    HW122112   5.049   5.830   6.832
 7071SOL    HW222113   5.060   5.980   6.766
 7072SOL     OW22114   0.525   3.446   6.232
 7072SOL    HW122115   0.431   3.413   6.220
 7072SOL    HW222116   0.528   3.512   6.306
 7073SOL     OW22117   4.709   1.490   3.382
 7073SOL    HW122118   4.753   1.547   3.313
 7073SOL    HW222119   4.744   1.396   3.375
 7074SOL     OW22120   5.856   4.807   2.800
 7074SOL    HW122121   5.849   4.766   2.890
 7074SOL    HW222122   5.886   4.902   2.809
 7075SOL     OW22123   3.338   4.897   3.511
 7075SOL    HW122124   3.321   4.882   3.608
 7075SOL    HW222125   3.384   4.817   3.472
 7076SOL     OW22126   5.790   2.343   2.283
 7076SOL    HW122127   5.806   2.404   2.360
 7076SOL    HW222128   5.778   2.250   2.316
 7077SOL     OW22129   3.401   5.468   1.355
 7077SOL    HW122130   3.446   5.476   1.267
 7077SOL    HW222131   3.306   5.441   1.342
 7078SOL     OW22132   5.705   0.611   6.926
 7078SOL    HW122133   5.672   0.705   6.921
 7078SOL    HW222134   5.761   0.601   7.009
 7079SOL     OW22135   1.120   6.233   5.094
 7079SOL    HW122136   1.219   6.226   5.101
 7079SOL    HW222137   1.088   6.311   5.148
 7080SOL     OW22138   4.182   2.090   5.672
 7080SOL    HW122139   4.263   2.146   5.659
 7080SOL    HW222140   4.189   2.007   5.615
 7081SOL     OW22141   1.533   0.157   0.502
 7081SOL    HW122142   1.442   0.128   0.473
 7081SOL    HW222143   1.525   0.227   0.573
 7082SOL     OW22144   6.638   4.384   3.099
 7082SOL    HW122145   6.575   4.397   3.022
 7082SOL    HW222146   6.707   4.456   3.098
 7083SOL     OW22147   6.211   2.803   2.733
 7083SOL    HW122148   6.235   2.737   2.661
 7083SOL    HW222149   6.242   2.768   2.822
 7084SOL     OW22150   0.547   5.934   6.740
 7084SOL    HW122151   0.480   5.875   6.784
 7084SOL    HW222152   0.603   5.880   6.677
 7085SOL     OW22153   0.534   3.554   2.200
 7085SOL    HW122154   0.444   3.596   2.193
 7085SOL    HW222155   0.577   3.552   2.110
 7086SOL     OW22156   5.508   0.984   3.989
 7086SOL    HW122157   5.426   1.027   3.951
 7086SOL    HW222158   5.483   0.925   4.066
 7087SOL     OW22159   5.130   3.655   2.851
 7087SOL    HW122160   5.077   3.609   2.779
 7087SOL    HW222161   5.080   3.736   2.881
 7088SOL     OW22162   6.196   1.778   5.060
 7088SOL    HW122163   6.170   1.762   4.965
 7088SOL    HW222164   6.288   1.818   5.062
 7089SOL     OW22165   2.893   5.871   2.082
 7089SOL    HW122166   2.911   5.866   2.181
 7089SOL    HW222167   2.831   5.797   2.056
 7090SOL     OW22168   4.314   2.938   1.044
 7090SOL    HW122169   4.333   3.010   1.111
 7090SOL    HW222170   4.229   2.892   1.068
 7091SOL     OW22171   6.932   6.002   0.211
 7091SOL    HW122172   6.835   5.994   0.230
 7091SOL    HW222173   6.984   5.954   0.281
 7092SOL     OW22174   4.221   1.427   6.209
 7092SOL    HW122175   4.163   1.473   6.277
 7092SOL    HW222176   4.313   1.464   6.212
 7093SOL     OW22177   2.990   3.110   1.264
 7093SOL    HW122178   2.968   3.199   1.224
 7093SOL    HW222179   2.938   3.097   1.348
 7094SOL     OW22180   2.999   0.016   5.448
 7094SOL    HW122181   3.091   0.036   5.416
 7094SOL    HW222182   2.969   0.086   5.513
 7095SOL     OW22183   2.393   4.714   4.822
 7095SOL    HW122184   2.411   4.644   4.890
 7095SOL    HW222185   2.473   4.723   4.762
 7096SOL     OW22186   0.187   1.017   1.388
 7096SOL    HW122187   0.109   1.033   1.448
 7096SOL    HW222188   0.223   1.105   1.356
 7097SOL     OW22189   4.260   0.882   1.784
 7097SOL    HW122190   4.235   0.944   1.711
 7097SOL    HW222191   4.313   0.931   1.854
 7098SOL     OW22192   1.558   6.810   4.272
 7098SOL    HW122193   1.582   6.899   4.235
 7098SOL    HW222194   1.622   6.741   4.238
 7099SOL     OW22195   2.825   2.340   3.734
 7099SOL    HW122196   2.872   2.423   3.765
 7099SOL    HW222197   2.891   2.266   3.724
 7100SOL     OW22198   6.245   3.687   1.313
 7100SOL    HW122199   6.204   3.719   1.399
 7100SOL    HW222200   6.337   3.653   1.332
 7101SOL     OW22201   2.803   6.310   5.705
 7101SOL    HW122202   2.900   6.297   5.684
 7101SOL    HW222203   2.794   6.371   5.784
 7102SOL     OW22204   5.392   0.896   1.776
 7102SOL    HW122205   5.459   0.865   1.709
 7102SOL    HW222206   5.401   0.995   1.789
 7103SOL     OW22207   4.903   3.798   2.798
 7103SOL    HW122208   4.868   3.776   2.707
 7103SOL    HW222209   4.947   3.888   2.796
 7104SOL     OW22210   5.384   3.416   3.192
 7104SOL    HW122211   5.384   3.422   3.093
 7104SOL    HW222212   5.324   3.342   3.221
 7105SOL     OW22213   3.042   3.944   4.051
 7105SOL    HW122214   3.136   3.929   4.081
 7105SOL    HW222215   2.978   3.901   4.115
 7106SOL     OW22216   3.071   2.700   1.238
 7106SOL    HW122217   3.151   2.716   1.296
 7106SOL    HW222218   3.074   2.607   1.202
 7107SOL     OW22219   3.496   0.897   6.268
 7107SOL    HW122220   3.542   0.978   6.232
 7107SOL    HW222221   3.397   0.906   6.257
 7108SOL     OW22222   5.030   0.717   2.093
 7108SOL    HW122223   4.987   0.627   2.104
 7108SOL    HW222224   5.041   0.737   1.996
 7109SOL     OW22225   2.716   5.653   6.456
 7109SOL    HW122226   2.747   5.563   6.425
 7109SOL    HW222227   2.643   5.641   6.523
 7110SOL     OW22228   3.434   6.543   4.307
 7110SOL    HW122229   3.504   6.603   4.268
 7110SOL    HW222230   3.478   6.473   4.363
 7111SOL     OW22231   6.782   0.366   5.061
 7111SOL    HW122232   6.826   0.288   5.105
 7111SOL    HW222233   6.684   0.362   5.079
 7112SOL     OW22234   1.649   5.025   4.984
 7112SOL    HW122235   1.722   5.093   4.995
 7112SOL    HW222236   1.676   4.940   5.030
 7113SOL     OW22237   3.693   6.264   5.377
 7113SOL    HW122238   3.629   6.187   5.385
 7113SOL    HW222239   3.645   6.349   5.400
 7114SOL     OW22240   5.339   4.372   0.477
 7114SOL    HW122241   5.364   4.294   0.419
 7114SOL    HW222242   5.420   4.408   0.521
 7115SOL     OW22243   5.850   3.667   6.114
 7115SOL    HW122244   5.842   3.592   6.048
 7115SOL    HW222245   5.940   3.662   6.158
 7116SOL     OW22246   6.307   3.951   3.834
 7116SOL    HW122247   6.355   3.950   3.922
 7116SOL    HW222248   6.220   3.901   3.843
 7117SOL     OW22249   5.756   0.290   2.854
 7117SOL    HW122250   5.803   0.202   2.857
 7117SOL    HW222251   5.691   0.296   2.929
 7118SOL     OW22252   4.335   4.431   5.540
 7118SOL    HW122253   4.417   4.469   5.497
 7118SOL    HW222254   4.362   4.379   5.622
 7119SOL     OW22255   3.347   6.798   4.783
 7119SOL    HW122256   3.377   6.894   4.779
 7119SOL    HW222257   3.363   6.762   4.875
 7120SOL     OW22258   4.573   0.395   0.036
 7120SOL    HW122259   4.500   0.394   0.105
 7120SOL    HW222260   4.660   0.420   0.080
 7121SOL     OW22261   1.845   5.948   2.446
 7121SOL    HW122262   1.790   5.866   2.462
 7121SOL    HW222263   1.792   6.029   2.474
 7122SOL     OW22264   3.071   1.778   0.074
 7122SOL    HW122265   2.972   1.771   0.089
 7122SOL    HW222266   3.092   1.864   0.029
 7123SOL     OW22267   5.242   5.372   6.188
 7123SOL    HW122268   5.296   5.288   6.181
 7123SOL    HW222269   5.190   5.385   6.104
 7124SOL     OW22270   1.037   2.225   1.759
 7124SOL    HW122271   1.095   2.164   1.705
 7124SOL    HW222272   0.953   2.245   1.709
 7125SOL     OW22273   0.403   6.545   1.931
 7125SOL    HW122274   0.399   6.641   1.961
 7125SOL    HW222275   0.496   6.511   1.944
 7126SOL     OW22276   3.111   5.201   0.917
 7126SOL    HW122277   3.202   5.241   0.904
 7126SOL    HW222278   3.112   5.141   0.997
 7127SOL     OW22279   2.289   6.631   6.023
 7127SOL    HW122280   2.308   6.642   5.926
 7127SOL    HW222281   2.232   6.706   6.055
 7128SOL     OW22282   4.037   4.118   6.438
 7128SOL    HW122283   3.942   4.146   6.431
 7128SOL    HW222284   4.061   4.059   6.361
 7129SOL     OW22285   0.684   6.923   0.736
 7129SOL    HW122286   0.634   6.996   0.688
 7129SOL    HW222287   0.727   6.961   0.818
 7130SOL     OW22288   3.313   6.570   3.864
 7130SOL    HW122289   3.308   6.471   3.877
 7130SOL    HW222290   3.409   6.597   3.852
 7131SOL     OW22291   3.214   1.223   2.368
 7131SOL    HW122292   3.148   1.257   2.302
 7131SOL    HW222293   3.296   1.281   2.367
 7132SOL     OW22294   5.452   4.709   0.439
 7132SOL    HW122295   5.353   4.696   0.428
 7132SOL    HW222296   5.487   4.762   0.362
 7133SOL     OW22297   5.198   5.727   2.971
 7133SOL    HW122298   5.117   5.677   3.001
 7133SOL    HW222299   5.244   5.675   2.899
 7134SOL     OW22300   4.833   5.189   0.271
 7134SOL    HW122301   4.756   5.238   0.313
 7134SOL    HW222302   4.824   5.191   0.172
 7135SOL     OW22303   1.825   3.114   0.880
 7135SOL    HW122304   1.731   3.113   0.912
 7135SOL    HW222305   1.883   3.162   0.947
 7136SOL     OW22306   2.147   1.676   1.801
 7136SOL    HW122307   2.223   1.666   1.737
 7136SOL    HW222308   2.122   1.772   1.809
 7137SOL     OW22309   2.656   1.941   1.429
 7137SOL    HW122310   2.580   1.952   1.364
 7137SOL    HW222311   2.642   2.000   1.508
 7138SOL     OW22312   1.047   2.915   0.487
 7138SOL    HW122313   1.083   2.983   0.423
 7138SOL    HW222314   1.099   2.830   0.476
 7139SOL     OW22315   6.133   6.449   0.880
 7139SOL    HW122316   6.165   6.522   0.820
 7139SOL    HW222317   6.047   6.411   0.845
 7140SOL     OW22318   6.356   3.610   0.181
 7140SOL    HW122319   6.334   3.676   0.109
 7140SOL    HW222320   6.279   3.547   0.192
 7141SOL     OW22321   3.412   0.438   0.679
 7141SOL    HW122322   3.320   0.478   0.680
 7141SOL    HW222323   3.409   0.350   0.632
 7142SOL     OW22324   3.145   0.176   4.811
 7142SOL    HW122325   3.056   0.221   4.819
 7142SOL    HW222326   3.214   0.229   4.860
 7143SOL     OW22327   2.830   4.277   6.661
 7143SOL    HW122328   2.920   4.311   6.633
 7143SOL    HW222329   2.841   4.189   6.707
 7144SOL     OW22330   6.796   0.738   6.141
 7144SOL    HW122331   6.723   0.791   6.098
 7144SOL    HW222332   6.807   0.651   6.092
 7145SOL     OW22333   5.319   2.294   6.305
 7145SOL    HW122334   5.379   2.226   6.346
 7145SOL    HW222335   5.232   2.296   6.355
 7146SOL     OW22336   1.371   2.260   5.618
 7146SOL    HW122337   1.462   2.299   5.602
 7146SOL    HW222338   1.304   2.306   5.560
 7147SOL     OW22339   6.229   6.815   1.903
 7147SOL    HW122340   6.288   6.894   1.887
 7147SOL    HW222341   6.144   6.845   1.946
 7148SOL     OW22342   6.147   0.072   0.966
 7148SOL    HW122343   6.172   0.103   1.058
 7148SOL    HW222344   6.150   6.997   0.962
 7149SOL     OW22345   5.642   4.580   5.826
 7149SOL    HW122346   5.676   4.502   5.878
 7149SOL    HW222347   5.718   4.626   5.780
 7150SOL     OW22348   3.447   3.240   6.554
 7150SOL    HW122349   3.399   3.214   6.638
 7150SOL    HW222350   3.544   3.253   6.574
 7151SOL     OW22351   3.381   1.278   0.640
 7151SOL    HW122352   3.385   1.257   0.738
 7151SOL    HW222353   3.455   1.232   0.593
 7152SOL     OW22354   6.342   0.961   6.361
 7152SOL    HW122355   6.416   0.918   6.412
 7152SOL    HW222356   6.360   1.059   6.351
 7153SOL     OW22357   3.567   5.523   0.438
 7153SOL    HW122358   3.518   5.538   0.524
 7153SOL    HW222359   3.568   5.608   0.385
 7154SOL     OW22360   3.859   2.157   2.257
 7154SOL    HW122361   3.797   2.168   2.180
 7154SOL    HW222362   3.911   2.241   2.271
 7155SOL     OW22363   1.823   1.183   1.985
 7155SOL    HW122364   1.919   1.179   1.958
 7155SOL    HW222365   1.773   1.108   1.942
 7156SOL     OW22366   6.064   3.233   5.791
 7156SOL    HW122367   6.065   3.251   5.890
 7156SOL    HW222368   6.004   3.299   5.746
 7157SOL     OW22369   6.763   4.154   5.668
 7157SOL    HW122370   6.711   4.085   5.720
 7157SOL    HW222371   6.815   4.211   5.731
 7158SOL     OW22372   4.399   0.093   3.855
 7158SOL    HW122373   4.343   0.019   3.820
 7158SOL    HW222374   4.362   0.181   3.825
 7159SOL     OW22375   0.773   6.136   3.163
 7159SOL    HW122376   0.820   6.153   3.076
 7159SOL    HW222377   0.700   6.203   3.175
 7160SOL     OW22378   6.786   0.295   3.572
 7160SOL    HW122379   6.749   0.375   3.525
 7160SOL    HW222380   6.886   0.297   3.565
 7161SOL     OW22381   3.978   3.092   3.149
 7161SOL    HW122382   4.017   3.161   3.088
 7161SOL    HW222383   3.989   3.122   3.244
 7162SOL     OW22384   0.401   5.913   1.705
 7162SOL    HW122385   0.413   5.938   1.609
 7162SOL    HW222386   0.352   5.826   1.711
 7163SOL     OW22387   7.019   1.372   1.593
 7163SOL    HW122388   0.085   1.396   1.630
 7163SOL    HW222389   6.949   1.428   1.639
 7164SOL     OW22390   2.088   1.290   6.688
 7164SOL    HW122391   2.159   1.304   6.619
 7164SOL    HW222392   2.106   1.348   6.767
 7165SOL     OW22393   5.792   1.584   0.793
 7165SOL    HW122394   5.795   1.683   0.796
 7165SOL    HW222395   5.701   1.554   0.762
 7166SOL     OW22396   6.615   5.604   6.240
 7166SOL    HW122397   6.525   5.578   6.207
 7166SOL    HW222398   6.684   5.574   6.174
 7167SOL     OW22399   5.909   2.546   4.967
 7167SOL    HW122400   5.981   2.492   4.924
 7167SOL    HW222401   5.899   2.518   5.063
 7168SOL     OW22402   2.781   0.866   2.181
 7168SOL    HW122403   2.701   0.925   2.167
 7168SOL    HW222404   2.834   0.862   2.096
 7169SOL     OW22405   2.242   4.142   6.337
 7169SOL    HW122406   2.301   4.076   6.290
 7169SOL    HW222407   2.156   4.152   6.286
 7170SOL     OW22408   3.631   1.421   0.581
 7170SOL    HW122409   3.653   1.324   0.571
 7170SOL    HW222410   3.578   1.452   0.502
 7171SOL     OW22411   0.023   3.804   0.748
 7171SOL    HW122412   0.036   3.721   0.694
 7171SOL    HW222413   7.006   3.780   0.836
 7172SOL     OW22414   1.222   2.516   4.010
 7172SOL    HW122415   1.201   2.513   4.108
 7172SOL    HW222416   1.314   2.554   3.997
 7173SOL     OW22417   4.955   5.451   6.112
 7173SOL    HW122418   4.976   5.453   6.210
 7173SOL    HW222419   4.934   5.357   6.085
 7174SOL     OW22420   6.302   4.374   1.784
 7174SOL    HW122421   6.341   4.463   1.762
 7174SOL    HW222422   6.210   4.386   1.822
 7175SOL     OW22423   6.547   3.531   5.992
 7175SOL    HW122424   6.631   3.580   6.016
 7175SOL    HW222425   6.568   3.458   5.927
 7176SOL     OW22426   0.700   0.182   5.581
 7176SOL    HW122427   0.747   0.258   5.626
 7176SOL    HW222428   0.663   0.212   5.494
 7177SOL     OW22429   1.162   5.782   3.784
 7177SOL    HW122430   1.209   5.841   3.718
 7177SOL    HW222431   1.097   5.724   3.736
 7178SOL     OW22432   2.133   6.857   5.056
 7178SOL    HW122433   2.212   6.807   5.093
 7178SOL    HW222434   2.136   6.952   5.086
 7179SOL     OW22435   3.364   5.224   5.841
 7179SOL    HW122436   3.388   5.185   5.751
 7179SOL    HW222437   3.428   5.191   5.910
 7180SOL     OW22438   1.915   2.907   1.232
 7180SOL    HW122439   1.823   2.872   1.251
 7180SOL    HW222440   1.969   2.834   1.190
 7181SOL     OW22441   2.655   1.499   5.708
 7181SOL    HW122442   2.686   1.567   5.641
 7181SOL    HW222443   2.643   1.543   5.796
 7182SOL     OW22444   1.699   1.889   3.856
 7182SOL    HW122445   1.684   1.987   3.868
 7182SOL    HW222446   1.796   1.869   3.862
 7183SOL     OW22447   0.604   6.962   1.717
 7183SOL    HW122448   0.655   6.926   1.795
 7183SOL    HW222449   0.599   0.037   1.724
 7184SOL     OW22450   6.804   0.304   4.206
 7184SOL    HW122451   6.847   0.246   4.137
 7184SOL    HW222452   6.705   0.289   4.204
 7185SOL     OW22453   4.398   1.185   4.721
 7185SOL    HW122454   4.380   1.087   4.712
 7185SOL    HW222455   4.332   1.236   4.667
 7186SOL     OW22456   0.351   0.755   6.640
 7186SOL    HW122457   0.350   0.738   6.542
 7186SOL    HW222458   0.413   0.689   6.684
 7187SOL     OW22459   3.398   2.862   4.221
 7187SOL    HW122460   3.373   2.825   4.132
 7187SOL    HW222461   3.451   2.946   4.209
 7188SOL     OW22462   4.366   4.126   6.781
 7188SOL    HW122463   4.283   4.120   6.836
 7188SOL    HW222464   4.418   4.207   6.807
 7189SOL     OW22465   6.539   2.636   6.005
 7189SOL    HW122466   6.518   2.634   5.907
 7189SOL    HW222467   6.638   2.638   6.018
 7190SOL     OW22468   5.698   4.920   1.047
 7190SOL    HW122469   5.671   4.949   1.139
 7190SOL    HW222470   5.624   4.868   1.005
 7191SOL     OW22471   6.753   5.018   4.377
 7191SOL    HW122472   6.818   4.992   4.306
 7191SOL    HW222473   6.660   5.015   4.340
 7192SOL     OW22474   2.968   4.683   6.682
 7192SOL    HW122475   2.971   4.657   6.778
 7192SOL    HW222476   2.915   4.615   6.631
 7193SOL     OW22477   2.778   2.012   2.723
 7193SOL    HW122478   2.833   1.937   2.761
 7193SOL    HW222479   2.808   2.099   2.762
 7194SOL     OW22480   3.381   2.475   6.021
 7194SOL    HW122481   3.316   2.551   6.010
 7194SOL    HW222482   3.461   2.506   6.072
 7195SOL     OW22483   0.763   4.867   4.967
 7195SOL    HW122484   0.756   4.939   5.036
 7195SOL    HW222485   0.823   4.795   5.000
 7196SOL     OW22486   3.285   4.076   1.967
 7196SOL    HW122487   3.325   4.113   1.883
 7196SOL    HW222488   3.185   4.077   1.960
 7197SOL     OW22489   3.383   4.531   6.264
 7197SOL    HW122490   3.317   4.580   6.206
 7197SOL    HW222491   3.405   4.444   6.221
 7198SOL     OW22492   0.612   0.410   2.152
 7198SOL    HW122493   0.657   0.362   2.227
 7198SOL    HW222494   0.573   0.343   2.089
 7199SOL     OW22495   6.528   0.946   2.466
 7199SOL    HW122496   6.606   0.945   2.529
 7199SOL    HW222497   6.473   0.863   2.480
 7200SOL     OW22498   1.168   2.625   0.478
 7200SOL    HW122499   1.207   2.562   0.411
 7200SOL    HW222500   1.079   2.589   0.509
 7201SOL     OW22501   5.296   5.540   3.698
 7201SOL    HW122502   5.255   5.493   3.776
 7201SOL    HW222503   5.334   5.473   3.634
 7202SOL     OW22504   5.131   0.671   5.769
 7202SOL    HW122505   5.176   0.690   5.681
 7202SOL    HW222506   5.176   0.723   5.841
 7203SOL     OW22507   0.369   1.229   1.302
 7203SOL    HW122508   0.439   1.278   1.353
 7203SOL    HW222509   0.337   1.286   1.226
 7204SOL     OW22510   5.977   6.950   2.020
 7204SOL    HW122511   5.968   7.011   1.942
 7204SOL    HW222512   5.990   7.004   2.103
 7205SOL     OW22513   2.989   1.814   3.934
 7205SOL    HW122514   3.058   1.762   3.984
 7205SOL    HW222515   2.955   1.888   3.992
 7206SOL     OW22516   2.239   3.526   0.394
 7206SOL    HW122517   2.153   3.507   0.346
 7206SOL    HW222518   2.287   3.600   0.347
 7207SOL     OW22519   1.936   1.223   4.148
 7207SOL    HW122520   1.935   1.302   4.087
 7207SOL    HW222521   1.842   1.193   4.165
 7208SOL     OW22522   2.591   0.377   4.646
 7208SOL    HW122523   2.611   0.475   4.635
 7208SOL    HW222524   2.676   0.325   4.640
 7209SOL     OW22525   3.609   1.238   1.958
 7209SOL    HW122526   3.704   1.206   1.966
 7209SOL    HW222527   3.609   1.337   1.945
 7210SOL     OW22528   2.879   1.962   3.174
 7210SOL    HW122529   2.969   2.004   3.169
 7210SOL    HW222530   2.826   2.004   3.248
 7211SOL     OW22531   4.639   6.108   4.705
 7211SOL    HW122532   4.668   6.172   4.776
 7211SOL    HW222533   4.612   6.159   4.624
 7212SOL     OW22534   6.861   4.451   5.850
 7212SOL    HW122535   6.950   4.469   5.893
 7212SOL    HW222536   6.866   4.473   5.753
 7213SOL     OW22537   3.512   2.045   6.772
 7213SOL    HW122538   3.596   2.062   6.824
 7213SOL    HW222539   3.476   2.132   6.738
 7214SOL     OW22540   6.929   0.645   6.368
 7214SOL    HW122541   6.900   0.691   6.452
 7214SOL    HW222542   6.883   0.686   6.290
 7215SOL     OW22543   6.479   2.411   2.477
 7215SOL    HW122544   6.402   2.362   2.437
 7215SOL    HW222545   6.489   2.500   2.433
 7216SOL     OW22546   3.312   6.413   3.387
 7216SOL    HW122547   3.342   6.388   3.479
 7216SOL    HW222548   3.212   6.412   3.383
 7217SOL     OW22549   1.734   3.108   3.358
 7217SOL    HW122550   1.818   3.055   3.373
 7217SOL    HW222551   1.670   3.091   3.433
 7218SOL     OW22552   6.258   3.711   4.040
 7218SOL    HW122553   6.304   3.669   3.961
 7218SOL    HW222554   6.180   3.655   4.066
 7219SOL     OW22555   3.553   5.632   2.646
 7219SOL    HW122556   3.517   5.718   2.608
 7219SOL    HW222557   3.504   5.555   2.606
 7220SOL     OW22558   6.430   4.899   4.463
 7220SOL    HW122559   6.378   4.829   4.413
 7220SOL    HW222560   6.466   4.860   4.547
 7221SOL     OW22561   3.673   5.936   3.787
 7221SOL    HW122562   3.653   5.838   3.787
 7221SOL    HW222563   3.670   5.970   3.881
 7222SOL     OW22564   6.899   6.010   4.278
 7222SOL    HW122565   6.876   6.090   4.333
 7222SOL    HW222566   6.822   5.946   4.277
 7223SOL     OW22567   6.684   3.788   1.913
 7223SOL    HW122568   6.683   3.843   1.829
 7223SOL    HW222569   6.777   3.785   1.950
 7224SOL     OW22570   3.850   1.817   3.180
 7224SOL    HW122571   3.882   1.911   3.185
 7224SOL    HW222572   3.751   1.816   3.164
 7225SOL     OW22573   1.574   6.285   0.993
 7225SOL    HW122574   1.617   6.223   1.058
 7225SOL    HW222575   1.618   6.275   0.903
 7226SOL     OW22576   6.320   6.545   0.400
 7226SOL    HW122577   6.335   6.621   0.464
 7226SOL    HW222578   6.236   6.497   0.426
 7227SOL     OW22579   2.384   0.694   2.054
 7227SOL    HW122580   2.438   0.777   2.059
 7227SOL    HW222581   2.323   0.688   2.134
 7228SOL     OW22582   0.076   2.935   2.389
 7228SOL    HW122583   7.012   2.957   2.348
 7228SOL    HW222584   0.080   2.970   2.482
 7229SOL     OW22585   6.824   0.976   5.639
 7229SOL    HW122586   6.882   0.940   5.565
 7229SOL    HW222587   6.858   0.943   5.727
 7230SOL     OW22588   2.169   5.076   4.215
 7230SOL    HW122589   2.185   5.114   4.306
 7230SOL    HW222590   2.071   5.078   4.195
 7231SOL     OW22591   4.288   1.795   6.671
 7231SOL    HW122592   4.250   1.766   6.583
 7231SOL    HW222593   4.387   1.781   6.672
 7232SOL     OW22594   5.298   6.926   3.276
 7232SOL    HW122595   5.294   7.002   3.211
 7232SOL    HW222596   5.280   6.840   3.228
 7233SOL     OW22597   6.908   0.960   4.737
 7233SOL    HW122598   6.964   1.042   4.742
 7233SOL    HW222599   6.882   0.942   4.642
 7234SOL     OW22600   5.042   4.076   2.964
 7234SOL    HW122601   5.103   4.038   2.895
 7234SOL    HW222602   5.091   4.088   3.050
 7235SOL     OW22603   6.926   5.719   1.805
 7235SOL    HW122604   6.876   5.639   1.836
 7235SOL    HW222605   6.878   5.760   1.727
 7236SOL     OW22606   1.723   3.130   2.562
 7236SOL    HW122607   1.724   3.203   2.630
 7236SOL    HW222608   1.746   3.043   2.607
 7237SOL     OW22609   5.176   0.946   0.336
 7237SOL    HW122610   5.121   1.030   0.338
 7237SOL    HW222611   5.260   0.960   0.389
 7238SOL     OW22612   3.765   3.433   0.632
 7238SOL    HW122613   3.728   3.350   0.676
 7238SOL    HW222614   3.748   3.512   0.691
 7239SOL     OW22615   6.917   2.572   2.538
 7239SOL    HW122616   6.854   2.621   2.479
 7239SOL    HW222617   6.929   2.478   2.504
 7240SOL     OW22618   6.783   1.916   6.534
 7240SOL    HW122619   6.687   1.942   6.547
 7240SOL    HW222620   6.832   1.928   6.620
 7241SOL     OW22621   2.199   1.283   1.467
 7241SOL    HW122622   2.124   1.322   1.413
 7241SOL    HW222623   2.281   1.340   1.457
 7242SOL     OW22624   6.353   5.127   4.589
 7242SOL    HW122625   6.373   5.049   4.529
 7242SOL    HW222626   6.427   5.137   4.656
 7243SOL     OW22627   6.246   4.269   6.550
 7243SOL    HW122628   6.200   4.327   6.617
 7243SOL    HW222629   6.264   4.322   6.467
 7244SOL     OW22630   0.719   6.014   6.965
 7244SOL    HW122631   0.687   5.967   6.883
 7244SOL    HW222632   0.655   6.087   6.989
 7245SOL     OW22633   0.817   3.637   6.970
 7245SOL    HW122634   0.865   3.722   6.994
 7245SOL    HW222635   0.793   3.588   0.030
 7246SOL     OW22636   3.594   6.634   3.858
 7246SOL    HW122637   3.634   6.547   3.829
 7246SOL    HW222638   3.612   6.704   3.788
 7247SOL     OW22639   3.146   3.503   5.418
 7247SOL    HW122640   3.050   3.528   5.429
 7247SOL    HW222641   3.170   3.505   5.321
 7248SOL     OW22642   3.219   1.111   4.794
 7248SOL    HW122643   3.151   1.172   4.755
 7248SOL    HW222644   3.311   1.137   4.763
 7249SOL     OW22645   4.197   5.349   2.166
 7249SOL    HW122646   4.109   5.357   2.213
 7249SOL    HW222647   4.241   5.438   2.162
 7250SOL     OW22648   5.186   5.467   5.841
 7250SOL    HW122649   5.090   5.491   5.827
 7250SOL    HW222650   5.243   5.549   5.831
 7251SOL     OW22651   6.899   5.557   5.184
 7251SOL    HW122652   6.950   5.627   5.235
 7251SOL    HW222653   6.873   5.593   5.095
 7252SOL     OW22654   3.424   4.125   2.212
 7252SOL    HW122655   3.391   4.127   2.118
 7252SOL    HW222656   3.454   4.217   2.238
 7253SOL     OW22657   1.523   6.090   5.329
 7253SOL    HW122658   1.461   6.022   5.290
 7253SOL    HW222659   1.482   6.132   5.410
 7254SOL     OW22660   5.136   3.755   4.042
 7254SOL    HW122661   5.211   3.709   4.091
 7254SOL    HW222662   5.107   3.698   3.965
 7255SOL     OW22663   5.588   3.457   6.223
 7255SOL    HW122664   5.490   3.453   6.205
 7255SOL    HW222665   5.624   3.544   6.189
 7256SOL     OW22666   3.468   6.679   5.697
 7256SOL    HW122667   3.443   6.730   5.615
 7256SOL    HW222668   3.417   6.593   5.700
 7257SOL     OW22669   0.749   1.484   4.606
 7257SOL    HW122670   0.670   1.422   4.615
 7257SOL    HW222671   0.720   1.578   4.625
 7258SOL     OW22672   6.593   1.912   3.496
 7258SOL    HW122673   6.494   1.920   3.509
 7258SOL    HW222674   6.633   2.004   3.493
 7259SOL     OW22675   0.911   4.419   3.177
 7259SOL    HW122676   0.933   4.342   3.118
 7259SOL    HW222677   0.992   4.446   3.229
 7260SOL     OW22678   5.548   3.365   1.276
 7260SOL    HW122679   5.453   3.374   1.246
 7260SOL    HW222680   5.560   3.275   1.319
 7261SOL     OW22681   6.968   4.128   6.580
 7261SOL    HW122682   0.023   4.146   6.638
 7261SOL    HW222683   6.887   4.168   6.622
 7262SOL     OW22684   6.850   1.749   5.616
 7262SOL    HW122685   6.859   1.765   5.714
 7262SOL    HW222686   6.755   1.729   5.594
 7263SOL     OW22687   0.410   5.479   0.234
 7263SOL    HW122688   0.446   5.477   0.141
 7263SOL    HW222689   0.328   5.421   0.240
 7264SOL     OW22690   6.038   1.533   0.961
 7264SOL    HW122691   6.115   1.490   0.912
 7264SOL    HW222692   5.967   1.558   0.895
 7265SOL     OW22693   4.152   5.472   5.574
 7265SOL    HW122694   4.082   5.415   5.531
 7265SOL    HW222695   4.220   5.413   5.618
 7266SOL     OW22696   0.381   0.659   4.107
 7266SOL    HW122697   0.330   0.628   4.027
 7266SOL    HW222698   0.467   0.701   4.078
 7267SOL     OW22699   5.921   5.658   4.371
 7267SOL    HW122700   5.932   5.607   4.456
 7267SOL    HW222701   5.998   5.638   4.310
 7268SOL     OW22702   6.072   6.302   4.275
 7268SOL    HW122703   5.992   6.249   4.244
 7268SOL    HW222704   6.098   6.272   4.366
 7269SOL     OW22705   2.325   4.848   5.199
 7269SOL    HW122706   2.319   4.787   5.278
 7269SOL    HW222707   2.420   4.865   5.176
 7270SOL     OW22708   0.721   1.612   4.271
 7270SOL    HW122709   0.806   1.560   4.262
 7270SOL    HW222710   0.656   1.581   4.202
 7271SOL     OW22711   0.599   4.200   3.775
 7271SOL    HW122712   0.584   4.204   3.874
 7271SOL    HW222713   0.549   4.274   3.731
 7272SOL     OW22714   5.888   5.779   2.998
 7272SOL    HW122715   5.966   5.834   2.970
 7272SOL    HW222716   5.910   5.682   2.988
 7273SOL     OW22717   0.239   2.667   5.711
 7273SOL    HW122718   0.278   2.575   5.709
 7273SOL    HW222719   0.203   2.690   5.621
 7274SOL     OW22720   0.660   4.456   6.873
 7274SOL    HW122721   0.679   4.548   6.839
 7274SOL    HW222722   0.563   4.435   6.860
 7275SOL     OW22723   6.486   0.336   2.895
 7275SOL    HW122724   6.468   0.327   2.992
 7275SOL    HW222725   6.582   0.313   2.876
 7276SOL     OW22726   4.650   6.972   3.872
 7276SOL    HW122727   4.586   0.022   3.851
 7276SOL    HW222728   4.601   6.885   3.872
 7277SOL     OW22729   4.460   0.515   5.577
 7277SOL    HW122730   4.459   0.563   5.664
 7277SOL    HW222731   4.371   0.473   5.561
 7278SOL     OW22732   2.903   3.758   2.844
 7278SOL    HW122733   2.925   3.765   2.747
 7278SOL    HW222734   2.804   3.742   2.855
 7279SOL     OW22735   3.560   6.037   6.512
 7279SOL    HW122736   3.637   6.027   6.449
 7279SOL    HW222737   3.476   6.007   6.466
 7280SOL     OW22738   4.367   0.856   5.587
 7280SOL    HW122739   4.387   0.787   5.656
 7280SOL    HW222740   4.281   0.902   5.609
 7281SOL     OW22741   4.118   1.309   6.750
 7281SOL    HW122742   4.149   1.270   6.663
 7281SOL    HW222743   4.183   1.378   6.781
 7282SOL     OW22744   6.207   5.473   1.820
 7282SOL    HW122745   6.246   5.454   1.910
 7282SOL    HW222746   6.112   5.499   1.830
 7283SOL     OW22747   2.281   0.675   3.581
 7283SOL    HW122748   2.334   0.592   3.601
 7283SOL    HW222749   2.296   0.742   3.654
 7284SOL     OW22750   6.908   3.931   5.527
 7284SOL    HW122751   6.830   3.994   5.530
 7284SOL    HW222752   6.932   3.904   5.621
 7285SOL     OW22753   5.258   5.701   2.188
 7285SOL    HW122754   5.304   5.636   2.248
 7285SOL    HW222755   5.289   5.687   2.094
 7286SOL     OW22756   2.522   2.960   1.082
 7286SOL    HW122757   2.458   2.910   1.024
 7286SOL    HW222758   2.594   3.000   1.025
 7287SOL     OW22759   6.379   0.599   6.292
 7287SOL    HW122760   6.290   0.555   6.306
 7287SOL    HW222761   6.420   0.620   6.381
 7288SOL     OW22762   3.872   0.381   6.662
 7288SOL    HW122763   3.882   0.442   6.584
 7288SOL    HW222764   3.852   0.435   6.744
 7289SOL     OW22765   5.326   2.164   2.810
 7289SOL    HW122766   5.266   2.232   2.853
 7289SOL    HW222767   5.420   2.178   2.841
 7290SOL     OW22768   2.174   4.841   4.746
 7290SOL    HW122769   2.189   4.914   4.679
 7290SOL    HW222770   2.260   4.793   4.764
 7291SOL     OW22771   2.786   5.970   1.411
 7291SOL    HW122772   2.808   5.945   1.506
 7291SOL    HW222773   2.688   5.962   1.396
 7292SOL     OW22774   2.591   6.901   3.884
 7292SOL    HW122775   2.672   6.844   3.899
 7292SOL    HW222776   2.560   6.890   3.790
 7293SOL     OW22777   2.100   2.128   5.312
 7293SOL    HW122778   2.179   2.127   5.374
 7293SOL    HW222779   2.054   2.039   5.315
 7294SOL     OW22780   2.852   4.922   0.503
 7294SOL    HW122781   2.837   4.862   0.582
 7294SOL    HW222782   2.942   4.904   0.464
 7295SOL     OW22783   0.095   1.178   0.976
 7295SOL    HW122784   0.091   1.090   1.023
 7295SOL    HW222785   0.172   1.232   1.011
 7296SOL     OW22786   3.250   4.831   0.843
 7296SOL    HW122787   3.309   4.754   0.868
 7296SOL    HW222788   3.286   4.915   0.885
 7297SOL     OW22789   4.747   6.596   1.266
 7297SOL    HW122790   4.810   6.674   1.272
 7297SOL    HW222791   4.660   6.620   1.310
 7298SOL     OW22792   6.128   3.999   4.434
 7298SOL    HW122793   6.077   4.070   4.385
 7298SOL    HW222794   6.064   3.934   4.474
 7299SOL     OW22795   6.093   3.481   0.207
 7299SOL    HW122796   6.059   3.407   0.148
 7299SOL    HW222797   6.070   3.461   0.302
 7300SOL     OW22798   5.305   5.386   0.802
 7300SOL    HW122799   5.333   5.477   0.774
 7300SOL    HW222800   5.326   5.320   0.729
 7301SOL     OW22801   6.677   6.780   6.064
 7301SOL    HW122802   6.690   6.682   6.076
 7301SOL    HW222803   6.763   6.822   6.035
 7302SOL     OW22804   6.345   0.683   0.036
 7302SOL    HW122805   6.318   0.779   0.026
 7302SOL    HW222806   6.273   0.624   0.001
 7303SOL     OW22807   3.221   0.538   0.136
 7303SOL    HW122808   3.167   0.566   0.056
 7303SOL    HW222809   3.291   0.473   0.107
 7304SOL     OW22810   4.346   3.781   5.912
 7304SOL    HW122811   4.281   3.756   5.840
 7304SOL    HW222812   4.427   3.823   5.871
 7305SOL     OW22813   4.519   1.238   0.250
 7305SOL    HW122814   4.490   1.278   0.164
 7305SOL    HW222815   4.619   1.233   0.253
 7306SOL     OW22816   4.588   5.329   1.767
 7306SOL    HW122817   4.642   5.408   1.738
 7306SOL    HW222818   4.520   5.308   1.696
 7307SOL     OW22819   3.740   6.740   1.890
 7307SOL    HW122820   3.781   6.811   1.949
 7307SOL    HW222821   3.803   6.663   1.883
 7308SOL     OW22822   6.582   3.150   4.603
 7308SOL    HW122823   6.550   3.220   4.667
 7308SOL    HW222824   6.505   3.096   4.569
 7309SOL     OW22825   5.065   6.523   0.793
 7309SOL    HW122826   5.133   6.454   0.819
 7309SOL    HW222827   5.039   6.575   0.874
 7310SOL     OW22828   2.779   5.466   1.267
 7310SOL    HW122829   2.826   5.508   1.189
 7310SOL    HW222830   2.845   5.419   1.325
 7311SOL     OW22831   2.821   2.206   1.815
 7311SOL    HW122832   2.879   2.236   1.890
 7311SOL    HW222833   2.754   2.278   1.793
 7312SOL     OW22834   6.973   1.965   5.497
 7312SOL    HW122835   6.962   2.048   5.551
 7312SOL    HW222836   6.900   1.901   5.521
 7313SOL     OW22837   4.127   2.578   6.658
 7313SOL    HW122838   4.158   2.484   6.639
 7313SOL    HW222839   4.034   2.576   6.695
 7314SOL     OW22840   0.080   3.433   4.900
 7314SOL    HW122841   0.165   3.381   4.907
 7314SOL    HW222842   0.056   3.470   4.989
 7315SOL     OW22843   6.896   0.169   3.961
 7315SOL    HW122844   6.966   0.233   3.929
 7315SOL    HW222845   6.843   0.136   3.883
 7316SOL     OW22846   3.806   3.546   5.707
 7316SOL    HW122847   3.833   3.592   5.622
 7316SOL    HW222848   3.801   3.448   5.692
 7317SOL     OW22849   3.165   0.969   3.048
 7317SOL    HW122850   3.214   0.910   2.984
 7317SOL    HW222851   3.074   0.988   3.012
 7318SOL     OW22852   1.178   2.327   1.439
 7318SOL    HW122853   1.266   2.319   1.485
 7318SOL    HW222854   1.134   2.237   1.436
 7319SOL     OW22855   6.306   4.488   6.752
 7319SOL    HW122856   6.240   4.563   6.752
 7319SOL    HW222857   6.263   4.405   6.787
 7320SOL     OW22858   0.534   3.289   2.240
 7320SOL    HW122859   0.547   3.386   2.220
 7320SOL    HW222860   0.537   3.275   2.339
 7321SOL     OW22861   2.302   1.500   4.570
 7321SOL    HW122862   2.332   1.551   4.490
 7321SOL    HW222863   2.274   1.565   4.642
 7322SOL     OW22864   0.904   3.860   3.183
 7322SOL    HW122865   0.819   3.826   3.223
 7322SOL    HW222866   0.949   3.921   3.248
 7323SOL     OW22867   2.007   2.651   3.275
 7323SOL    HW122868   1.964   2.564   3.249
 7323SOL    HW222869   2.011   2.657   3.374
 7324SOL     OW22870   6.280   0.930   3.625
 7324SOL    HW122871   6.192   0.968   3.593
 7324SOL    HW222872   6.347   0.937   3.551
 7325SOL     OW22873   3.359   6.673   6.209
 7325SOL    HW122874   3.292   6.664   6.283
 7325SOL    HW222875   3.411   6.588   6.200
 7326SOL     OW22876   2.756   0.091   5.760
 7326SOL    HW122877   2.751   0.003   5.712
 7326SOL    HW222878   2.690   0.092   5.834
 7327SOL     OW22879   1.718   2.764   6.368
 7327SOL    HW122880   1.732   2.675   6.323
 7327SOL    HW222881   1.705   2.750   6.466
 7328SOL     OW22882   2.587   6.821   6.587
 7328SOL    HW122883   2.648   6.745   6.610
 7328SOL    HW222884   2.514   6.826   6.655
 7329SOL     OW22885   4.222   3.298   1.033
 7329SOL    HW122886   4.218   3.277   1.131
 7329SOL    HW222887   4.130   3.289   0.994
 7330SOL     OW22888   3.085   1.299   6.527
 7330SOL    HW122889   3.075   1.202   6.546
 7330SOL    HW222890   3.160   1.336   6.583
 7331SOL     OW22891   4.922   0.597   2.443
 7331SOL    HW122892   4.876   0.677   2.481
 7331SOL    HW222893   5.021   0.612   2.445
 7332SOL     OW22894   3.113   5.835   0.358
 7332SOL    HW122895   3.157   5.861   0.272
 7332SOL    HW222896   3.062   5.750   0.344
 7333SOL     OW22897   1.013   4.829   2.812
 7333SOL    HW122898   0.934   4.787   2.767
 7333SOL    HW222899   1.013   4.803   2.909
 7334SOL     OW22900   4.005   6.099   5.215
 7334SOL    HW122901   3.936   6.137   5.152
 7334SOL    HW222902   3.977   6.007   5.242
 7335SOL     OW22903   1.880   1.987   2.563
 7335SOL    HW122904   1.923   1.928   2.495
 7335SOL    HW222905   1.848   1.932   2.640
 7336SOL     OW22906   1.876   5.779   4.402
 7336SOL    HW122907   1.811   5.747   4.471
 7336SOL    HW222908   1.969   5.759   4.432
 7337SOL     OW22909   0.289   3.050   2.179
 7337SOL    HW122910   0.305   3.080   2.272
 7337SOL    HW222911   0.191   3.036   2.165
 7338SOL     OW22912   6.878   2.180   1.336
 7338SOL    HW122913   6.976   2.168   1.348
 7338SOL    HW222914   6.838   2.213   1.422
 7339SOL     OW22915   6.694   5.822   4.318
 7339SOL    HW122916   6.773   5.770   4.351
 7339SOL    HW222917   6.611   5.767   4.330
 7340SOL     OW22918   2.237   0.174   6.941
 7340SOL    HW122919   2.266   0.213   0.004
 7340SOL    HW222920   2.156   0.223   6.908
 7341SOL     OW22921   6.188   2.194   6.877
 7341SOL    HW122922   6.199   2.235   6.968
 7341SOL    HW222923   6.253   2.236   6.814
 7342SOL     OW22924   0.006   6.841   2.677
 7342SOL    HW122925   0.012   6.773   2.603
 7342SOL    HW222926   6.947   6.827   2.729
 7343SOL     OW22927   5.511   3.563   0.744
 7343SOL    HW122928   5.555   3.478   0.713
 7343SOL    HW222929   5.581   3.627   0.775
 7344SOL     OW22930   1.480   5.751   6.620
 7344SOL    HW122931   1.504   5.725   6.526
 7344SOL    HW222932   1.392   5.798   6.621
 7345SOL     OW22933   3.931   4.561   5.764
 7345SOL    HW122934   3.998   4.595   5.698
 7345SOL    HW222935   3.851   4.621   5.764
 7346SOL     OW22936   4.231   5.398   2.686
 7346SOL    HW122937   4.158   5.464   2.669
 7346SOL    HW222938   4.202   5.334   2.757
 7347SOL     OW22939   6.038   2.165   6.616
 7347SOL    HW122940   6.072   2.187   6.708
 7347SOL    HW222941   5.957   2.221   6.596
 7348SOL     OW22942   1.332   4.315   2.261
 7348SOL    HW122943   1.331   4.316   2.361
 7348SOL    HW222944   1.239   4.313   2.227
 7349SOL     OW22945   3.574   1.495   1.085
 7349SOL    HW122946   3.637   1.439   1.138
 7349SOL    HW222947   3.481   1.463   1.098
 7350SOL     OW22948   2.870   0.511   5.655
 7350SOL    HW122949   2.844   0.591   5.709
 7350SOL    HW222950   2.862   0.532   5.558
 7351SOL     OW22951   4.117   5.158   4.256
 7351SOL    HW122952   4.152   5.252   4.258
 7351SOL    HW222953   4.018   5.159   4.272
 7352SOL     OW22954   0.205   2.645   3.337
 7352SOL    HW122955   0.181   2.550   3.316
 7352SOL    HW222956   0.282   2.674   3.280
 7353SOL     OW22957   6.493   0.150   6.947
 7353SOL    HW122958   6.415   0.203   6.978
 7353SOL    HW222959   6.462   0.076   6.887
 7354SOL     OW22960   1.372   1.441   2.653
 7354SOL    HW122961   1.317   1.400   2.726
 7354SOL    HW222962   1.422   1.370   2.604
 7355SOL     OW22963   0.554   2.065   6.325
 7355SOL    HW122964   0.613   2.141   6.298
 7355SOL    HW222965   0.561   2.051   6.424
 7356SOL     OW22966   4.367   3.540   6.070
 7356SOL    HW122967   4.332   3.473   6.005
 7356SOL    HW222968   4.378   3.628   6.025
 7357SOL     OW22969   5.334   5.945   2.266
 7357SOL    HW122970   5.280   5.862   2.258
 7357SOL    HW222971   5.428   5.921   2.290
 7358SOL     OW22972   5.806   1.823   2.908
 7358SOL    HW122973   5.889   1.771   2.886
 7358SOL    HW222974   5.726   1.775   2.872
 7359SOL     OW22975   4.776   0.260   6.703
 7359SOL    HW122976   4.806   0.316   6.780
 7359SOL    HW222977   4.678   0.273   6.688
 7360SOL     OW22978   2.856   3.198   5.204
 7360SOL    HW122979   2.937   3.177   5.259
 7360SOL    HW222980   2.883   3.213   5.109
 7361SOL     OW22981   5.060   0.326   2.440
 7361SOL    HW122982   5.052   0.420   2.409
 7361SOL    HW222983   5.000   0.311   2.519
 7362SOL     OW22984   3.564   5.581   6.814
 7362SOL    HW122985   3.523   5.669   6.835
 7362SOL    HW222986   3.613   5.586   6.728
 7363SOL     OW22987   3.814   0.209   1.369
 7363SOL    HW122988   3.729   0.183   1.414
 7363SOL    HW222989   3.796   0.230   1.273
 7364SOL     OW22990   5.361   6.876   1.561
 7364SOL    HW122991   5.349   6.957   1.503
 7364SOL    HW222992   5.413   6.807   1.510
 7365SOL     OW22993   5.828   4.819   2.164
 7365SOL    HW122994   5.773   4.877   2.224
 7365SOL    HW222995   5.923   4.850   2.167
 7366SOL     OW22996   2.178   1.325   4.215
 7366SOL    HW122997   2.092   1.297   4.173
 7366SOL    HW222998   2.159   1.391   4.288
 7367SOL     OW22999   4.549   1.017   6.404
 7367SOL    HW123000   4.474   1.082   6.388
 7367SOL    HW223001   4.603   1.007   6.321
 7368SOL     OW23002   4.095   3.560   2.964
 7368SOL    HW123003   4.023   3.629   2.975
 7368SOL    HW223004   4.176   3.587   3.015
 7369SOL     OW23005   5.625   2.126   1.070
 7369SOL    HW123006   5.654   2.220   1.085
 7369SOL    HW223007   5.642   2.072   1.152
 7370SOL     OW23008   2.548   1.990   4.521
 7370SOL    HW123009   2.454   1.958   4.527
 7370SOL    HW223010   2.558   2.048   4.439
 7371SOL     OW23011   3.980   0.395   3.714
 7371SOL    HW123012   4.036   0.474   3.736
 7371SOL    HW223013   3.909   0.421   3.649
 7372SOL     OW23014   4.674   0.044   4.644
 7372SOL    HW123015   4.630   0.037   4.554
 7372SOL    HW223016   4.682   0.140   4.670
 7373SOL     OW23017   5.430   2.892   4.418
 7373SOL    HW123018   5.504   2.950   4.452
 7373SOL    HW223019   5.446   2.797   4.447
 7374SOL     OW23020   0.435   1.940   5.642
 7374SOL    HW123021   0.408   1.996   5.721
 7374SOL    HW223022   0.359   1.937   5.576
 7375SOL     OW23023   2.076   3.259   2.151
 7375SOL    HW123024   2.078   3.174   2.098
 7375SOL    HW223025   2.113   3.334   2.096
 7376SOL     OW23026   0.303   4.202   0.472
 7376SOL    HW123027   0.249   4.167   0.549
 7376SOL    HW223028   0.243   4.255   0.412
 7377SOL     OW23029   3.254   5.874   0.121
 7377SOL    HW123030   3.273   5.794   0.065
 7377SOL    HW223031   3.319   5.947   0.098
 7378SOL     OW23032   1.452   6.084   3.981
 7378SOL    HW123033   1.512   6.121   4.051
 7378SOL    HW223034   1.357   6.084   4.014
 7379SOL     OW23035   4.341   0.816   0.626
 7379SOL    HW123036   4.314   0.838   0.533
 7379SOL    HW223037   4.424   0.867   0.649
 7380SOL     OW23038   5.590   3.814   2.654
 7380SOL    HW123039   5.513   3.833   2.594
 7380SOL    HW223040   5.675   3.819   2.603
 7381SOL     OW23041   4.005   0.858   0.758
 7381SOL    HW123042   4.081   0.890   0.815
 7381SOL    HW223043   3.921   0.858   0.813
 7382SOL     OW23044   6.644   0.989   6.310
 7382SOL    HW123045   6.636   0.923   6.385
 7382SOL    HW223046   6.634   0.941   6.223
 7383SOL     OW23047   2.491   6.516   1.200
 7383SOL    HW123048   2.558   6.492   1.129
 7383SOL    HW223049   2.486   6.616   1.208
 7384SOL     OW23050   0.313   6.941   1.123
 7384SOL    HW123051   0.238   6.986   1.171
 7384SOL    HW223052   0.278   6.871   1.062
 7385SOL     OW23053   5.307   4.630   2.726
 7385SOL    HW123054   5.314   4.694   2.802
 7385SOL    HW223055   5.295   4.537   2.760
 7386SOL     OW23056   6.250   3.796   0.412
 7386SOL    HW123057   6.303   3.752   0.340
 7386SOL    HW223058   6.311   3.819   0.489
 7387SOL     OW23059   6.586   5.489   5.758
 7387SOL    HW123060   6.599   5.390   5.750
 7387SOL    HW223061   6.490   5.507   5.783
 7388SOL     OW23062   1.965   6.152   2.651
 7388SOL    HW123063   2.024   6.143   2.732
 7388SOL    HW223064   2.018   6.134   2.569
 7389SOL     OW23065   6.007   3.405   0.469
 7389SOL    HW123066   5.943   3.328   0.477
 7389SOL    HW223067   6.101   3.370   0.470
 7390SOL     OW23068   2.306   1.771   2.543
 7390SOL    HW123069   2.376   1.838   2.518
 7390SOL    HW223070   2.341   1.679   2.526
 7391SOL     OW23071   3.716   3.099   3.113
 7391SOL    HW123072   3.814   3.079   3.113
 7391SOL    HW223073   3.665   3.018   3.084
 7392SOL     OW23074   3.232   5.933   6.756
 7392SOL    HW123075   3.162   5.879   6.802
 7392SOL    HW223076   3.260   6.009   6.816
 7393SOL     OW23077   5.233   5.360   4.261
 7393SOL    HW123078   5.219   5.282   4.201
 7393SOL    HW223079   5.310   5.414   4.227
 7394SOL     OW23080   2.020   2.034   5.958
 7394SOL    HW123081   2.084   2.093   6.008
 7394SOL    HW223082   1.964   2.090   5.897
 7395SOL     OW23083   2.954   5.455   0.718
 7395SOL    HW123084   2.874   5.428   0.772
 7395SOL    HW223085   2.951   5.554   0.703
 7396SOL     OW23086   2.505   5.228   2.177
 7396SOL    HW123087   2.408   5.249   2.172
 7396SOL    HW223088   2.521   5.136   2.140
 7397SOL     OW23089   5.736   4.013   3.933
 7397SOL    HW123090   5.773   4.092   3.981
 7397SOL    HW223091   5.747   4.025   3.835
 7398SOL     OW23092   2.345   4.322   2.500
 7398SOL    HW123093   2.302   4.238   2.533
 7398SOL    HW223094   2.420   4.299   2.439
 7399SOL     OW23095   5.384   2.291   4.602
 7399SOL    HW123096   5.390   2.372   4.661
 7399SOL    HW223097   5.349   2.318   4.512
 7400SOL     OW23098   5.414   2.926   5.465
 7400SOL    HW123099   5.459   2.941   5.553
 7400SOL    HW223100   5.318   2.901   5.481
 7401SOL     OW23101   1.135   3.180   3.836
 7401SOL    HW123102   1.142   3.089   3.796
 7401SOL    HW223103   1.076   3.178   3.916
 7402SOL     OW23104   3.349   6.249   5.367
 7402SOL    HW123105   3.258   6.210   5.351
 7402SOL    HW223106   3.406   6.181   5.413
 7403SOL     OW23107   1.561   3.452   4.907
 7403SOL    HW123108   1.611   3.437   4.992
 7403SOL    HW223109   1.598   3.531   4.860
 7404SOL     OW23110   3.138   3.892   0.847
 7404SOL    HW123111   3.067   3.905   0.917
 7404SOL    HW223112   3.107   3.931   0.761
 7405SOL     OW23113   3.282   6.296   4.888
 7405SOL    HW123114   3.351   6.296   4.961
 7405SOL    HW223115   3.220   6.373   4.902
 7406SOL     OW23116   1.107   1.180   4.950
 7406SOL    HW123117   1.047   1.190   4.871
 7406SOL    HW223118   1.058   1.130   5.022
 7407SOL     OW23119   1.130   5.758   5.456
 7407SOL    HW123120   1.145   5.672   5.506
 7407SOL    HW223121   1.088   5.738   5.368
 7408SOL     OW23122   3.926   4.161   5.452
 7408SOL    HW123123   3.981   4.207   5.522
 7408SOL    HW223124   3.831   4.193   5.458
 7409SOL     OW23125   6.549   4.022   0.762
 7409SOL    HW123126   6.624   4.081   0.791
 7409SOL    HW223127   6.581   3.927   0.757
 7410SOL     OW23128   7.001   0.268   1.254
 7410SOL    HW123129   0.035   0.309   1.184
 7410SOL    HW223130   6.948   0.340   1.299
 7411SOL     OW23131   1.317   2.575   4.919
 7411SOL    HW123132   1.304   2.555   4.822
 7411SOL    HW223133   1.404   2.537   4.949
 7412SOL     OW23134   4.474   6.547   6.936
 7412SOL    HW123135   4.397   6.542   6.873
 7412SOL    HW223136   4.536   6.470   6.920
 7413SOL     OW23137   4.055   6.720   3.239
 7413SOL    HW123138   4.091   6.807   3.273
 7413SOL    HW223139   4.048   6.655   3.315
 7414SOL     OW23140   2.669   1.902   3.982
 7414SOL    HW123141   2.594   1.892   3.917
 7414SOL    HW223142   2.661   1.833   4.054
 7415SOL     OW23143   3.913   6.540   6.367
 7415SOL    HW123144   3.839   6.579   6.422
 7415SOL    HW223145   3.971   6.614   6.332
 7416SOL     OW23146   1.133   1.230   1.835
 7416SOL    HW123147   1.179   1.312   1.872
 7416SOL    HW223148   1.097   1.176   1.910
 7417SOL     OW23149   0.740   1.540   3.340
 7417SOL    HW123150   0.699   1.492   3.418
 7417SOL    HW223151   0.711   1.496   3.255
 7418SOL     OW23152   1.977   4.144   6.210
 7418SOL    HW123153   1.945   4.177   6.299
 7418SOL    HW223154   1.915   4.073   6.177
 7419SOL     OW23155   6.753   3.813   4.290
 7419SOL    HW123156   6.717   3.722   4.266
 7419SOL    HW223157   6.837   3.802   4.344
 7420SOL     OW23158   6.411   0.223   1.217
 7420SOL    HW123159   6.492   0.165   1.216
 7420SOL    HW223160   6.425   0.301   1.156
 7421SOL     OW23161   4.822   4.123   2.166
 7421SOL    HW123162   4.842   4.217   2.195
 7421SOL    HW223163   4.808   4.121   2.068
 7422SOL     OW23164   5.791   2.726   2.445
 7422SOL    HW123165   5.802   2.749   2.542
 7422SOL    HW223166   5.698   2.748   2.416
 7423SOL     OW23167   5.573   2.002   5.883
 7423SOL    HW123168   5.671   1.996   5.865
 7423SOL    HW223169   5.526   2.034   5.801
 7424SOL     OW23170   0.975   1.581   3.656
 7424SOL    HW123171   0.948   1.485   3.654
 7424SOL    HW223172   0.894   1.639   3.656
 7425SOL     OW23173   6.117   0.574   6.966
 7425SOL    HW123174   6.065   0.654   6.999
 7425SOL    HW223175   6.054   0.507   6.927
 7426SOL     OW23176   3.738   2.944   5.817
 7426SOL    HW123177   3.810   2.879   5.842
 7426SOL    HW223178   3.656   2.893   5.791
 7427SOL     OW23179   3.299   1.258   3.764
 7427SOL    HW123180   3.213   1.289   3.724
 7427SOL    HW223181   3.354   1.212   3.693
 7428SOL     OW23182   4.463   5.883   5.552
 7428SOL    HW123183   4.383   5.942   5.540
 7428SOL    HW223184   4.435   5.800   5.601
 7429SOL     OW23185   1.429   6.688   2.538
 7429SOL    HW123186   1.434   6.696   2.438
 7429SOL    HW223187   1.367   6.758   2.573
 7430SOL     OW23188   6.817   5.178   2.293
 7430SOL    HW123189   6.835   5.244   2.366
 7430SOL    HW223190   6.739   5.121   2.319
 7431SOL     OW23191   1.833   1.494   4.169
 7431SOL    HW123192   1.786   1.566   4.118
 7431SOL    HW223193   1.824   1.510   4.267
 7432SOL     OW23194   1.833   0.115   3.128
 7432SOL    HW123195   1.834   0.194   3.189
 7432SOL    HW223196   1.926   0.088   3.107
 7433SOL     OW23197   2.741   6.996   7.021
 7433SOL    HW123198   2.676   0.040   6.989
 7433SOL    HW223199   2.776   7.022   0.087
 7434SOL     OW23200   3.798   6.348   5.627
 7434SOL    HW123201   3.870   6.417   5.625
 7434SOL    HW223202   3.780   6.316   5.534
 7435SOL     OW23203   4.488   4.945   3.258
 7435SOL    HW123204   4.453   4.975   3.347
 7435SOL    HW223205   4.416   4.953   3.189
 7436SOL     OW23206   5.292   2.947   6.231
 7436SOL    HW123207   5.356   2.871   6.234
 7436SOL    HW223208   5.317   3.010   6.158
 7437SOL     OW23209   3.856   6.255   0.797
 7437SOL    HW123210   3.939   6.200   0.794
 7437SOL    HW223211   3.780   6.204   0.756
 7438SOL     OW23212   2.383   0.629   0.328
 7438SOL    HW123213   2.406   0.724   0.309
 7438SOL    HW223214   2.307   0.600   0.270
 7439SOL     OW23215   1.089   4.691   6.040
 7439SOL    HW123216   1.040   4.687   5.953
 7439SOL    HW223217   1.076   4.605   6.090
 7440SOL     OW23218   5.398   3.367   4.574
 7440SOL    HW123219   5.437   3.275   4.565
 7440SOL    HW223220   5.315   3.363   4.629
 7441SOL     OW23221   5.749   5.921   1.376
 7441SOL    HW123222   5.721   5.970   1.293
 7441SOL    HW223223   5.848   5.930   1.387
 7442SOL     OW23224   5.169   1.326   5.344
 7442SOL    HW123225   5.085   1.376   5.362
 7442SOL    HW223226   5.187   1.326   5.245
 7443SOL     OW23227   0.098   0.282   2.032
 7443SOL    HW123228   0.030   0.319   2.095
 7443SOL    HW223229   0.134   0.356   1.974
 7444SOL     OW23230   1.398   6.331   6.687
 7444SOL    HW123231   1.412   6.296   6.595
 7444SOL    HW223232   1.319   6.393   6.688
 7445SOL     OW23233   4.102   6.162   1.068
 7445SOL    HW123234   4.021   6.219   1.085
 7445SOL    HW223235   4.108   6.141   0.971
 7446SOL     OW23236   5.431   3.791   0.079
 7446SOL    HW123237   5.372   3.868   0.104
 7446SOL    HW223238   5.506   3.824   0.023
 7447SOL     OW23239   0.835   4.940   1.231
 7447SOL    HW123240   0.831   4.891   1.317
 7447SOL    HW223241   0.909   5.008   1.235
 7448SOL     OW23242   4.700   5.087   6.572
 7448SOL    HW123243   4.716   5.161   6.507
 7448SOL    HW223244   4.617   5.105   6.624
 7449SOL     OW23245   0.667   4.414   6.527
 7449SOL    HW123246   0.682   4.331   6.581
 7449SOL    HW223247   0.745   4.428   6.466
 7450SOL     OW23248   5.403   1.984   5.009
 7450SOL    HW123249   5.338   1.990   5.085
 7450SOL    HW223250   5.377   1.908   4.950
 7451SOL     OW23251   5.359   5.102   3.213
 7451SOL    HW123252   5.437   5.154   3.249
 7451SOL    HW223253   5.274   5.151   3.232
 7452SOL     OW23254   6.289   5.442   5.338
 7452SOL    HW123255   6.202   5.450   5.386
 7452SOL    HW223256   6.316   5.346   5.333
 7453SOL     OW23257   3.813   6.026   6.664
 7453SOL    HW123258   3.822   6.121   6.693
 7453SOL    HW223259   3.718   6.007   6.639
 7454SOL     OW23260   3.803   2.503   0.483
 7454SOL    HW123261   3.895   2.464   0.477
 7454SOL    HW223262   3.792   2.549   0.571
 7455SOL     OW23263   6.872   2.985   3.568
 7455SOL    HW123264   6.886   3.038   3.485
 7455SOL    HW223265   6.852   2.890   3.544
 7456SOL     OW23266   3.162   1.934   5.705
 7456SOL    HW123267   3.222   1.854   5.713
 7456SOL    HW223268   3.096   1.920   5.632
 7457SOL     OW23269   2.663   0.410   2.890
 7457SOL    HW123270   2.604   0.436   2.813
 7457SOL    HW223271   2.738   0.353   2.858
 7458SOL     OW23272   1.386   5.285   5.374
 7458SOL    HW123273   1.389   5.186   5.358
 7458SOL    HW223274   1.395   5.303   5.472
 7459SOL     OW23275   5.672   0.451   2.615
 7459SOL    HW123276   5.728   0.395   2.676
 7459SOL    HW223277   5.696   0.432   2.520
 7460SOL     OW23278   1.693   6.633   1.024
 7460SOL    HW123279   1.688   6.678   0.935
 7460SOL    HW223280   1.744   6.548   1.016
 7461SOL     OW23281   1.365   5.195   6.271
 7461SOL    HW123282   1.398   5.241   6.353
 7461SOL    HW223283   1.401   5.102   6.267
 7462SOL     OW23284   1.262   4.909   0.594
 7462SOL    HW123285   1.168   4.877   0.600
 7462SOL    HW223286   1.264   5.009   0.603
 7463SOL     OW23287   3.364   4.645   0.991
 7463SOL    HW123288   3.452   4.664   1.034
 7463SOL    HW223289   3.340   4.549   1.004
 7464SOL     OW23290   6.418   6.143   5.616
 7464SOL    HW123291   6.516   6.126   5.623
 7464SOL    HW223292   6.369   6.056   5.611
 7465SOL     OW23293   1.414   4.830   0.381
 7465SOL    HW123294   1.370   4.873   0.302
 7465SOL    HW223295   1.363   4.853   0.464
 7466SOL     OW23296   0.280   6.599   5.051
 7466SOL    HW123297   0.183   6.600   5.075
 7466SOL    HW223298   0.288   6.590   4.951
 7467SOL     OW23299   0.224   2.637   6.177
 7467SOL    HW123300   0.133   2.678   6.180
 7467SOL    HW223301   0.280   2.685   6.109
 7468SOL     OW23302   5.830   3.474   5.918
 7468SOL    HW123303   5.886   3.415   5.976
 7468SOL    HW223304   5.867   3.473   5.825
 7469SOL     OW23305   6.305   2.240   1.089
 7469SOL    HW123306   6.293   2.293   1.173
 7469SOL    HW223307   6.279   2.295   1.010
 7470SOL     OW23308   5.935   2.924   4.050
 7470SOL    HW123309   5.992   2.984   4.106
 7470SOL    HW223310   5.910   2.843   4.104
 7471SOL     OW23311   4.737   6.018   5.630
 7471SOL    HW123312   4.657   5.964   5.602
 7471SOL    HW223313   4.730   6.110   5.593
 7472SOL     OW23314   5.917   6.236   5.419
 7472SOL    HW123315   5.976   6.249   5.498
 7472SOL    HW223316   5.972   6.216   5.338
 7473SOL     OW23317   4.489   5.982   3.892
 7473SOL    HW123318   4.513   5.901   3.946
 7473SOL    HW223319   4.444   5.953   3.808
 7474SOL     OW23320   6.690   1.846   5.312
 7474SOL    HW123321   6.647   1.932   5.337
 7474SOL    HW223322   6.659   1.773   5.373
 7475SOL     OW23323   4.849   3.028   0.454
 7475SOL    HW123324   4.822   3.004   0.547
 7475SOL    HW223325   4.778   2.997   0.390
 7476SOL     OW23326   1.454   0.849   2.760
 7476SOL    HW123327   1.536   0.905   2.772
 7476SOL    HW223328   1.480   0.753   2.753
 7477SOL     OW23329   0.513   4.488   4.715
 7477SOL    HW123330   0.569   4.408   4.739
 7477SOL    HW223331   0.420   4.458   4.695
 7478SOL     OW23332   0.625   1.180   5.484
 7478SOL    HW123333   0.589   1.130   5.405
 7478SOL    HW223334   0.680   1.257   5.452
 7479SOL     OW23335   5.974   3.001   0.100
 7479SOL    HW123336   5.886   2.986   0.144
 7479SOL    HW223337   6.008   2.914   0.063
 7480SOL     OW23338   3.574   4.879   2.910
 7480SOL    HW123339   3.517   4.921   2.840
 7480SOL    HW223340   3.527   4.884   2.998
 7481SOL     OW23341   0.066   3.912   6.197
 7481SOL    HW123342   0.024   3.840   6.142
 7481SOL    HW223343   0.160   3.927   6.165
 7482SOL     OW23344   4.128   1.745   2.790
 7482SOL    HW123345   4.148   1.725   2.694
 7482SOL    HW223346   4.167   1.833   2.814
 7483SOL     OW23347   5.001   2.374   5.815
 7483SOL    HW123348   4.903   2.380   5.794
 7483SOL    HW223349   5.046   2.314   5.749
 7484SOL     OW23350   3.190   6.899   4.041
 7484SOL    HW123351   3.168   6.823   4.102
 7484SOL    HW223352   3.261   6.956   4.082
 7485SOL     OW23353   3.003   6.912   5.160
 7485SOL    HW123354   2.950   6.996   5.156
 7485SOL    HW223355   2.950   6.841   5.208
 7486SOL     OW23356   2.688   6.572   1.479
 7486SOL    HW123357   2.766   6.633   1.464
 7486SOL    HW223358   2.649   6.545   1.391
 7487SOL     OW23359   4.461   6.806   4.250
 7487SOL    HW123360   4.487   6.712   4.229
 7487SOL    HW223361   4.395   6.838   4.182
 7488SOL     OW23362   1.134   5.181   3.673
 7488SOL    HW123363   1.129   5.104   3.736
 7488SOL    HW223364   1.219   5.176   3.620
 7489SOL     OW23365   6.062   3.249   6.446
 7489SOL    HW123366   6.124   3.322   6.474
 7489SOL    HW223367   5.969   3.269   6.478
 7490SOL     OW23368   1.442   2.016   2.057
 7490SOL    HW123369   1.540   2.033   2.052
 7490SOL    HW223370   1.393   2.103   2.066
 7491SOL     OW23371   4.015   3.203   0.141
 7491SOL    HW123372   4.071   3.277   0.103
 7491SOL    HW223373   3.956   3.166   0.070
 7492SOL     OW23374   1.661   0.494   4.287
 7492SOL    HW123375   1.641   0.503   4.385
 7492SOL    HW223376   1.702   0.404   4.270
 7493SOL     OW23377   6.890   4.249   5.036
 7493SOL    HW123378   6.877   4.216   5.130
 7493SOL    HW223379   6.835   4.193   4.974
 7494SOL     OW23380   5.975   0.510   2.386
 7494SOL    HW123381   5.996   0.541   2.293
 7494SOL    HW223382   6.015   0.420   2.401
 7495SOL     OW23383   1.402   3.577   5.500
 7495SOL    HW123384   1.314   3.543   5.532
 7495SOL    HW223385   1.453   3.614   5.578
 7496SOL     OW23386   5.827   4.391   2.375
 7496SOL    HW123387   5.830   4.444   2.290
 7496SOL    HW223388   5.839   4.453   2.453
 7497SOL     OW23389   0.187   6.444   0.205
 7497SOL    HW123390   0.138   6.376   0.151
 7497SOL    HW223391   0.178   6.423   0.302
 7498SOL     OW23392   3.165   6.842   2.883
 7498SOL    HW123393   3.068   6.853   2.864
 7498SOL    HW223394   3.178   6.831   2.982
 7499SOL     OW23395   3.843   2.098   3.673
 7499SOL    HW123396   3.867   2.184   3.718
 7499SOL    HW223397   3.903   2.025   3.705
 7500SOL     OW23398   3.838   6.749   3.080
 7500SOL    HW123399   3.892   6.724   3.161
 7500SOL    HW223400   3.753   6.792   3.109
 7501SOL     OW23401   6.123   2.323   4.976
 7501SOL    HW123402   6.189   2.313   5.051
 7501SOL    HW223403   6.168   2.305   4.889
 7502SOL     OW23404   4.231   0.718   4.688
 7502SOL    HW123405   4.289   0.715   4.606
 7502SOL    HW223406   4.213   0.813   4.713
 7503SOL     OW23407   2.060   6.347   1.520
 7503SOL    HW123408   2.089   6.301   1.436
 7503SOL    HW223409   1.989   6.292   1.565
 7504SOL     OW23410   6.364   6.865   3.887
 7504SOL    HW123411   6.309   6.851   3.805
 7504SOL    HW223412   6.304   6.892   3.963
 7505SOL     OW23413   1.003   6.444   5.227
 7505SOL    HW123414   0.994   6.542   5.207
 7505SOL    HW223415   0.933   6.417   5.292
 7506SOL     OW23416   2.799   1.832   2.950
 7506SOL    HW123417   2.800   1.879   3.038
 7506SOL    HW223418   2.793   1.733   2.966
 7507SOL     OW23419   6.523   4.142   5.084
 7507SOL    HW123420   6.577   4.064   5.116
 7507SOL    HW223421   6.457   4.168   5.155
 7508SOL     OW23422   2.124   5.962   6.856
 7508SOL    HW123423   2.169   5.974   6.768
 7508SOL    HW223424   2.110   6.051   6.900
 7509SOL     OW23425   5.948   4.300   0.684
 7509SOL    HW123426   6.032   4.275   0.635
 7509SOL    HW223427   5.872   4.244   0.651
 7510SOL     OW23428   3.817   3.517   4.082
 7510SOL    HW123429   3.911   3.534   4.051
 7510SOL    HW223430   3.795   3.420   4.071
 7511SOL     OW23431   3.883   6.314   3.596
 7511SOL    HW123432   3.974   6.292   3.562
 7511SOL    HW223433   3.815   6.296   3.525
 7512SOL     OW23434   3.600   0.323   6.380
 7512SOL    HW123435   3.573   0.386   6.453
 7512SOL    HW223436   3.700   0.322   6.372
 7513SOL     OW23437   1.005   2.069   2.350
 7513SOL    HW123438   0.992   1.997   2.418
 7513SOL    HW223439   1.037   2.028   2.264
 7514SOL     OW23440   1.307   4.255   1.951
 7514SOL    HW123441   1.363   4.334   1.975
 7514SOL    HW223442   1.365   4.173   1.948
 7515SOL     OW23443   0.037   4.850   4.750
 7515SOL    HW123444   0.022   4.887   4.658
 7515SOL    HW223445   6.973   4.845   4.798
 7516SOL     OW23446   1.633   6.330   4.887
 7516SOL    HW123447   1.552   6.297   4.838
 7516SOL    HW223448   1.661   6.418   4.850
 7517SOL     OW23449   0.633   1.142   6.572
 7517SOL    HW123450   0.680   1.192   6.645
 7517SOL    HW223451   0.577   1.069   6.611
 7518SOL     OW23452   4.804   2.559   3.333
 7518SOL    HW123453   4.879   2.547   3.267
 7518SOL    HW223454   4.770   2.652   3.328
 7519SOL     OW23455   3.890   6.250   4.441
 7519SOL    HW123456   3.890   6.182   4.368
 7519SOL    HW223457   3.975   6.301   4.440
 7520SOL     OW23458   1.541   2.340   0.713
 7520SOL    HW123459   1.630   2.324   0.755
 7520SOL    HW223460   1.492   2.254   0.704
 7521SOL     OW23461   3.907   1.528   5.316
 7521SOL    HW123462   3.889   1.572   5.404
 7521SOL    HW223463   3.821   1.513   5.268
 7522SOL     OW23464   2.215   0.089   3.344
 7522SOL    HW123465   2.261   0.173   3.373
 7522SOL    HW223466   2.161   0.053   3.420
 7523SOL     OW23467   5.322   0.842   6.859
 7523SOL    HW123468   5.276   0.894   6.930
 7523SOL    HW223469   5.418   0.870   6.854
 7524SOL     OW23470   0.162   3.239   4.600
 7524SOL    HW123471   0.064   3.260   4.604
 7524SOL    HW223472   0.182   3.163   4.661
 7525SOL     OW23473   4.763   5.871   6.628
 7525SOL    HW123474   4.697   5.889   6.701
 7525SOL    HW223475   4.745   5.780   6.590
 7526SOL     OW23476   2.490   3.516   1.605
 7526SOL    HW123477   2.454   3.492   1.695
 7526SOL    HW223478   2.533   3.606   1.608
 7527SOL     OW23479   4.207   4.907   3.900
 7527SOL    HW123480   4.129   4.910   3.836
 7527SOL    HW223481   4.276   4.845   3.864
 7528SOL     OW23482   6.368   3.317   6.899
 7528SOL    HW123483   6.292   3.258   6.926
 7528SOL    HW223484   6.334   3.410   6.882
 7529SOL     OW23485   6.388   2.933   4.513
 7529SOL    HW123486   6.323   2.907   4.441
 7529SOL    HW223487   6.458   2.862   4.521
 7530SOL     OW23488   0.032   2.068   1.630
 7530SOL    HW123489   6.988   2.016   1.681
 7530SOL    HW223490   0.014   2.166   1.640
 7531SOL     OW23491   4.323   1.963   3.431
 7531SOL    HW123492   4.328   2.059   3.457
 7531SOL    HW223493   4.243   1.948   3.373
 7532SOL     OW23494   4.670   5.568   6.461
 7532SOL    HW123495   4.635   5.585   6.369
 7532SOL    HW223496   4.598   5.586   6.528
 7533SOL     OW23497   4.628   4.041   1.457
 7533SOL    HW123498   4.714   4.056   1.410
 7533SOL    HW223499   4.614   4.113   1.525
 7534SOL     OW23500   3.981   0.356   4.553
 7534SOL    HW123501   3.956   0.268   4.594
 7534SOL    HW223502   3.952   0.357   4.457
 7535SOL     OW23503   0.429   5.659   3.605
 7535SOL    HW123504   0.524   5.645   3.634
 7535SOL    HW223505   0.383   5.570   3.597
 7536SOL     OW23506   5.004   6.058   4.830
 7536SOL    HW123507   4.976   6.154   4.831
 7536SOL    HW223508   4.922   6.000   4.822
 7537SOL     OW23509   3.046   6.572   3.613
 7537SOL    HW123510   3.005   6.601   3.526
 7537SOL    HW223511   3.109   6.644   3.645
 7538SOL     OW23512   0.863   4.097   0.707
 7538SOL    HW123513   0.770   4.068   0.731
 7538SOL    HW223514   0.859   4.162   0.631
 7539SOL     OW23515   0.563   6.694   3.821
 7539SOL    HW123516   0.535   6.598   3.817
 7539SOL    HW223517   0.504   6.749   3.762
 7540SOL     OW23518   6.532   5.423   2.934
 7540SOL    HW123519   6.526   5.477   3.018
 7540SOL    HW223520   6.448   5.435   2.881
 7541SOL     OW23521   1.749   4.210   6.959
 7541SOL    HW123522   1.702   4.128   6.926
 7541SOL    HW223523   1.698   4.250   0.011
 7542SOL     OW23524   5.863   5.936   5.300
 7542SOL    HW123525   5.876   5.980   5.211
 7542SOL    HW223526   5.804   5.856   5.290
 7543SOL     OW23527   2.447   1.095   6.673
 7543SOL    HW123528   2.495   1.107   6.586
 7543SOL    HW223529   2.509   1.120   6.748
 7544SOL     OW23530   6.647   2.766   4.356
 7544SOL    HW123531   6.654   2.666   4.363
 7544SOL    HW223532   6.711   2.809   4.419
 7545SOL     OW23533   1.027   5.000   6.592
 7545SOL    HW123534   1.033   4.976   6.689
 7545SOL    HW223535   1.028   4.916   6.537
 7546SOL     OW23536   2.905   2.966   1.750
 7546SOL    HW123537   2.956   3.038   1.796
 7546SOL    HW223538   2.955   2.880   1.756
 7547SOL     OW23539   4.872   0.308   1.863
 7547SOL    HW123540   4.814   0.286   1.784
 7547SOL    HW223541   4.865   0.234   1.930
 7548SOL     OW23542   4.049   2.136   6.564
 7548SOL    HW123543   4.005   2.177   6.484
 7548SOL    HW223544   3.997   2.055   6.592
 7549SOL     OW23545   5.107   2.288   4.381
 7549SOL    HW123546   5.020   2.319   4.341
 7549SOL    HW223547   5.183   2.327   4.329
 7550SOL     OW23548   2.439   4.697   4.507
 7550SOL    HW123549   2.367   4.647   4.554
 7550SOL    HW223550   2.399   4.768   4.449
 7551SOL     OW23551   5.921   2.294   5.862
 7551SOL    HW123552   6.020   2.313   5.864
 7551SOL    HW223553   5.873   2.365   5.914
 7552SOL     OW23554   2.602   6.025   5.232
 7552SOL    HW123555   2.691   6.013   5.188
 7552SOL    HW223556   2.532   6.042   5.163
 7553SOL     OW23557   5.701   6.367   6.009
 7553SOL    HW123558   5.767   6.440   5.991
 7553SOL    HW223559   5.728   6.285   5.959
 7554SOL     OW23560   5.012   0.802   1.343
 7554SOL    HW123561   5.099   0.806   1.295
 7554SOL    HW223562   4.957   0.727   1.306
 7555SOL     OW23563   3.324   5.126   5.274
 7555SOL    HW123564   3.370   5.070   5.205
 7555SOL    HW223565   3.345   5.091   5.365
 7556SOL     OW23566   0.212   6.765   0.957
 7556SOL    HW123567   0.126   6.758   0.906
 7556SOL    HW223568   0.265   6.681   0.945
 7557SOL     OW23569   4.832   0.059   0.365
 7557SOL    HW123570   4.838   6.984   0.362
 7557SOL    HW223571   4.839   0.090   0.459
 7558SOL     OW23572   1.693   1.848   4.302
 7558SOL    HW123573   1.641   1.933   4.296
 7558SOL    HW223574   1.764   1.857   4.372
 7559SOL     OW23575   3.313   1.683   4.604
 7559SOL    HW123576   3.356   1.648   4.687
 7559SOL    HW223577   3.356   1.769   4.576
 7560SOL     OW23578   0.641   0.958   5.675
 7560SOL    HW123579   0.644   1.048   5.632
 7560SOL    HW223580   0.724   0.907   5.651
 7561SOL     OW23581   5.612   1.879   5.159
 7561SOL    HW123582   5.542   1.935   5.114
 7561SOL    HW223583   5.680   1.851   5.092
 7562SOL     OW23584   1.277   4.933   3.833
 7562SOL    HW123585   1.291   4.834   3.838
 7562SOL    HW223586   1.179   4.952   3.825
 7563SOL     OW23587   3.204   5.148   2.603
 7563SOL    HW123588   3.185   5.190   2.692
 7563SOL    HW223589   3.127   5.163   2.542
 7564SOL     OW23590   4.153   1.877   5.169
 7564SOL    HW123591   4.150   1.937   5.249
 7564SOL    HW223592   4.150   1.782   5.199
 7565SOL     OW23593   6.010   4.111   6.134
 7565SOL    HW123594   5.954   4.047   6.186
 7565SOL    HW223595   6.021   4.078   6.040
 7566SOL     OW23596   4.661   4.342   1.341
 7566SOL    HW123597   4.616   4.310   1.424
 7566SOL    HW223598   4.750   4.381   1.365
 7567SOL     OW23599   1.623   0.907   4.660
 7567SOL    HW123600   1.528   0.928   4.639
 7567SOL    HW223601   1.627   0.841   4.735
 7568SOL     OW23602   5.878   5.497   1.909
 7568SOL    HW123603   5.842   5.556   1.837
 7568SOL    HW223604   5.842   5.404   1.896
 7569SOL     OW23605   4.482   3.750   0.098
 7569SOL    HW123606   4.414   3.757   0.171
 7569SOL    HW223607   4.457   3.811   0.023
 7570SOL     OW23608   0.132   2.630   2.922
 7570SOL    HW123609   0.039   2.620   2.888
 7570SOL    HW223610   0.137   2.710   2.982
 7571SOL     OW23611   4.603   2.277   3.191
 7571SOL    HW123612   4.622   2.344   3.120
 7571SOL    HW223613   4.518   2.229   3.170
 7572SOL     OW23614   4.213   6.706   2.555
 7572SOL    HW123615   4.196   6.704   2.457
 7572SOL    HW223616   4.139   6.756   2.601
 7573SOL     OW23617   5.171   6.486   5.341
 7573SOL    HW123618   5.185   6.394   5.304
 7573SOL    HW223619   5.130   6.478   5.432
 7574SOL     OW23620   0.538   1.546   3.622
 7574SOL    HW123621   0.541   1.509   3.715
 7574SOL    HW223622   0.471   1.495   3.568
 7575SOL     OW23623   6.860   6.912   2.016
 7575SOL    HW123624   6.896   6.937   2.106
 7575SOL    HW223625   6.934   6.918   1.948
 7576SOL     OW23626   5.619   3.293   0.724
 7576SOL    HW123627   5.674   3.210   0.717
 7576SOL    HW223628   5.565   3.291   0.808
 7577SOL     OW23629   1.388   6.864   0.854
 7577SOL    HW123630   1.444   6.835   0.932
 7577SOL    HW223631   1.315   6.797   0.839
 7578SOL     OW23632   0.015   5.879   3.267
 7578SOL    HW123633   0.096   5.932   3.242
 7578SOL    HW223634   0.035   5.826   3.350
 7579SOL     OW23635   0.321   1.213   0.379
 7579SOL    HW123636   0.264   1.277   0.432
 7579SOL    HW223637   0.410   1.203   0.425
 7580SOL     OW23638   2.155   4.625   3.262
 7580SOL    HW123639   2.251   4.606   3.279
 7580SOL    HW223640   2.108   4.641   3.349
 7581SOL     OW23641   6.785   1.345   2.641
 7581SOL    HW123642   6.773   1.437   2.604
 7581SOL    HW223643   6.720   1.331   2.716
 7582SOL     OW23644   3.209   1.496   5.476
 7582SOL    HW123645   3.157   1.519   5.558
 7582SOL    HW223646   3.146   1.478   5.400
 7583SOL     OW23647   4.919   3.236   2.434
 7583SOL    HW123648   4.863   3.170   2.385
 7583SOL    HW223649   4.995   3.266   2.376
 7584SOL     OW23650   0.105   0.984   3.303
 7584SOL    HW123651   0.020   0.944   3.337
 7584SOL    HW223652   0.115   0.964   3.206
 7585SOL     OW23653   1.216   1.165   6.990
 7585SOL    HW123654   1.251   1.072   6.988
 7585SOL    HW223655   1.279   1.223   0.018
 7586SOL     OW23656   1.166   1.671   2.618
 7586SOL    HW123657   1.156   1.665   2.718
 7586SOL    HW223658   1.225   1.597   2.587
 7587SOL     OW23659   3.504   0.609   0.998
 7587SOL    HW123660   3.547   0.529   0.956
 7587SOL    HW223661   3.418   0.582   1.042
 7588SOL     OW23662   1.729   2.529   4.292
 7588SOL    HW123663   1.728   2.552   4.195
 7588SOL    HW223664   1.645   2.561   4.335
 7589SOL     OW23665   0.565   0.923   3.064
 7589SOL    HW123666   0.633   0.948   2.995
 7589SOL    HW223667   0.520   1.006   3.097
 7590SOL     OW23668   0.260   1.424   7.005
 7590SOL    HW123669   0.296   1.449   6.915
 7590SOL    HW223670   0.162   1.444   7.008
 7591SOL     OW23671   4.231   3.211   5.286
 7591SOL    HW123672   4.184   3.285   5.333
 7591SOL    HW223673   4.204   3.210   5.190
 7592SOL     OW23674   0.005   6.479   5.114
 7592SOL    HW123675   7.010   6.397   5.060
 7592SOL    HW223676   6.997   6.464   5.208
 7593SOL     OW23677   1.040   1.154   5.963
 7593SOL    HW123678   1.133   1.174   5.993
 7593SOL    HW223679   0.975   1.182   6.033
 7594SOL     OW23680   0.249   4.734   0.004
 7594SOL    HW123681   0.296   4.648   0.023
 7594SOL    HW223682   0.167   4.716   6.973
 7595SOL     OW23683   0.316   3.039   6.257
 7595SOL    HW123684   0.245   3.017   6.190
 7595SOL    HW223685   0.298   2.989   6.342
 7596SOL     OW23686   3.170   0.849   5.377
 7596SOL    HW123687   3.179   0.828   5.280
 7596SOL    HW223688   3.077   0.828   5.408
 7597SOL     OW23689   1.690   4.908   2.105
 7597SOL    HW123690   1.616   4.936   2.045
 7597SOL    HW223691   1.738   4.830   2.065
 7598SOL     OW23692   6.559   1.210   3.215
 7598SOL    HW123693   6.508   1.276   3.270
 7598SOL    HW223694   6.653   1.242   3.203
 7599SOL     OW23695   3.738   3.592   0.860
 7599SOL    HW123696   3.718   3.513   0.918
 7599SOL    HW223697   3.826   3.631   0.886
 7600SOL     OW23698   1.842   6.868   4.756
 7600SOL    HW123699   1.788   6.820   4.825
 7600SOL    HW223700   1.926   6.817   4.738
 7601SOL     OW23701   3.333   6.193   2.596
 7601SOL    HW123702   3.353   6.128   2.669
 7601SOL    HW223703   3.339   6.286   2.632
 7602SOL     OW23704   6.895   1.366   0.239
 7602SOL    HW123705   6.960   1.379   0.314
 7602SOL    HW223706   6.888   1.268   0.219
 7603SOL     OW23707   3.495   0.262   5.612
 7603SOL    HW123708   3.455   0.330   5.550
 7603SOL    HW223709   3.423   0.203   5.649
 7604SOL     OW23710   0.771   2.423   4.623
 7604SOL    HW123711   0.761   2.456   4.529
 7604SOL    HW223712   0.715   2.479   4.684
 7605SOL     OW23713   2.083   6.798   0.523
 7605SOL    HW123714   2.175   6.839   0.526
 7605SOL    HW223715   2.026   6.848   0.459
 7606SOL     OW23716   6.575   1.580   3.458
 7606SOL    HW123717   6.574   1.629   3.371
 7606SOL    HW223718   6.583   1.646   3.534
 7607SOL     OW23719   2.687   6.081   5.823
 7607SOL    HW123720   2.739   6.147   5.769
 7607SOL    HW223721   2.677   6.115   5.917
 7608SOL     OW23722   5.907   2.601   6.261
 7608SOL    HW123723   5.954   2.538   6.322
 7608SOL    HW223724   5.970   2.674   6.233
 7609SOL     OW23725   0.712   1.942   4.698
 7609SOL    HW123726   0.709   1.880   4.619
 7609SOL    HW223727   0.713   2.037   4.666
 7610SOL     OW23728   3.842   5.116   5.157
 7610SOL    HW123729   3.887   5.057   5.091
 7610SOL    HW223730   3.818   5.063   5.238
 7611SOL     OW23731   4.845   3.483   0.872
 7611SOL    HW123732   4.832   3.526   0.783
 7611SOL    HW223733   4.918   3.530   0.922
 7612SOL     OW23734   3.220   1.587   3.192
 7612SOL    HW123735   3.207   1.683   3.167
 7612SOL    HW223736   3.316   1.572   3.218
 7613SOL     OW23737   0.396   1.218   2.250
 7613SOL    HW123738   0.411   1.241   2.346
 7613SOL    HW223739   0.403   1.301   2.194
 7614SOL     OW23740   4.657   3.957   0.816
 7614SOL    HW123741   4.705   3.892   0.757
 7614SOL    HW223742   4.628   3.911   0.900
 7615SOL     OW23743   5.813   3.654   5.040
 7615SOL    HW123744   5.715   3.654   5.059
 7615SOL    HW223745   5.827   3.658   4.941
 7616SOL     OW23746   6.457   0.154   3.487
 7616SOL    HW123747   6.437   0.252   3.494
 7616SOL    HW223748   6.391   0.111   3.426
 7617SOL     OW23749   5.175   5.116   3.886
 7617SOL    HW123750   5.117   5.163   3.953
 7617SOL    HW223751   5.148   5.143   3.794
 7618SOL     OW23752   2.162   2.492   0.100
 7618SOL    HW123753   2.242   2.550   0.111
 7618SOL    HW223754   2.174   2.407   0.151
 7619SOL     OW23755   0.753   1.771   4.499
 7619SOL    HW123756   0.798   1.835   4.438
 7619SOL    HW223757   0.723   1.690   4.448
 7620SOL     OW23758   3.976   3.989   1.394
 7620SOL    HW123759   4.061   3.956   1.353
 7620SOL    HW223760   3.928   3.912   1.436
 7621SOL     OW23761   6.392   4.126   0.224
 7621SOL    HW123762   6.462   4.109   0.294
 7621SOL    HW223763   6.353   4.217   0.237
 7622SOL     OW23764   3.124   3.588   1.263
 7622SOL    HW123765   3.130   3.615   1.360
 7622SOL    HW223766   3.136   3.670   1.206
 7623SOL     OW23767   4.751   4.692   0.707
 7623SOL    HW123768   4.706   4.717   0.621
 7623SOL    HW223769   4.844   4.660   0.688
 7624SOL     OW23770   0.734   2.965   2.457
 7624SOL    HW123771   0.752   3.062   2.441
 7624SOL    HW223772   0.657   2.955   2.521
 7625SOL     OW23773   5.556   0.858   1.192
 7625SOL    HW123774   5.465   0.841   1.230
 7625SOL    HW223775   5.603   0.771   1.179
 7626SOL     OW23776   4.921   1.426   5.422
 7626SOL    HW123777   4.845   1.414   5.359
 7626SOL    HW223778   4.932   1.343   5.477
 7627SOL     OW23779   3.789   2.709   6.838
 7627SOL    HW123780   3.736   2.792   6.825
 7627SOL    HW223781   3.749   2.654   6.911
 7628SOL     OW23782   3.379   2.307   0.298
 7628SOL    HW123783   3.467   2.352   0.314
 7628SOL    HW223784   3.319   2.368   0.247
 7629SOL     OW23785   6.170   3.144   3.833
 7629SOL    HW123786   6.119   3.059   3.824
 7629SOL    HW223787   6.246   3.145   3.768
 7630SOL     OW23788   1.236   6.835   5.362
 7630SOL    HW123789   1.266   6.742   5.340
 7630SOL    HW223790   1.309   6.899   5.340
 7631SOL     OW23791   1.455   0.241   5.835
 7631SOL    HW123792   1.524   0.301   5.874
 7631SOL    HW223793   1.367   0.258   5.880
 7632SOL     OW23794   5.318   5.488   0.102
 7632SOL    HW123795   5.413   5.482   0.071
 7632SOL    HW223796   5.269   5.405   0.078
 7633SOL     OW23797   6.610   1.450   1.365
 7633SOL    HW123798   6.709   1.465   1.354
 7633SOL    HW223799   6.581   1.482   1.455
 7634SOL     OW23800   6.887   2.243   0.418
 7634SOL    HW123801   6.835   2.293   0.349
 7634SOL    HW223802   6.934   2.308   0.478
 7635SOL     OW23803   2.363   3.920   5.624
 7635SOL    HW123804   2.284   3.882   5.577
 7635SOL    HW223805   2.388   3.860   5.701
 7636SOL     OW23806   0.253   4.019   4.409
 7636SOL    HW123807   0.166   4.022   4.360
 7636SOL    HW223808   0.251   4.085   4.485
 7637SOL     OW23809   0.238   6.632   4.776
 7637SOL    HW123810   0.228   6.712   4.716
 7637SOL    HW223811   0.155   6.576   4.771
 7638SOL     OW23812   0.378   6.317   1.568
 7638SOL    HW123813   0.366   6.225   1.532
 7638SOL    HW223814   0.464   6.322   1.619
 7639SOL     OW23815   1.776   0.815   6.897
 7639SOL    HW123816   1.827   0.800   6.982
 7639SOL    HW223817   1.833   0.864   6.832
 7640SOL     OW23818   3.102   0.767   0.558
 7640SOL    HW123819   3.170   0.741   0.490
 7640SOL    HW223820   3.062   0.685   0.598
 7641SOL     OW23821   0.083   4.345   3.479
 7641SOL    HW123822   0.125   4.303   3.560
 7641SOL    HW223823   0.037   4.275   3.425
 7642SOL     OW23824   5.836   1.191   3.245
 7642SOL    HW123825   5.847   1.287   3.272
 7642SOL    HW223826   5.918   1.160   3.197
 7643SOL     OW23827   5.456   4.050   2.765
 7643SOL    HW123828   5.457   4.065   2.864
 7643SOL    HW223829   5.542   4.010   2.736
 7644SOL     OW23830   5.668   3.495   1.034
 7644SOL    HW123831   5.626   3.410   1.002
 7644SOL    HW223832   5.696   3.485   1.130
 7645SOL     OW23833   3.430   4.840   6.195
 7645SOL    HW123834   3.399   4.748   6.219
 7645SOL    HW223835   3.404   4.904   6.267
 7646SOL     OW23836   0.105   2.150   1.385
 7646SOL    HW123837   0.094   2.095   1.468
 7646SOL    HW223838   0.122   2.245   1.410
 7647SOL     OW23839   6.616   2.710   5.080
 7647SOL    HW123840   6.627   2.808   5.064
 7647SOL    HW223841   6.524   2.692   5.113
 7648SOL     OW23842   2.723   1.625   1.594
 7648SOL    HW123843   2.783   1.630   1.674
 7648SOL    HW223844   2.703   1.718   1.562
 7649SOL     OW23845   4.947   1.174   5.528
 7649SOL    HW123846   4.968   1.083   5.491
 7649SOL    HW223847   4.937   1.169   5.627
 7650SOL     OW23848   3.949   1.822   0.536
 7650SOL    HW123849   3.894   1.759   0.591
 7650SOL    HW223850   3.898   1.847   0.454
 7651SOL     OW23851   2.946   4.621   5.787
 7651SOL    HW123852   2.946   4.704   5.845
 7651SOL    HW223853   2.908   4.643   5.698
 7652SOL     OW23854   0.263   1.072   4.122
 7652SOL    HW123855   0.226   0.985   4.156
 7652SOL    HW223856   0.219   1.096   4.036
 7653SOL     OW23857   0.950   1.221   6.352
 7653SOL    HW123858   0.971   1.304   6.402
 7653SOL    HW223859   1.033   1.184   6.310
 7654SOL     OW23860   5.323   1.953   6.625
 7654SOL    HW123861   5.299   1.882   6.691
 7654SOL    HW223862   5.248   1.965   6.559
 7655SOL     OW23863   2.781   1.567   2.828
 7655SOL    HW123864   2.741   1.476   2.820
 7655SOL    HW223865   2.804   1.602   2.737
 7656SOL     OW23866   6.993   3.225   6.372
 7656SOL    HW123867   6.927   3.190   6.306
 7656SOL    HW223868   0.025   3.150   6.406
 7657SOL     OW23869   1.120   4.117   4.371
 7657SOL    HW123870   1.050   4.066   4.420
 7657SOL    HW223871   1.200   4.128   4.430
 7658SOL     OW23872   2.355   1.282   1.122
 7658SOL    HW123873   2.392   1.329   1.201
 7658SOL    HW223874   2.380   1.332   1.038
 7659SOL     OW23875   4.663   4.031   5.660
 7659SOL    HW123876   4.612   4.008   5.577
 7659SOL    HW223877   4.743   4.086   5.636
 7660SOL     OW23878   0.585   5.418   4.664
 7660SOL    HW123879   0.613   5.383   4.753
 7660SOL    HW223880   0.599   5.517   4.661
 7661SOL     OW23881   4.801   2.366   5.359
 7661SOL    HW123882   4.866   2.291   5.372
 7661SOL    HW223883   4.732   2.338   5.292
 7662SOL     OW23884   0.025   0.989   1.169
 7662SOL    HW123885   0.072   0.995   1.257
 7662SOL    HW223886   0.013   0.893   1.144
 7663SOL     OW23887   6.871   5.694   5.524
 7663SOL    HW123888   6.927   5.698   5.441
 7663SOL    HW223889   6.778   5.667   5.500
 7664SOL     OW23890   4.216   1.998   2.541
 7664SOL    HW123891   4.223   2.015   2.639
 7664SOL    HW223892   4.257   1.909   2.520
 7665SOL     OW23893   4.533   0.706   5.079
 7665SOL    HW123894   4.506   0.773   5.149
 7665SOL    HW223895   4.453   0.684   5.022
 7666SOL     OW23896   5.480   4.181   4.172
 7666SOL    HW123897   5.562   4.232   4.197
 7666SOL    HW223898   5.429   4.231   4.102
 7667SOL     OW23899   4.475   5.766   1.284
 7667SOL    HW123900   4.437   5.715   1.207
 7667SOL    HW223901   4.412   5.761   1.362
 7668SOL     OW23902   2.175   6.017   0.369
 7668SOL    HW123903   2.093   6.070   0.388
 7668SOL    HW223904   2.166   5.927   0.412
 7669SOL     OW23905   2.614   0.414   5.517
 7669SOL    HW123906   2.649   0.486   5.457
 7669SOL    HW223907   2.668   0.411   5.601
 7670SOL     OW23908   0.924   6.426   0.260
 7670SOL    HW123909   0.863   6.505   0.264
 7670SOL    HW223910   0.880   6.352   0.210
 7671SOL     OW23911   3.951   6.744   1.108
 7671SOL    HW123912   3.935   6.708   1.016
 7671SOL    HW223913   4.001   6.677   1.162
 7672SOL     OW23914   4.652   4.981   3.036
 7672SOL    HW123915   4.583   4.936   2.981
 7672SOL    HW223916   4.631   4.969   3.133
 7673SOL     OW23917   1.384   5.999   4.844
 7673SOL    HW123918   1.430   5.983   4.756
 7673SOL    HW223919   1.451   5.990   4.918
 7674SOL     OW23920   4.274   6.255   4.188
 7674SOL    HW123921   4.316   6.311   4.117
 7674SOL    HW223922   4.296   6.293   4.278
 7675SOL     OW23923   4.833   6.577   3.514
 7675SOL    HW123924   4.802   6.571   3.609
 7675SOL    HW223925   4.879   6.492   3.489
 7676SOL     OW23926   3.361   2.824   5.380
 7676SOL    HW123927   3.273   2.799   5.338
 7676SOL    HW223928   3.371   2.923   5.380
 7677SOL     OW23929   5.606   4.524   0.568
 7677SOL    HW123930   5.660   4.557   0.645
 7677SOL    HW223931   5.560   4.601   0.524
 7678SOL     OW23932   1.727   0.687   5.215
 7678SOL    HW123933   1.821   0.670   5.245
 7678SOL    HW223934   1.667   0.617   5.253
 7679SOL     OW23935   2.572   5.443   5.281
 7679SOL    HW123936   2.627   5.366   5.248
 7679SOL    HW223937   2.477   5.414   5.291
 7680SOL     OW23938   2.146   6.859   5.370
 7680SOL    HW123939   2.076   6.930   5.360
 7680SOL    HW223940   2.121   6.780   5.315
 7681SOL     OW23941   2.850   3.284   6.380
 7681SOL    HW123942   2.934   3.315   6.425
 7681SOL    HW223943   2.805   3.361   6.336
 7682SOL     OW23944   2.647   1.435   2.342
 7682SOL    HW123945   2.636   1.486   2.257
 7682SOL    HW223946   2.740   1.400   2.348
 7683SOL     OW23947   0.965   6.906   4.494
 7683SOL    HW123948   1.003   6.831   4.548
 7683SOL    HW223949   0.933   6.870   4.407
 7684SOL     OW23950   4.313   2.640   1.272
 7684SOL    HW123951   4.301   2.541   1.270
 7684SOL    HW223952   4.344   2.668   1.363
 7685SOL     OW23953   2.699   0.354   0.271
 7685SOL    HW123954   2.620   0.334   0.329
 7685SOL    HW223955   2.719   0.452   0.275
 7686SOL     OW23956   6.131   0.118   4.594
 7686SOL    HW123957   6.069   0.176   4.541
 7686SOL    HW223958   6.089   0.096   4.682
 7687SOL     OW23959   6.091   4.604   5.156
 7687SOL    HW123960   6.032   4.562   5.088
 7687SOL    HW223961   6.077   4.560   5.245
 7688SOL     OW23962   0.167   4.669   6.154
 7688SOL    HW123963   0.082   4.710   6.121
 7688SOL    HW223964   0.194   4.713   6.240
 7689SOL     OW23965   4.796   0.185   1.558
 7689SOL    HW123966   4.711   0.229   1.589
 7689SOL    HW223967   4.775   0.120   1.485
 7690SOL     OW23968   5.952   5.386   1.414
 7690SOL    HW123969   5.929   5.386   1.317
 7690SOL    HW223970   5.990   5.476   1.439
 7691SOL     OW23971   4.439   4.604   3.096
 7691SOL    HW123972   4.356   4.660   3.086
 7691SOL    HW223973   4.436   4.529   3.031
 7692SOL     OW23974   2.137   7.012   2.360
 7692SOL    HW123975   2.203   0.060   2.377
 7692SOL    HW223976   2.121   6.960   2.444
 7693SOL     OW23977   1.704   1.651   0.777
 7693SOL    HW123978   1.642   1.603   0.715
 7693SOL    HW223979   1.720   1.743   0.743
 7694SOL     OW23980   5.598   1.587   5.396
 7694SOL    HW123981   5.644   1.667   5.435
 7694SOL    HW223982   5.627   1.505   5.443
 7695SOL     OW23983   4.575   0.166   3.524
 7695SOL    HW123984   4.478   0.189   3.531
 7695SOL    HW223985   4.630   0.242   3.559
 7696SOL     OW23986   1.113   2.688   6.188
 7696SOL    HW123987   1.138   2.736   6.105
 7696SOL    HW223988   1.136   2.744   6.268
 7697SOL     OW23989   4.732   7.011   3.012
 7697SOL    HW123990   4.774   0.029   2.932
 7697SOL    HW223991   4.637   0.016   3.020
 7698SOL     OW23992   6.462   2.568   0.680
 7698SOL    HW123993   6.462   2.668   0.681
 7698SOL    HW223994   6.382   2.535   0.630
 7699SOL     OW23995   4.416   5.845   6.165
 7699SOL    HW123996   4.396   5.856   6.068
 7699SOL    HW223997   4.470   5.924   6.197
 7700SOL     OW23998   5.368   6.073   2.710
 7700SOL    HW123999   5.352   6.122   2.796
 7700SOL    HW224000   5.397   5.979   2.731
 7701SOL     OW24001   0.895   2.013   6.373
 7701SOL    HW124002   0.809   2.020   6.423
 7701SOL    HW224003   0.970   2.048   6.430
 7702SOL     OW24004   4.281   0.394   4.546
 7702SOL    HW124005   4.300   0.372   4.450
 7702SOL    HW224006   4.183   0.388   4.563
 7703SOL     OW24007   6.309   6.697   5.080
 7703SOL    HW124008   6.302   6.777   5.020
 7703SOL    HW224009   6.217   6.671   5.111
 7704SOL     OW24010   6.902   1.548   4.823
 7704SOL    HW124011   6.871   1.627   4.875
 7704SOL    HW224012   6.996   1.562   4.792
 7705SOL     OW24013   1.053   4.972   6.902
 7705SOL    HW124014   0.979   4.946   6.964
 7705SOL    HW224015   1.141   4.961   6.949
 7706SOL     OW24016   3.811   2.916   2.339
 7706SOL    HW124017   3.749   2.897   2.263
 7706SOL    HW224018   3.758   2.930   2.423
 7707SOL     OW24019   6.363   4.393   6.327
 7707SOL    HW124020   6.344   4.305   6.283
 7707SOL    HW224021   6.360   4.466   6.258
 7708SOL     OW24022   2.795   0.197   4.578
 7708SOL    HW124023   2.877   0.251   4.554
 7708SOL    HW224024   2.784   0.122   4.513
 7709SOL     OW24025   0.207   5.013   1.378
 7709SOL    HW124026   0.120   5.038   1.420
 7709SOL    HW224027   0.260   5.096   1.360
 7710SOL     OW24028   7.023   3.316   1.022
 7710SOL    HW124029   0.016   3.361   1.110
 7710SOL    HW224030   6.966   3.236   1.036
 7711SOL     OW24031   0.430   4.493   5.199
 7711SOL    HW124032   0.476   4.529   5.118
 7711SOL    HW224033   0.332   4.486   5.182
 7712SOL     OW24034   0.059   5.067   5.465
 7712SOL    HW124035   0.108   5.109   5.541
 7712SOL    HW224036   0.114   5.072   5.382
 7713SOL     OW24037   1.886   4.603   0.026
 7713SOL    HW124038   1.939   4.520   0.011
 7713SOL    HW224039   1.809   4.583   0.087
 7714SOL     OW24040   5.966   0.970   5.523
 7714SOL    HW124041   5.965   0.986   5.425
 7714SOL    HW224042   5.908   1.037   5.569
 7715SOL     OW24043   3.361   3.053   5.752
 7715SOL    HW124044   3.386   2.965   5.794
 7715SOL    HW224045   3.308   3.106   5.818
 7716SOL     OW24046   1.184   6.112   5.821
 7716SOL    HW124047   1.243   6.057   5.881
 7716SOL    HW224048   1.174   6.065   5.733
 7717SOL     OW24049   0.679   1.511   6.731
 7717SOL    HW124050   0.625   1.430   6.756
 7717SOL    HW224051   0.725   1.494   6.643
 7718SOL     OW24052   1.336   3.771   3.047
 7718SOL    HW124053   1.239   3.764   3.028
 7718SOL    HW224054   1.387   3.717   2.980
 7719SOL     OW24055   2.205   4.549   4.537
 7719SOL    HW124056   2.165   4.565   4.627
 7719SOL    HW224057   2.152   4.478   4.489
 7720SOL     OW24058   4.762   1.309   6.822
 7720SOL    HW124059   4.799   1.256   6.898
 7720SOL    HW224060   4.790   1.268   6.735
 7721SOL     OW24061   0.462   0.878   2.717
 7721SOL    HW124062   0.521   0.797   2.710
 7721SOL    HW224063   0.457   0.924   2.629
 7722SOL     OW24064   1.502   6.258   3.704
 7722SOL    HW124065   1.482   6.355   3.721
 7722SOL    HW224066   1.492   6.206   3.789
 7723SOL     OW24067   4.825   3.829   0.609
 7723SOL    HW124068   4.838   3.927   0.592
 7723SOL    HW224069   4.827   3.780   0.522
 7724SOL     OW24070   1.940   3.840   1.459
 7724SOL    HW124071   1.957   3.936   1.481
 7724SOL    HW224072   1.990   3.782   1.523
 7725SOL     OW24073   5.267   3.156   3.242
 7725SOL    HW124074   5.306   3.078   3.194
 7725SOL    HW224075   5.196   3.124   3.305
 7726SOL     OW24076   0.946   3.248   6.212
 7726SOL    HW124077   0.925   3.312   6.286
 7726SOL    HW224078   0.985   3.164   6.250
 7727SOL     OW24079   4.626   0.943   2.280
 7727SOL    HW124080   4.609   0.850   2.249
 7727SOL    HW224081   4.698   0.984   2.224
 7728SOL     OW24082   2.169   3.618   4.552
 7728SOL    HW124083   2.175   3.711   4.516
 7728SOL    HW224084   2.159   3.621   4.651
 7729SOL     OW24085   0.023   2.139   4.064
 7729SOL    HW124086   0.055   2.122   3.971
 7729SOL    HW224087   0.100   2.139   4.127
 7730SOL     OW24088   6.026   4.250   5.116
 7730SOL    HW124089   6.023   4.318   5.043
 7730SOL    HW224090   5.942   4.197   5.116
 7731SOL     OW24091   6.848   6.526   6.728
 7731SOL    HW124092   6.768   6.519   6.786
 7731SOL    HW224093   6.823   6.568   6.641
 7732SOL     OW24094   4.110   0.268   6.711
 7732SOL    HW124095   4.014   0.289   6.690
 7732SOL    HW224096   4.164   0.352   6.710
 7733SOL     OW24097   6.360   5.870   2.025
 7733SOL    HW124098   6.286   5.889   1.961
 7733SOL    HW224099   6.325   5.875   2.119
 7734SOL     OW24100   3.113   3.879   4.922
 7734SOL    HW124101   3.092   3.878   4.824
 7734SOL    HW224102   3.183   3.810   4.942
 7735SOL     OW24103   6.685   5.897   0.267
 7735SOL    HW124104   6.587   5.898   0.288
 7735SOL    HW224105   6.735   5.861   0.346
 7736SOL     OW24106   2.137   2.810   0.299
 7736SOL    HW124107   2.106   2.904   0.287
 7736SOL    HW224108   2.217   2.795   0.240
 7737SOL     OW24109   3.918   5.180   0.916
 7737SOL    HW124110   3.993   5.159   0.978
 7737SOL    HW224111   3.923   5.120   0.836
 7738SOL     OW24112   2.124   0.297   5.708
 7738SOL    HW124113   2.191   0.319   5.778
 7738SOL    HW224114   2.170   0.292   5.619
 7739SOL     OW24115   1.414   2.068   0.588
 7739SOL    HW124116   1.484   1.997   0.594
 7739SOL    HW224117   1.360   2.054   0.505
 7740SOL     OW24118   1.681   0.793   4.929
 7740SOL    HW124119   1.718   0.768   5.018
 7740SOL    HW224120   1.695   0.891   4.913
 7741SOL     OW24121   1.572   4.601   6.229
 7741SOL    HW124122   1.481   4.628   6.199
 7741SOL    HW224123   1.623   4.564   6.151
 7742SOL     OW24124   4.040   1.898   4.153
 7742SOL    HW124125   3.986   1.919   4.071
 7742SOL    HW224126   4.109   1.969   4.166
 7743SOL     OW24127   5.086   1.909   5.814
 7743SOL    HW124128   5.176   1.869   5.834
 7743SOL    HW224129   5.043   1.858   5.740
 7744SOL     OW24130   0.573   6.269   5.028
 7744SOL    HW124131   0.480   6.256   4.993
 7744SOL    HW224132   0.575   6.346   5.091
 7745SOL     OW24133   2.382   7.010   1.074
 7745SOL    HW124134   2.425   0.075   1.092
 7745SOL    HW224135   2.288   7.023   1.043
 7746SOL     OW24136   1.093   5.800   1.087
 7746SOL    HW124137   1.035   5.789   1.006
 7746SOL    HW224138   1.119   5.896   1.096
 7747SOL     OW24139   0.956   6.157   7.006
 7747SOL    HW124140   0.871   6.106   7.001
 7747SOL    HW224141   1.032   6.093   7.020
 7748SOL     OW24142   4.517   2.052   5.684
 7748SOL    HW124143   4.599   2.043   5.740
 7748SOL    HW224144   4.483   2.146   5.689
 7749SOL     OW24145   3.855   4.066   4.263
 7749SOL    HW124146   3.895   3.974   4.268
 7749SOL    HW224147   3.819   4.091   4.353
 7750SOL     OW24148   5.737   4.481   5.334
 7750SOL    HW124149   5.837   4.468   5.336
 7750SOL    HW224150   5.697   4.442   5.417
 7751SOL     OW24151   6.909   1.150   5.322
 7751SOL    HW124152   6.820   1.151   5.367
 7751SOL    HW224153   6.978   1.190   5.382
 7752SOL     OW24154   6.587   5.653   5.515
 7752SOL    HW124155   6.601   5.634   5.613
 7752SOL    HW224156   6.499   5.698   5.502
 7753SOL     OW24157   2.300   1.062   4.811
 7753SOL    HW124158   2.258   1.139   4.859
 7753SOL    HW224159   2.265   1.059   4.717
 7754SOL     OW24160   5.709   0.738   1.869
 7754SOL    HW124161   5.677   0.808   1.805
 7754SOL    HW224162   5.668   0.650   1.845
 7755SOL     OW24163   1.070   5.730   5.827
 7755SOL    HW124164   0.989   5.677   5.799
 7755SOL    HW224165   1.152   5.687   5.790
 7756SOL     OW24166   4.065   5.648   2.290
 7756SOL    HW124167   4.016   5.562   2.304
 7756SOL    HW224168   4.001   5.724   2.295
 7757SOL     OW24169   4.650   6.363   5.823
 7757SOL    HW124170   4.748   6.374   5.839
 7757SOL    HW224171   4.603   6.449   5.846
 7758SOL     OW24172   2.488   2.185   5.226
 7758SOL    HW124173   2.416   2.226   5.170
 7758SOL    HW224174   2.534   2.257   5.278
 7759SOL     OW24175   1.986   0.759   4.792
 7759SOL    HW124176   2.016   0.695   4.721
 7759SOL    HW224177   1.889   0.781   4.778
 7760SOL     OW24178   4.852   3.010   2.325
 7760SOL    HW124179   4.830   2.943   2.254
 7760SOL    HW224180   4.900   2.964   2.400
 7761SOL     OW24181   3.447   0.051   6.445
 7761SOL    HW124182   3.492   0.132   6.483
 7761SOL    HW224183   3.364   0.079   6.397
 7762SOL     OW24184   3.366   1.672   0.641
 7762SOL    HW124185   3.413   1.616   0.709
 7762SOL    HW224186   3.347   1.762   0.680
 7763SOL     OW24187   1.619   1.908   0.607
 7763SOL    HW124188   1.692   1.953   0.660
 7763SOL    HW224189   1.659   1.863   0.528
 7764SOL     OW24190   3.300   2.882   2.584
 7764SOL    HW124191   3.247   2.959   2.620
 7764SOL    HW224192   3.246   2.834   2.514
 7765SOL     OW24193   6.805   2.313   2.843
 7765SOL    HW124194   6.735   2.369   2.799
 7765SOL    HW224195   6.868   2.372   2.894
 7766SOL     OW24196   0.057   2.785   6.546
 7766SOL    HW124197   0.151   2.752   6.547
 7766SOL    HW224198   7.020   2.712   6.574
 7767SOL     OW24199   5.054   5.420   4.637
 7767SOL    HW124200   5.116   5.342   4.652
 7767SOL    HW224201   5.103   5.505   4.656
 7768SOL     OW24202   3.643   4.865   2.588
 7768SOL    HW124203   3.681   4.897   2.502
 7768SOL    HW224204   3.684   4.915   2.664
 7769SOL     OW24205   5.491   2.279   1.628
 7769SOL    HW124206   5.420   2.303   1.694
 7769SOL    HW224207   5.567   2.234   1.675
 7770SOL     OW24208   3.526   5.274   0.999
 7770SOL    HW124209   3.603   5.240   1.053
 7770SOL    HW224210   3.530   5.374   0.994
 7771SOL     OW24211   2.297   1.658   5.587
 7771SOL    HW124212   2.293   1.621   5.495
 7771SOL    HW224213   2.204   1.667   5.624
 7772SOL     OW24214   5.092   1.612   4.716
 7772SOL    HW124215   5.108   1.521   4.679
 7772SOL    HW224216   5.177   1.648   4.756
 7773SOL     OW24217   4.135   4.370   6.137
 7773SOL    HW124218   4.140   4.466   6.112
 7773SOL    HW224219   4.075   4.322   6.074
 7774SOL     OW24220   4.946   1.505   6.312
 7774SOL    HW124221   4.862   1.456   6.331
 7774SOL    HW224222   4.945   1.593   6.360
 7775SOL     OW24223   2.948   6.474   2.306
 7775SOL    HW124224   2.953   6.436   2.398
 7775SOL    HW224225   2.960   6.401   2.239
 7776SOL     OW24226   3.599   3.725   6.992
 7776SOL    HW124227   3.604   3.823   7.011
 7776SOL    HW224228   3.504   3.700   6.971
 7777SOL     OW24229   2.130   1.509   6.826
 7777SOL    HW124230   2.140   1.608   6.810
 7777SOL    HW224231   2.153   1.489   6.921
 7778SOL     OW24232   5.491   0.874   0.269
 7778SOL    HW124233   5.391   0.877   0.266
 7778SOL    HW224234   5.522   0.783   0.240
 7779SOL     OW24235   3.792   3.447   0.103
 7779SOL    HW124236   3.773   3.401   0.189
 7779SOL    HW224237   3.751   3.396   0.027
 7780SOL     OW24238   1.920   6.451   4.615
 7780SOL    HW124239   1.909   6.355   4.641
 7780SOL    HW224240   1.870   6.509   4.679
 7781SOL     OW24241   1.339   4.465   4.702
 7781SOL    HW124242   1.431   4.449   4.737
 7781SOL    HW224243   1.305   4.382   4.658
 7782SOL     OW24244   3.237   4.679   6.639
 7782SOL    HW124245   3.269   4.613   6.571
 7782SOL    HW224246   3.138   4.671   6.650
 7783SOL     OW24247   2.974   5.224   6.247
 7783SOL    HW124248   3.067   5.198   6.274
 7783SOL    HW224249   2.908   5.165   6.294
 7784SOL     OW24250   0.461   2.871   0.201
 7784SOL    HW124251   0.364   2.847   0.210
 7784SOL    HW224252   0.517   2.788   0.206
 7785SOL     OW24253   2.527   5.792   4.208
 7785SOL    HW124254   2.505   5.696   4.190
 7785SOL    HW224255   2.515   5.845   4.124
 7786SOL     OW24256   3.093   4.303   5.267
 7786SOL    HW124257   3.145   4.248   5.201
 7786SOL    HW224258   3.073   4.393   5.227
 7787SOL     OW24259   2.575   2.519   5.274
 7787SOL    HW124260   2.544   2.610   5.302
 7787SOL    HW224261   2.546   2.451   5.341
 7788SOL     OW24262   1.178   1.660   0.268
 7788SOL    HW124263   1.236   1.741   0.259
 7788SOL    HW224264   1.235   1.578   0.273
 7789SOL     OW24265   1.947   0.817   1.223
 7789SOL    HW124266   1.987   0.879   1.155
 7789SOL    HW224267   1.985   0.837   1.313
 7790SOL     OW24268   5.427   3.097   2.575
 7790SOL    HW124269   5.331   3.080   2.555
 7790SOL    HW224270   5.472   3.133   2.493
 7791SOL     OW24271   1.693   4.780   5.121
 7791SOL    HW124272   1.770   4.718   5.132
 7791SOL    HW224273   1.685   4.838   5.202
 7792SOL     OW24274   2.385   5.478   6.352
 7792SOL    HW124275   2.364   5.447   6.444
 7792SOL    HW224276   2.417   5.401   6.296
 7793SOL     OW24277   1.169   1.056   6.289
 7793SOL    HW124278   1.133   1.013   6.207
 7793SOL    HW224279   1.193   0.986   6.356
 7794SOL     OW24280   5.194   5.643   4.050
 7794SOL    HW124281   5.133   5.667   4.125
 7794SOL    HW224282   5.190   5.714   3.979
 7795SOL     OW24283   2.524   4.431   5.239
 7795SOL    HW124284   2.620   4.434   5.266
 7795SOL    HW224285   2.486   4.341   5.261
 7796SOL     OW24286   3.871   3.993   3.529
 7796SOL    HW124287   3.778   3.970   3.501
 7796SOL    HW224288   3.913   3.914   3.573
 7797SOL     OW24289   0.428   0.214   2.973
 7797SOL    HW124290   0.509   0.201   2.915
 7797SOL    HW224291   0.429   0.306   3.012
 7798SOL     OW24292   3.692   5.271   0.502
 7798SOL    HW124293   3.624   5.223   0.447
 7798SOL    HW224294   3.657   5.360   0.530
 7799SOL     OW24295   6.964   5.350   1.741
 7799SOL    HW124296   6.921   5.386   1.659
 7799SOL    HW224297   6.909   5.276   1.779
 7800SOL     OW24298   0.852   5.558   2.112
 7800SOL    HW124299   0.887   5.543   2.205
 7800SOL    HW224300   0.820   5.652   2.103
 7801SOL     OW24301   3.510   2.397   0.029
 7801SOL    HW124302   3.499   2.351   0.117
 7801SOL    HW224303   3.456   2.481   0.029
 7802SOL     OW24304   5.680   2.046   1.959
 7802SOL    HW124305   5.677   2.032   2.057
 7802SOL    HW224306   5.602   2.103   1.931
 7803SOL     OW24307   4.261   4.265   5.337
 7803SOL    HW124308   4.288   4.318   5.417
 7803SOL    HW224309   4.270   4.322   5.255
 7804SOL     OW24310   4.854   2.003   5.940
 7804SOL    HW124311   4.942   1.987   5.895
 7804SOL    HW224312   4.801   2.070   5.887
 7805SOL     OW24313   5.358   3.520   2.165
 7805SOL    HW124314   5.385   3.504   2.260
 7805SOL    HW224315   5.267   3.482   2.149
 7806SOL     OW24316   5.489   2.634   6.011
 7806SOL    HW124317   5.404   2.617   5.960
 7806SOL    HW224318   5.559   2.669   5.949
 7807SOL     OW24319   0.296   4.323   6.474
 7807SOL    HW124320   0.291   4.224   6.459
 7807SOL    HW224321   0.319   4.341   6.570
 7808SOL     OW24322   0.359   1.575   4.985
 7808SOL    HW124323   0.361   1.478   5.007
 7808SOL    HW224324   0.414   1.626   5.052
 7809SOL     OW24325   2.627   5.477   4.782
 7809SOL    HW124326   2.531   5.461   4.805
 7809SOL    HW224327   2.668   5.534   4.853
 7810SOL     OW24328   2.800   0.970   6.580
 7810SOL    HW124329   2.750   0.907   6.521
 7810SOL    HW224330   2.744   1.051   6.597
 7811SOL     OW24331   6.334   4.485   4.012
 7811SOL    HW124332   6.421   4.447   4.043
 7811SOL    HW224333   6.350   4.568   3.959
 7812SOL     OW24334   1.467   1.864   3.534
 7812SOL    HW124335   1.525   1.910   3.467
 7812SOL    HW224336   1.423   1.932   3.593
 7813SOL     OW24337   6.567   3.115   0.144
 7813SOL    HW124338   6.580   3.205   0.102
 7813SOL    HW224339   6.623   3.108   0.227
 7814SOL     OW24340   0.878   3.542   2.832
 7814SOL    HW124341   0.968   3.500   2.839
 7814SOL    HW224342   0.813   3.491   2.887
 7815SOL     OW24343   6.557   2.079   5.971
 7815SOL    HW124344   6.500   2.022   6.029
 7815SOL    HW224345   6.617   2.135   6.028
 7816SOL     OW24346   1.351   3.927   4.784
 7816SOL    HW124347   1.386   3.942   4.691
 7816SOL    HW224348   1.428   3.905   4.844
 7817SOL     OW24349   5.514   3.838   4.799
 7817SOL    HW124350   5.435   3.776   4.788
 7817SOL    HW224351   5.483   3.933   4.793
 7818SOL     OW24352   5.244   6.008   1.991
 7818SOL    HW124353   5.144   6.009   2.002
 7818SOL    HW224354   5.287   5.990   2.079
 7819SOL     OW24355   6.738   1.749   1.629
 7819SOL    HW124356   6.659   1.793   1.588
 7819SOL    HW224357   6.818   1.762   1.571
 7820SOL     OW24358   1.508   0.737   6.888
 7820SOL    HW124359   1.491   0.655   6.834
 7820SOL    HW224360   1.606   0.751   6.899
 7821SOL     OW24361   3.118   5.301   1.986
 7821SOL    HW124362   3.088   5.384   1.940
 7821SOL    HW224363   3.052   5.276   2.057
 7822SOL     OW24364   1.644   6.027   5.007
 7822SOL    HW124365   1.623   5.947   5.063
 7822SOL    HW224366   1.683   6.100   5.064
 7823SOL     OW24367   1.576   4.466   4.837
 7823SOL    HW124368   1.574   4.545   4.898
 7823SOL    HW224369   1.672   4.444   4.815
 7824SOL     OW24370   0.363   2.758   5.958
 7824SOL    HW124371   0.389   2.854   5.941
 7824SOL    HW224372   0.303   2.727   5.885
 7825SOL     OW24373   3.009   1.562   6.412
 7825SOL    HW124374   2.920   1.542   6.371
 7825SOL    HW224375   3.036   1.487   6.471
 7826SOL     OW24376   0.326   3.096   6.733
 7826SOL    HW124377   0.333   3.008   6.780
 7826SOL    HW224378   0.319   3.169   6.801
 7827SOL     OW24379   6.980   6.643   4.596
 7827SOL    HW124380   6.890   6.642   4.553
 7827SOL    HW224381   6.970   6.632   4.695
 7828SOL     OW24382   0.482   4.585   6.622
 7828SOL    HW124383   0.556   4.532   6.582
 7828SOL    HW224384   0.424   4.526   6.678
 7829SOL     OW24385   4.133   2.924   0.743
 7829SOL    HW124386   4.079   2.948   0.663
 7829SOL    HW224387   4.192   3.001   0.768
 7830SOL     OW24388   2.754   4.730   4.394
 7830SOL    HW124389   2.659   4.700   4.393
 7830SOL    HW224390   2.788   4.736   4.299
 7831SOL     OW24391   1.731   1.466   0.366
 7831SOL    HW124392   1.806   1.468   0.300
 7831SOL    HW224393   1.756   1.407   0.443
 7832SOL     OW24394   6.232   0.679   4.486
 7832SOL    HW124395   6.226   0.778   4.498
 7832SOL    HW224396   6.281   0.639   4.563
 7833SOL     OW24397   2.009   0.697   4.256
 7833SOL    HW124398   1.958   0.740   4.181
 7833SOL    HW224399   1.974   0.604   4.271
 7834SOL     OW24400   5.975   3.014   4.749
 7834SOL    HW124401   6.074   3.015   4.735
 7834SOL    HW224402   5.948   2.927   4.790
 7835SOL     OW24403   4.197   2.312   5.345
 7835SOL    HW124404   4.184   2.396   5.292
 7835SOL    HW224405   4.258   2.251   5.296
 7836SOL     OW24406   3.706   3.945   4.953
 7836SOL    HW124407   3.674   3.915   5.043
 7836SOL    HW224408   3.781   4.010   4.964
 7837SOL     OW24409   6.510   5.423   6.726
 7837SOL    HW124410   6.569   5.499   6.752
 7837SOL    HW224411   6.415   5.455   6.722
 7838SOL     OW24412   4.859   5.262   1.333
 7838SOL    HW124413   4.849   5.163   1.340
 7838SOL    HW224414   4.951   5.284   1.300
 7839SOL     OW24415   5.706   3.206   4.347
 7839SOL    HW124416   5.654   3.127   4.317
 7839SOL    HW224417   5.683   3.227   4.442
 7840SOL     OW24418   1.790   3.093   3.961
 7840SOL    HW124419   1.869   3.140   3.922
 7840SOL    HW224420   1.819   3.040   4.040
 7841SOL     OW24421   5.078   2.323   6.072
 7841SOL    HW124422   5.042   2.341   5.981
 7841SOL    HW224423   5.174   2.297   6.067
 7842SOL     OW24424   1.637   0.835   2.169
 7842SOL    HW124425   1.726   0.800   2.200
 7842SOL    HW224426   1.596   0.891   2.241
 7843SOL     OW24427   0.084   6.691   3.373
 7843SOL    HW124428   0.085   6.748   3.291
 7843SOL    HW224429   0.038   6.605   3.352
 7844SOL     OW24430   3.263   1.320   2.673
 7844SOL    HW124431   3.272   1.278   2.763
 7844SOL    HW224432   3.348   1.308   2.622
 7845SOL     OW24433   6.598   3.236   1.292
 7845SOL    HW124434   6.685   3.187   1.295
 7845SOL    HW224435   6.572   3.264   1.384
 7846SOL     OW24436   0.739   2.050   0.173
 7846SOL    HW124437   0.651   2.097   0.184
 7846SOL    HW224438   0.761   2.044   0.076
 7847SOL     OW24439   5.560   2.961   4.863
 7847SOL    HW124440   5.567   2.919   4.953
 7847SOL    HW224441   5.640   3.020   4.848
 7848SOL     OW24442   3.640   4.342   0.918
 7848SOL    HW124443   3.566   4.377   0.975
 7848SOL    HW224444   3.618   4.250   0.886
 7849SOL     OW24445   4.657   4.274   6.881
 7849SOL    HW124446   4.659   4.211   6.803
 7849SOL    HW224447   4.682   4.366   6.849
 7850SOL     OW24448   0.081   1.096   3.886
 7850SOL    HW124449   0.052   1.005   3.916
 7850SOL    HW224450   0.002   1.147   3.852
 7851SOL     OW24451   0.546   4.262   2.119
 7851SOL    HW124452   0.566   4.359   2.105
 7851SOL    HW224453   0.606   4.207   2.061
 7852SOL     OW24454   1.028   2.390   6.505
 7852SOL    HW124455   0.984   2.399   6.416
 7852SOL    HW224456   0.979   2.446   6.572
 7853SOL     OW24457   4.015   3.020   1.740
 7853SOL    HW124458   3.965   3.005   1.825
 7853SOL    HW224459   4.102   3.067   1.760
 7854SOL     OW24460   4.881   2.591   6.520
 7854SOL    HW124461   4.848   2.561   6.430
 7854SOL    HW224462   4.820   2.662   6.555
 7855SOL     OW24463   5.044   0.156   4.685
 7855SOL    HW124464   5.039   0.168   4.784
 7855SOL    HW224465   4.963   0.197   4.643
 7856SOL     OW24466   2.202   6.515   4.795
 7856SOL    HW124467   2.137   6.452   4.838
 7856SOL    HW224468   2.240   6.473   4.713
 7857SOL     OW24469   6.057   4.612   1.123
 7857SOL    HW124470   5.994   4.633   1.048
 7857SOL    HW224471   6.137   4.564   1.087
 7858SOL     OW24472   0.462   4.540   5.766
 7858SOL    HW124473   0.536   4.572   5.708
 7858SOL    HW224474   0.381   4.598   5.753
 7859SOL     OW24475   5.402   2.706   0.194
 7859SOL    HW124476   5.382   2.745   0.284
 7859SOL    HW224477   5.387   2.607   0.196
 7860SOL     OW24478   2.455   0.804   4.628
 7860SOL    HW124479   2.358   0.793   4.607
 7860SOL    HW224480   2.506   0.828   4.545
 7861SOL     OW24481   2.636   6.249   1.148
 7861SOL    HW124482   2.605   6.259   1.243
 7861SOL    HW224483   2.576   6.301   1.088
 7862SOL     OW24484   2.663   5.875   0.498
 7862SOL    HW124485   2.716   5.856   0.415
 7862SOL    HW224486   2.718   5.852   0.579
 7863SOL     OW24487   6.651   4.479   3.446
 7863SOL    HW124488   6.633   4.383   3.425
 7863SOL    HW224489   6.583   4.512   3.512
 7864SOL     OW24490   1.883   6.371   5.606
 7864SOL    HW124491   1.974   6.389   5.570
 7864SOL    HW224492   1.883   6.385   5.705
 7865SOL     OW24493   5.695   5.146   3.393
 7865SOL    HW124494   5.630   5.072   3.408
 7865SOL    HW224495   5.654   5.215   3.333
 7866SOL     OW24496   0.808   0.101   5.850
 7866SOL    HW124497   0.813   0.176   5.784
 7866SOL    HW224498   0.887   0.041   5.838
 7867SOL     OW24499   5.948   6.343   3.752
 7867SOL    HW124500   5.853   6.323   3.775
 7867SOL    HW224501   5.968   6.309   3.660
 7868SOL     OW24502   3.111   6.064   1.469
 7868SOL    HW124503   3.075   6.009   1.545
 7868SOL    HW224504   3.059   6.148   1.461
 7869SOL     OW24505   5.482   5.203   5.878
 7869SOL    HW124506   5.389   5.218   5.911
 7869SOL    HW224507   5.522   5.125   5.926
 7870SOL     OW24508   5.666   5.998   4.627
 7870SOL    HW124509   5.686   5.900   4.635
 7870SOL    HW224510   5.738   6.042   4.573
 7871SOL     OW24511   5.401   1.296   1.612
 7871SOL    HW124512   5.309   1.325   1.640
 7871SOL    HW224513   5.449   1.256   1.690
 7872SOL     OW24514   1.845   5.933   2.768
 7872SOL    HW124515   1.863   5.840   2.737
 7872SOL    HW224516   1.879   5.999   2.701
 7873SOL     OW24517   5.891   1.280   6.821
 7873SOL    HW124518   5.898   1.378   6.806
 7873SOL    HW224519   5.898   1.261   6.919
 7874SOL     OW24520   5.308   2.441   0.899
 7874SOL    HW124521   5.372   2.487   0.837
 7874SOL    HW224522   5.277   2.505   0.968
 7875SOL     OW24523   5.707   4.615   6.601
 7875SOL    HW124524   5.739   4.525   6.633
 7875SOL    HW224525   5.695   4.613   6.502
 7876SOL     OW24526   0.946   0.160   2.822
 7876SOL    HW124527   1.005   0.215   2.881
 7876SOL    HW224528   0.940   0.202   2.732
 7877SOL     OW24529   6.858   1.909   3.048
 7877SOL    HW124530   6.819   2.001   3.060
 7877SOL    HW224531   6.785   1.845   3.024
 7878SOL     OW24532   3.799   5.064   2.991
 7878SOL    HW124533   3.723   5.002   2.970
 7878SOL    HW224534   3.764   5.147   3.035
 7879SOL     OW24535   2.678   4.672   3.191
 7879SOL    HW124536   2.752   4.666   3.258
 7879SOL    HW224537   2.708   4.727   3.113
 7880SOL     OW24538   1.540   4.070   1.909
 7880SOL    HW124539   1.598   4.024   1.842
 7880SOL    HW224540   1.596   4.129   1.967
 7881SOL     OW24541   5.142   4.311   4.158
 7881SOL    HW124542   5.117   4.218   4.186
 7881SOL    HW224543   5.146   4.371   4.237
 7882SOL     OW24544   1.483   3.543   0.831
 7882SOL    HW124545   1.547   3.576   0.900
 7882SOL    HW224546   1.458   3.448   0.851
 7883SOL     OW24547   1.044   0.883   5.310
 7883SOL    HW124548   1.136   0.855   5.283
 7883SOL    HW224549   1.046   0.976   5.347
 7884SOL     OW24550   0.748   2.864   4.314
 7884SOL    HW124551   0.670   2.909   4.270
 7884SOL    HW224552   0.747   2.766   4.291
 7885SOL     OW24553   6.242   5.511   6.695
 7885SOL    HW124554   6.151   5.545   6.718
 7885SOL    HW224555   6.237   5.458   6.611
 7886SOL     OW24556   4.833   5.194   6.996
 7886SOL    HW124557   4.927   5.222   6.980
 7886SOL    HW224558   4.772   5.251   6.941
 7887SOL     OW24559   4.709   2.028   6.865
 7887SOL    HW124560   4.704   2.121   6.901
 7887SOL    HW224561   4.733   2.030   6.768
 7888SOL     OW24562   5.113   0.992   4.783
 7888SOL    HW124563   5.111   1.049   4.866
 7888SOL    HW224564   5.184   1.025   4.721
 7889SOL     OW24565   1.200   6.402   2.238
 7889SOL    HW124566   1.155   6.360   2.159
 7889SOL    HW224567   1.156   6.371   2.322
 7890SOL     OW24568   1.996   3.133   2.752
 7890SOL    HW124569   1.970   3.083   2.835
 7890SOL    HW224570   1.924   3.124   2.684
 7891SOL     OW24571   1.522   4.593   2.706
 7891SOL    HW124572   1.595   4.579   2.773
 7891SOL    HW224573   1.434   4.600   2.753
 7892SOL     OW24574   1.809   2.322   5.490
 7892SOL    HW124575   1.854   2.281   5.568
 7892SOL    HW224576   1.876   2.374   5.436
 7893SOL     OW24577   5.980   6.195   1.603
 7893SOL    HW124578   6.024   6.273   1.648
 7893SOL    HW224579   5.950   6.129   1.672
 7894SOL     OW24580   2.750   0.131   2.153
 7894SOL    HW124581   2.755   0.209   2.090
 7894SOL    HW224582   2.720   0.050   2.103
 7895SOL     OW24583   0.240   1.584   3.768
 7895SOL    HW124584   0.318   1.638   3.799
 7895SOL    HW224585   0.188   1.553   3.847
 7896SOL     OW24586   4.614   2.102   5.310
 7896SOL    HW124587   4.693   2.078   5.254
 7896SOL    HW224588   4.605   2.036   5.385
 7897SOL     OW24589   3.116   3.306   6.105
 7897SOL    HW124590   3.034   3.363   6.114
 7897SOL    HW224591   3.094   3.224   6.052
 7898SOL     OW24592   4.359   2.221   3.512
 7898SOL    HW124593   4.276   2.276   3.516
 7898SOL    HW224594   4.439   2.280   3.520
 7899SOL     OW24595   5.096   1.144   2.665
 7899SOL    HW124596   5.054   1.086   2.735
 7899SOL    HW224597   5.027   1.173   2.599
 7900SOL     OW24598   1.361   5.653   0.942
 7900SOL    HW124599   1.373   5.722   1.013
 7900SOL    HW224600   1.325   5.696   0.859
 7901SOL     OW24601   6.322   6.190   0.281
 7901SOL    HW124602   6.385   6.122   0.243
 7901SOL    HW224603   6.328   6.275   0.228
 7902SOL     OW24604   4.856   3.797   6.839
 7902SOL    HW124605   4.794   3.861   6.794
 7902SOL    HW224606   4.910   3.846   6.908
 7903SOL     OW24607   0.299   2.081   6.665
 7903SOL    HW124608   0.223   2.069   6.730
 7903SOL    HW224609   0.276   2.154   6.601
 7904SOL     OW24610   5.983   0.460   2.779
 7904SOL    HW124611   6.043   0.414   2.845
 7904SOL    HW224612   5.904   0.402   2.759
 7905SOL     OW24613   3.489   1.519   0.815
 7905SOL    HW124614   3.540   1.477   0.741
 7905SOL    HW224615   3.541   1.512   0.900
 7906SOL     OW24616   6.484   5.962   6.742
 7906SOL    HW124617   6.494   5.873   6.697
 7906SOL    HW224618   6.471   5.949   6.840
 7907SOL     OW24619   6.836   2.872   2.269
 7907SOL    HW124620   6.779   2.917   2.200
 7907SOL    HW224621   6.902   2.812   2.223
 7908SOL     OW24622   6.094   1.901   3.502
 7908SOL    HW124623   6.018   1.963   3.481
 7908SOL    HW224624   6.089   1.872   3.597
 7909SOL     OW24625   4.735   4.634   5.132
 7909SOL    HW124626   4.805   4.564   5.117
 7909SOL    HW224627   4.747   4.708   5.065
 7910SOL     OW24628   5.583   3.289   5.952
 7910SOL    HW124629   5.653   3.360   5.956
 7910SOL    HW224630   5.563   3.267   5.857
 7911SOL     OW24631   5.816   4.798   0.107
 7911SOL    HW124632   5.759   4.731   0.155
 7911SOL    HW224633   5.834   4.765   0.014
 7912SOL     OW24634   6.536   5.024   5.922
 7912SOL    HW124635   6.485   4.960   5.866
 7912SOL    HW224636   6.589   4.974   5.991
 7913SOL     OW24637   0.341   5.579   6.490
 7913SOL    HW124638   0.428   5.535   6.471
 7913SOL    HW224639   0.355   5.653   6.557
 7914SOL     OW24640   6.844   3.536   2.511
 7914SOL    HW124641   6.864   3.565   2.418
 7914SOL    HW224642   6.929   3.525   2.562
 7915SOL     OW24643   4.247   2.019   2.835
 7915SOL    HW124644   4.343   2.048   2.835
 7915SOL    HW224645   4.213   2.018   2.929
 7916SOL     OW24646   5.048   3.666   5.390
 7916SOL    HW124647   5.107   3.739   5.426
 7916SOL    HW224648   5.075   3.579   5.430
 7917SOL     OW24649   2.896   3.604   4.434
 7917SOL    HW124650   2.898   3.514   4.390
 7917SOL    HW224651   2.980   3.654   4.411
 7918SOL     OW24652   6.357   1.929   2.706
 7918SOL    HW124653   6.397   1.841   2.732
 7918SOL    HW224654   6.430   1.998   2.698
 7919SOL     OW24655   5.738   5.283   1.818
 7919SOL    HW124656   5.647   5.243   1.830
 7919SOL    HW224657   5.765   5.278   1.722
 7920SOL     OW24658   0.741   5.747   1.822
 7920SOL    HW124659   0.786   5.772   1.908
 7920SOL    HW224660   0.643   5.765   1.830
 7921SOL     OW24661   3.459   6.843   1.883
 7921SOL    HW124662   3.414   6.837   1.972
 7921SOL    HW224663   3.552   6.807   1.890
 7922SOL     OW24664   0.732   4.692   6.751
 7922SOL    HW124665   0.685   4.777   6.777
 7922SOL    HW224666   0.742   4.689   6.652
 7923SOL     OW24667   1.464   1.682   2.540
 7923SOL    HW124668   1.482   1.590   2.575
 7923SOL    HW224669   1.420   1.675   2.451
 7924SOL     OW24670   2.206   0.276   4.216
 7924SOL    HW124671   2.216   0.277   4.315
 7924SOL    HW224672   2.294   0.295   4.173
 7925SOL     OW24673   0.077   0.673   6.718
 7925SOL    HW124674   0.156   0.718   6.676
 7925SOL    HW224675   0.106   0.588   6.761
 7926SOL     OW24676   3.114   0.296   1.568
 7926SOL    HW124677   3.022   0.280   1.605
 7926SOL    HW224678   3.120   0.255   1.477
 7927SOL     OW24679   4.691   4.707   4.648
 7927SOL    HW124680   4.744   4.632   4.687
 7927SOL    HW224681   4.745   4.752   4.577
 7928SOL     OW24682   1.260   5.333   1.238
 7928SOL    HW124683   1.308   5.247   1.260
 7928SOL    HW224684   1.257   5.391   1.319
 7929SOL     OW24685   3.665   4.023   3.869
 7929SOL    HW124686   3.638   4.077   3.789
 7929SOL    HW224687   3.683   3.928   3.841
 7930SOL     OW24688   5.311   6.119   4.442
 7930SOL    HW124689   5.357   6.208   4.442
 7930SOL    HW224690   5.380   6.047   4.453
 7931SOL     OW24691   1.790   2.768   0.756
 7931SOL    HW124692   1.781   2.850   0.812
 7931SOL    HW224693   1.702   2.720   0.753
 7932SOL     OW24694   3.040   0.111   1.027
 7932SOL    HW124695   2.969   0.044   1.007
 7932SOL    HW224696   3.082   0.091   1.116
 7933SOL     OW24697   1.289   0.596   0.210
 7933SOL    HW124698   1.257   0.518   0.263
 7933SOL    HW224699   1.377   0.627   0.246
 7934SOL     OW24700   3.164   3.506   5.773
 7934SOL    HW124701   3.199   3.573   5.838
 7934SOL    HW224702   3.224   3.502   5.693
 7935SOL     OW24703   4.328   6.254   1.243
 7935SOL    HW124704   4.302   6.224   1.335
 7935SOL    HW224705   4.254   6.310   1.205
 7936SOL     OW24706   4.474   5.814   2.960
 7936SOL    HW124707   4.573   5.817   2.976
 7936SOL    HW224708   4.446   5.896   2.909
 7937SOL     OW24709   6.112   6.384   5.819
 7937SOL    HW124710   6.043   6.360   5.887
 7937SOL    HW224711   6.176   6.450   5.858
 7938SOL     OW24712   5.640   4.616   4.557
 7938SOL    HW124713   5.625   4.715   4.553
 7938SOL    HW224714   5.608   4.574   4.472
 7939SOL     OW24715   1.010   0.439   4.824
 7939SOL    HW124716   0.927   0.486   4.856
 7939SOL    HW224717   1.020   0.451   4.726
 7940SOL     OW24718   1.787   6.022   0.941
 7940SOL    HW124719   1.762   6.045   0.847
 7940SOL    HW224720   1.879   5.984   0.943
 7941SOL     OW24721   0.216   0.339   0.293
 7941SOL    HW124722   0.231   0.400   0.215
 7941SOL    HW224723   0.214   0.244   0.262
 7942SOL     OW24724   1.056   0.938   1.188
 7942SOL    HW124725   1.075   1.018   1.132
 7942SOL    HW224726   1.015   0.966   1.275
 7943SOL     OW24727   5.355   2.023   1.029
 7943SOL    HW124728   5.424   2.069   1.084
 7943SOL    HW224729   5.398   1.952   0.973
 7944SOL     OW24730   0.913   4.319   2.050
 7944SOL    HW124731   0.944   4.251   2.116
 7944SOL    HW224732   0.843   4.377   2.092
 7945SOL     OW24733   5.410   6.494   1.801
 7945SOL    HW124734   5.363   6.415   1.841
 7945SOL    HW224735   5.483   6.524   1.863
 7946SOL     OW24736   1.633   1.899   5.633
 7946SOL    HW124737   1.541   1.872   5.661
 7946SOL    HW224738   1.645   1.882   5.535
 7947SOL     OW24739   3.750   3.891   6.487
 7947SOL    HW124740   3.726   3.867   6.393
 7947SOL    HW224741   3.766   3.990   6.493
 7948SOL     OW24742   0.773   5.888   0.197
 7948SOL    HW124743   0.780   5.951   0.120
 7948SOL    HW224744   0.686   5.840   0.193
 7949SOL     OW24745   5.846   4.647   4.079
 7949SOL    HW124746   5.817   4.727   4.132
 7949SOL    HW224747   5.937   4.618   4.108
 7950SOL     OW24748   3.309   5.447   4.461
 7950SOL    HW124749   3.373   5.440   4.537
 7950SOL    HW224750   3.234   5.381   4.473
 7951SOL     OW24751   2.699   2.830   1.383
 7951SOL    HW124752   2.717   2.922   1.417
 7951SOL    HW224753   2.609   2.827   1.339
 7952SOL     OW24754   5.118   3.936   0.324
 7952SOL    HW124755   5.128   3.837   0.320
 7952SOL    HW224756   5.208   3.979   0.333
 7953SOL     OW24757   2.181   3.084   2.564
 7953SOL    HW124758   2.130   3.119   2.643
 7953SOL    HW224759   2.226   2.999   2.589
 7954SOL     OW24760   5.271   5.534   5.259
 7954SOL    HW124761   5.218   5.454   5.285
 7954SOL    HW224762   5.320   5.516   5.174
 7955SOL     OW24763   0.933   6.476   5.635
 7955SOL    HW124764   0.879   6.534   5.696
 7955SOL    HW224765   1.010   6.437   5.686
 7956SOL     OW24766   5.806   0.104   3.513
 7956SOL    HW124767   5.903   0.120   3.498
 7956SOL    HW224768   5.788   0.098   3.611
 7957SOL     OW24769   0.979   2.750   0.958
 7957SOL    HW124770   1.022   2.727   1.045
 7957SOL    HW224771   0.891   2.794   0.974
 7958SOL     OW24772   2.270   5.679   2.596
 7958SOL    HW124773   2.328   5.613   2.644
 7958SOL    HW224774   2.324   5.727   2.527
 7959SOL     OW24775   5.446   4.957   0.900
 7959SOL    HW124776   5.478   5.026   0.965
 7959SOL    HW224777   5.403   4.882   0.949
 7960SOL     OW24778   2.452   2.168   1.060
 7960SOL    HW124779   2.431   2.163   0.963
 7960SOL    HW224780   2.548   2.144   1.075
 7961SOL     OW24781   1.886   5.307   6.807
 7961SOL    HW124782   1.896   5.295   6.708
 7961SOL    HW224783   1.928   5.229   6.854
 7962SOL     OW24784   1.384   0.494   2.318
 7962SOL    HW124785   1.428   0.512   2.230
 7962SOL    HW224786   1.362   0.397   2.325
 7963SOL     OW24787   0.523   0.600   5.044
 7963SOL    HW124788   0.446   0.565   5.097
 7963SOL    HW224789   0.576   0.664   5.100
 7964SOL     OW24790   6.405   5.889   3.272
 7964SOL    HW124791   6.478   5.913   3.208
 7964SOL    HW224792   6.424   5.932   3.361
 7965SOL     OW24793   5.668   2.079   0.448
 7965SOL    HW124794   5.710   2.040   0.366
 7965SOL    HW224795   5.570   2.087   0.434
 7966SOL     OW24796   0.204   4.769   3.878
 7966SOL    HW124797   0.216   4.868   3.867
 7966SOL    HW224798   0.129   4.738   3.820
 7967SOL     OW24799   2.922   5.928   2.803
 7967SOL    HW124800   2.857   5.886   2.866
 7967SOL    HW224801   2.956   6.014   2.841
 7968SOL     OW24802   1.823   1.301   1.664
 7968SOL    HW124803   1.861   1.390   1.688
 7968SOL    HW224804   1.724   1.311   1.648
 7969SOL     OW24805   3.465   2.093   3.185
 7969SOL    HW124806   3.469   2.181   3.232
 7969SOL    HW224807   3.431   2.105   3.092
 7970SOL     OW24808   0.613   4.486   3.281
 7970SOL    HW124809   0.692   4.427   3.267
 7970SOL    HW224810   0.627   4.573   3.232
 7971SOL     OW24811   2.654   1.174   1.593
 7971SOL    HW124812   2.624   1.137   1.505
 7971SOL    HW224813   2.625   1.112   1.666
 7972SOL     OW24814   0.593   4.566   2.371
 7972SOL    HW124815   0.523   4.499   2.396
 7972SOL    HW224816   0.549   4.654   2.351
 7973SOL     OW24817   4.478   2.335   2.831
 7973SOL    HW124818   4.558   2.380   2.870
 7973SOL    HW224819   4.477   2.239   2.857
 7974SOL     OW24820   5.408   0.493   4.205
 7974SOL    HW124821   5.330   0.542   4.242
 7974SOL    HW224822   5.474   0.475   4.278
 7975SOL     OW24823   2.908   1.300   3.862
 7975SOL    HW124824   2.857   1.284   3.777
 7975SOL    HW224825   2.845   1.305   3.939
 7976SOL     OW24826   0.615   5.423   6.664
 7976SOL    HW124827   0.615   5.398   6.567
 7976SOL    HW224828   0.558   5.358   6.714
 7977SOL     OW24829   5.134   6.092   1.446
 7977SOL    HW124830   5.160   5.997   1.430
 7977SOL    HW224831   5.051   6.113   1.394
 7978SOL     OW24832   4.535   2.537   5.670
 7978SOL    HW124833   4.515   2.490   5.584
 7978SOL    HW224834   4.557   2.632   5.651
 7979SOL     OW24835   3.744   6.786   4.280
 7979SOL    HW124836   3.724   6.769   4.376
 7979SOL    HW224837   3.835   6.824   4.271
 7980SOL     OW24838   3.238   6.383   1.914
 7980SOL    HW124839   3.183   6.302   1.935
 7980SOL    HW224840   3.263   6.381   1.817
 7981SOL     OW24841   1.173   5.369   3.156
 7981SOL    HW124842   1.190   5.286   3.103
 7981SOL    HW224843   1.101   5.351   3.223
 7982SOL     OW24844   5.983   2.900   0.548
 7982SOL    HW124845   6.066   2.922   0.497
 7982SOL    HW224846   5.994   2.926   0.644
 7983SOL     OW24847   5.072   2.550   2.212
 7983SOL    HW124848   5.005   2.512   2.147
 7983SOL    HW224849   5.142   2.481   2.231
 7984SOL     OW24850   0.469   1.073   1.065
 7984SOL    HW124851   0.489   0.976   1.071
 7984SOL    HW224852   0.434   1.106   1.152
 7985SOL     OW24853   0.391   1.435   2.040
 7985SOL    HW124854   0.436   1.517   2.004
 7985SOL    HW224855   0.321   1.404   1.977
 7986SOL     OW24856   3.839   1.608   0.706
 7986SOL    HW124857   3.783   1.538   0.663
 7986SOL    HW224858   3.808   1.623   0.800
 7987SOL     OW24859   0.480   3.288   4.665
 7987SOL    HW124860   0.424   3.370   4.661
 7987SOL    HW224861   0.426   3.212   4.699
 7988SOL     OW24862   2.911   1.407   5.625
 7988SOL    HW124863   2.824   1.433   5.667
 7988SOL    HW224864   2.895   1.333   5.560
 7989SOL     OW24865   2.864   2.669   5.383
 7989SOL    HW124866   2.777   2.690   5.428
 7989SOL    HW224867   2.860   2.578   5.342
 7990SOL     OW24868   1.693   2.353   4.662
 7990SOL    HW124869   1.771   2.312   4.709
 7990SOL    HW224870   1.707   2.451   4.652
 7991SOL     OW24871   0.964   3.183   5.811
 7991SOL    HW124872   0.966   3.083   5.811
 7991SOL    HW224873   0.965   3.217   5.717
 7992SOL     OW24874   2.475   0.902   0.693
 7992SOL    HW124875   2.531   0.925   0.613
 7992SOL    HW224876   2.504   0.813   0.729
 7993SOL     OW24877   1.962   0.046   6.640
 7993SOL    HW124878   1.921   0.038   6.731
 7993SOL    HW224879   1.928   6.996   6.582
 7994SOL     OW24880   5.506   0.789   3.602
 7994SOL    HW124881   5.432   0.756   3.660
 7994SOL    HW224882   5.569   0.844   3.657
 7995SOL     OW24883   3.365   5.146   3.407
 7995SOL    HW124884   3.461   5.172   3.392
 7995SOL    HW224885   3.361   5.053   3.443
 7996SOL     OW24886   3.689   0.169   5.084
 7996SOL    HW124887   3.687   0.071   5.065
 7996SOL    HW224888   3.742   0.215   5.013
 7997SOL     OW24889   5.613   2.613   1.514
 7997SOL    HW124890   5.572   2.527   1.485
 7997SOL    HW224891   5.553   2.689   1.490
 7998SOL     OW24892   6.161   4.897   6.880
 7998SOL    HW124893   6.163   4.904   6.980
 7998SOL    HW224894   6.100   4.967   6.843
 7999SOL     OW24895   1.637   0.506   5.474
 7999SOL    HW124896   1.589   0.493   5.560
 7999SOL    HW224897   1.716   0.566   5.488
 8000SOL     OW24898   6.274   6.743   5.788
 8000SOL    HW124899   6.293   6.657   5.741
 8000SOL    HW224900   6.197   6.730   5.851
 8001SOL     OW24901   2.488   6.798   1.220
 8001SOL    HW124902   2.436   6.819   1.303
 8001SOL    HW224903   2.446   6.843   1.142
 8002SOL     OW24904   5.738   3.085   5.383
 8002SOL    HW124905   5.768   2.993   5.358
 8002SOL    HW224906   5.711   3.134   5.300
 8003SOL     OW24907   3.693   5.204   3.389
 8003SOL    HW124908   3.718   5.280   3.328
 8003SOL    HW224909   3.721   5.226   3.482
 8004SOL     OW24910   1.795   3.955   2.734
 8004SOL    HW124911   1.792   4.052   2.711
 8004SOL    HW224912   1.777   3.901   2.652
 8005SOL     OW24913   2.909   1.180   1.377
 8005SOL    HW124914   2.939   1.275   1.389
 8005SOL    HW224915   2.900   1.160   1.279
 8006SOL     OW24916   3.467   6.029   0.395
 8006SOL    HW124917   3.473   6.065   0.302
 8006SOL    HW224918   3.416   6.094   0.452
 8007SOL     OW24919   0.525   0.868   4.502
 8007SOL    HW124920   0.515   0.929   4.580
 8007SOL    HW224921   0.621   0.847   4.488
 8008SOL     OW24922   6.527   6.481   0.833
 8008SOL    HW124923   6.556   6.509   0.742
 8008SOL    HW224924   6.537   6.557   0.897
 8009SOL     OW24925   6.779   6.644   3.777
 8009SOL    HW124926   6.867   6.644   3.826
 8009SOL    HW224927   6.752   6.550   3.757
 8010SOL     OW24928   2.202   2.793   6.587
 8010SOL    HW124929   2.123   2.739   6.557
 8010SOL    HW224930   2.248   2.746   6.662
 8011SOL     OW24931   2.616   2.375   0.618
 8011SOL    HW124932   2.608   2.308   0.544
 8011SOL    HW224933   2.575   2.462   0.589
 8012SOL     OW24934   2.871   6.888   2.504
 8012SOL    HW124935   2.956   6.940   2.496
 8012SOL    HW224936   2.866   6.846   2.594
 8013SOL     OW24937   6.043   4.407   5.358
 8013SOL    HW124938   6.137   4.409   5.393
 8013SOL    HW224939   6.031   4.328   5.298
 8014SOL     OW24940   2.162   6.935   6.934
 8014SOL    HW124941   2.069   6.964   6.910
 8014SOL    HW224942   2.222   7.015   6.936
 8015SOL     OW24943   1.858   2.734   0.176
 8015SOL    HW124944   1.845   2.663   0.245
 8015SOL    HW224945   1.800   2.813   0.197
 8016SOL     OW24946   3.563   6.413   1.554
 8016SOL    HW124947   3.619   6.366   1.486
 8016SOL    HW224948   3.562   6.511   1.533
 8017SOL     OW24949   5.954   4.491   4.384
 8017SOL    HW124950   5.913   4.566   4.437
 8017SOL    HW224951   6.010   4.529   4.310
 8018SOL     OW24952   5.639   2.215   4.980
 8018SOL    HW124953   5.684   2.232   4.892
 8018SOL    HW224954   5.546   2.182   4.965
 8019SOL     OW24955   2.718   5.828   0.788
 8019SOL    HW124956   2.702   5.850   0.885
 8019SOL    HW224957   2.644   5.769   0.755
 8020SOL     OW24958   5.631   5.646   6.799
 8020SOL    HW124959   5.700   5.714   6.775
 8020SOL    HW224960   5.540   5.687   6.794
 8021SOL     OW24961   0.946   0.700   1.163
 8021SOL    HW124962   0.982   0.794   1.166
 8021SOL    HW224963   1.003   0.641   1.220
 8022SOL     OW24964   4.712   6.041   3.046
 8022SOL    HW124965   4.722   6.110   2.973
 8022SOL    HW224966   4.750   5.954   3.015
 8023SOL     OW24967   6.489   0.192   3.132
 8023SOL    HW124968   6.547   0.238   3.199
 8023SOL    HW224969   6.407   0.157   3.178
 8024SOL     OW24970   4.630   5.162   4.968
 8024SOL    HW124971   4.672   5.106   4.896
 8024SOL    HW224972   4.602   5.104   5.044
 8025SOL     OW24973   3.627   5.404   0.189
 8025SOL    HW124974   3.643   5.466   0.112
 8025SOL    HW224975   3.661   5.446   0.273
 8026SOL     OW24976   1.104   3.128   0.282
 8026SOL    HW124977   1.131   3.224   0.275
 8026SOL    HW224978   1.184   3.073   0.308
 8027SOL     OW24979   5.150   2.807   5.548
 8027SOL    HW124980   5.149   2.718   5.593
 8027SOL    HW224981   5.079   2.810   5.477
 8028SOL     OW24982   6.067   4.640   6.841
 8028SOL    HW124983   6.093   4.734   6.864
 8028SOL    HW224984   5.971   4.639   6.813
 8029SOL     OW24985   2.919   4.217   0.945
 8029SOL    HW124986   2.821   4.234   0.934
 8029SOL    HW224987   2.934   4.119   0.958
 8030SOL     OW24988   5.926   4.014   6.644
 8030SOL    HW124989   5.940   4.057   6.732
 8030SOL    HW224990   5.846   4.055   6.599
 8031SOL     OW24991   3.488   5.664   1.530
 8031SOL    HW124992   3.468   5.604   1.453
 8031SOL    HW224993   3.585   5.690   1.528
 8032SOL     OW24994   5.099   3.893   5.886
 8032SOL    HW124995   5.037   3.866   5.813
 8032SOL    HW224996   5.189   3.915   5.848
 8033SOL     OW24997   5.731   2.886   0.207
 8033SOL    HW124998   5.751   2.811   0.144
 8033SOL    HW224999   5.715   2.849   0.299
 8034SOL     OW25000   5.891   0.797   5.739
 8034SOL    HW125001   5.917   0.827   5.831
 8034SOL    HW225002   5.937   0.854   5.671
 8035SOL     OW25003   5.464   6.524   6.824
 8035SOL    HW125004   5.408   6.448   6.793
 8035SOL    HW225005   5.411   6.609   6.820
 8036SOL     OW25006   2.107   4.362   1.715
 8036SOL    HW125007   2.182   4.321   1.664
 8036SOL    HW225008   2.085   4.305   1.795
 8037SOL     OW25009   1.323   3.011   1.572
 8037SOL    HW125010   1.411   3.025   1.617
 8037SOL    HW225011   1.325   2.926   1.519
 8038SOL     OW25012   6.842   2.263   4.572
 8038SOL    HW125013   6.816   2.243   4.478
 8038SOL    HW225014   6.775   2.224   4.635
 8039SOL     OW25015   2.667   6.585   3.668
 8039SOL    HW125016   2.756   6.600   3.710
 8039SOL    HW225017   2.633   6.670   3.629
 8040SOL     OW25018   0.045   5.774   0.892
 8040SOL    HW125019   6.987   5.826   0.916
 8040SOL    HW225020   0.040   5.683   0.932
 8041SOL     OW25021   4.665   1.845   0.841
 8041SOL    HW125022   4.724   1.883   0.770
 8041SOL    HW225023   4.575   1.823   0.802
 8042SOL     OW25024   3.229   3.193   1.578
 8042SOL    HW125025   3.138   3.192   1.538
 8042SOL    HW225026   3.236   3.119   1.645
 8043SOL     OW25027   2.675   6.899   2.093
 8043SOL    HW125028   2.625   6.858   2.017
 8043SOL    HW225029   2.702   6.828   2.157
 8044SOL     OW25030   2.963   3.763   2.016
 8044SOL    HW125031   3.059   3.737   2.005
 8044SOL    HW225032   2.910   3.684   2.046
 8045SOL     OW25033   5.827   2.580   3.219
 8045SOL    HW125034   5.736   2.622   3.225
 8045SOL    HW225035   5.883   2.609   3.296
 8046SOL     OW25036   6.682   4.873   6.087
 8046SOL    HW125037   6.759   4.820   6.053
 8046SOL    HW225038   6.622   4.814   6.141
 8047SOL     OW25039   3.542   6.069   4.050
 8047SOL    HW125040   3.612   6.139   4.037
 8047SOL    HW225041   3.470   6.080   3.982
 8048SOL     OW25042   6.903   6.922   5.933
 8048SOL    HW125043   6.861   6.930   5.843
 8048SOL    HW225044   6.998   6.892   5.924
 8049SOL     OW25045   1.152   5.454   0.872
 8049SOL    HW125046   1.220   5.524   0.893
 8049SOL    HW225047   1.197   5.364   0.871
 8050SOL     OW25048   1.650   2.609   1.020
 8050SOL    HW125049   1.607   2.531   1.067
 8050SOL    HW225050   1.623   2.609   0.924
 8051SOL     OW25051   4.404   1.272   3.733
 8051SOL    HW125052   4.427   1.321   3.817
 8051SOL    HW225053   4.326   1.318   3.688
 8052SOL     OW25054   2.465   1.666   2.924
 8052SOL    HW125055   2.497   1.661   3.019
 8052SOL    HW225056   2.515   1.599   2.869
 8053SOL     OW25057   3.950   3.577   2.279
 8053SOL    HW125058   3.885   3.624   2.339
 8053SOL    HW225059   3.899   3.526   2.209
 8054SOL     OW25060   4.187   6.360   4.646
 8054SOL    HW125061   4.215   6.285   4.706
 8054SOL    HW225062   4.087   6.371   4.650
 8055SOL     OW25063   1.558   7.004   5.739
 8055SOL    HW125064   1.621   0.019   5.672
 8055SOL    HW225065   1.496   0.050   5.772
 8056SOL     OW25066   4.390   2.111   3.157
 8056SOL    HW125067   4.433   2.084   3.071
 8056SOL    HW225068   4.307   2.056   3.171
 8057SOL     OW25069   3.483   6.749   3.550
 8057SOL    HW125070   3.558   6.794   3.598
 8057SOL    HW225071   3.520   6.685   3.483
 8058SOL     OW25072   2.175   1.288   3.381
 8058SOL    HW125073   2.095   1.229   3.392
 8058SOL    HW225074   2.164   1.345   3.300
 8059SOL     OW25075   3.243   1.602   3.711
 8059SOL    HW125076   3.161   1.591   3.767
 8059SOL    HW225077   3.305   1.525   3.727
 8060SOL     OW25078   0.286   1.427   4.661
 8060SOL    HW125079   0.359   1.397   4.723
 8060SOL    HW225080   0.235   1.501   4.703
 8061SOL     OW25081   0.517   5.585   1.945
 8061SOL    HW125082   0.527   5.503   2.001
 8061SOL    HW225083   0.487   5.662   2.002
 8062SOL     OW25084   1.650   3.822   3.187
 8062SOL    HW125085   1.587   3.793   3.259
 8062SOL    HW225086   1.714   3.748   3.166
 8063SOL     OW25087   3.298   2.895   0.165
 8063SOL    HW125088   3.320   2.993   0.166
 8063SOL    HW225089   3.218   2.879   0.107
 8064SOL     OW25090   0.049   3.624   6.878
 8064SOL    HW125091   0.028   3.537   6.924
 8064SOL    HW225092   0.048   3.610   6.779
 8065SOL     OW25093   4.848   0.297   5.405
 8065SOL    HW125094   4.913   0.306   5.330
 8065SOL    HW225095   4.810   0.205   5.407
 8066SOL     OW25096   1.709   0.513   1.412
 8066SOL    HW125097   1.766   0.546   1.488
 8066SOL    HW225098   1.626   0.567   1.407
 8067SOL     OW25099   5.271   2.533   1.561
 8067SOL    HW125100   5.212   2.610   1.583
 8067SOL    HW225101   5.362   2.566   1.536
 8068SOL     OW25102   0.860   4.125   4.564
 8068SOL    HW125103   0.792   4.086   4.626
 8068SOL    HW225104   0.830   4.215   4.532
 8069SOL     OW25105   1.860   6.419   1.781
 8069SOL    HW125106   1.938   6.372   1.823
 8069SOL    HW225107   1.883   6.515   1.767
 8070SOL     OW25108   3.790   0.617   1.426
 8070SOL    HW125109   3.805   0.617   1.327
 8070SOL    HW225110   3.846   0.547   1.468
 8071SOL     OW25111   3.953   6.570   7.019
 8071SOL    HW125112   3.881   6.514   6.976
 8071SOL    HW225113   3.948   6.560   0.094
 8072SOL     OW25114   5.245   0.887   1.215
 8072SOL    HW125115   5.256   0.915   1.119
 8072SOL    HW225116   5.276   0.961   1.275
 8073SOL     OW25117   4.154   6.229   6.062
 8073SOL    HW125118   4.163   6.190   5.970
 8073SOL    HW225119   4.232   6.288   6.081
 8074SOL     OW25120   3.242   3.748   0.130
 8074SOL    HW125121   3.148   3.778   0.112
 8074SOL    HW225122   3.246   3.701   0.217
 8075SOL     OW25123   6.782   1.858   2.571
 8075SOL    HW125124   6.800   1.951   2.540
 8075SOL    HW225125   6.831   1.793   2.512
 8076SOL     OW25126   6.148   2.998   5.883
 8076SOL    HW125127   6.195   2.968   5.800
 8076SOL    HW225128   6.089   3.076   5.861
 8077SOL     OW25129   1.561   0.540   0.822
 8077SOL    HW125130   1.521   0.631   0.837
 8077SOL    HW225131   1.660   0.544   0.837
 8078SOL     OW25132   6.391   3.561   0.691
 8078SOL    HW125133   6.312   3.525   0.741
 8078SOL    HW225134   6.427   3.490   0.630
 8079SOL     OW25135   0.017   1.786   2.213
 8079SOL    HW125136   7.023   1.825   2.304
 8079SOL    HW225137   0.102   1.734   2.216
 8080SOL     OW25138   3.456   4.866   0.155
 8080SOL    HW125139   3.466   4.867   0.055
 8080SOL    HW225140   3.481   4.775   0.190
 8081SOL     OW25141   5.869   0.540   5.661
 8081SOL    HW125142   5.870   0.634   5.695
 8081SOL    HW225143   5.899   0.478   5.733
 8082SOL     OW25144   6.872   3.218   3.796
 8082SOL    HW125145   6.805   3.284   3.762
 8082SOL    HW225146   6.829   3.128   3.802
 8083SOL     OW25147   4.527   2.515   3.850
 8083SOL    HW125148   4.559   2.610   3.853
 8083SOL    HW225149   4.595   2.459   3.802
 8084SOL     OW25150   6.652   0.066   0.878
 8084SOL    HW125151   6.681   0.107   0.791
 8084SOL    HW225152   6.656   0.135   0.950
 8085SOL     OW25153   5.663   1.497   1.299
 8085SOL    HW125154   5.751   1.529   1.335
 8085SOL    HW225155   5.678   1.429   1.227
 8086SOL     OW25156   3.622   0.052   5.510
 8086SOL    HW125157   3.624   0.137   5.563
 8086SOL    HW225158   3.528   0.020   5.502
 8087SOL     OW25159   3.336   2.800   1.601
 8087SOL    HW125160   3.284   2.833   1.521
 8087SOL    HW225161   3.326   2.700   1.606
 8088SOL     OW25162   3.773   1.119   3.188
 8088SOL    HW125163   3.782   1.128   3.287
 8088SOL    HW225164   3.679   1.140   3.161
 8089SOL     OW25165   5.670   3.160   0.231
 8089SOL    HW125166   5.595   3.191   0.172
 8089SOL    HW225167   5.682   3.062   0.222
 8090SOL     OW25168   4.961   2.375   5.014
 8090SOL    HW125169   4.981   2.278   5.000
 8090SOL    HW225170   4.864   2.387   5.036
 8091SOL     OW25171   3.468   5.118   6.065
 8091SOL    HW125172   3.429   5.025   6.060
 8091SOL    HW225173   3.438   5.162   6.149
 8092SOL     OW25174   1.328   1.790   4.154
 8092SOL    HW125175   1.347   1.713   4.093
 8092SOL    HW225176   1.233   1.785   4.185
 8093SOL     OW25177   5.630   5.827   1.119
 8093SOL    HW125178   5.587   5.797   1.204
 8093SOL    HW225179   5.580   5.790   1.041
 8094SOL     OW25180   0.677   3.243   5.421
 8094SOL    HW125181   0.619   3.286   5.351
 8094SOL    HW225182   0.772   3.272   5.406
 8095SOL     OW25183   5.682   3.685   4.343
 8095SOL    HW125184   5.652   3.743   4.267
 8095SOL    HW225185   5.694   3.742   4.425
 8096SOL     OW25186   3.760   5.692   1.477
 8096SOL    HW125187   3.780   5.632   1.400
 8096SOL    HW225188   3.763   5.788   1.447
 8097SOL     OW25189   5.078   1.487   4.223
 8097SOL    HW125190   4.994   1.442   4.193
 8097SOL    HW225191   5.054   1.563   4.284
 8098SOL     OW25192   2.832   6.818   3.771
 8098SOL    HW125193   2.828   6.909   3.728
 8098SOL    HW225194   2.927   6.793   3.787
 8099SOL     OW25195   5.026   6.691   4.925
 8099SOL    HW125196   5.075   6.614   4.965
 8099SOL    HW225197   5.063   6.710   4.834
 8100SOL     OW25198   0.492   6.565   0.720
 8100SOL    HW125199   0.506   6.472   0.686
 8100SOL    HW225200   0.471   6.561   0.818
 8101SOL     OW25201   1.730   6.086   3.640
 8101SOL    HW125202   1.638   6.124   3.644
 8101SOL    HW225203   1.725   5.986   3.638
 8102SOL     OW25204   0.189   5.626   6.151
 8102SOL    HW125205   0.134   5.670   6.222
 8102SOL    HW225206   0.237   5.697   6.099
 8103SOL     OW25207   2.893   1.345   2.386
 8103SOL    HW125208   2.946   1.395   2.454
 8103SOL    HW225209   2.914   1.247   2.392
 8104SOL     OW25210   2.079   6.679   6.426
 8104SOL    HW125211   1.993   6.712   6.387
 8104SOL    HW225212   2.155   6.703   6.365
 8105SOL     OW25213   1.695   1.884   2.774
 8105SOL    HW125214   1.681   1.972   2.819
 8105SOL    HW225215   1.607   1.838   2.761
 8106SOL     OW25216   0.689   4.105   4.281
 8106SOL    HW125217   0.703   4.070   4.374
 8106SOL    HW225218   0.690   4.030   4.216
 8107SOL     OW25219   1.929   6.369   6.302
 8107SOL    HW125220   1.949   6.427   6.223
 8107SOL    HW225221   1.856   6.305   6.279
 8108SOL     OW25222   1.011   2.900   4.222
 8108SOL    HW125223   0.916   2.886   4.249
 8108SOL    HW225224   1.071   2.884   4.300
 8109SOL     OW25225   1.780   5.277   5.280
 8109SOL    HW125226   1.777   5.285   5.181
 8109SOL    HW225227   1.797   5.182   5.306
 8110SOL     OW25228   2.113   4.786   1.287
 8110SOL    HW125229   2.111   4.747   1.195
 8110SOL    HW225230   2.208   4.801   1.315
 8111SOL     OW25231   2.168   5.719   4.516
 8111SOL    HW125232   2.128   5.699   4.605
 8111SOL    HW225233   2.239   5.788   4.526
 8112SOL     OW25234   3.016   1.059   4.995
 8112SOL    HW125235   3.004   0.961   4.977
 8112SOL    HW225236   3.087   1.095   4.934
 8113SOL     OW25237   4.052   2.683   5.934
 8113SOL    HW125238   4.038   2.673   5.835
 8113SOL    HW225239   4.033   2.596   5.980
 8114SOL     OW25240   2.708   3.591   1.183
 8114SOL    HW125241   2.682   3.495   1.189
 8114SOL    HW225242   2.630   3.648   1.206
 8115SOL     OW25243   3.899   1.864   1.014
 8115SOL    HW125244   3.892   1.928   1.090
 8115SOL    HW225245   3.952   1.906   0.940
 8116SOL     OW25246   6.217   0.831   5.485
 8116SOL    HW125247   6.157   0.909   5.504
 8116SOL    HW225248   6.189   0.753   5.541
 8117SOL     OW25249   2.129   1.799   5.878
 8117SOL    HW125250   2.074   1.880   5.900
 8117SOL    HW225251   2.124   1.780   5.780
 8118SOL     OW25252   0.859   3.053   4.472
 8118SOL    HW125253   0.808   3.107   4.538
 8118SOL    HW225254   0.803   2.977   4.440
 8119SOL     OW25255   1.129   6.143   2.844
 8119SOL    HW125256   1.130   6.156   2.943
 8119SOL    HW225257   1.179   6.218   2.800
 8120SOL     OW25258   4.574   3.871   1.643
 8120SOL    HW125259   4.592   3.935   1.569
 8120SOL    HW225260   4.492   3.901   1.694
 8121SOL     OW25261   6.678   0.126   2.901
 8121SOL    HW125262   6.578   0.116   2.909
 8121SOL    HW225263   6.703   0.130   2.805
 8122SOL     OW25264   6.854   6.782   1.736
 8122SOL    HW125265   6.831   6.825   1.649
 8122SOL    HW225266   6.933   6.829   1.776
 8123SOL     OW25267   0.877   5.870   0.444
 8123SOL    HW125268   0.880   5.959   0.490
 8123SOL    HW225269   0.821   5.877   0.361
 8124SOL     OW25270   0.927   5.988   2.733
 8124SOL    HW125271   0.846   5.983   2.792
 8124SOL    HW225272   0.988   6.060   2.766
 8125SOL     OW25273   5.332   5.588   2.796
 8125SOL    HW125274   5.290   5.502   2.822
 8125SOL    HW225275   5.431   5.581   2.804
 8126SOL     OW25276   5.585   5.047   2.079
 8126SOL    HW125277   5.614   5.007   1.992
 8126SOL    HW225278   5.586   4.977   2.150
 8127SOL     OW25279   3.197   4.414   0.687
 8127SOL    HW125280   3.272   4.456   0.636
 8127SOL    HW225281   3.140   4.485   0.728
 8128SOL     OW25282   3.862   2.550   5.313
 8128SOL    HW125283   3.943   2.592   5.272
 8128SOL    HW225284   3.801   2.621   5.348
 8129SOL     OW25285   4.684   6.904   6.839
 8129SOL    HW125286   4.675   6.909   6.938
 8129SOL    HW225287   4.622   6.969   6.796
 8130SOL     OW25288   1.470   6.939   0.600
 8130SOL    HW125289   1.497   0.011   0.593
 8130SOL    HW225290   1.432   6.921   0.691
 8131SOL     OW25291   1.772   1.731   0.455
 8131SOL    HW125292   1.796   1.732   0.358
 8131SOL    HW225293   1.699   1.664   0.471
 8132SOL     OW25294   6.661   5.111   3.414
 8132SOL    HW125295   6.692   5.145   3.325
 8132SOL    HW225296   6.696   5.171   3.487
 8133SOL     OW25297   1.232   5.664   2.280
 8133SOL    HW125298   1.295   5.694   2.208
 8133SOL    HW225299   1.138   5.682   2.251
 8134SOL     OW25300   2.120   2.229   2.216
 8134SOL    HW125301   2.098   2.324   2.192
 8134SOL    HW225302   2.075   2.206   2.302
 8135SOL     OW25303   4.220   5.866   1.748
 8135SOL    HW125304   4.157   5.895   1.676
 8135SOL    HW225305   4.188   5.902   1.836
 8136SOL     OW25306   3.842   5.885   1.265
 8136SOL    HW125307   3.802   5.928   1.184
 8136SOL    HW225308   3.942   5.897   1.263
 8137SOL     OW25309   2.653   3.857   5.807
 8137SOL    HW125310   2.593   3.780   5.787
 8137SOL    HW225311   2.726   3.861   5.740
 8138SOL     OW25312   4.738   0.996   3.451
 8138SOL    HW125313   4.651   0.965   3.412
 8138SOL    HW225314   4.723   1.083   3.499
 8139SOL     OW25315   1.725   2.708   4.043
 8139SOL    HW125316   1.725   2.751   3.953
 8139SOL    HW225317   1.819   2.680   4.067
 8140SOL     OW25318   4.218   0.562   0.727
 8140SOL    HW125319   4.248   0.649   0.687
 8140SOL    HW225320   4.153   0.580   0.801
 8141SOL     OW25321   5.172   0.733   5.124
 8141SOL    HW125322   5.269   0.734   5.148
 8141SOL    HW225323   5.139   0.827   5.117
 8142SOL     OW25324   2.224   5.802   1.232
 8142SOL    HW125325   2.241   5.736   1.305
 8142SOL    HW225326   2.230   5.895   1.268
 8143SOL     OW25327   6.366   5.339   1.009
 8143SOL    HW125328   6.308   5.313   0.931
 8143SOL    HW225329   6.460   5.308   0.993
 8144SOL     OW25330   0.263   4.933   0.189
 8144SOL    HW125331   0.251   4.858   0.124
 8144SOL    HW225332   0.175   4.956   0.230
 8145SOL     OW25333   5.720   5.271   0.048
 8145SOL    HW125334   5.772   5.260   6.988
 8145SOL    HW225335   5.661   5.352   0.040
 8146SOL     OW25336   6.136   0.280   3.893
 8146SOL    HW125337   6.183   0.355   3.940
 8146SOL    HW225338   6.203   0.215   3.859
 8147SOL     OW25339   2.055   0.977   6.438
 8147SOL    HW125340   1.974   1.035   6.443
 8147SOL    HW225341   2.119   1.015   6.372
 8148SOL     OW25342   4.652   4.958   0.375
 8148SOL    HW125343   4.566   5.002   0.402
 8148SOL    HW225344   4.725   4.986   0.438
 8149SOL     OW25345   0.624   6.092   5.244
 8149SOL    HW125346   0.576   6.156   5.184
 8149SOL    HW225347   0.718   6.081   5.212
 8150SOL     OW25348   0.433   3.635   1.237
 8150SOL    HW125349   0.518   3.625   1.184
 8150SOL    HW225350   0.442   3.587   1.324
 8151SOL     OW25351   6.759   6.006   2.847
 8151SOL    HW125352   6.814   6.090   2.847
 8151SOL    HW225353   6.799   5.941   2.783
 8152SOL     OW25354   4.872   1.281   3.144
 8152SOL    HW125355   4.829   1.366   3.115
 8152SOL    HW225356   4.814   1.204   3.119
 8153SOL     OW25357   0.137   1.487   2.167
 8153SOL    HW125358   0.232   1.495   2.137
 8153SOL    HW225359   0.078   1.539   2.105
 8154SOL     OW25360   1.568   0.342   2.838
 8154SOL    HW125361   1.508   0.269   2.808
 8154SOL    HW225362   1.661   0.324   2.807
 8155SOL     OW25363   2.001   5.505   3.509
 8155SOL    HW125364   1.901   5.513   3.505
 8155SOL    HW225365   2.025   5.419   3.555
 8156SOL     OW25366   0.200   5.436   1.770
 8156SOL    HW125367   0.101   5.425   1.759
 8156SOL    HW225368   0.233   5.373   1.840
 8157SOL     OW25369   0.313   3.503   4.619
 8157SOL    HW125370   0.246   3.432   4.640
 8157SOL    HW225371   0.300   3.533   4.524
 8158SOL     OW25372   6.123   5.156   6.820
 8158SOL    HW125373   6.155   5.150   6.915
 8158SOL    HW225374   6.202   5.172   6.760
 8159SOL     OW25375   3.430   6.757   5.448
 8159SOL    HW125376   3.447   6.831   5.383
 8159SOL    HW225377   3.368   6.690   5.408
 8160SOL     OW25378   5.069   1.315   2.858
 8160SOL    HW125379   5.096   1.294   2.952
 8160SOL    HW225380   5.098   1.242   2.797
 8161SOL     OW25381   5.675   3.158   1.469
 8161SOL    HW125382   5.708   3.202   1.552
 8161SOL    HW225383   5.690   3.060   1.475
 8162SOL     OW25384   0.379   5.403   5.910
 8162SOL    HW125385   0.390   5.479   5.846
 8162SOL    HW225386   0.335   5.436   5.994
 8163SOL     OW25387   4.612   4.321   5.226
 8163SOL    HW125388   4.686   4.347   5.288
 8163SOL    HW225389   4.553   4.254   5.270
 8164SOL     OW25390   5.101   1.570   1.362
 8164SOL    HW125391   5.067   1.477   1.375
 8164SOL    HW225392   5.196   1.567   1.332
 8165SOL     OW25393   0.128   1.111   0.689
 8165SOL    HW125394   0.142   1.012   0.695
 8165SOL    HW225395   0.130   1.151   0.781
 8166SOL     OW25396   1.745   1.243   5.631
 8166SOL    HW125397   1.702   1.156   5.653
 8166SOL    HW225398   1.693   1.318   5.673
 8167SOL     OW25399   1.317   2.862   4.324
 8167SOL    HW125400   1.391   2.925   4.348
 8167SOL    HW225401   1.239   2.878   4.383
 8168SOL     OW25402   2.503   0.939   2.182
 8168SOL    HW125403   2.488   0.883   2.263
 8168SOL    HW225404   2.416   0.972   2.147
 8169SOL     OW25405   5.051   2.618   0.351
 8169SOL    HW125406   5.060   2.716   0.338
 8169SOL    HW225407   5.061   2.571   0.264
 8170SOL     OW25408   6.518   5.206   2.513
 8170SOL    HW125409   6.577   5.202   2.593
 8170SOL    HW225410   6.541   5.132   2.451
 8171SOL     OW25411   2.010   0.884   0.937
 8171SOL    HW125412   2.041   0.849   0.848
 8171SOL    HW225413   1.912   0.904   0.932
 8172SOL     OW25414   0.951   2.545   0.611
 8172SOL    HW125415   0.987   2.515   0.699
 8172SOL    HW225416   0.883   2.479   0.578
 8173SOL     OW25417   5.919   1.264   1.623
 8173SOL    HW125418   5.990   1.295   1.561
 8173SOL    HW225419   5.868   1.189   1.581
 8174SOL     OW25420   2.696   4.802   3.458
 8174SOL    HW125421   2.663   4.815   3.365
 8174SOL    HW225422   2.743   4.885   3.489
 8175SOL     OW25423   0.326   1.450   5.295
 8175SOL    HW125424   0.304   1.385   5.369
 8175SOL    HW225425   0.330   1.542   5.333
 8176SOL     OW25426   2.383   4.251   0.632
 8176SOL    HW125427   2.329   4.234   0.550
 8176SOL    HW225428   2.323   4.255   0.712
 8177SOL     OW25429   3.235   0.992   3.520
 8177SOL    HW125430   3.330   1.002   3.489
 8177SOL    HW225431   3.234   0.946   3.609
 8178SOL     OW25432   2.598   6.549   1.754
 8178SOL    HW125433   2.625   6.544   1.657
 8178SOL    HW225434   2.533   6.476   1.774
 8179SOL     OW25435   5.555   1.164   3.147
 8179SOL    HW125436   5.515   1.084   3.192
 8179SOL    HW225437   5.646   1.182   3.184
 8180SOL     OW25438   5.241   6.464   0.112
 8180SOL    HW125439   5.160   6.521   0.122
 8180SOL    HW225440   5.319   6.509   0.155
 8181SOL     OW25441   0.477   0.460   0.501
 8181SOL    HW125442   0.454   0.542   0.449
 8181SOL    HW225443   0.435   0.464   0.592
 8182SOL     OW25444   3.014   3.527   4.663
 8182SOL    HW125445   3.032   3.434   4.630
 8182SOL    HW225446   2.968   3.580   4.592
 8183SOL     OW25447   0.370   0.197   4.889
 8183SOL    HW125448   0.329   0.211   4.799
 8183SOL    HW225449   0.428   0.116   4.887
 8184SOL     OW25450   0.466   6.235   6.693
 8184SOL    HW125451   0.520   6.159   6.657
 8184SOL    HW225452   0.370   6.207   6.703
 8185SOL     OW25453   0.303   5.991   6.501
 8185SOL    HW125454   0.369   5.989   6.576
 8185SOL    HW225455   0.350   6.021   6.418
 8186SOL     OW25456   1.769   5.601   6.812
 8186SOL    HW125457   1.812   5.680   6.854
 8186SOL    HW225458   1.781   5.605   6.713
 8187SOL     OW25459   0.683   0.601   5.556
 8187SOL    HW125460   0.717   0.669   5.622
 8187SOL    HW225461   0.724   0.618   5.467
 8188SOL     OW25462   2.096   3.128   3.432
 8188SOL    HW125463   2.127   3.222   3.415
 8188SOL    HW225464   2.173   3.065   3.421
 8189SOL     OW25465   5.521   5.723   3.654
 8189SOL    HW125466   5.605   5.674   3.677
 8189SOL    HW225467   5.442   5.672   3.688
 8190SOL     OW25468   6.591   3.756   2.990
 8190SOL    HW125469   6.686   3.778   2.965
 8190SOL    HW225470   6.577   3.777   3.087
 8191SOL     OW25471   3.536   5.659   0.710
 8191SOL    HW125472   3.436   5.657   0.717
 8191SOL    HW225473   3.572   5.567   0.724
 8192SOL     OW25474   0.382   4.726   3.557
 8192SOL    HW125475   0.336   4.653   3.507
 8192SOL    HW225476   0.398   4.696   3.652
 8193SOL     OW25477   0.267   4.379   4.652
 8193SOL    HW125478   0.209   4.455   4.625
 8193SOL    HW225479   0.298   4.329   4.571
 8194SOL     OW25480   4.629   6.392   1.591
 8194SOL    HW125481   4.619   6.488   1.563
 8194SOL    HW225482   4.591   6.333   1.521
 8195SOL     OW25483   6.082   6.580   3.046
 8195SOL    HW125484   6.112   6.580   2.951
 8195SOL    HW225485   6.037   6.494   3.067
 8196SOL     OW25486   4.754   0.855   0.837
 8196SOL    HW125487   4.775   0.892   0.927
 8196SOL    HW225488   4.808   0.773   0.820
 8197SOL     OW25489   3.698   1.497   2.530
 8197SOL    HW125490   3.712   1.493   2.629
 8197SOL    HW225491   3.776   1.543   2.488
 8198SOL     OW25492   1.360   0.234   2.329
 8198SOL    HW125493   1.428   0.162   2.339
 8198SOL    HW225494   1.299   0.212   2.253
 8199SOL     OW25495   5.662   2.878   6.535
 8199SOL    HW125496   5.701   2.968   6.520
 8199SOL    HW225497   5.562   2.885   6.540
 8200SOL     OW25498   4.500   3.198   0.653
 8200SOL    HW125499   4.452   3.238   0.575
 8200SOL    HW225500   4.436   3.188   0.730
 8201SOL     OW25501   6.547   6.712   5.519
 8201SOL    HW125502   6.478   6.710   5.447
 8201SOL    HW225503   6.531   6.637   5.583
 8202SOL     OW25504   0.667   6.852   1.951
 8202SOL    HW125505   0.587   6.849   2.012
 8202SOL    HW225506   0.738   6.907   1.994
 8203SOL     OW25507   1.133   3.405   1.682
 8203SOL    HW125508   1.226   3.416   1.718
 8203SOL    HW225509   1.121   3.466   1.603
 8204SOL     OW25510   3.138   2.950   1.101
 8204SOL    HW125511   3.123   2.857   1.137
 8204SOL    HW225512   3.085   3.015   1.156
 8205SOL     OW25513   1.114   3.695   0.587
 8205SOL    HW125514   1.201   3.710   0.634
 8205SOL    HW225515   1.123   3.722   0.491
 8206SOL     OW25516   3.770   0.418   0.338
 8206SOL    HW125517   3.828   0.346   0.299
 8206SOL    HW225518   3.769   0.410   0.437
 8207SOL     OW25519   4.117   3.285   4.710
 8207SOL    HW125520   4.202   3.261   4.663
 8207SOL    HW225521   4.090   3.378   4.685
 8208SOL     OW25522   2.507   0.536   0.636
 8208SOL    HW125523   2.547   0.445   0.624
 8208SOL    HW225524   2.558   0.586   0.706
 8209SOL     OW25525   6.030   1.013   5.269
 8209SOL    HW125526   6.017   1.112   5.277
 8209SOL    HW225527   6.092   0.993   5.193
 8210SOL     OW25528   1.657   2.758   6.891
 8210SOL    HW125529   1.588   2.689   6.870
 8210SOL    HW225530   1.611   2.841   6.924
 8211SOL     OW25531   2.939   4.749   1.470
 8211SOL    HW125532   2.951   4.843   1.438
 8211SOL    HW225533   3.026   4.715   1.506
 8212SOL     OW25534   1.460   2.836   3.796
 8212SOL    HW125535   1.557   2.859   3.789
 8212SOL    HW225536   1.437   2.817   3.891
 8213SOL     OW25537   0.025   5.348   1.401
 8213SOL    HW125538   0.105   5.407   1.409
 8213SOL    HW225539   7.017   5.349   1.306
 8214SOL     OW25540   5.456   4.332   3.322
 8214SOL    HW125541   5.455   4.269   3.399
 8214SOL    HW225542   5.544   4.380   3.319
 8215SOL     OW25543   3.568   5.679   4.174
 8215SOL    HW125544   3.564   5.743   4.096
 8215SOL    HW225545   3.551   5.730   4.259
 8216SOL     OW25546   5.373   4.185   3.516
 8216SOL    HW125547   5.344   4.105   3.568
 8216SOL    HW225548   5.350   4.268   3.568
 8217SOL     OW25549   2.282   6.121   0.146
 8217SOL    HW125550   2.245   6.082   0.230
 8217SOL    HW225551   2.214   6.114   0.073
 8218SOL     OW25552   0.410   1.546   0.203
 8218SOL    HW125553   0.441   1.486   0.276
 8218SOL    HW225554   0.384   1.492   0.123
 8219SOL     OW25555   6.507   2.272   6.843
 8219SOL    HW125556   6.515   2.212   6.923
 8219SOL    HW225557   6.561   2.235   6.768
 8220SOL     OW25558   3.505   3.592   2.428
 8220SOL    HW125559   3.478   3.563   2.521
 8220SOL    HW225560   3.427   3.634   2.383
 8221SOL     OW25561   5.222   5.696   3.485
 8221SOL    HW125562   5.307   5.720   3.437
 8221SOL    HW225563   5.240   5.623   3.551
 8222SOL     OW25564   5.473   1.545   1.662
 8222SOL    HW125565   5.554   1.549   1.605
 8222SOL    HW225566   5.423   1.460   1.644
 8223SOL     OW25567   0.410   4.550   6.073
 8223SOL    HW125568   0.425   4.542   5.974
 8223SOL    HW225569   0.323   4.596   6.089
 8224SOL     OW25570   1.033   2.764   3.992
 8224SOL    HW125571   1.018   2.808   4.080
 8224SOL    HW225572   1.008   2.668   3.998
 8225SOL     OW25573   4.775   1.225   0.212
 8225SOL    HW125574   4.851   1.223   0.277
 8225SOL    HW225575   4.797   1.170   0.131
 8226SOL     OW25576   5.192   0.371   0.840
 8226SOL    HW125577   5.215   0.460   0.802
 8226SOL    HW225578   5.145   0.316   0.771
 8227SOL     OW25579   6.431   3.397   3.652
 8227SOL    HW125580   6.412   3.302   3.674
 8227SOL    HW225581   6.380   3.423   3.570
 8228SOL     OW25582   6.310   2.642   5.686
 8228SOL    HW125583   6.240   2.636   5.757
 8228SOL    HW225584   6.311   2.558   5.633
 8229SOL     OW25585   3.884   5.018   0.063
 8229SOL    HW125586   3.978   5.052   0.062
 8229SOL    HW225587   3.864   4.975   0.150
 8230SOL     OW25588   5.617   0.456   4.382
 8230SOL    HW125589   5.688   0.386   4.387
 8230SOL    HW225590   5.657   0.541   4.348
 8231SOL     OW25591   5.133   6.281   0.910
 8231SOL    HW125592   5.086   6.202   0.872
 8231SOL    HW225593   5.230   6.275   0.890
 8232SOL     OW25594   3.578   2.236   6.311
 8232SOL    HW125595   3.532   2.279   6.389
 8232SOL    HW225596   3.512   2.216   6.239
 8233SOL     OW25597   0.542   5.288   0.039
 8233SOL    HW125598   0.569   5.256   6.973
 8233SOL    HW225599   0.521   5.209   0.097
 8234SOL     OW25600   3.088   2.626   6.347
 8234SOL    HW125601   3.032   2.620   6.430
 8234SOL    HW225602   3.158   2.696   6.360
 8235SOL     OW25603   4.036   3.685   1.226
 8235SOL    HW125604   4.040   3.774   1.181
 8235SOL    HW225605   4.115   3.630   1.200
 8236SOL     OW25606   5.881   3.164   0.444
 8236SOL    HW125607   5.816   3.154   0.368
 8236SOL    HW225608   5.908   3.074   0.477
 8237SOL     OW25609   4.176   6.279   5.376
 8237SOL    HW125610   4.102   6.233   5.326
 8237SOL    HW225611   4.156   6.377   5.381
 8238SOL     OW25612   1.710   2.037   6.333
 8238SOL    HW125613   1.709   1.938   6.320
 8238SOL    HW225614   1.617   2.073   6.329
 8239SOL     OW25615   0.536   1.378   5.736
 8239SOL    HW125616   0.514   1.356   5.641
 8239SOL    HW225617   0.622   1.430   5.739
 8240SOL     OW25618   3.568   4.059   3.344
 8240SOL    HW125619   3.571   3.968   3.384
 8240SOL    HW225620   3.642   4.069   3.277
 8241SOL     OW25621   3.890   6.718   0.256
 8241SOL    HW125622   3.937   6.797   0.217
 8241SOL    HW225623   3.897   6.721   0.356
 8242SOL     OW25624   1.107   4.618   5.763
 8242SOL    HW125625   1.105   4.548   5.691
 8242SOL    HW225626   1.015   4.655   5.775
 8243SOL     OW25627   0.826   3.721   5.324
 8243SOL    HW125628   0.916   3.760   5.343
 8243SOL    HW225629   0.833   3.657   5.247
 8244SOL     OW25630   0.527   6.689   4.298
 8244SOL    HW125631   0.524   6.595   4.331
 8244SOL    HW225632   0.454   6.742   4.342
 8245SOL     OW25633   3.625   2.405   0.915
 8245SOL    HW125634   3.542   2.411   0.969
 8245SOL    HW225635   3.625   2.320   0.861
 8246SOL     OW25636   5.601   3.599   5.819
 8246SOL    HW125637   5.514   3.552   5.805
 8246SOL    HW225638   5.661   3.541   5.873
 8247SOL     OW25639   0.791   0.289   1.546
 8247SOL    HW125640   0.812   0.197   1.513
 8247SOL    HW225641   0.755   0.343   1.470
 8248SOL     OW25642   5.719   4.630   3.611
 8248SOL    HW125643   5.742   4.727   3.617
 8248SOL    HW225644   5.675   4.612   3.523
 8249SOL     OW25645   2.291   4.827   3.782
 8249SOL    HW125646   2.210   4.769   3.795
 8249SOL    HW225647   2.286   4.905   3.844
 8250SOL     OW25648   3.886   3.948   2.541
 8250SOL    HW125649   3.982   3.925   2.529
 8250SOL    HW225650   3.867   4.037   2.498
 8251SOL     OW25651   5.896   1.793   4.580
 8251SOL    HW125652   5.934   1.707   4.614
 8251SOL    HW225653   5.901   1.795   4.480
 8252SOL     OW25654   1.760   2.743   5.514
 8252SOL    HW125655   1.812   2.677   5.460
 8252SOL    HW225656   1.776   2.835   5.480
 8253SOL     OW25657   3.560   2.903   5.096
 8253SOL    HW125658   3.599   2.988   5.062
 8253SOL    HW225659   3.460   2.908   5.091
 8254SOL     OW25660   3.669   5.627   3.782
 8254SOL    HW125661   3.713   5.678   3.856
 8254SOL    HW225662   3.629   5.543   3.819
 8255SOL     OW25663   4.358   5.556   4.124
 8255SOL    HW125664   4.283   5.508   4.171
 8255SOL    HW225665   4.414   5.604   4.191
 8256SOL     OW25666   6.744   1.578   4.594
 8256SOL    HW125667   6.771   1.513   4.523
 8256SOL    HW225668   6.800   1.564   4.675
 8257SOL     OW25669   6.250   5.267   3.364
 8257SOL    HW125670   6.314   5.263   3.287
 8257SOL    HW225671   6.292   5.317   3.440
 8258SOL     OW25672   3.805   1.553   6.939
 8258SOL    HW125673   3.787   1.628   7.003
 8258SOL    HW225674   3.721   1.502   6.922
 8259SOL     OW25675   3.481   2.096   2.632
 8259SOL    HW125676   3.479   2.001   2.662
 8259SOL    HW225677   3.561   2.111   2.574
 8260SOL     OW25678   2.776   6.564   0.653
 8260SOL    HW125679   2.867   6.543   0.688
 8260SOL    HW225680   2.720   6.481   0.653
 8261SOL     OW25681   5.487   1.199   1.857
 8261SOL    HW125682   5.554   1.156   1.918
 8261SOL    HW225683   5.428   1.259   1.910
 8262SOL     OW25684   0.979   2.590   1.794
 8262SOL    HW125685   1.054   2.639   1.839
 8262SOL    HW225686   0.921   2.547   1.863
 8263SOL     OW25687   6.659   1.769   1.221
 8263SOL    HW125688   6.755   1.797   1.227
 8263SOL    HW225689   6.612   1.793   1.306
 8264SOL     OW25690   1.951   5.361   2.963
 8264SOL    HW125691   1.983   5.393   2.874
 8264SOL    HW225692   1.937   5.439   3.024
 8265SOL     OW25693   2.085   0.756   1.955
 8265SOL    HW125694   2.048   0.679   2.006
 8265SOL    HW225695   2.184   0.746   1.946
 8266SOL     OW25696   3.489   6.700   2.706
 8266SOL    HW125697   3.443   6.773   2.656
 8266SOL    HW225698   3.583   6.728   2.727
 8267SOL     OW25699   1.409   3.253   0.932
 8267SOL    HW125700   1.365   3.281   1.017
 8267SOL    HW225701   1.344   3.201   0.877
 8268SOL     OW25702   2.550   6.524   5.699
 8268SOL    HW125703   2.496   6.607   5.691
 8268SOL    HW225704   2.626   6.539   5.763
 8269SOL     OW25705   5.864   1.779   1.343
 8269SOL    HW125706   5.806   1.838   1.400
 8269SOL    HW225707   5.902   1.706   1.400
 8270SOL     OW25708   3.436   6.349   3.622
 8270SOL    HW125709   3.516   6.393   3.663
 8270SOL    HW225710   3.454   6.251   3.608
 8271SOL     OW25711   7.024   1.561   3.228
 8271SOL    HW125712   0.008   1.464   3.251
 8271SOL    HW225713   6.955   1.572   3.156
 8272SOL     OW25714   3.401   0.781   2.469
 8272SOL    HW125715   3.376   0.858   2.411
 8272SOL    HW225716   3.416   0.813   2.563
 8273SOL     OW25717   2.708   6.700   0.898
 8273SOL    HW125718   2.734   6.655   0.812
 8273SOL    HW225719   2.707   6.799   0.884
 8274SOL     OW25720   4.887   5.410   3.249
 8274SOL    HW125721   4.839   5.345   3.190
 8274SOL    HW225722   4.875   5.385   3.345
 8275SOL     OW25723   5.094   1.792   6.115
 8275SOL    HW125724   4.998   1.765   6.113
 8275SOL    HW225725   5.101   1.890   6.133
 8276SOL     OW25726   1.065   1.913   3.754
 8276SOL    HW125727   1.080   1.822   3.793
 8276SOL    HW225728   1.038   1.905   3.658
 8277SOL     OW25729   0.064   0.052   6.949
 8277SOL    HW125730   7.005   0.082   6.994
 8277SOL    HW225731   0.140   0.111   6.978
 8278SOL     OW25732   2.151   2.584   0.444
 8278SOL    HW125733   2.063   2.536   0.438
 8278SOL    HW225734   2.154   2.657   0.376
 8279SOL     OW25735   0.462   6.312   4.279
 8279SOL    HW125736   0.460   6.218   4.245
 8279SOL    HW225737   0.395   6.368   4.229
 8280SOL     OW25738   3.392   2.662   5.595
 8280SOL    HW125739   3.386   2.726   5.519
 8280SOL    HW225740   3.301   2.630   5.620
 8281SOL     OW25741   6.519   6.275   1.652
 8281SOL    HW125742   6.526   6.371   1.627
 8281SOL    HW225743   6.564   6.260   1.740
 8282SOL     OW25744   5.515   2.289   5.365
 8282SOL    HW125745   5.439   2.266   5.305
 8282SOL    HW225746   5.557   2.206   5.401
 8283SOL     OW25747   2.132   3.945   5.882
 8283SOL    HW125748   2.039   3.973   5.907
 8283SOL    HW225749   2.128   3.872   5.815
 8284SOL     OW25750   6.908   4.732   2.268
 8284SOL    HW125751   6.880   4.637   2.280
 8284SOL    HW225752   6.868   4.768   2.184
 8285SOL     OW25753   3.643   3.384   5.427
 8285SOL    HW125754   3.691   3.312   5.377
 8285SOL    HW225755   3.593   3.343   5.503
 8286SOL     OW25756   6.336   2.216   6.129
 8286SOL    HW125757   6.362   2.179   6.040
 8286SOL    HW225758   6.358   2.313   6.132
 8287SOL     OW25759   1.521   5.566   4.988
 8287SOL    HW125760   1.526   5.475   4.945
 8287SOL    HW225761   1.430   5.579   5.026
 8288SOL     OW25762   2.306   2.745   3.162
 8288SOL    HW125763   2.348   2.730   3.073
 8288SOL    HW225764   2.304   2.658   3.212
 8289SOL     OW25765   0.550   6.642   0.297
 8289SOL    HW125766   0.544   6.673   0.392
 8289SOL    HW225767   0.519   6.714   0.236
 8290SOL     OW25768   6.146   1.884   0.654
 8290SOL    HW125769   6.160   1.954   0.584
 8290SOL    HW225770   6.156   1.926   0.745
 8291SOL     OW25771   4.265   0.143   6.228
 8291SOL    HW125772   4.230   0.149   6.322
 8291SOL    HW225773   4.207   0.197   6.167
 8292SOL     OW25774   3.109   6.438   6.809
 8292SOL    HW125775   3.079   6.354   6.853
 8292SOL    HW225776   3.208   6.439   6.800
 8293SOL     OW25777   5.232   6.047   6.167
 8293SOL    HW125778   5.293   5.975   6.133
 8293SOL    HW225779   5.231   6.123   6.103
 8294SOL     OW25780   5.457   2.461   6.762
 8294SOL    HW125781   5.449   2.518   6.680
 8294SOL    HW225782   5.424   2.369   6.741
 8295SOL     OW25783   5.193   4.070   1.304
 8295SOL    HW125784   5.170   4.168   1.308
 8295SOL    HW225785   5.243   4.052   1.219
 8296SOL     OW25786   1.556   5.326   7.013
 8296SOL    HW125787   1.547   5.403   0.052
 8296SOL    HW225788   1.584   5.244   0.040
 8297SOL     OW25789   6.577   2.380   3.399
 8297SOL    HW125790   6.522   2.349   3.321
 8297SOL    HW225791   6.568   2.479   3.409
 8298SOL     OW25792   5.197   0.986   1.573
 8298SOL    HW125793   5.243   0.979   1.661
 8298SOL    HW225794   5.099   1.002   1.588
 8299SOL     OW25795   6.396   2.303   2.180
 8299SOL    HW125796   6.442   2.214   2.176
 8299SOL    HW225797   6.309   2.292   2.228
 8300SOL     OW25798   0.727   4.384   4.513
 8300SOL    HW125799   0.751   4.427   4.426
 8300SOL    HW225800   0.714   4.455   4.582
 8301SOL     OW25801   4.049   3.217   0.446
 8301SOL    HW125802   4.043   3.129   0.494
 8301SOL    HW225803   4.037   3.203   0.348
 8302SOL     OW25804   5.784   6.157   6.690
 8302SOL    HW125805   5.770   6.168   6.592
 8302SOL    HW225806   5.870   6.200   6.717
 8303SOL     OW25807   0.209   6.884   4.693
 8303SOL    HW125808   0.297   6.932   4.691
 8303SOL    HW225809   0.144   6.930   4.633
 8304SOL     OW25810   0.594   3.652   6.430
 8304SOL    HW125811   0.668   3.640   6.497
 8304SOL    HW225812   0.627   3.709   6.354
 8305SOL     OW25813   3.591   5.368   3.891
 8305SOL    HW125814   3.573   5.296   3.958
 8305SOL    HW225815   3.587   5.331   3.799
 8306SOL     OW25816   0.212   2.602   4.358
 8306SOL    HW125817   0.267   2.683   4.379
 8306SOL    HW225818   0.236   2.568   4.267
 8307SOL     OW25819   3.989   5.798   0.685
 8307SOL    HW125820   4.082   5.829   0.704
 8307SOL    HW225821   3.924   5.866   0.719
 8308SOL     OW25822   3.798   6.591   2.289
 8308SOL    HW125823   3.732   6.560   2.220
 8308SOL    HW225824   3.766   6.677   2.329
 8309SOL     OW25825   5.721   5.606   2.235
 8309SOL    HW125826   5.797   5.542   2.234
 8309SOL    HW225827   5.686   5.619   2.142
 8310SOL     OW25828   6.978   4.724   0.746
 8310SOL    HW125829   6.990   4.629   0.716
 8310SOL    HW225830   6.890   4.733   0.791
 8311SOL     OW25831   6.615   1.094   6.888
 8311SOL    HW125832   6.701   1.076   6.840
 8311SOL    HW225833   6.625   1.074   6.985
 8312SOL     OW25834   5.147   6.539   1.434
 8312SOL    HW125835   5.067   6.480   1.426
 8312SOL    HW225836   5.227   6.484   1.457
 8313SOL     OW25837   3.236   1.686   2.409
 8313SOL    HW125838   3.208   1.741   2.330
 8313SOL    HW225839   3.330   1.654   2.395
 8314SOL     OW25840   6.177   0.199   1.756
 8314SOL    HW125841   6.264   0.244   1.735
 8314SOL    HW225842   6.106   0.236   1.697
 8315SOL     OW25843   5.119   3.325   0.080
 8315SOL    HW125844   5.057   3.369   0.145
 8315SOL    HW225845   5.186   3.392   0.048
 8316SOL     OW25846   1.448   4.239   0.545
 8316SOL    HW125847   1.394   4.218   0.627
 8316SOL    HW225848   1.441   4.336   0.524
 8317SOL     OW25849   2.178   4.715   2.265
 8317SOL    HW125850   2.277   4.720   2.279
 8317SOL    HW225851   2.158   4.718   2.167
 8318SOL     OW25852   4.468   1.610   4.508
 8318SOL    HW125853   4.517   1.546   4.449
 8318SOL    HW225854   4.377   1.627   4.472
 8319SOL     OW25855   3.237   1.110   5.209
 8319SOL    HW125856   3.335   1.107   5.230
 8319SOL    HW225857   3.200   1.017   5.210
 8320SOL     OW25858   2.893   4.594   1.246
 8320SOL    HW125859   2.848   4.654   1.181
 8320SOL    HW225860   2.923   4.646   1.326
 8321SOL     OW25861   1.071   0.309   1.036
 8321SOL    HW125862   1.028   0.399   1.024
 8321SOL    HW225863   1.044   0.249   0.960
 8322SOL     OW25864   0.179   0.439   6.854
 8322SOL    HW125865   0.266   0.422   6.901
 8322SOL    HW225866   0.159   0.363   6.793
 8323SOL     OW25867   0.705   1.496   2.715
 8323SOL    HW125868   0.721   1.399   2.694
 8323SOL    HW225869   0.784   1.533   2.763
 8324SOL     OW25870   5.987   0.205   2.235
 8324SOL    HW125871   6.047   0.243   2.165
 8324SOL    HW225872   6.039   0.188   2.318
 8325SOL     OW25873   3.278   3.202   4.303
 8325SOL    HW125874   3.325   3.133   4.358
 8325SOL    HW225875   3.311   3.293   4.328
 8326SOL     OW25876   4.369   2.713   5.433
 8326SOL    HW125877   4.321   2.702   5.520
 8326SOL    HW225878   4.433   2.790   5.440
 8327SOL     OW25879   5.760   2.157   6.241
 8327SOL    HW125880   5.711   2.229   6.191
 8327SOL    HW225881   5.820   2.107   6.178
 8328SOL     OW25882   2.565   2.176   5.920
 8328SOL    HW125883   2.542   2.268   5.889
 8328SOL    HW225884   2.522   2.159   6.008
 8329SOL     OW25885   6.876   2.695   5.523
 8329SOL    HW125886   6.812   2.771   5.511
 8329SOL    HW225887   6.853   2.645   5.606
 8330SOL     OW25888   1.866   6.615   0.528
 8330SOL    HW125889   1.880   6.591   0.432
 8330SOL    HW225890   1.945   6.667   0.561
 8331SOL     OW25891   3.067   7.009   1.839
 8331SOL    HW125892   3.128   6.973   1.769
 8331SOL    HW225893   3.003   0.050   1.798
 8332SOL     OW25894   4.744   5.368   2.430
 8332SOL    HW125895   4.679   5.360   2.354
 8332SOL    HW225896   4.702   5.332   2.513
 8333SOL     OW25897   0.254   5.926   0.136
 8333SOL    HW125898   0.202   5.911   0.220
 8333SOL    HW225899   0.191   5.924   0.058
 8334SOL     OW25900   6.700   1.883   4.082
 8334SOL    HW125901   6.654   1.845   4.002
 8334SOL    HW225902   6.794   1.908   4.059
 8335SOL     OW25903   6.104   6.037   5.973
 8335SOL    HW125904   6.013   6.074   5.992
 8335SOL    HW225905   6.102   5.937   5.981
 8336SOL     OW25906   0.980   1.344   1.553
 8336SOL    HW125907   0.941   1.379   1.467
 8336SOL    HW225908   1.061   1.399   1.577
 8337SOL     OW25909   0.827   6.274   2.688
 8337SOL    HW125910   0.801   6.288   2.784
 8337SOL    HW225911   0.873   6.186   2.678
 8338SOL     OW25912   1.580   4.424   1.307
 8338SOL    HW125913   1.611   4.472   1.389
 8338SOL    HW225914   1.507   4.360   1.332
 8339SOL     OW25915   5.564   1.904   2.225
 8339SOL    HW125916   5.556   1.808   2.252
 8339SOL    HW225917   5.647   1.943   2.264
 8340SOL     OW25918   5.039   3.834   0.770
 8340SOL    HW125919   4.958   3.806   0.718
 8340SOL    HW225920   5.103   3.881   0.709
 8341SOL     OW25921   2.465   6.001   1.355
 8341SOL    HW125922   2.508   6.089   1.372
 8341SOL    HW225923   2.372   6.014   1.321
 8342SOL     OW25924   4.203   0.962   0.928
 8342SOL    HW125925   4.289   0.915   0.911
 8342SOL    HW225926   4.189   1.031   0.856
 8343SOL     OW25927   1.473   5.371   6.101
 8343SOL    HW125928   1.565   5.392   6.135
 8343SOL    HW225929   1.420   5.326   6.173
 8344SOL     OW25930   4.302   6.509   6.016
 8344SOL    HW125931   4.266   6.533   5.926
 8344SOL    HW225932   4.360   6.583   6.050
 8345SOL     OW25933   5.974   1.171   2.931
 8345SOL    HW125934   5.899   1.237   2.937
 8345SOL    HW225935   5.938   1.084   2.896
 8346SOL     OW25936   2.928   5.357   1.468
 8346SOL    HW125937   2.921   5.446   1.513
 8346SOL    HW225938   3.014   5.351   1.418
 8347SOL     OW25939   3.479   6.947   5.232
 8347SOL    HW125940   3.387   6.987   5.223
 8347SOL    HW225941   3.537   6.981   5.159
 8348SOL     OW25942   0.703   1.166   0.960
 8348SOL    HW125943   0.716   1.088   0.899
 8348SOL    HW225944   0.611   1.161   1.001
 8349SOL     OW25945   5.915   3.842   0.886
 8349SOL    HW125946   5.949   3.849   0.792
 8349SOL    HW225947   5.965   3.906   0.944
 8350SOL     OW25948   6.632   1.160   5.657
 8350SOL    HW125949   6.635   1.200   5.566
 8350SOL    HW225950   6.673   1.068   5.653
 8351SOL     OW25951   3.281   6.315   3.837
 8351SOL    HW125952   3.286   6.327   3.737
 8351SOL    HW225953   3.309   6.223   3.861
 8352SOL     OW25954   6.783   6.443   2.548
 8352SOL    HW125955   6.715   6.483   2.487
 8352SOL    HW225956   6.743   6.433   2.640
 8353SOL     OW25957   6.785   3.652   2.749
 8353SOL    HW125958   6.792   3.610   2.658
 8353SOL    HW225959   6.689   3.657   2.776
 8354SOL     OW25960   2.849   1.255   6.775
 8354SOL    HW125961   2.922   1.241   6.842
 8354SOL    HW225962   2.853   1.348   6.740
 8355SOL     OW25963   3.735   0.132   6.687
 8355SOL    HW125964   3.653   0.148   6.740
 8355SOL    HW225965   3.777   0.219   6.662
 8356SOL     OW25966   1.642   5.632   0.376
 8356SOL    HW125967   1.608   5.556   0.432
 8356SOL    HW225968   1.736   5.614   0.348
 8357SOL     OW25969   4.272   5.950   5.212
 8357SOL    HW125970   4.275   5.875   5.279
 8357SOL    HW225971   4.176   5.970   5.190
 8358SOL     OW25972   2.064   2.686   5.556
 8358SOL    HW125973   2.112   2.604   5.525
 8358SOL    HW225974   2.089   2.764   5.498
 8359SOL     OW25975   4.364   5.621   4.605
 8359SOL    HW125976   4.388   5.525   4.616
 8359SOL    HW225977   4.377   5.648   4.509
 8360SOL     OW25978   5.212   6.691   3.118
 8360SOL    HW125979   5.271   6.733   3.049
 8360SOL    HW225980   5.242   6.597   3.136
 8361SOL     OW25981   1.686   0.996   2.790
 8361SOL    HW125982   1.682   1.087   2.833
 8361SOL    HW225983   1.780   0.978   2.759
 8362SOL     OW25984   2.592   2.391   0.045
 8362SOL    HW125985   2.604   2.293   0.028
 8362SOL    HW225986   2.495   2.411   0.055
 8363SOL     OW25987   0.190   2.887   0.289
 8363SOL    HW125988   0.157   2.938   0.210
 8363SOL    HW225989   0.206   2.949   0.366
 8364SOL     OW25990   6.679   3.511   3.268
 8364SOL    HW125991   6.690   3.493   3.366
 8364SOL    HW225992   6.595   3.562   3.252
 8365SOL     OW25993   1.721   3.161   6.489
 8365SOL    HW125994   1.778   3.195   6.415
 8365SOL    HW225995   1.777   3.106   6.551
 8366SOL     OW25996   4.041   6.286   2.685
 8366SOL    HW125997   3.969   6.220   2.708
 8366SOL    HW225998   4.066   6.339   2.766
 8367SOL     OW25999   5.303   6.103   4.057
 8367SOL    HW126000   5.239   6.054   4.117
 8367SOL    HW226001   5.315   6.196   4.090
 8368SOL     OW26002   2.254   5.109   5.843
 8368SOL    HW126003   2.242   5.058   5.928
 8368SOL    HW226004   2.280   5.203   5.864
 8369SOL     OW26005   2.288   1.463   0.440
 8369SOL    HW126006   2.329   1.375   0.414
 8369SOL    HW226007   2.189   1.458   0.430
 8370SOL     OW26008   1.388   1.574   6.685
 8370SOL    HW126009   1.428   1.658   6.647
 8370SOL    HW226010   1.292   1.569   6.657
 8371SOL     OW26011   1.579   2.947   0.841
 8371SOL    HW126012   1.557   2.990   0.753
 8371SOL    HW226013   1.496   2.908   0.881
 8372SOL     OW26014   6.658   0.902   2.885
 8372SOL    HW126015   6.608   0.816   2.888
 8372SOL    HW226016   6.615   0.968   2.947
 8373SOL     OW26017   1.392   5.805   5.333
 8373SOL    HW126018   1.379   5.707   5.322
 8373SOL    HW226019   1.343   5.836   5.415
 8374SOL     OW26020   6.679   0.430   6.977
 8374SOL    HW126021   6.774   0.413   6.954
 8374SOL    HW226022   6.633   0.342   6.993
 8375SOL     OW26023   3.166   0.359   5.946
 8375SOL    HW126024   3.104   0.377   6.023
 8375SOL    HW226025   3.153   0.430   5.877
 8376SOL     OW26026   2.554   0.742   4.069
 8376SOL    HW126027   2.575   0.837   4.046
 8376SOL    HW226028   2.630   0.683   4.041
 8377SOL     OW26029   5.820   4.538   1.461
 8377SOL    HW126030   5.838   4.439   1.460
 8377SOL    HW226031   5.729   4.555   1.497
 8378SOL     OW26032   5.011   3.358   2.906
 8378SOL    HW126033   4.992   3.439   2.962
 8378SOL    HW226034   5.109   3.356   2.884
 8379SOL     OW26035   6.504   3.199   2.627
 8379SOL    HW126036   6.443   3.121   2.616
 8379SOL    HW226037   6.491   3.241   2.717
 8380SOL     OW26038   4.251   1.546   2.942
 8380SOL    HW126039   4.247   1.451   2.911
 8380SOL    HW226040   4.207   1.605   2.875
 8381SOL     OW26041   1.633   5.458   5.424
 8381SOL    HW126042   1.692   5.394   5.375
 8381SOL    HW226043   1.537   5.429   5.415
 8382SOL     OW26044   1.096   2.959   2.155
 8382SOL    HW126045   1.067   3.053   2.174
 8382SOL    HW226046   1.023   2.911   2.105
 8383SOL     OW26047   2.993   2.582   5.789
 8383SOL    HW126048   2.978   2.658   5.725
 8383SOL    HW226049   2.925   2.586   5.862
 8384SOL     OW26050   0.279   6.955   2.418
 8384SOL    HW126051   0.358   6.954   2.479
 8384SOL    HW226052   0.236   0.021   2.421
 8385SOL     OW26053   4.907   2.643   1.915
 8385SOL    HW126054   4.829   2.681   1.965
 8385SOL    HW226055   4.979   2.712   1.908
 8386SOL     OW26056   0.919   4.261   2.737
 8386SOL    HW126057   0.858   4.185   2.715
 8386SOL    HW226058   0.931   4.267   2.836
 8387SOL     OW26059   0.752   2.881   1.036
 8387SOL    HW126060   0.692   2.953   1.000
 8387SOL    HW226061   0.773   2.902   1.132
 8388SOL     OW26062   2.559   0.483   2.070
 8388SOL    HW126063   2.600   0.521   2.154
 8388SOL    HW226064   2.483   0.542   2.041
 8389SOL     OW26065   5.102   2.834   1.979
 8389SOL    HW126066   5.177   2.768   1.971
 8389SOL    HW226067   5.135   2.917   2.025
 8390SOL     OW26068   5.514   1.864   5.554
 8390SOL    HW126069   5.590   1.907   5.505
 8390SOL    HW226070   5.476   1.790   5.499
 8391SOL     OW26071   6.306   1.046   1.454
 8391SOL    HW126072   6.396   1.005   1.448
 8391SOL    HW226073   6.307   1.119   1.523
 8392SOL     OW26074   5.751   3.175   4.695
 8392SOL    HW126075   5.756   3.274   4.708
 8392SOL    HW226076   5.838   3.134   4.721
 8393SOL     OW26077   5.409   0.325   1.361
 8393SOL    HW126078   5.338   0.367   1.417
 8393SOL    HW226079   5.409   0.365   1.269
 8394SOL     OW26080   5.877   3.412   1.871
 8394SOL    HW126081   5.816   3.473   1.820
 8394SOL    HW226082   5.969   3.450   1.872
 8395SOL     OW26083   2.395   0.822   5.091
 8395SOL    HW126084   2.399   0.735   5.042
 8395SOL    HW226085   2.306   0.865   5.076
 8396SOL     OW26086   4.462   5.619   5.042
 8396SOL    HW126087   4.523   5.632   5.119
 8396SOL    HW226088   4.469   5.525   5.009
 8397SOL     OW26089   6.504   1.040   3.430
 8397SOL    HW126090   6.509   1.110   3.501
 8397SOL    HW226091   6.511   1.084   3.340
 8398SOL     OW26092   5.392   2.467   5.711
 8398SOL    HW126093   5.474   2.500   5.665
 8398SOL    HW226094   5.348   2.542   5.760
 8399SOL     OW26095   0.088   5.392   0.847
 8399SOL    HW126096   7.014   5.377   0.841
 8399SOL    HW226097   0.111   5.431   0.936
 8400SOL     OW26098   1.315   2.576   4.644
 8400SOL    HW126099   1.361   2.490   4.621
 8400SOL    HW226100   1.379   2.652   4.633
 8401SOL     OW26101   3.235   0.204   5.735
 8401SOL    HW126102   3.198   0.260   5.809
 8401SOL    HW226103   3.169   0.198   5.660
 8402SOL     OW26104   3.962   0.827   6.135
 8402SOL    HW126105   3.920   0.895   6.074
 8402SOL    HW226106   3.972   0.740   6.087
 8403SOL     OW26107   5.992   5.511   4.602
 8403SOL    HW126108   5.979   5.415   4.628
 8403SOL    HW226109   6.087   5.537   4.620
 8404SOL     OW26110   2.210   1.768   6.790
 8404SOL    HW126111   2.300   1.793   6.825
 8404SOL    HW226112   2.166   1.848   6.748
 8405SOL     OW26113   4.307   1.298   5.417
 8405SOL    HW126114   4.309   1.231   5.343
 8405SOL    HW226115   4.336   1.387   5.382
 8406SOL     OW26116   4.687   0.961   5.892
 8406SOL    HW126117   4.780   0.940   5.860
 8406SOL    HW226118   4.679   1.059   5.908
 8407SOL     OW26119   3.565   6.870   4.063
 8407SOL    HW126120   3.539   6.795   4.002
 8407SOL    HW226121   3.613   6.834   4.142
 8408SOL     OW26122   4.696   0.684   1.448
 8408SOL    HW126123   4.765   0.742   1.493
 8408SOL    HW226124   4.613   0.682   1.503
 8409SOL     OW26125   4.534   2.424   1.976
 8409SOL    HW126126   4.561   2.363   1.902
 8409SOL    HW226127   4.583   2.511   1.967
 8410SOL     OW26128   6.836   1.512   1.741
 8410SOL    HW126129   6.761   1.472   1.793
 8410SOL    HW226130   6.805   1.595   1.695
 8411SOL     OW26131   1.406   5.424   0.288
 8411SOL    HW126132   1.338   5.464   0.349
 8411SOL    HW226133   1.460   5.497   0.245
 8412SOL     OW26134   3.191   2.331   6.308
 8412SOL    HW126135   3.168   2.428   6.319
 8412SOL    HW226136   3.198   2.310   6.211
 8413SOL     OW26137   4.456   5.410   5.359
 8413SOL    HW126138   4.445   5.368   5.269
 8413SOL    HW226139   4.450   5.340   5.430
 8414SOL     OW26140   1.139   1.226   2.301
 8414SOL    HW126141   1.082   1.303   2.331
 8414SOL    HW226142   1.138   1.155   2.371
 8415SOL     OW26143   2.635   0.509   5.214
 8415SOL    HW126144   2.607   0.418   5.181
 8415SOL    HW226145   2.670   0.563   5.137
 8416SOL     OW26146   6.626   1.263   5.403
 8416SOL    HW126147   6.547   1.324   5.396
 8416SOL    HW226148   6.627   1.201   5.325
 8417SOL     OW26149   1.591   4.201   5.511
 8417SOL    HW126150   1.512   4.258   5.492
 8417SOL    HW226151   1.670   4.259   5.531
 8418SOL     OW26152   1.054   6.314   2.464
 8418SOL    HW126153   0.959   6.284   2.455
 8418SOL    HW226154   1.056   6.406   2.504
 8419SOL     OW26155   5.287   1.070   3.811
 8419SOL    HW126156   5.217   0.999   3.799
 8419SOL    HW226157   5.244   1.155   3.841
 8420SOL     OW26158   2.685   0.044   2.415
 8420SOL    HW126159   2.740   6.996   2.457
 8420SOL    HW226160   2.715   0.058   2.321
 8421SOL     OW26161   4.627   6.035   5.986
 8421SOL    HW126162   4.693   5.984   6.040
 8421SOL    HW226163   4.634   6.008   5.890
 8422SOL     OW26164   4.747   2.397   2.994
 8422SOL    HW126165   4.824   2.373   3.054
 8422SOL    HW226166   4.748   2.495   2.975
 8423SOL     OW26167   5.814   4.769   6.799
 8423SOL    HW126168   5.770   4.710   6.731
 8423SOL    HW226169   5.755   4.846   6.820
 8424SOL     OW26170   2.092   0.058   4.084
 8424SOL    HW126171   2.023   0.032   4.151
 8424SOL    HW226172   2.144   0.137   4.119
 8425SOL     OW26173   3.907   3.049   2.795
 8425SOL    HW126174   3.931   3.137   2.837
 8425SOL    HW226175   3.963   2.976   2.835
 8426SOL     OW26176   3.137   2.934   2.296
 8426SOL    HW126177   3.091   2.919   2.209
 8426SOL    HW226178   3.107   3.021   2.335
 8427SOL     OW26179   3.659   3.821   3.441
 8427SOL    HW126180   3.723   3.749   3.414
 8427SOL    HW226181   3.607   3.791   3.521
 8428SOL     OW26182   0.030   0.020   0.932
 8428SOL    HW126183   0.007   0.108   0.891
 8428SOL    HW226184   0.030   0.028   1.032
 8429SOL     OW26185   1.705   5.440   6.582
 8429SOL    HW126186   1.704   5.519   6.520
 8429SOL    HW226187   1.742   5.361   6.534
 8430SOL     OW26188   3.961   6.593   4.953
 8430SOL    HW126189   3.940   6.525   5.024
 8430SOL    HW226190   4.056   6.624   4.963
 8431SOL     OW26191   3.087   4.153   5.494
 8431SOL    HW126192   3.075   4.210   5.412
 8431SOL    HW226193   3.144   4.074   5.471
 8432SOL     OW26194   6.269   5.444   6.442
 8432SOL    HW126195   6.329   5.423   6.366
 8432SOL    HW226196   6.228   5.535   6.429
 8433SOL     OW26197   4.958   2.634   0.922
 8433SOL    HW126198   4.874   2.670   0.883
 8433SOL    HW226199   4.962   2.535   0.907
 8434SOL     OW26200   2.298   5.408   5.327
 8434SOL    HW126201   2.273   5.312   5.339
 8434SOL    HW226202   2.284   5.434   5.232
 8435SOL     OW26203   4.591   0.919   2.803
 8435SOL    HW126204   4.501   0.875   2.803
 8435SOL    HW226205   4.657   0.858   2.847
 8436SOL     OW26206   2.130   6.457   2.600
 8436SOL    HW126207   2.182   6.371   2.595
 8436SOL    HW226208   2.068   6.453   2.679
 8437SOL     OW26209   2.131   3.816   2.593
 8437SOL    HW126210   2.152   3.787   2.687
 8437SOL    HW226211   2.152   3.742   2.530
 8438SOL     OW26212   1.496   3.920   2.517
 8438SOL    HW126213   1.566   3.990   2.528
 8438SOL    HW226214   1.405   3.963   2.518
 8439SOL     OW26215   5.785   6.094   3.833
 8439SOL    HW126216   5.842   6.020   3.797
 8439SOL    HW226217   5.699   6.056   3.867
 8440SOL     OW26218   1.626   1.243   2.882
 8440SOL    HW126219   1.527   1.249   2.895
 8440SOL    HW226220   1.657   1.318   2.823
 8441SOL     OW26221   5.947   1.311   4.963
 8441SOL    HW126222   6.022   1.334   5.024
 8441SOL    HW226223   5.984   1.269   4.880
 8442SOL     OW26224   3.667   1.445   5.241
 8442SOL    HW126225   3.610   1.453   5.322
 8442SOL    HW226226   3.609   1.439   5.160
 8443SOL     OW26227   1.231   3.958   2.666
 8443SOL    HW126228   1.275   4.010   2.739
 8443SOL    HW226229   1.211   3.865   2.698
 8444SOL     OW26230   5.031   5.257   4.077
 8444SOL    HW126231   5.032   5.234   4.174
 8444SOL    HW226232   4.940   5.290   4.052
 8445SOL     OW26233   4.538   6.210   6.704
 8445SOL    HW126234   4.442   6.235   6.693
 8445SOL    HW226235   4.594   6.293   6.705
 8446SOL     OW26236   6.910   6.084   4.638
 8446SOL    HW126237   7.002   6.046   4.645
 8446SOL    HW226238   6.884   6.123   4.727
 8447SOL     OW26239   3.864   2.078   3.238
 8447SOL    HW126240   3.960   2.094   3.263
 8447SOL    HW226241   3.832   2.151   3.178
 8448SOL     OW26242   4.496   6.602   3.046
 8448SOL    HW126243   4.461   6.615   3.138
 8448SOL    HW226244   4.594   6.621   3.044
 8449SOL     OW26245   1.836   2.440   3.191
 8449SOL    HW126246   1.824   2.353   3.237
 8449SOL    HW226247   1.748   2.470   3.153
 8450SOL     OW26248   6.951   0.956   0.120
 8450SOL    HW126249   6.864   0.989   0.083
 8450SOL    HW226250   7.001   0.906   0.050
 8451SOL     OW26251   4.529   2.119   1.347
 8451SOL    HW126252   4.506   2.210   1.380
 8451SOL    HW226253   4.627   2.114   1.328
 8452SOL     OW26254   5.143   2.036   5.143
 8452SOL    HW126255   5.140   1.947   5.187
 8452SOL    HW226256   5.052   2.061   5.112
 8453SOL     OW26257   0.433   6.037   0.680
 8453SOL    HW126258   0.361   5.986   0.727
 8453SOL    HW226259   0.518   6.032   0.733
 8454SOL     OW26260   0.340   4.286   0.020
 8454SOL    HW126261   0.246   4.252   0.020
 8454SOL    HW226262   0.400   4.216   0.059
 8455SOL     OW26263   0.331   0.829   2.969
 8455SOL    HW126264   0.417   0.848   3.017
 8455SOL    HW226265   0.344   0.845   2.871
 8456SOL     OW26266   6.009   1.067   3.637
 8456SOL    HW126267   5.986   1.110   3.724
 8456SOL    HW226268   5.925   1.031   3.595
 8457SOL     OW26269   6.289   6.345   5.113
 8457SOL    HW126270   6.286   6.422   5.176
 8457SOL    HW226271   6.376   6.346   5.063
 8458SOL     OW26272   0.302   6.809   6.700
 8458SOL    HW126273   0.364   6.858   6.761
 8458SOL    HW226274   0.214   6.856   6.697
 8459SOL     OW26275   1.643   5.469   3.839
 8459SOL    HW126276   1.572   5.507   3.780
 8459SOL    HW226277   1.624   5.494   3.934
 8460SOL     OW26278   3.393   4.130   4.873
 8460SOL    HW126279   3.473   4.070   4.874
 8460SOL    HW226280   3.349   4.124   4.783
 8461SOL     OW26281   6.064   4.509   3.148
 8461SOL    HW126282   6.078   4.427   3.204
 8461SOL    HW226283   6.138   4.517   3.082
 8462SOL     OW26284   2.122   2.786   1.726
 8462SOL    HW126285   2.186   2.853   1.764
 8462SOL    HW226286   2.109   2.712   1.792
 8463SOL     OW26287   5.482   1.184   2.306
 8463SOL    HW126288   5.408   1.185   2.374
 8463SOL    HW226289   5.560   1.134   2.344
 8464SOL     OW26290   6.266   2.643   4.871
 8464SOL    HW126291   6.281   2.643   4.970
 8464SOL    HW226292   6.352   2.665   4.824
 8465SOL     OW26293   1.462   2.813   0.132
 8465SOL    HW126294   1.450   2.715   0.112
 8465SOL    HW226295   1.551   2.828   0.172
 8466SOL     OW26296   0.950   6.058   3.345
 8466SOL    HW126297   0.993   6.146   3.366
 8466SOL    HW226298   0.870   6.073   3.286
 8467SOL     OW26299   2.758   5.451   0.520
 8467SOL    HW126300   2.722   5.362   0.548
 8467SOL    HW226301   2.739   5.518   0.591
 8468SOL     OW26302   4.402   2.088   0.014
 8468SOL    HW126303   4.354   2.013   6.993
 8468SOL    HW226304   4.500   2.082   7.018
 8469SOL     OW26305   3.353   2.790   6.727
 8469SOL    HW126306   3.376   2.702   6.767
 8469SOL    HW226307   3.436   2.844   6.715
 8470SOL     OW26308   2.494   2.434   5.927
 8470SOL    HW126309   2.508   2.488   6.010
 8470SOL    HW226310   2.512   2.491   5.847
 8471SOL     OW26311   3.486   0.713   3.832
 8471SOL    HW126312   3.520   0.626   3.797
 8471SOL    HW226313   3.563   0.768   3.864
 8472SOL     OW26314   1.575   6.169   4.214
 8472SOL    HW126315   1.633   6.225   4.274
 8472SOL    HW226316   1.494   6.140   4.265
 8473SOL     OW26317   6.328   5.380   0.615
 8473SOL    HW126318   6.236   5.348   0.635
 8473SOL    HW226319   6.329   5.430   0.528
 8474SOL     OW26320   3.478   4.088   1.397
 8474SOL    HW126321   3.500   4.183   1.420
 8474SOL    HW226322   3.556   4.029   1.416
 8475SOL     OW26323   5.466   1.169   2.892
 8475SOL    HW126324   5.506   1.156   2.983
 8475SOL    HW226325   5.413   1.088   2.867
 8476SOL     OW26326   4.625   0.514   2.348
 8476SOL    HW126327   4.605   0.468   2.435
 8476SOL    HW226328   4.717   0.491   2.318
 8477SOL     OW26329   3.326   1.398   1.093
 8477SOL    HW126330   3.267   1.478   1.078
 8477SOL    HW226331   3.293   1.322   1.037
 8478SOL     OW26332   1.145   0.156   5.621
 8478SOL    HW126333   1.088   0.204   5.555
 8478SOL    HW226334   1.163   0.215   5.699
 8479SOL     OW26335   5.592   0.551   1.488
 8479SOL    HW126336   5.561   0.512   1.575
 8479SOL    HW226337   5.533   0.628   1.463
 8480SOL     OW26338   2.436   1.482   1.340
 8480SOL    HW126339   2.504   1.488   1.413
 8480SOL    HW226340   2.384   1.567   1.335
 8481SOL     OW26341   3.676   0.342   4.246
 8481SOL    HW126342   3.612   0.416   4.221
 8481SOL    HW226343   3.719   0.365   4.333
 8482SOL     OW26344   0.923   6.987   2.430
 8482SOL    HW126345   0.952   6.905   2.480
 8482SOL    HW226346   0.940   6.974   2.333
 8483SOL     OW26347   4.171   5.434   1.188
 8483SOL    HW126348   4.223   5.418   1.272
 8483SOL    HW226349   4.149   5.531   1.181
 8484SOL     OW26350   0.999   4.671   4.527
 8484SOL    HW126351   1.040   4.654   4.438
 8484SOL    HW226352   0.900   4.657   4.522
 8485SOL     OW26353   2.814   3.252   6.682
 8485SOL    HW126354   2.843   3.334   6.731
 8485SOL    HW226355   2.745   3.277   6.614
 8486SOL     OW26356   4.353   0.796   2.562
 8486SOL    HW126357   4.268   0.770   2.518
 8486SOL    HW226358   4.334   0.838   2.651
 8487SOL     OW26359   4.552   7.005   0.949
 8487SOL    HW126360   4.620   0.038   0.994
 8487SOL    HW226361   4.496   0.038   0.888
 8488SOL     OW26362   4.767   2.881   4.054
 8488SOL    HW126363   4.766   2.906   4.151
 8488SOL    HW226364   4.854   2.908   4.012
 8489SOL     OW26365   4.114   4.913   2.210
 8489SOL    HW126366   4.138   4.977   2.284
 8489SOL    HW226367   4.016   4.894   2.214
 8490SOL     OW26368   3.959   5.346   2.602
 8490SOL    HW126369   3.898   5.268   2.587
 8490SOL    HW226370   3.916   5.411   2.665
 8491SOL     OW26371   2.252   0.663   2.297
 8491SOL    HW126372   2.258   0.563   2.299
 8491SOL    HW226373   2.324   0.701   2.355
 8492SOL     OW26374   5.974   3.283   5.036
 8492SOL    HW126375   6.011   3.374   5.052
 8492SOL    HW226376   5.877   3.282   5.059
 8493SOL     OW26377   3.761   2.221   0.396
 8493SOL    HW126378   3.762   2.321   0.391
 8493SOL    HW226379   3.852   2.185   0.371
 8494SOL     OW26380   4.038   5.951   6.515
 8494SOL    HW126381   4.083   6.024   6.463
 8494SOL    HW226382   3.957   5.987   6.560
 8495SOL     OW26383   0.037   2.857   0.990
 8495SOL    HW126384   0.010   2.902   1.076
 8495SOL    HW226385   7.002   2.778   0.974
 8496SOL     OW26386   0.104   2.903   3.405
 8496SOL    HW126387   0.139   2.809   3.400
 8496SOL    HW226388   0.006   2.903   3.387
 8497SOL     OW26389   6.101   6.037   3.331
 8497SOL    HW126390   6.182   5.981   3.349
 8497SOL    HW226391   6.019   5.987   3.360
 8498SOL     OW26392   0.338   0.723   0.891
 8498SOL    HW126393   0.245   0.738   0.927
 8498SOL    HW226394   0.362   0.797   0.828
 8499SOL     OW26395   3.523   4.168   6.651
 8499SOL    HW126396   3.526   4.229   6.730
 8499SOL    HW226397   3.492   4.077   6.680
 8500SOL     OW26398   2.933   0.737   6.036
 8500SOL    HW126399   2.958   0.797   6.112
 8500SOL    HW226400   2.898   0.651   6.073
 8501SOL     OW26401   1.872   3.823   6.683
 8501SOL    HW126402   1.816   3.846   6.603
 8501SOL    HW226403   1.874   3.901   6.746
 8502SOL     OW26404   6.417   0.333   2.449
 8502SOL    HW126405   6.368   0.357   2.533
 8502SOL    HW226406   6.466   0.413   2.415
 8503SOL     OW26407   2.708   5.296   3.487
 8503SOL    HW126408   2.736   5.231   3.416
 8503SOL    HW226409   2.679   5.246   3.568
 8504SOL     OW26410   1.338   5.578   3.551
 8504SOL    HW126411   1.340   5.524   3.467
 8504SOL    HW226412   1.248   5.621   3.561
 8505SOL     OW26413   4.865   3.534   3.427
 8505SOL    HW126414   4.907   3.580   3.349
 8505SOL    HW226415   4.770   3.512   3.406
 8506SOL     OW26416   1.125   6.490   0.627
 8506SOL    HW126417   1.165   6.554   0.562
 8506SOL    HW226418   1.033   6.463   0.596
 8507SOL     OW26419   1.432   1.040   5.132
 8507SOL    HW126420   1.470   1.035   5.224
 8507SOL    HW226421   1.499   1.083   5.071
 8508SOL     OW26422   0.677   1.865   6.117
 8508SOL    HW126423   0.618   1.822   6.049
 8508SOL    HW226424   0.672   1.813   6.203
 8509SOL     OW26425   6.401   1.708   4.799
 8509SOL    HW126426   6.327   1.643   4.812
 8509SOL    HW226427   6.486   1.669   4.834
 8510SOL     OW26428   5.896   6.609   2.409
 8510SOL    HW126429   5.832   6.578   2.338
 8510SOL    HW226430   5.964   6.537   2.425
 8511SOL     OW26431   6.401   4.587   1.627
 8511SOL    HW126432   6.413   4.495   1.589
 8511SOL    HW226433   6.330   4.635   1.575
 8512SOL     OW26434   4.829   2.462   6.812
 8512SOL    HW126435   4.865   2.498   6.726
 8512SOL    HW226436   4.902   2.460   6.881
 8513SOL     OW26437   6.922   4.151   1.077
 8513SOL    HW126438   6.929   4.207   1.159
 8513SOL    HW226439   7.003   4.094   1.068
 8514SOL     OW26440   2.709   2.061   5.494
 8514SOL    HW126441   2.613   2.032   5.503
 8514SOL    HW226442   2.732   2.124   5.568
 8515SOL     OW26443   1.064   0.512   1.360
 8515SOL    HW126444   1.122   0.431   1.357
 8515SOL    HW226445   1.040   0.533   1.455
 8516SOL     OW26446   5.745   2.308   3.233
 8516SOL    HW126447   5.652   2.281   3.208
 8516SOL    HW226448   5.749   2.407   3.246
 8517SOL     OW26449   1.754   2.269   5.008
 8517SOL    HW126450   1.749   2.227   5.099
 8517SOL    HW226451   1.845   2.256   4.970
 8518SOL     OW26452   5.186   4.657   0.129
 8518SOL    HW126453   5.285   4.645   0.136
 8518SOL    HW226454   5.165   4.753   0.110
 8519SOL     OW26455   1.639   3.682   1.012
 8519SOL    HW126456   1.669   3.728   1.096
 8519SOL    HW226457   1.661   3.739   0.933
 8520SOL     OW26458   4.214   3.662   5.250
 8520SOL    HW126459   4.192   3.687   5.155
 8520SOL    HW226460   4.173   3.574   5.272
 8521SOL     OW26461   2.050   6.015   5.829
 8521SOL    HW126462   1.976   5.963   5.787
 8521SOL    HW226463   2.084   5.966   5.909
 8522SOL     OW26464   1.054   6.142   0.521
 8522SOL    HW126465   1.143   6.181   0.543
 8522SOL    HW226466   0.988   6.215   0.507
 8523SOL     OW26467   2.762   0.737   0.197
 8523SOL    HW126468   2.731   0.679   0.272
 8523SOL    HW226469   2.691   0.742   0.127
 8524SOL     OW26470   1.728   5.670   4.866
 8524SOL    HW126471   1.804   5.654   4.929
 8524SOL    HW226472   1.649   5.616   4.894
 8525SOL     OW26473   0.264   4.751   1.242
 8525SOL    HW126474   0.192   4.682   1.226
 8525SOL    HW226475   0.224   4.831   1.286
 8526SOL     OW26476   1.904   6.248   0.519
 8526SOL    HW126477   1.868   6.285   0.605
 8526SOL    HW226478   1.986   6.299   0.493
 8527SOL     OW26479   3.115   0.539   5.748
 8527SOL    HW126480   3.033   0.543   5.689
 8527SOL    HW226481   3.139   0.631   5.777
 8528SOL     OW26482   5.025   2.478   0.132
 8528SOL    HW126483   4.926   2.483   0.128
 8528SOL    HW226484   5.060   2.439   0.048
 8529SOL     OW26485   1.590   6.424   6.464
 8529SOL    HW126486   1.551   6.382   6.382
 8529SOL    HW226487   1.537   6.506   6.487
 8530SOL     OW26488   3.236   4.113   4.337
 8530SOL    HW126489   3.155   4.151   4.293
 8530SOL    HW226490   3.239   4.014   4.321
 8531SOL     OW26491   0.068   5.724   3.478
 8531SOL    HW126492   0.029   5.633   3.463
 8531SOL    HW226493   0.114   5.726   3.566
 8532SOL     OW26494   2.765   5.769   4.718
 8532SOL    HW126495   2.719   5.707   4.654
 8532SOL    HW226496   2.695   5.821   4.769
 8533SOL     OW26497   1.782   5.971   5.363
 8533SOL    HW126498   1.697   6.023   5.367
 8533SOL    HW226499   1.763   5.875   5.380
 8534SOL     OW26500   3.554   2.090   3.765
 8534SOL    HW126501   3.612   2.071   3.686
 8534SOL    HW226502   3.559   2.014   3.829
 8535SOL     OW26503   5.873   0.828   3.107
 8535SOL    HW126504   5.916   0.886   3.176
 8535SOL    HW226505   5.908   0.852   3.016
 8536SOL     OW26506   0.267   0.788   4.651
 8536SOL    HW126507   0.319   0.768   4.734
 8536SOL    HW226508   0.287   0.882   4.622
 8537SOL     OW26509   0.101   1.183   3.017
 8537SOL    HW126510   0.018   1.147   3.060
 8537SOL    HW226511   0.078   1.221   2.928
 8538SOL     OW26512   1.215   2.424   6.925
 8538SOL    HW126513   1.126   2.384   6.904
 8538SOL    HW226514   1.202   2.497   6.993
 8539SOL     OW26515   6.525   2.382   2.741
 8539SOL    HW126516   6.509   2.373   2.643
 8539SOL    HW226517   6.461   2.324   2.791
 8540SOL     OW26518   4.384   6.935   0.428
 8540SOL    HW126519   4.401   6.945   0.330
 8540SOL    HW226520   4.347   7.020   0.464
 8541SOL     OW26521   2.048   2.678   3.541
 8541SOL    HW126522   2.146   2.660   3.540
 8541SOL    HW226523   2.015   2.681   3.635
 8542SOL     OW26524   4.407   3.913   6.499
 8542SOL    HW126525   4.318   3.880   6.467
 8542SOL    HW226526   4.405   4.013   6.506
 8543SOL     OW26527   2.089   2.541   6.432
 8543SOL    HW126528   2.028   2.528   6.511
 8543SOL    HW226529   2.043   2.598   6.364
 8544SOL     OW26530   6.288   2.393   3.876
 8544SOL    HW126531   6.203   2.385   3.928
 8544SOL    HW226532   6.353   2.450   3.926
 8545SOL     OW26533   5.588   6.679   4.530
 8545SOL    HW126534   5.548   6.641   4.614
 8545SOL    HW226535   5.550   6.769   4.513
 8546SOL     OW26536   4.518   1.901   4.796
 8546SOL    HW126537   4.502   1.998   4.776
 8546SOL    HW226538   4.560   1.857   4.717
 8547SOL     OW26539   1.111   3.913   3.543
 8547SOL    HW126540   1.139   3.855   3.466
 8547SOL    HW226541   1.090   3.855   3.622
 8548SOL     OW26542   5.992   1.429   5.615
 8548SOL    HW126543   6.032   1.407   5.704
 8548SOL    HW226544   6.065   1.445   5.548
 8549SOL     OW26545   5.944   3.378   4.641
 8549SOL    HW126546   5.986   3.446   4.580
 8549SOL    HW226547   6.011   3.308   4.665
 8550SOL     OW26548   0.912   4.464   6.426
 8550SOL    HW126549   0.979   4.437   6.496
 8550SOL    HW226550   0.961   4.495   6.344
 8551SOL     OW26551   3.435   4.237   0.138
 8551SOL    HW126552   3.351   4.253   0.189
 8551SOL    HW226553   3.503   4.194   0.199
 8552SOL     OW26554   2.234   6.436   4.073
 8552SOL    HW126555   2.238   6.518   4.016
 8552SOL    HW226556   2.181   6.365   4.027
 8553SOL     OW26557   5.903   6.937   0.265
 8553SOL    HW126558   5.874   6.875   0.192
 8553SOL    HW226559   5.837   7.012   0.272
 8554SOL     OW26560   6.278   3.815   6.743
 8554SOL    HW126561   6.220   3.878   6.691
 8554SOL    HW226562   6.371   3.817   6.706
 8555SOL     OW26563   1.647   6.913   3.785
 8555SOL    HW126564   1.591   6.988   3.751
 8555SOL    HW226565   1.635   6.832   3.728
 8556SOL     OW26566   6.066   0.467   3.282
 8556SOL    HW126567   6.091   0.534   3.352
 8556SOL    HW226568   5.973   0.485   3.251
 8557SOL     OW26569   0.336   0.394   1.471
 8557SOL    HW126570   0.388   0.478   1.489
 8557SOL    HW226571   0.397   0.326   1.430
 8558SOL     OW26572   1.293   5.090   1.784
 8558SOL    HW126573   1.199   5.057   1.795
 8558SOL    HW226574   1.303   5.134   1.695
 8559SOL     OW26575   1.296   0.400   0.417
 8559SOL    HW126576   1.212   0.355   0.388
 8559SOL    HW226577   1.340   0.347   0.489
 8560SOL     OW26578   6.162   1.562   0.045
 8560SOL    HW126579   6.160   1.570   0.144
 8560SOL    HW226580   6.116   1.642   0.005
 8561SOL     OW26581   4.508   6.486   3.677
 8561SOL    HW126582   4.529   6.468   3.581
 8561SOL    HW226583   4.527   6.404   3.731
 8562SOL     OW26584   3.147   6.509   4.281
 8562SOL    HW126585   3.088   6.589   4.273
 8562SOL    HW226586   3.242   6.539   4.285
 8563SOL     OW26587   2.392   2.867   6.363
 8563SOL    HW126588   2.465   2.832   6.305
 8563SOL    HW226589   2.344   2.791   6.407
 8564SOL     OW26590   1.327   0.324   3.614
 8564SOL    HW126591   1.377   0.247   3.653
 8564SOL    HW226592   1.387   0.405   3.613
 8565SOL     OW26593   3.402   6.725   2.152
 8565SOL    HW126594   3.311   6.691   2.176
 8565SOL    HW226595   3.438   6.780   2.228
 8566SOL     OW26596   1.806   2.891   3.574
 8566SOL    HW126597   1.876   2.960   3.594
 8566SOL    HW226598   1.848   2.814   3.526
 8567SOL     OW26599   5.247   0.494   1.487
 8567SOL    HW126600   5.163   0.509   1.435
 8567SOL    HW226601   5.224   0.476   1.583
 8568SOL     OW26602   5.284   1.310   0.380
 8568SOL    HW126603   5.382   1.326   0.367
 8568SOL    HW226604   5.256   1.343   0.470
 8569SOL     OW26605   4.185   1.541   4.434
 8569SOL    HW126606   4.089   1.570   4.441
 8569SOL    HW226607   4.224   1.577   4.349
 8570SOL     OW26608   0.143   3.969   0.152
 8570SOL    HW126609   0.090   3.907   0.095
 8570SOL    HW226610   0.154   4.057   0.105
 8571SOL     OW26611   6.582   3.952   5.511
 8571SOL    HW126612   6.529   3.870   5.536
 8571SOL    HW226613   6.535   4.033   5.544
 8572SOL     OW26614   2.571   4.895   5.057
 8572SOL    HW126615   2.616   4.840   4.987
 8572SOL    HW226616   2.640   4.951   5.103
 8573SOL     OW26617   3.516   6.057   5.463
 8573SOL    HW126618   3.534   5.982   5.400
 8573SOL    HW226619   3.509   6.023   5.557
 8574SOL     OW26620   0.637   3.949   5.199
 8574SOL    HW126621   0.656   3.851   5.200
 8574SOL    HW226622   0.545   3.965   5.234
 8575SOL     OW26623   3.510   3.119   0.036
 8575SOL    HW126624   3.446   3.140   0.109
 8575SOL    HW226625   3.575   3.050   0.068
 8576SOL     OW26626   1.809   0.002   1.316
 8576SOL    HW126627   1.794   7.015   1.218
 8576SOL    HW226628   1.782   0.095   1.343
 8577SOL     OW26629   6.734   6.242   3.450
 8577SOL    HW126630   6.800   6.258   3.523
 8577SOL    HW226631   6.729   6.144   3.431
 8578SOL     OW26632   4.271   6.873   3.757
 8578SOL    HW126633   4.329   6.825   3.693
 8578SOL    HW226634   4.216   6.941   3.708
 8579SOL     OW26635   1.035   4.960   3.190
 8579SOL    HW126636   0.979   4.996   3.265
 8579SOL    HW226637   0.981   4.895   3.137
 8580SOL     OW26638   2.611   4.496   6.781
 8580SOL    HW126639   2.615   4.399   6.804
 8580SOL    HW226640   2.696   4.523   6.737
 8581SOL     OW26641   3.165   2.081   1.434
 8581SOL    HW126642   3.264   2.095   1.441
 8581SOL    HW226643   3.145   1.983   1.435
 8582SOL     OW26644   4.307   3.736   1.444
 8582SOL    HW126645   4.389   3.775   1.486
 8582SOL    HW226646   4.255   3.808   1.398
 8583SOL     OW26647   6.177   0.075   6.529
 8583SOL    HW126648   6.174   0.022   6.614
 8583SOL    HW226649   6.091   0.064   6.480
 8584SOL     OW26650   6.354   5.526   0.358
 8584SOL    HW126651   6.326   5.592   0.288
 8584SOL    HW226652   6.433   5.475   0.326
 8585SOL     OW26653   0.217   1.393   0.564
 8585SOL    HW126654   0.179   1.318   0.618
 8585SOL    HW226655   0.244   1.467   0.624
 8586SOL     OW26656   3.969   5.819   3.801
 8586SOL    HW126657   3.885   5.871   3.787
 8586SOL    HW226658   3.969   5.739   3.740
 8587SOL     OW26659   0.414   1.856   1.157
 8587SOL    HW126660   0.441   1.830   1.250
 8587SOL    HW226661   0.474   1.809   1.092
 8588SOL     OW26662   5.166   2.470   6.915
 8588SOL    HW126663   5.256   2.436   6.886
 8588SOL    HW226664   5.149   2.559   6.872
 8589SOL     OW26665   3.235   2.073   4.490
 8589SOL    HW126666   3.322   2.074   4.539
 8589SOL    HW226667   3.164   2.035   4.549
 8590SOL     OW26668   6.031   4.810   5.492
 8590SOL    HW126669   5.998   4.814   5.398
 8590SOL    HW226670   6.004   4.893   5.540
 8591SOL     OW26671   0.729   3.382   6.570
 8591SOL    HW126672   0.632   3.356   6.562
 8591SOL    HW226673   0.766   3.399   6.478
 8592SOL     OW26674   6.085   4.923   0.114
 8592SOL    HW126675   5.986   4.910   0.116
 8592SOL    HW226676   6.106   5.012   0.073
 8593SOL     OW26677   1.290   0.545   2.961
 8593SOL    HW126678   1.266   0.453   2.991
 8593SOL    HW226679   1.281   0.551   2.862
 8594SOL     OW26680   3.975   3.805   4.343
 8594SOL    HW126681   4.041   3.774   4.274
 8594SOL    HW226682   3.888   3.757   4.329
 8595SOL     OW26683   1.885   1.787   1.981
 8595SOL    HW126684   1.967   1.793   2.039
 8595SOL    HW226685   1.906   1.734   1.899
 8596SOL     OW26686   6.085   5.322   2.369
 8596SOL    HW126687   6.012   5.344   2.304
 8596SOL    HW226688   6.172   5.357   2.336
 8597SOL     OW26689   1.988   1.438   1.373
 8597SOL    HW126690   1.987   1.508   1.302
 8597SOL    HW226691   1.928   1.466   1.448
 8598SOL     OW26692   5.222   5.062   0.722
 8598SOL    HW126693   5.154   5.054   0.794
 8598SOL    HW226694   5.312   5.040   0.758
 8599SOL     OW26695   1.795   3.206   2.291
 8599SOL    HW126696   1.786   3.204   2.390
 8599SOL    HW226697   1.892   3.208   2.265
 8600SOL     OW26698   6.699   3.914   6.593
 8600SOL    HW126699   6.725   3.961   6.677
 8600SOL    HW226700   6.763   3.939   6.520
 8601SOL     OW26701   0.562   6.978   4.428
 8601SOL    HW126702   0.475   6.930   4.434
 8601SOL    HW226703   0.552   0.033   4.367
 8602SOL     OW26704   3.253   6.011   2.186
 8602SOL    HW126705   3.193   6.073   2.136
 8602SOL    HW226706   3.345   6.014   2.145
 8603SOL     OW26707   3.938   3.334   0.900
 8603SOL    HW126708   3.969   3.427   0.923
 8603SOL    HW226709   3.854   3.314   0.950
 8604SOL     OW26710   5.042   2.608   2.659
 8604SOL    HW126711   5.072   2.523   2.615
 8604SOL    HW226712   4.968   2.648   2.605
 8605SOL     OW26713   1.981   6.664   1.727
 8605SOL    HW126714   1.973   6.754   1.770
 8605SOL    HW226715   2.057   6.664   1.663
 8606SOL     OW26716   4.134   4.600   5.568
 8606SOL    HW126717   4.115   4.629   5.475
 8606SOL    HW226718   4.205   4.530   5.568
 8607SOL     OW26719   4.270   5.705   1.486
 8607SOL    HW126720   4.177   5.685   1.456
 8607SOL    HW226721   4.267   5.772   1.560
 8608SOL     OW26722   4.997   6.034   2.123
 8608SOL    HW126723   4.999   5.949   2.176
 8608SOL    HW226724   4.902   6.054   2.097
 8609SOL     OW26725   3.671   0.704   4.983
 8609SOL    HW126726   3.578   0.684   4.952
 8609SOL    HW226727   3.671   0.711   5.083
 8610SOL     OW26728   0.304   6.447   4.108
 8610SOL    HW126729   0.300   6.513   4.033
 8610SOL    HW226730   0.222   6.389   4.106
 8611SOL     OW26731   1.901   2.014   3.461
 8611SOL    HW126732   1.906   1.989   3.558
 8611SOL    HW226733   1.972   1.966   3.410
 8612SOL     OW26734   4.519   3.193   5.336
 8612SOL    HW126735   4.551   3.269   5.392
 8612SOL    HW226736   4.431   3.216   5.296
 8613SOL     OW26737   0.900   1.495   0.981
 8613SOL    HW126738   0.981   1.546   0.953
 8613SOL    HW226739   0.896   1.408   0.933
 8614SOL     OW26740   0.939   1.938   3.231
 8614SOL    HW126741   1.024   1.885   3.235
 8614SOL    HW226742   0.937   1.994   3.148
 8615SOL     OW26743   4.571   2.623   4.984
 8615SOL    HW126744   4.483   2.629   5.031
 8615SOL    HW226745   4.555   2.600   4.888
 8616SOL     OW26746   1.378   4.043   0.344
 8616SOL    HW126747   1.450   4.052   0.275
 8616SOL    HW226748   1.400   4.101   0.422
 8617SOL     OW26749   5.762   3.074   1.241
 8617SOL    HW126750   5.737   3.117   1.327
 8617SOL    HW226751   5.846   3.117   1.206
 8618SOL     OW26752   4.712   0.360   3.722
 8618SOL    HW126753   4.761   0.447   3.723
 8618SOL    HW226754   4.711   0.320   3.813
 8619SOL     OW26755   4.333   5.622   6.882
 8619SOL    HW126756   4.369   5.680   6.955
 8619SOL    HW226757   4.264   5.672   6.831
 8620SOL     OW26758   6.726   6.736   3.092
 8620SOL    HW126759   6.632   6.754   3.118
 8620SOL    HW226760   6.785   6.812   3.122
 8621SOL     OW26761   5.628   0.771   3.094
 8621SOL    HW126762   5.588   0.742   3.181
 8621SOL    HW226763   5.723   0.799   3.108
 8622SOL     OW26764   5.024   4.995   0.277
 8622SOL    HW126765   4.960   5.071   0.272
 8622SOL    HW226766   5.054   4.982   0.372
 8623SOL     OW26767   6.337   3.466   2.573
 8623SOL    HW126768   6.300   3.374   2.566
 8623SOL    HW226769   6.428   3.469   2.533
 8624SOL     OW26770   0.585   4.311   3.014
 8624SOL    HW126771   0.648   4.284   3.087
 8624SOL    HW226772   0.637   4.351   2.938
 8625SOL     OW26773   3.611   0.500   4.531
 8625SOL    HW126774   3.678   0.559   4.576
 8625SOL    HW226775   3.553   0.555   4.470
 8626SOL     OW26776   2.993   3.608   3.070
 8626SOL    HW126777   3.054   3.679   3.105
 8626SOL    HW226778   2.963   3.633   2.978
 8627SOL     OW26779   1.978   0.277   6.871
 8627SOL    HW126780   1.928   0.228   6.799
 8627SOL    HW226781   1.951   0.373   6.870
 8628SOL     OW26782   5.128   0.861   0.054
 8628SOL    HW126783   5.166   0.918   0.127
 8628SOL    HW226784   5.049   0.811   0.089
 8629SOL     OW26785   1.384   4.429   4.126
 8629SOL    HW126786   1.348   4.337   4.140
 8629SOL    HW226787   1.411   4.468   4.214
 8630SOL     OW26788   5.667   4.605   3.890
 8630SOL    HW126789   5.740   4.647   3.944
 8630SOL    HW226790   5.687   4.616   3.792
 8631SOL     OW26791   3.762   6.109   5.061
 8631SOL    HW126792   3.772   6.009   5.056
 8631SOL    HW226793   3.743   6.144   4.969
 8632SOL     OW26794   4.346   0.360   3.491
 8632SOL    HW126795   4.264   0.384   3.543
 8632SOL    HW226796   4.377   0.439   3.438
 8633SOL     OW26797   6.416   1.058   3.875
 8633SOL    HW126798   6.369   1.019   3.954
 8633SOL    HW226799   6.382   1.014   3.792
 8634SOL     OW26800   6.546   5.227   1.899
 8634SOL    HW126801   6.469   5.253   1.958
 8634SOL    HW226802   6.528   5.258   1.806
 8635SOL     OW26803   5.746   4.205   5.272
 8635SOL    HW126804   5.707   4.159   5.192
 8635SOL    HW226805   5.730   4.303   5.265
 8636SOL     OW26806   6.162   5.664   0.833
 8636SOL    HW126807   6.100   5.636   0.906
 8636SOL    HW226808   6.113   5.665   0.746
 8637SOL     OW26809   2.398   0.767   1.310
 8637SOL    HW126810   2.325   0.787   1.245
 8637SOL    HW226811   2.445   0.852   1.334
 8638SOL     OW26812   3.630   4.536   0.420
 8638SOL    HW126813   3.668   4.627   0.439
 8638SOL    HW226814   3.697   4.466   0.443
 8639SOL     OW26815   0.060   2.934   2.681
 8639SOL    HW126816   0.088   2.873   2.755
 8639SOL    HW226817   6.992   2.910   2.650
 8640SOL     OW26818   5.332   5.647   0.675
 8640SOL    HW126819   5.274   5.702   0.614
 8640SOL    HW226820   5.400   5.599   0.620
 8641SOL     OW26821   5.905   4.976   3.360
 8641SOL    HW126822   5.823   5.024   3.392
 8641SOL    HW226823   5.921   4.895   3.417
 8642SOL     OW26824   4.466   1.310   1.383
 8642SOL    HW126825   4.415   1.372   1.324
 8642SOL    HW226826   4.431   1.316   1.476
 8643SOL     OW26827   4.697   0.666   5.723
 8643SOL    HW126828   4.778   0.723   5.736
 8643SOL    HW226829   4.627   0.691   5.790
 8644SOL     OW26830   6.268   3.401   5.173
 8644SOL    HW126831   6.216   3.474   5.127
 8644SOL    HW226832   6.215   3.367   5.250
 8645SOL     OW26833   6.073   4.753   1.771
 8645SOL    HW126834   6.027   4.826   1.821
 8645SOL    HW226835   6.087   4.674   1.831
 8646SOL     OW26836   4.954   0.672   0.200
 8646SOL    HW126837   4.879   0.729   0.232
 8646SOL    HW226838   5.026   0.668   0.270
 8647SOL     OW26839   4.447   5.108   0.475
 8647SOL    HW126840   4.425   5.050   0.553
 8647SOL    HW226841   4.380   5.182   0.468
 8648SOL     OW26842   5.455   1.733   4.202
 8648SOL    HW126843   5.442   1.774   4.292
 8648SOL    HW226844   5.414   1.792   4.133
 8649SOL     OW26845   6.781   4.437   5.340
 8649SOL    HW126846   6.745   4.467   5.252
 8649SOL    HW226847   6.868   4.389   5.325
 8650SOL     OW26848   2.135   5.058   3.025
 8650SOL    HW126849   2.109   5.097   3.113
 8650SOL    HW226850   2.065   4.994   2.994
 8651SOL     OW26851   3.189   1.498   0.868
 8651SOL    HW126852   3.176   1.595   0.889
 8651SOL    HW226853   3.285   1.482   0.843
 8652SOL     OW26854   1.296   3.496   3.807
 8652SOL    HW126855   1.353   3.541   3.737
 8652SOL    HW226856   1.292   3.398   3.789
 8653SOL     OW26857   7.014   3.374   6.933
 8653SOL    HW126858   7.015   3.295   6.993
 8653SOL    HW226859   6.923   3.414   6.930
 8654SOL     OW26860   0.664   0.143   3.531
 8654SOL    HW126861   0.716   0.217   3.572
 8654SOL    HW226862   0.703   0.121   3.442
 8655SOL     OW26863   6.334   6.099   4.266
 8655SOL    HW126864   6.267   6.158   4.312
 8655SOL    HW226865   6.343   6.127   4.171
 8656SOL     OW26866   5.995   2.204   1.288
 8656SOL    HW126867   6.011   2.118   1.239
 8656SOL    HW226868   5.937   2.187   1.368
 8657SOL     OW26869   3.432   3.893   6.677
 8657SOL    HW126870   3.356   3.874   6.739
 8657SOL    HW226871   3.474   3.807   6.648
 8658SOL     OW26872   6.623   5.116   0.226
 8658SOL    HW126873   6.655   5.126   0.320
 8658SOL    HW226874   6.702   5.110   0.165
 8659SOL     OW26875   5.538   0.576   4.657
 8659SOL    HW126876   5.445   0.613   4.662
 8659SOL    HW226877   5.552   0.533   4.568
 8660SOL     OW26878   5.815   4.211   0.997
 8660SOL    HW126879   5.908   4.247   1.001
 8660SOL    HW226880   5.810   4.127   1.050
 8661SOL     OW26881   6.899   4.094   1.598
 8661SOL    HW126882   6.811   4.070   1.638
 8661SOL    HW226883   6.939   4.014   1.555
 8662SOL     OW26884   0.011   6.976   0.491
 8662SOL    HW126885   0.104   6.981   0.527
 8662SOL    HW226886   0.011   6.926   0.405
 8663SOL     OW26887   2.304   5.550   0.056
 8663SOL    HW126888   2.223   5.548   7.021
 8663SOL    HW226889   2.354   5.636   0.040
 8664SOL     OW26890   4.434   5.807   0.038
 8664SOL    HW126891   4.533   5.813   0.041
 8664SOL    HW226892   4.395   5.900   0.043
 8665SOL     OW26893   5.423   5.320   5.482
 8665SOL    HW126894   5.446   5.410   5.518
 8665SOL    HW226895   5.361   5.273   5.545
 8666SOL     OW26896   5.162   2.584   4.214
 8666SOL    HW126897   5.150   2.654   4.285
 8666SOL    HW226898   5.074   2.541   4.194
 8667SOL     OW26899   4.513   1.421   3.909
 8667SOL    HW126900   4.564   1.452   3.829
 8667SOL    HW226901   4.453   1.495   3.941
 8668SOL     OW26902   3.865   1.872   3.923
 8668SOL    HW126903   3.780   1.924   3.919
 8668SOL    HW226904   3.857   1.789   3.868
 8669SOL     OW26905   4.134   0.448   5.529
 8669SOL    HW126906   4.165   0.506   5.454
 8669SOL    HW226907   4.045   0.409   5.506
 8670SOL     OW26908   3.796   5.521   4.233
 8670SOL    HW126909   3.718   5.582   4.221
 8670SOL    HW226910   3.859   5.559   4.301
 8671SOL     OW26911   5.785   6.806   3.493
 8671SOL    HW126912   5.782   6.885   3.554
 8671SOL    HW226913   5.702   6.804   3.437
 8672SOL     OW26914   3.774   4.929   4.623
 8672SOL    HW126915   3.745   4.895   4.533
 8672SOL    HW226916   3.706   4.994   4.658
 8673SOL     OW26917   5.704   2.080   0.721
 8673SOL    HW126918   5.645   2.154   0.754
 8673SOL    HW226919   5.695   2.073   0.622
 8674SOL     OW26920   0.302   0.079   3.191
 8674SOL    HW126921   0.365   0.114   3.121
 8674SOL    HW226922   0.339   0.100   3.282
 8675SOL     OW26923   1.973   1.014   2.591
 8675SOL    HW126924   1.971   1.105   2.632
 8675SOL    HW226925   1.883   0.991   2.555
 8676SOL     OW26926   4.572   0.272   2.719
 8676SOL    HW126927   4.639   0.347   2.721
 8676SOL    HW226928   4.619   0.185   2.721
 8677SOL     OW26929   2.719   4.293   5.751
 8677SOL    HW126930   2.728   4.215   5.689
 8677SOL    HW226931   2.809   4.318   5.786
 8678SOL     OW26932   0.828   6.629   6.033
 8678SOL    HW126933   0.791   6.662   6.120
 8678SOL    HW226934   0.910   6.574   6.050
 8679SOL     OW26935   7.000   2.749   4.885
 8679SOL    HW126936   0.065   2.715   4.855
 8679SOL    HW226937   7.011   2.800   4.970
 8680SOL     OW26938   1.371   3.500   6.778
 8680SOL    HW126939   1.426   3.531   6.855
 8680SOL    HW226940   1.430   3.461   6.708
 8681SOL     OW26941   3.622   4.160   0.605
 8681SOL    HW126942   3.527   4.169   0.638
 8681SOL    HW226943   3.674   4.105   0.669
 8682SOL     OW26944   2.184   6.185   3.308
 8682SOL    HW126945   2.111   6.253   3.301
 8682SOL    HW226946   2.167   6.125   3.386
 8683SOL     OW26947   6.962   3.185   0.124
 8683SOL    HW126948   6.955   3.213   0.219
 8683SOL    HW226949   0.023   3.134   0.111
 8684SOL     OW26950   6.253   3.353   4.332
 8684SOL    HW126951   6.214   3.420   4.269
 8684SOL    HW226952   6.335   3.392   4.375
 8685SOL     OW26953   1.250   2.282   6.263
 8685SOL    HW126954   1.189   2.351   6.304
 8685SOL    HW226955   1.201   2.234   6.190
 8686SOL     OW26956   6.667   2.173   3.545
 8686SOL    HW126957   6.626   2.241   3.485
 8686SOL    HW226958   6.647   2.196   3.640
 8687SOL     OW26959   3.251   0.148   3.201
 8687SOL    HW126960   3.226   0.236   3.159
 8687SOL    HW226961   3.251   0.157   3.301
 8688SOL     OW26962   2.387   0.328   1.743
 8688SOL    HW126963   2.363   0.246   1.692
 8688SOL    HW226964   2.319   0.344   1.815
 8689SOL     OW26965   4.144   5.876   0.255
 8689SOL    HW126966   4.077   5.900   0.326
 8689SOL    HW226967   4.214   5.816   0.294
 8690SOL     OW26968   0.462   1.229   2.817
 8690SOL    HW126969   0.429   1.194   2.905
 8690SOL    HW226970   0.387   1.226   2.751
 8691SOL     OW26971   5.197   2.223   0.212
 8691SOL    HW126972   5.223   2.184   0.301
 8691SOL    HW226973   5.188   2.323   0.221
 8692SOL     OW26974   2.402   1.631   4.309
 8692SOL    HW126975   2.386   1.576   4.227
 8692SOL    HW226976   2.366   1.723   4.295
 8693SOL     OW26977   5.272   2.195   0.819
 8693SOL    HW126978   5.305   2.120   0.877
 8693SOL    HW226979   5.279   2.281   0.869
 8694SOL     OW26980   4.948   0.172   5.924
 8694SOL    HW126981   5.016   0.184   5.996
 8694SOL    HW226982   4.974   0.226   5.844
 8695SOL     OW26983   4.759   4.589   5.610
 8695SOL    HW126984   4.747   4.493   5.637
 8695SOL    HW226985   4.843   4.625   5.651
 8696SOL     OW26986   2.362   5.855   1.564
 8696SOL    HW126987   2.414   5.914   1.503
 8696SOL    HW226988   2.340   5.769   1.518
 8697SOL     OW26989   6.400   4.228   0.876
 8697SOL    HW126990   6.462   4.152   0.857
 8697SOL    HW226991   6.425   4.306   0.818
 8698SOL     OW26992   5.448   5.900   4.367
 8698SOL    HW126993   5.389   5.871   4.292
 8698SOL    HW226994   5.543   5.876   4.346
 8699SOL     OW26995   1.345   1.802   5.277
 8699SOL    HW126996   1.291   1.809   5.193
 8699SOL    HW226997   1.333   1.886   5.330
 8700SOL     OW26998   3.131   1.226   5.689
 8700SOL    HW126999   3.189   1.240   5.609
 8700SOL    HW227000   3.045   1.275   5.677
 8701SOL     OW27001   0.304   1.901   4.935
 8701SOL    HW127002   0.341   1.988   4.967
 8701SOL    HW227003   0.335   1.827   4.996
 8702SOL     OW27004   5.235   5.738   0.170
 8702SOL    HW127005   5.270   5.655   0.126
 8702SOL    HW227006   5.302   5.769   0.238
 8703SOL     OW27007   2.455   6.082   0.846
 8703SOL    HW127008   2.440   6.073   0.747
 8703SOL    HW227009   2.370   6.058   0.894
 8704SOL     OW27010   0.137   4.665   1.915
 8704SOL    HW127011   0.091   4.753   1.920
 8704SOL    HW227012   0.227   4.672   1.959
 8705SOL     OW27013   5.002   0.424   5.712
 8705SOL    HW127014   5.039   0.516   5.722
 8705SOL    HW227015   4.903   0.425   5.726
 8706SOL     OW27016   5.339   1.798   0.627
 8706SOL    HW127017   5.247   1.824   0.595
 8706SOL    HW227018   5.375   1.725   0.569
 8707SOL     OW27019   5.258   2.663   5.862
 8707SOL    HW127020   5.190   2.596   5.891
 8707SOL    HW227021   5.212   2.748   5.835
 8708SOL     OW27022   4.158   1.292   1.410
 8708SOL    HW127023   4.067   1.330   1.424
 8708SOL    HW227024   4.225   1.365   1.406
 8709SOL     OW27025   0.085   3.962   1.117
 8709SOL    HW127026   0.163   3.987   1.059
 8709SOL    HW227027   0.115   3.896   1.186
 8710SOL     OW27028   1.844   3.360   3.447
 8710SOL    HW127029   1.823   3.271   3.406
 8710SOL    HW227030   1.816   3.359   3.543
 8711SOL     OW27031   6.714   0.944   3.637
 8711SOL    HW127032   6.663   1.012   3.585
 8711SOL    HW227033   6.683   0.945   3.732
 8712SOL     OW27034   3.218   1.862   5.037
 8712SOL    HW127035   3.184   1.772   5.010
 8712SOL    HW227036   3.145   1.913   5.083
 8713SOL     OW27037   6.998   4.488   3.740
 8713SOL    HW127038   0.058   4.497   3.792
 8713SOL    HW227039   7.000   4.404   3.686
 8714SOL     OW27040   1.576   1.072   5.777
 8714SOL    HW127041   1.593   1.059   5.875
 8714SOL    HW227042   1.477   1.069   5.760
 8715SOL     OW27043   6.158   1.960   1.491
 8715SOL    HW127044   6.157   1.928   1.396
 8715SOL    HW227045   6.067   1.993   1.516
 8716SOL     OW27046   0.866   1.786   0.840
 8716SOL    HW127047   0.853   1.881   0.868
 8716SOL    HW227048   0.931   1.741   0.902
 8717SOL     OW27049   3.869   3.662   1.443
 8717SOL    HW127050   3.911   3.639   1.354
 8717SOL    HW227051   3.924   3.622   1.516
 8718SOL     OW27052   6.197   2.885   5.365
 8718SOL    HW127053   6.171   2.941   5.287
 8718SOL    HW227054   6.116   2.861   5.418
 8719SOL     OW27055   0.266   0.152   5.856
 8719SOL    HW127056   0.274   0.119   5.763
 8719SOL    HW227057   0.172   0.184   5.872
 8720SOL     OW27058   5.369   4.091   5.383
 8720SOL    HW127059   5.325   4.166   5.334
 8720SOL    HW227060   5.420   4.127   5.462
 8721SOL     OW27061   6.985   2.610   4.313
 8721SOL    HW127062   6.984   2.695   4.261
 8721SOL    HW227063   0.053   2.592   4.347
 8722SOL     OW27064   3.999   2.731   0.322
 8722SOL    HW127065   3.993   2.645   0.272
 8722SOL    HW227066   3.917   2.744   0.377
 8723SOL     OW27067   6.745   5.124   1.511
 8723SOL    HW127068   6.828   5.119   1.455
 8723SOL    HW227069   6.665   5.108   1.454
 8724SOL     OW27070   5.395   0.552   6.205
 8724SOL    HW127071   5.491   0.574   6.224
 8724SOL    HW227072   5.368   0.591   6.118
 8725SOL     OW27073   2.431   6.018   0.582
 8725SOL    HW127074   2.388   6.028   0.492
 8725SOL    HW227075   2.511   5.958   0.574
 8726SOL     OW27076   6.223   0.347   1.434
 8726SOL    HW127077   6.174   0.408   1.373
 8726SOL    HW227078   6.255   0.267   1.383
 8727SOL     OW27079   6.424   6.270   1.122
 8727SOL    HW127080   6.456   6.362   1.098
 8727SOL    HW227081   6.379   6.273   1.211
 8728SOL     OW27082   2.643   6.855   5.220
 8728SOL    HW127083   2.668   6.812   5.133
 8728SOL    HW227084   2.708   6.826   5.291
 8729SOL     OW27085   5.168   5.911   4.247
 8729SOL    HW127086   5.074   5.883   4.264
 8729SOL    HW227087   5.210   5.942   4.332
 8730SOL     OW27088   0.029   5.777   2.047
 8730SOL    HW127089   0.102   5.711   2.032
 8730SOL    HW227090   6.999   5.786   1.963
 8731SOL     OW27091   1.516   1.426   2.368
 8731SOL    HW127092   1.433   1.471   2.335
 8731SOL    HW227093   1.568   1.391   2.290
 8732SOL     OW27094   5.719   3.571   1.727
 8732SOL    HW127095   5.659   3.553   1.649
 8732SOL    HW227096   5.744   3.668   1.728
 8733SOL     OW27097   0.969   6.453   1.556
 8733SOL    HW127098   0.872   6.466   1.578
 8733SOL    HW227099   1.025   6.479   1.634
 8734SOL     OW27100   6.600   5.718   1.421
 8734SOL    HW127101   6.667   5.791   1.434
 8734SOL    HW227102   6.545   5.708   1.503
 8735SOL     OW27103   0.131   1.965   6.824
 8735SOL    HW127104   0.213   1.946   6.878
 8735SOL    HW227105   0.082   1.879   6.806
 8736SOL     OW27106   0.397   4.820   6.686
 8736SOL    HW127107   0.447   4.739   6.656
 8736SOL    HW227108   0.442   4.902   6.650
 8737SOL     OW27109   4.116   5.661   6.115
 8737SOL    HW127110   4.098   5.580   6.059
 8737SOL    HW227111   4.214   5.678   6.119
 8738SOL     OW27112   1.226   3.666   4.200
 8738SOL    HW127113   1.324   3.650   4.215
 8738SOL    HW227114   1.173   3.620   4.271
 8739SOL     OW27115   0.039   3.100   5.364
 8739SOL    HW127116   0.080   3.179   5.318
 8739SOL    HW227117   0.042   3.114   5.463
 8740SOL     OW27118   1.936   6.503   0.920
 8740SOL    HW127119   1.958   6.406   0.909
 8740SOL    HW227120   2.000   6.559   0.867
 8741SOL     OW27121   1.492   3.334   2.658
 8741SOL    HW127122   1.458   3.260   2.715
 8741SOL    HW227123   1.577   3.370   2.697
 8742SOL     OW27124   4.548   0.045   1.643
 8742SOL    HW127125   4.547   0.118   1.711
 8742SOL    HW227126   4.493   6.993   1.675
 8743SOL     OW27127   2.563   5.277   2.881
 8743SOL    HW127128   2.468   5.259   2.855
 8743SOL    HW227129   2.582   5.235   2.969
 8744SOL     OW27130   4.187   2.076   6.247
 8744SOL    HW127131   4.202   2.168   6.282
 8744SOL    HW227132   4.267   2.019   6.268
 8745SOL     OW27133   6.709   2.191   6.156
 8745SOL    HW127134   6.705   2.267   6.221
 8745SOL    HW227135   6.731   2.106   6.204
 8746SOL     OW27136   5.371   4.924   5.668
 8746SOL    HW127137   5.453   4.867   5.655
 8746SOL    HW227138   5.303   4.873   5.720
 8747SOL     OW27139   1.900   2.338   4.117
 8747SOL    HW127140   1.971   2.273   4.093
 8747SOL    HW227141   1.934   2.431   4.104
 8748SOL     OW27142   1.559   6.967   6.932
 8748SOL    HW127143   1.468   6.972   6.892
 8748SOL    HW227144   1.570   0.015   7.000
 8749SOL     OW27145   3.751   0.436   3.528
 8749SOL    HW127146   3.800   0.376   3.465
 8749SOL    HW227147   3.660   0.456   3.492
 8750SOL     OW27148   2.214   1.449   5.427
 8750SOL    HW127149   2.163   1.506   5.363
 8750SOL    HW227150   2.150   1.395   5.483
 8751SOL     OW27151   1.204   6.829   3.035
 8751SOL    HW127152   1.168   6.860   2.947
 8751SOL    HW227153   1.128   6.808   3.097
 8752SOL     OW27154   1.470   2.380   5.991
 8752SOL    HW127155   1.498   2.339   6.078
 8752SOL    HW227156   1.420   2.312   5.938
 8753SOL     OW27157   5.014   1.657   4.451
 8753SOL    HW127158   5.006   1.757   4.450
 8753SOL    HW227159   5.052   1.627   4.539
 8754SOL     OW27160   1.406   1.786   5.723
 8754SOL    HW127161   1.333   1.764   5.658
 8754SOL    HW227162   1.417   1.712   5.789
 8755SOL     OW27163   1.929   1.497   0.675
 8755SOL    HW127164   1.868   1.576   0.680
 8755SOL    HW227165   1.875   1.414   0.658
 8756SOL     OW27166   2.126   3.275   4.136
 8756SOL    HW127167   2.172   3.190   4.162
 8756SOL    HW227168   2.138   3.343   4.208
 8757SOL     OW27169   4.761   6.439   5.138
 8757SOL    HW127170   4.807   6.356   5.169
 8757SOL    HW227171   4.665   6.419   5.119
 8758SOL     OW27172   6.214   6.563   1.144
 8758SOL    HW127173   6.189   6.516   1.229
 8758SOL    HW227174   6.179   6.512   1.066
 8759SOL     OW27175   5.005   0.596   5.403
 8759SOL    HW127176   4.912   0.561   5.415
 8759SOL    HW227177   5.029   0.594   5.306
 8760SOL     OW27178   1.690   2.160   3.828
 8760SOL    HW127179   1.606   2.187   3.781
 8760SOL    HW227180   1.759   2.232   3.817
 8761SOL     OW27181   4.401   6.995   0.156
 8761SOL    HW127182   4.400   6.896   0.140
 8761SOL    HW227183   4.446   0.016   0.080
 8762SOL     OW27184   0.915   4.505   0.956
 8762SOL    HW127185   0.989   4.475   0.897
 8762SOL    HW227186   0.841   4.437   0.955
 8763SOL     OW27187   0.567   6.510   6.333
 8763SOL    HW127188   0.581   6.483   6.429
 8763SOL    HW227189   0.596   6.605   6.321
 8764SOL     OW27190   4.141   1.815   4.707
 8764SOL    HW127191   4.127   1.891   4.771
 8764SOL    HW227192   4.063   1.753   4.710
 8765SOL     OW27193   5.938   0.425   4.114
 8765SOL    HW127194   5.971   0.468   4.198
 8765SOL    HW227195   6.016   0.397   4.058
 8766SOL     OW27196   2.227   4.871   2.487
 8766SOL    HW127197   2.155   4.902   2.548
 8766SOL    HW227198   2.188   4.810   2.417
 8767SOL     OW27199   4.084   1.215   3.797
 8767SOL    HW127200   4.158   1.166   3.843
 8767SOL    HW227201   4.120   1.299   3.755
 8768SOL     OW27202   1.624   3.338   6.669
 8768SOL    HW127203   1.695   3.407   6.682
 8768SOL    HW227204   1.654   3.271   6.601
 8769SOL     OW27205   1.737   0.158   5.611
 8769SOL    HW127206   1.710   0.184   5.518
 8769SOL    HW227207   1.758   0.240   5.664
 8770SOL     OW27208   5.561   2.970   1.753
 8770SOL    HW127209   5.630   3.040   1.735
 8770SOL    HW227210   5.476   3.014   1.782
 8771SOL     OW27211   0.677   1.404   6.438
 8771SOL    HW127212   0.747   1.365   6.380
 8771SOL    HW227213   0.634   1.332   6.492
 8772SOL     OW27214   5.332   1.187   0.006
 8772SOL    HW127215   5.385   1.193   6.946
 8772SOL    HW227216   5.386   1.141   0.077
 8773SOL     OW27217   2.425   2.668   2.860
 8773SOL    HW127218   2.508   2.688   2.807
 8773SOL    HW227219   2.441   2.588   2.917
 8774SOL     OW27220   1.288   1.074   0.934
 8774SOL    HW127221   1.218   1.071   0.862
 8774SOL    HW227222   1.299   1.168   0.966
 8775SOL     OW27223   6.746   0.090   3.751
 8775SOL    HW127224   6.753   0.147   3.670
 8775SOL    HW227225   6.676   0.020   3.738
 8776SOL     OW27226   3.216   3.140   4.981
 8776SOL    HW127227   3.133   3.195   4.990
 8776SOL    HW227228   3.194   3.044   4.997
 8777SOL     OW27229   6.266   6.220   1.780
 8777SOL    HW127230   6.348   6.223   1.723
 8777SOL    HW227231   6.192   6.270   1.735
 8778SOL     OW27232   0.482   2.260   3.600
 8778SOL    HW127233   0.499   2.181   3.541
 8778SOL    HW227234   0.432   2.230   3.682
 8779SOL     OW27235   1.001   4.812   0.672
 8779SOL    HW127236   0.921   4.870   0.662
 8779SOL    HW227237   0.998   4.766   0.761
 8780SOL     OW27238   1.266   5.603   4.783
 8780SOL    HW127239   1.226   5.561   4.701
 8780SOL    HW227240   1.366   5.597   4.778
 8781SOL     OW27241   0.328   1.758   2.316
 8781SOL    HW127242   0.277   1.843   2.306
 8781SOL    HW227243   0.406   1.758   2.255
 8782SOL     OW27244   4.159   1.301   2.867
 8782SOL    HW127245   4.092   1.275   2.936
 8782SOL    HW227246   4.187   1.220   2.816
 8783SOL     OW27247   5.838   3.593   4.766
 8783SOL    HW127248   5.883   3.518   4.719
 8783SOL    HW227249   5.750   3.612   4.722
 8784SOL     OW27250   5.388   4.826   5.293
 8784SOL    HW127251   5.463   4.831   5.358
 8784SOL    HW227252   5.380   4.912   5.243
 8785SOL     OW27253   6.413   4.562   6.111
 8785SOL    HW127254   6.457   4.527   6.028
 8785SOL    HW227255   6.327   4.608   6.086
 8786SOL     OW27256   1.868   7.008   6.887
 8786SOL    HW127257   1.830   6.921   6.857
 8786SOL    HW227258   1.823   0.011   6.973
 8787SOL     OW27259   1.285   3.651   1.110
 8787SOL    HW127260   1.370   3.698   1.088
 8787SOL    HW227261   1.280   3.635   1.208
 8788SOL     OW27262   1.116   1.566   5.094
 8788SOL    HW127263   1.035   1.576   5.036
 8788SOL    HW227264   1.184   1.511   5.047
 8789SOL     OW27265   0.508   6.814   6.507
 8789SOL    HW127266   0.441   6.786   6.576
 8789SOL    HW227267   0.514   6.744   6.437
 8790SOL     OW27268   5.440   1.534   0.091
 8790SOL    HW127269   5.479   1.446   0.119
 8790SOL    HW227270   5.480   1.608   0.145
 8791SOL     OW27271   4.909   6.682   5.612
 8791SOL    HW127272   4.840   6.744   5.574
 8791SOL    HW227273   4.908   6.596   5.561
 8792SOL     OW27274   5.040   6.999   3.016
 8792SOL    HW127275   5.001   6.981   3.106
 8792SOL    HW227276   5.027   6.919   2.957
 8793SOL     OW27277   1.113   5.917   4.335
 8793SOL    HW127278   1.084   5.933   4.429
 8793SOL    HW227279   1.069   5.835   4.300
 8794SOL     OW27280   1.823   6.606   2.662
 8794SOL    HW127281   1.878   6.575   2.740
 8794SOL    HW227282   1.829   6.539   2.588
 8795SOL     OW27283   2.289   6.108   5.752
 8795SOL    HW127284   2.204   6.069   5.787
 8795SOL    HW227285   2.283   6.208   5.755
 8796SOL     OW27286   5.289   2.461   4.960
 8796SOL    HW127287   5.226   2.521   5.009
 8796SOL    HW227288   5.252   2.440   4.870
 8797SOL     OW27289   0.495   6.874   6.852
 8797SOL    HW127290   0.543   6.786   6.851
 8797SOL    HW227291   0.561   6.947   6.833
 8798SOL     OW27292   4.787   3.611   5.398
 8798SOL    HW127293   4.880   3.639   5.375
 8798SOL    HW227294   4.740   3.580   5.315
 8799SOL     OW27295   2.972   5.265   2.994
 8799SOL    HW127296   2.893   5.274   2.934
 8799SOL    HW227297   3.055   5.282   2.941
 8800SOL     OW27298   4.738   4.771   6.789
 8800SOL    HW127299   4.694   4.773   6.699
 8800SOL    HW227300   4.696   4.841   6.847
 8801SOL     OW27301   2.600   0.963   4.943
 8801SOL    HW127302   2.608   0.979   4.845
 8801SOL    HW227303   2.534   0.890   4.960
 8802SOL     OW27304   2.708   6.466   2.504
 8802SOL    HW127305   2.664   6.555   2.518
 8802SOL    HW227306   2.800   6.469   2.543
 8803SOL     OW27307   3.695   6.047   0.602
 8803SOL    HW127308   3.650   6.128   0.640
 8803SOL    HW227309   3.649   6.021   0.517
 8804SOL     OW27310   4.831   0.479   1.051
 8804SOL    HW127311   4.850   0.491   0.954
 8804SOL    HW227312   4.791   0.563   1.088
 8805SOL     OW27313   0.595   0.491   3.098
 8805SOL    HW127314   0.549   0.421   3.152
 8805SOL    HW227315   0.540   0.575   3.100
 8806SOL     OW27316   2.055   4.901   6.752
 8806SOL    HW127317   2.038   4.803   6.736
 8806SOL    HW227318   2.131   4.931   6.694
 8807SOL     OW27319   1.387   6.078   6.220
 8807SOL    HW127320   1.289   6.068   6.202
 8807SOL    HW227321   1.408   6.174   6.238
 8808SOL     OW27322   5.711   1.362   1.049
 8808SOL    HW127323   5.699   1.266   1.024
 8808SOL    HW227324   5.681   1.420   0.973
 8809SOL     OW27325   5.884   3.997   1.183
 8809SOL    HW127326   5.813   3.926   1.190
 8809SOL    HW227327   5.974   3.954   1.183
 8810SOL     OW27328   4.100   1.623   4.175
 8810SOL    HW127329   4.015   1.573   4.189
 8810SOL    HW227330   4.082   1.722   4.175
 8811SOL     OW27331   1.129   1.285   2.749
 8811SOL    HW127332   1.080   1.267   2.834
 8811SOL    HW227333   1.075   1.347   2.692
 8812SOL     OW27334   2.241   0.812   1.070
 8812SOL    HW127335   2.309   0.879   1.043
 8812SOL    HW227336   2.151   0.838   1.034
 8813SOL     OW27337   1.990   5.980   1.715
 8813SOL    HW127338   1.964   5.909   1.650
 8813SOL    HW227339   1.941   6.065   1.695
 8814SOL     OW27340   6.077   0.900   6.279
 8814SOL    HW127341   6.170   0.909   6.313
 8814SOL    HW227342   6.046   0.987   6.240
 8815SOL     OW27343   0.535   5.973   2.569
 8815SOL    HW127344   0.551   6.066   2.535
 8815SOL    HW227345   0.554   5.908   2.495
 8816SOL     OW27346   1.106   5.818   1.550
 8816SOL    HW127347   1.013   5.845   1.527
 8816SOL    HW227348   1.144   5.881   1.617
 8817SOL     OW27349   1.733   5.216   5.603
 8817SOL    HW127350   1.774   5.270   5.529
 8817SOL    HW227351   1.778   5.238   5.689
 8818SOL     OW27352   0.527   5.406   3.997
 8818SOL    HW127353   0.438   5.433   4.034
 8818SOL    HW227354   0.514   5.366   3.906
 8819SOL     OW27355   4.877   6.663   4.136
 8819SOL    HW127356   4.849   6.666   4.232
 8819SOL    HW227357   4.955   6.723   4.122
 8820SOL     OW27358   1.193   2.418   3.753
 8820SOL    HW127359   1.244   2.496   3.716
 8820SOL    HW227360   1.193   2.423   3.853
 8821SOL     OW27361   2.222   1.089   6.240
 8821SOL    HW127362   2.289   1.016   6.231
 8821SOL    HW227363   2.165   1.092   6.157
 8822SOL     OW27364   0.197   2.372   3.296
 8822SOL    HW127365   0.134   2.297   3.316
 8822SOL    HW227366   0.262   2.343   3.226
 8823SOL     OW27367   1.988   6.269   2.008
 8823SOL    HW127368   2.068   6.327   1.992
 8823SOL    HW227369   2.017   6.175   2.027
 8824SOL     OW27370   3.886   4.160   0.751
 8824SOL    HW127371   3.819   4.101   0.797
 8824SOL    HW227372   3.964   4.105   0.721
 8825SOL     OW27373   0.910   1.548   1.816
 8825SOL    HW127374   0.906   1.454   1.850
 8825SOL    HW227375   0.937   1.609   1.891
 8826SOL     OW27376   5.113   1.690   6.686
 8826SOL    HW127377   5.177   1.747   6.737
 8826SOL    HW227378   5.116   1.596   6.723
 8827SOL     OW27379   1.304   2.082   3.157
 8827SOL    HW127380   1.214   2.107   3.120
 8827SOL    HW227381   1.329   1.991   3.122
 8828SOL     OW27382   2.535   6.670   2.622
 8828SOL    HW127383   2.437   6.654   2.615
 8828SOL    HW227384   2.552   6.768   2.635
 8829SOL     OW27385   0.101   2.101   0.654
 8829SOL    HW127386   0.117   2.113   0.557
 8829SOL    HW227387   0.140   2.178   0.705
 8830SOL     OW27388   0.576   2.282   0.978
 8830SOL    HW127389   0.522   2.283   0.894
 8830SOL    HW227390   0.631   2.365   0.983
 8831SOL     OW27391   6.559   0.614   2.837
 8831SOL    HW127392   6.523   0.521   2.827
 8831SOL    HW227393   6.499   0.666   2.898
 8832SOL     OW27394   6.151   0.688   2.770
 8832SOL    HW127395   6.140   0.734   2.858
 8832SOL    HW227396   6.066   0.641   2.745
 8833SOL     OW27397   2.032   4.439   3.728
 8833SOL    HW127398   2.016   4.430   3.827
 8833SOL    HW227399   2.099   4.371   3.699
 8834SOL     OW27400   5.685   4.035   5.042
 8834SOL    HW127401   5.655   3.960   5.100
 8834SOL    HW227402   5.755   4.002   4.978
 8835SOL     OW27403   0.219   6.584   6.563
 8835SOL    HW127404   0.245   6.666   6.614
 8835SOL    HW227405   0.126   6.594   6.529
 8836SOL     OW27406   4.700   1.566   0.569
 8836SOL    HW127407   4.648   1.576   0.654
 8836SOL    HW227408   4.643   1.595   0.492
 8837SOL     OW27409   0.082   0.938   2.067
 8837SOL    HW127410   0.024   0.959   2.145
 8837SOL    HW227411   0.153   0.873   2.094
 8838SOL     OW27412   2.243   5.427   4.096
 8838SOL    HW127413   2.152   5.470   4.092
 8838SOL    HW227414   2.313   5.496   4.078
 8839SOL     OW27415   6.649   6.857   3.897
 8839SOL    HW127416   6.673   6.779   3.839
 8839SOL    HW227417   6.552   6.851   3.921
 8840SOL     OW27418   5.281   1.998   2.303
 8840SOL    HW127419   5.364   1.945   2.290
 8840SOL    HW227420   5.270   2.021   2.399
 8841SOL     OW27421   1.742   1.573   5.103
 8841SOL    HW127422   1.729   1.510   5.179
 8841SOL    HW227423   1.661   1.572   5.044
 8842SOL     OW27424   2.286   2.954   1.834
 8842SOL    HW127425   2.281   3.051   1.858
 8842SOL    HW227426   2.359   2.940   1.767
 8843SOL     OW27427   0.313   3.274   4.946
 8843SOL    HW127428   0.247   3.199   4.943
 8843SOL    HW227429   0.402   3.239   4.976
 8844SOL     OW27430   6.587   1.368   6.517
 8844SOL    HW127431   6.550   1.349   6.608
 8844SOL    HW227432   6.680   1.332   6.510
 8845SOL     OW27433   5.699   4.547   0.138
 8845SOL    HW127434   5.707   4.531   0.039
 8845SOL    HW227435   5.740   4.471   0.187
 8846SOL     OW27436   1.945   4.701   3.777
 8846SOL    HW127437   1.858   4.723   3.734
 8846SOL    HW227438   1.968   4.605   3.762
 8847SOL     OW27439   2.915   0.471   2.726
 8847SOL    HW127440   2.923   0.481   2.825
 8847SOL    HW227441   2.821   0.442   2.704
 8848SOL     OW27442   1.519   0.715   3.039
 8848SOL    HW127443   1.463   0.633   3.025
 8848SOL    HW227444   1.503   0.779   2.964
 8849SOL     OW27445   3.337   0.004   0.816
 8849SOL    HW127446   3.237   0.001   0.811
 8849SOL    HW227447   3.375   6.950   0.766
 8850SOL     OW27448   3.603   2.961   6.793
 8850SOL    HW127449   3.548   3.041   6.770
 8850SOL    HW227450   3.624   2.961   6.891
 8851SOL     OW27451   1.138   3.214   3.034
 8851SOL    HW127452   1.190   3.156   3.097
 8851SOL    HW227453   1.089   3.284   3.086
 8852SOL     OW27454   0.768   1.534   5.677
 8852SOL    HW127455   0.709   1.613   5.663
 8852SOL    HW227456   0.849   1.561   5.729
 8853SOL     OW27457   4.571   0.955   0.644
 8853SOL    HW127458   4.648   0.934   0.705
 8853SOL    HW227459   4.606   0.990   0.557
 8854SOL     OW27460   0.665   2.941   4.693
 8854SOL    HW127461   0.669   3.040   4.699
 8854SOL    HW227462   0.758   2.904   4.698
 8855SOL     OW27463   5.464   5.173   1.069
 8855SOL    HW127464   5.370   5.201   1.048
 8855SOL    HW227465   5.521   5.254   1.077
 8856SOL     OW27466   0.207   6.320   5.408
 8856SOL    HW127467   0.114   6.335   5.374
 8856SOL    HW227468   0.216   6.225   5.439
 8857SOL     OW27469   6.550   1.642   5.915
 8857SOL    HW127470   6.553   1.742   5.925
 8857SOL    HW227471   6.496   1.618   5.835
 8858SOL     OW27472   6.462   6.101   4.538
 8858SOL    HW127473   6.429   6.082   4.446
 8858SOL    HW227474   6.385   6.115   4.599
 8859SOL     OW27475   1.197   6.704   3.886
 8859SOL    HW127476   1.099   6.682   3.879
 8859SOL    HW227477   1.216   6.738   3.978
 8860SOL     OW27478   0.601   3.592   2.458
 8860SOL    HW127479   0.581   3.563   2.365
 8860SOL    HW227480   0.544   3.670   2.482
 8861SOL     OW27481   4.678   2.555   0.885
 8861SOL    HW127482   4.699   2.611   0.805
 8861SOL    HW227483   4.610   2.601   0.942
 8862SOL     OW27484   4.880   4.575   4.805
 8862SOL    HW127485   4.851   4.656   4.855
 8862SOL    HW227486   4.839   4.494   4.847
 8863SOL     OW27487   2.228   3.969   3.269
 8863SOL    HW127488   2.235   4.058   3.223
 8863SOL    HW227489   2.240   3.981   3.367
 8864SOL     OW27490   6.392   1.554   5.191
 8864SOL    HW127491   6.436   1.508   5.113
 8864SOL    HW227492   6.394   1.653   5.176
 8865SOL     OW27493   2.796   1.323   0.183
 8865SOL    HW127494   2.893   1.336   0.203
 8865SOL    HW227495   2.744   1.400   0.221
 8866SOL     OW27496   5.717   6.246   1.861
 8866SOL    HW127497   5.638   6.219   1.917
 8866SOL    HW227498   5.700   6.220   1.766
 8867SOL     OW27499   6.237   4.141   2.778
 8867SOL    HW127500   6.253   4.239   2.782
 8867SOL    HW227501   6.204   4.116   2.687
 8868SOL     OW27502   0.213   3.455   3.810
 8868SOL    HW127503   0.241   3.442   3.715
 8868SOL    HW227504   0.205   3.366   3.855
 8869SOL     OW27505   3.741   6.693   3.382
 8869SOL    HW127506   3.790   6.732   3.460
 8869SOL    HW227507   3.708   6.767   3.324
 8870SOL     OW27508   1.247   0.896   3.756
 8870SOL    HW127509   1.219   0.944   3.839
 8870SOL    HW227510   1.306   0.956   3.701
 8871SOL     OW27511   6.866   0.768   2.997
 8871SOL    HW127512   6.813   0.814   2.926
 8871SOL    HW227513   6.947   0.823   3.020
 8872SOL     OW27514   6.512   5.020   4.237
 8872SOL    HW127515   6.488   4.952   4.307
 8872SOL    HW227516   6.493   4.982   4.146
 8873SOL     OW27517   2.226   1.348   2.911
 8873SOL    HW127518   2.213   1.249   2.911
 8873SOL    HW227519   2.163   1.390   2.845
 8874SOL     OW27520   3.287   6.382   0.793
 8874SOL    HW127521   3.259   6.291   0.762
 8874SOL    HW227522   3.323   6.434   0.716
 8875SOL     OW27523   6.967   3.349   4.137
 8875SOL    HW127524   0.017   3.361   4.202
 8875SOL    HW227525   6.966   3.426   4.073
 8876SOL     OW27526   3.889   0.562   6.468
 8876SOL    HW127527   3.978   0.587   6.432
 8876SOL    HW227528   3.820   0.626   6.435
 8877SOL     OW27529   1.731   3.868   1.191
 8877SOL    HW127530   1.666   3.940   1.216
 8877SOL    HW227531   1.776   3.835   1.274
 8878SOL     OW27532   5.015   3.687   1.198
 8878SOL    HW127533   4.946   3.756   1.220
 8878SOL    HW227534   5.022   3.679   1.099
 8879SOL     OW27535   6.165   4.995   2.723
 8879SOL    HW127536   6.170   5.075   2.663
 8879SOL    HW227537   6.257   4.959   2.738
 8880SOL     OW27538   4.087   0.878   4.109
 8880SOL    HW127539   4.121   0.802   4.054
 8880SOL    HW227540   4.086   0.852   4.205
 8881SOL     OW27541   4.517   5.181   4.536
 8881SOL    HW127542   4.557   5.096   4.570
 8881SOL    HW227543   4.482   5.167   4.444
 8882SOL     OW27544   4.450   0.444   0.580
 8882SOL    HW127545   4.361   0.420   0.620
 8882SOL    HW227546   4.522   0.423   0.646
 8883SOL     OW27547   6.622   5.973   4.861
 8883SOL    HW127548   6.605   5.886   4.814
 8883SOL    HW227549   6.586   6.048   4.806
 8884SOL     OW27550   5.097   3.171   5.076
 8884SOL    HW127551   5.015   3.171   5.018
 8884SOL    HW227552   5.095   3.091   5.136
 8885SOL     OW27553   5.937   6.132   0.572
 8885SOL    HW127554   6.030   6.096   0.573
 8885SOL    HW227555   5.937   6.223   0.614
 8886SOL     OW27556   4.472   6.117   6.224
 8886SOL    HW127557   4.523   6.112   6.139
 8886SOL    HW227558   4.459   6.213   6.250
 8887SOL     OW27559   4.732   0.555   1.772
 8887SOL    HW127560   4.820   0.524   1.807
 8887SOL    HW227561   4.667   0.564   1.847
 8888SOL     OW27562   2.530   1.891   2.822
 8888SOL    HW127563   2.504   1.803   2.862
 8888SOL    HW227564   2.630   1.898   2.818
 8889SOL     OW27565   1.216   5.843   6.493
 8889SOL    HW127566   1.288   5.825   6.427
 8889SOL    HW227567   1.240   5.922   6.549
 8890SOL     OW27568   0.465   6.349   0.233
 8890SOL    HW127569   0.370   6.373   0.212
 8890SOL    HW227570   0.516   6.433   0.253
 8891SOL     OW27571   6.277   3.798   0.020
 8891SOL    HW127572   6.285   3.838   6.953
 8891SOL    HW227573   6.209   3.849   0.073
 8892SOL     OW27574   3.393   5.464   4.194
 8892SOL    HW127575   3.456   5.541   4.184
 8892SOL    HW227576   3.347   5.470   4.283
 8893SOL     OW27577   1.086   5.047   4.585
 8893SOL    HW127578   1.149   5.070   4.659
 8893SOL    HW227579   1.006   5.000   4.623
 8894SOL     OW27580   5.061   1.799   0.604
 8894SOL    HW127581   5.007   1.718   0.580
 8894SOL    HW227582   5.068   1.806   0.704
 8895SOL     OW27583   6.993   3.599   0.479
 8895SOL    HW127584   6.905   3.643   0.497
 8895SOL    HW227585   0.034   3.668   0.446
 8896SOL     OW27586   0.249   2.668   4.856
 8896SOL    HW127587   0.280   2.596   4.919
 8896SOL    HW227588   0.321   2.688   4.790
 8897SOL     OW27589   1.694   4.167   4.224
 8897SOL    HW127590   1.760   4.092   4.233
 8897SOL    HW227591   1.621   4.140   4.162
 8898SOL     OW27592   4.444   4.874   2.898
 8898SOL    HW127593   4.422   4.920   2.812
 8898SOL    HW227594   4.434   4.775   2.886
 8899SOL     OW27595   1.231   3.433   4.624
 8899SOL    HW127596   1.222   3.350   4.568
 8899SOL    HW227597   1.179   3.421   4.709
 8900SOL     OW27598   4.847   2.576   3.724
 8900SOL    HW127599   4.793   2.657   3.747
 8900SOL    HW227600   4.788   2.496   3.723
 8901SOL     OW27601   1.781   3.393   4.552
 8901SOL    HW127602   1.835   3.323   4.506
 8901SOL    HW227603   1.816   3.407   4.645
 8902SOL     OW27604   0.435   4.664   0.396
 8902SOL    HW127605   0.379   4.741   0.425
 8902SOL    HW227606   0.498   4.640   0.470
 8903SOL     OW27607   1.237   6.529   5.341
 8903SOL    HW127608   1.155   6.482   5.306
 8903SOL    HW227609   1.218   6.566   5.432
 8904SOL     OW27610   0.488   0.905   3.393
 8904SOL    HW127611   0.394   0.910   3.428
 8904SOL    HW227612   0.529   0.818   3.421
 8905SOL     OW27613   1.268   3.646   2.463
 8905SOL    HW127614   1.299   3.645   2.367
 8905SOL    HW227615   1.183   3.698   2.470
 8906SOL     OW27616   6.230   0.364   0.200
 8906SOL    HW127617   6.158   0.295   0.208
 8906SOL    HW227618   6.285   0.364   0.283
 8907SOL     OW27619   2.745   3.435   5.253
 8907SOL    HW127620   2.775   3.478   5.168
 8907SOL    HW227621   2.775   3.340   5.254
 8908SOL     OW27622   1.325   5.022   7.005
 8908SOL    HW127623   1.312   5.032   6.906
 8908SOL    HW227624   1.418   5.047   0.005
 8909SOL     OW27625   2.125   6.643   0.746
 8909SOL    HW127626   2.145   6.709   0.674
 8909SOL    HW227627   2.210   6.615   0.790
 8910SOL     OW27628   2.285   0.375   3.415
 8910SOL    HW127629   2.351   0.442   3.380
 8910SOL    HW227630   2.194   0.396   3.379
 8911SOL     OW27631   4.282   2.384   3.848
 8911SOL    HW127632   4.313   2.297   3.809
 8911SOL    HW227633   4.360   2.446   3.859
 8912SOL     OW27634   3.449   3.877   4.328
 8912SOL    HW127635   3.492   3.962   4.356
 8912SOL    HW227636   3.467   3.860   4.231
 8913SOL     OW27637   5.250   6.796   6.605
 8913SOL    HW127638   5.224   6.700   6.610
 8913SOL    HW227639   5.178   6.848   6.559
 8914SOL     OW27640   4.665   5.270   6.376
 8914SOL    HW127641   4.591   5.335   6.367
 8914SOL    HW227642   4.642   5.185   6.328
 8915SOL     OW27643   1.435   1.324   3.706
 8915SOL    HW127644   1.472   1.231   3.699
 8915SOL    HW227645   1.446   1.370   3.618
 8916SOL     OW27646   4.414   1.464   0.479
 8916SOL    HW127647   4.385   1.368   0.479
 8916SOL    HW227648   4.432   1.493   0.385
 8917SOL     OW27649   5.856   1.859   0.752
 8917SOL    HW127650   5.949   1.876   0.718
 8917SOL    HW227651   5.797   1.936   0.729
 8918SOL     OW27652   1.234   3.448   2.741
 8918SOL    HW127653   1.189   3.363   2.766
 8918SOL    HW227654   1.286   3.434   2.656
 8919SOL     OW27655   6.532   3.676   1.366
 8919SOL    HW127656   6.546   3.611   1.291
 8919SOL    HW227657   6.561   3.634   1.452
 8920SOL     OW27658   6.365   1.510   6.898
 8920SOL    HW127659   6.278   1.516   6.945
 8920SOL    HW227660   6.426   1.583   6.930
 8921SOL     OW27661   2.119   2.506   2.184
 8921SOL    HW127662   2.188   2.561   2.232
 8921SOL    HW227663   2.119   2.530   2.087
 8922SOL     OW27664   3.839   6.634   3.998
 8922SOL    HW127665   3.753   6.623   3.948
 8922SOL    HW227666   3.894   6.705   3.954
 8923SOL     OW27667   2.257   1.994   4.532
 8923SOL    HW127668   2.239   2.045   4.616
 8923SOL    HW227669   2.187   1.924   4.520
 8924SOL     OW27670   5.722   5.373   5.027
 8924SOL    HW127671   5.633   5.393   5.068
 8924SOL    HW227672   5.708   5.345   4.932
 8925SOL     OW27673   1.362   6.527   3.304
 8925SOL    HW127674   1.411   6.440   3.303
 8925SOL    HW227675   1.380   6.576   3.218
 8926SOL     OW27676   5.508   2.127   6.438
 8926SOL    HW127677   5.606   2.108   6.430
 8926SOL    HW227678   5.476   2.098   6.528
 8927SOL     OW27679   1.271   1.277   5.741
 8927SOL    HW127680   1.209   1.351   5.714
 8927SOL    HW227681   1.220   1.192   5.751
 8928SOL     OW27682   1.514   6.420   5.276
 8928SOL    HW127683   1.557   6.417   5.366
 8928SOL    HW227684   1.415   6.429   5.287
 8929SOL     OW27685   0.016   2.953   4.707
 8929SOL    HW127686   6.962   2.959   4.645
 8929SOL    HW227687   0.011   2.867   4.759
 8930SOL     OW27688   2.258   4.279   3.534
 8930SOL    HW127689   2.272   4.293   3.436
 8930SOL    HW227690   2.203   4.196   3.548
 8931SOL     OW27691   3.963   2.420   1.189
 8931SOL    HW127692   4.013   2.379   1.265
 8931SOL    HW227693   4.028   2.443   1.116
 8932SOL     OW27694   0.221   3.387   3.317
 8932SOL    HW127695   0.311   3.383   3.361
 8932SOL    HW227696   0.166   3.459   3.358
 8933SOL     OW27697   3.540   1.858   5.390
 8933SOL    HW127698   3.635   1.861   5.424
 8933SOL    HW227699   3.513   1.950   5.362
 8934SOL     OW27700   3.672   5.885   3.318
 8934SOL    HW127701   3.687   5.875   3.220
 8934SOL    HW227702   3.601   5.953   3.334
 8935SOL     OW27703   0.486   4.598   1.313
 8935SOL    HW127704   0.429   4.531   1.361
 8935SOL    HW227705   0.431   4.678   1.291
 8936SOL     OW27706   2.170   2.208   0.726
 8936SOL    HW127707   2.264   2.185   0.750
 8936SOL    HW227708   2.132   2.269   0.796
 8937SOL     OW27709   0.701   5.716   5.444
 8937SOL    HW127710   0.662   5.718   5.352
 8937SOL    HW227711   0.736   5.807   5.467
 8938SOL     OW27712   5.617   5.399   1.164
 8938SOL    HW127713   5.588   5.458   1.239
 8938SOL    HW227714   5.717   5.391   1.164
 8939SOL     OW27715   5.088   2.222   4.683
 8939SOL    HW127716   5.176   2.263   4.704
 8939SOL    HW227717   5.048   2.268   4.604
 8940SOL     OW27718   5.592   0.637   2.787
 8940SOL    HW127719   5.645   0.565   2.743
 8940SOL    HW227720   5.606   0.633   2.886
 8941SOL     OW27721   5.347   2.224   6.003
 8941SOL    HW127722   5.391   2.235   5.914
 8941SOL    HW227723   5.375   2.137   6.043
 8942SOL     OW27724   0.649   2.495   5.855
 8942SOL    HW127725   0.615   2.443   5.777
 8942SOL    HW227726   0.641   2.593   5.836
 8943SOL     OW27727   5.255   4.074   1.032
 8943SOL    HW127728   5.331   4.082   0.968
 8943SOL    HW227729   5.179   4.131   1.001
 8944SOL     OW27730   4.215   5.553   0.653
 8944SOL    HW127731   4.241   5.522   0.745
 8944SOL    HW227732   4.118   5.536   0.639
 8945SOL     OW27733   2.306   1.085   4.278
 8945SOL    HW127734   2.295   1.180   4.249
 8945SOL    HW227735   2.239   1.028   4.232
 8946SOL     OW27736   3.745   1.802   4.204
 8946SOL    HW127737   3.803   1.792   4.123
 8946SOL    HW227738   3.771   1.885   4.253
 8947SOL     OW27739   4.447   4.086   5.301
 8947SOL    HW127740   4.459   4.017   5.372
 8947SOL    HW227741   4.361   4.134   5.315
 8948SOL     OW27742   6.513   5.582   3.176
 8948SOL    HW127743   6.535   5.609   3.269
 8948SOL    HW227744   6.417   5.603   3.157
 8949SOL     OW27745   1.816   6.242   0.232
 8949SOL    HW127746   1.833   6.229   0.330
 8949SOL    HW227747   1.854   6.165   0.181
 8950SOL     OW27748   4.756   2.684   4.378
 8950SOL    HW127749   4.672   2.634   4.355
 8950SOL    HW227750   4.768   2.759   4.312
 8951SOL     OW27751   1.600   2.428   5.622
 8951SOL    HW127752   1.634   2.521   5.639
 8951SOL    HW227753   1.677   2.368   5.600
 8952SOL     OW27754   6.659   0.658   2.584
 8952SOL    HW127755   6.690   0.752   2.575
 8952SOL    HW227756   6.607   0.647   2.669
 8953SOL     OW27757   1.191   3.698   6.966
 8953SOL    HW127758   1.145   3.742   0.019
 8953SOL    HW227759   1.276   3.656   6.997
 8954SOL     OW27760   1.826   6.114   6.224
 8954SOL    HW127761   1.832   6.092   6.321
 8954SOL    HW227762   1.785   6.037   6.175
 8955SOL     OW27763   6.394   4.067   3.357
 8955SOL    HW127764   6.354   4.030   3.441
 8955SOL    HW227765   6.332   4.051   3.281
 8956SOL     OW27766   1.266   0.704   5.829
 8956SOL    HW127767   1.234   0.611   5.808
 8956SOL    HW227768   1.285   0.711   5.927
 8957SOL     OW27769   3.208   4.831   2.118
 8957SOL    HW127770   3.176   4.763   2.051
 8957SOL    HW227771   3.287   4.879   2.082
 8958SOL     OW27772   2.126   6.713   4.602
 8958SOL    HW127773   2.165   6.736   4.692
 8958SOL    HW227774   2.119   6.614   4.593
 8959SOL     OW27775   1.885   4.690   0.512
 8959SOL    HW127776   1.785   4.687   0.514
 8959SOL    HW227777   1.915   4.711   0.419
 8960SOL     OW27778   3.764   5.570   1.219
 8960SOL    HW127779   3.827   5.631   1.171
 8960SOL    HW227780   3.809   5.482   1.235
 8961SOL     OW27781   0.822   2.113   3.664
 8961SOL    HW127782   0.740   2.097   3.719
 8961SOL    HW227783   0.842   2.032   3.610
 8962SOL     OW27784   5.641   0.303   3.422
 8962SOL    HW127785   5.693   0.220   3.443
 8962SOL    HW227786   5.683   0.381   3.469
 8963SOL     OW27787   6.085   0.896   4.285
 8963SOL    HW127788   6.121   0.877   4.376
 8963SOL    HW227789   5.987   0.916   4.291
 8964SOL     OW27790   5.616   5.182   2.706
 8964SOL    HW127791   5.610   5.254   2.636
 8964SOL    HW227792   5.705   5.137   2.702
 8965SOL     OW27793   1.339   5.185   1.532
 8965SOL    HW127794   1.336   5.279   1.497
 8965SOL    HW227795   1.354   5.121   1.457
 8966SOL     OW27796   2.393   2.799   5.647
 8966SOL    HW127797   2.366   2.894   5.663
 8966SOL    HW227798   2.425   2.758   5.732
 8967SOL     OW27799   3.971   0.476   0.044
 8967SOL    HW127800   3.949   0.383   0.016
 8967SOL    HW227801   3.918   0.540   7.012
 8968SOL     OW27802   4.464   5.636   1.680
 8968SOL    HW127803   4.451   5.701   1.606
 8968SOL    HW227804   4.561   5.611   1.686
 8969SOL     OW27805   6.336   0.629   4.235
 8969SOL    HW127806   6.431   0.650   4.256
 8969SOL    HW227807   6.282   0.631   4.320
 8970SOL     OW27808   3.795   2.126   1.647
 8970SOL    HW127809   3.878   2.149   1.699
 8970SOL    HW227810   3.715   2.162   1.695
 8971SOL     OW27811   4.240   5.752   2.463
 8971SOL    HW127812   4.180   5.710   2.395
 8971SOL    HW227813   4.301   5.817   2.418
 8972SOL     OW27814   5.709   0.397   5.062
 8972SOL    HW127815   5.673   0.482   5.101
 8972SOL    HW227816   5.716   0.406   4.963
 8973SOL     OW27817   1.580   5.101   0.140
 8973SOL    HW127818   1.528   5.097   0.225
 8973SOL    HW227819   1.678   5.091   0.160
 8974SOL     OW27820   0.748   3.438   4.657
 8974SOL    HW127821   0.799   3.433   4.571
 8974SOL    HW227822   0.651   3.426   4.639
 8975SOL     OW27823   3.154   0.005   0.236
 8975SOL    HW127824   3.074   0.059   0.260
 8975SOL    HW227825   3.126   6.948   0.185
 8976SOL     OW27826   1.037   5.686   4.192
 8976SOL    HW127827   0.966   5.629   4.232
 8976SOL    HW227828   1.003   5.728   4.108
 8977SOL     OW27829   5.999   1.592   6.240
 8977SOL    HW127830   6.038   1.566   6.328
 8977SOL    HW227831   5.900   1.583   6.244
 8978SOL     OW27832   6.111   6.857   0.716
 8978SOL    HW127833   6.157   6.840   0.804
 8978SOL    HW227834   6.015   6.829   0.723
 8979SOL     OW27835   1.788   4.186   4.899
 8979SOL    HW127836   1.816   4.218   4.809
 8979SOL    HW227837   1.853   4.116   4.930
 8980SOL     OW27838   3.525   3.119   4.584
 8980SOL    HW127839   3.591   3.056   4.624
 8980SOL    HW227840   3.433   3.081   4.594
 8981SOL     OW27841   3.649   1.714   5.048
 8981SOL    HW127842   3.602   1.739   5.133
 8981SOL    HW227843   3.604   1.635   5.007
 8982SOL     OW27844   2.731   4.417   0.849
 8982SOL    HW127845   2.644   4.464   0.835
 8982SOL    HW227846   2.743   4.348   0.778
 8983SOL     OW27847   4.267   5.285   0.382
 8983SOL    HW127848   4.259   5.205   0.324
 8983SOL    HW227849   4.251   5.368   0.328
 8984SOL     OW27850   1.682   5.723   3.201
 8984SOL    HW127851   1.697   5.790   3.128
 8984SOL    HW227852   1.597   5.674   3.185
 8985SOL     OW27853   4.020   3.218   6.424
 8985SOL    HW127854   4.047   3.132   6.467
 8985SOL    HW227855   4.093   3.250   6.365
 8986SOL     OW27856   3.873   5.859   2.756
 8986SOL    HW127857   3.795   5.796   2.767
 8986SOL    HW227858   3.850   5.929   2.688
 8987SOL     OW27859   5.524   6.198   2.039
 8987SOL    HW127860   5.432   6.198   2.000
 8987SOL    HW227861   5.539   6.283   2.090
 8988SOL     OW27862   0.959   5.271   4.541
 8988SOL    HW127863   0.980   5.319   4.626
 8988SOL    HW227864   0.998   5.179   4.543
 8989SOL     OW27865   3.826   3.062   6.309
 8989SOL    HW127866   3.884   3.138   6.336
 8989SOL    HW227867   3.815   2.999   6.386
 8990SOL     OW27868   6.964   5.531   3.653
 8990SOL    HW127869   6.966   5.434   3.630
 8990SOL    HW227870   7.020   5.547   3.734
 8991SOL     OW27871   1.336   2.245   5.043
 8991SOL    HW127872   1.396   2.266   5.120
 8991SOL    HW227873   1.390   2.206   4.969
 8992SOL     OW27874   6.028   1.894   6.707
 8992SOL    HW127875   6.090   1.821   6.677
 8992SOL    HW227876   6.044   1.976   6.651
 8993SOL     OW27877   4.788   2.478   6.265
 8993SOL    HW127878   4.696   2.480   6.226
 8993SOL    HW227879   4.850   2.533   6.208
 8994SOL     OW27880   1.557   5.136   4.346
 8994SOL    HW127881   1.653   5.138   4.373
 8994SOL    HW227882   1.538   5.212   4.283
 8995SOL     OW27883   6.894   1.920   1.178
 8995SOL    HW127884   6.965   1.912   1.108
 8995SOL    HW227885   6.881   2.016   1.202
 8996SOL     OW27886   4.983   4.952   6.115
 8996SOL    HW127887   4.956   4.859   6.141
 8996SOL    HW227888   5.074   4.949   6.073
 8997SOL     OW27889   4.849   1.364   4.589
 8997SOL    HW127890   4.940   1.374   4.629
 8997SOL    HW227891   4.802   1.452   4.589
 8998SOL     OW27892   6.364   3.851   4.336
 8998SOL    HW127893   6.414   3.878   4.254
 8998SOL    HW227894   6.283   3.909   4.347
 8999SOL     OW27895   4.542   6.625   5.881
 8999SOL    HW127896   4.524   6.654   5.975
 8999SOL    HW227897   4.612   6.683   5.840
 9000SOL     OW27898   2.223   3.960   1.761
 9000SOL    HW127899   2.271   3.986   1.845
 9000SOL    HW227900   2.144   4.020   1.748
 9001SOL     OW27901   0.628   5.030   2.114
 9001SOL    HW127902   0.664   5.037   2.207
 9001SOL    HW227903   0.530   5.013   2.117
 9002SOL     OW27904   1.087   4.416   6.629
 9002SOL    HW127905   1.186   4.422   6.619
 9002SOL    HW227906   1.055   4.494   6.684
 9003SOL     OW27907   5.763   1.107   1.470
 9003SOL    HW127908   5.804   1.065   1.388
 9003SOL    HW227909   5.677   1.153   1.444
 9004SOL     OW27910   4.135   4.513   0.348
 9004SOL    HW127911   4.228   4.481   0.328
 9004SOL    HW227912   4.101   4.467   0.430
 9005SOL     OW27913   5.824   1.121   5.700
 9005SOL    HW127914   5.764   1.172   5.639
 9005SOL    HW227915   5.782   1.117   5.791
 9006SOL     OW27916   3.386   6.557   0.612
 9006SOL    HW127917   3.454   6.519   0.549
 9006SOL    HW227918   3.433   6.605   0.686
 9007SOL     OW27919   2.771   1.362   3.060
 9007SOL    HW127920   2.697   1.303   3.093
 9007SOL    HW227921   2.793   1.429   3.131
 9008SOL     OW27922   0.393   5.842   3.012
 9008SOL    HW127923   0.388   5.919   2.948
 9008SOL    HW227924   0.457   5.774   2.976
 9009SOL     OW27925   3.935   5.546   0.582
 9009SOL    HW127926   3.873   5.548   0.504
 9009SOL    HW227927   3.950   5.640   0.615
 9010SOL     OW27928   1.945   6.682   4.172
 9010SOL    HW127929   1.862   6.631   4.151
 9010SOL    HW227930   2.002   6.628   4.233
 9011SOL     OW27931   3.864   1.024   2.545
 9011SOL    HW127932   3.777   1.063   2.516
 9011SOL    HW227933   3.854   0.980   2.634
 9012SOL     OW27934   1.686   5.967   0.004
 9012SOL    HW127935   1.624   6.041   7.002
 9012SOL    HW227936   1.673   5.946   0.101
 9013SOL     OW27937   1.691   6.570   4.084
 9013SOL    HW127938   1.709   6.478   4.052
 9013SOL    HW227939   1.650   6.624   4.010
 9014SOL     OW27940   5.650   2.473   2.715
 9014SOL    HW127941   5.687   2.510   2.800
 9014SOL    HW227942   5.655   2.374   2.717
 9015SOL     OW27943   5.398   2.082   0.409
 9015SOL    HW127944   5.328   2.012   0.396
 9015SOL    HW227945   5.358   2.160   0.456
 9016SOL     OW27946   5.381   5.606   6.272
 9016SOL    HW127947   5.317   5.532   6.253
 9016SOL    HW227948   5.346   5.691   6.233
 9017SOL     OW27949   3.318   0.367   4.933
 9017SOL    HW127950   3.383   0.347   5.006
 9017SOL    HW227951   3.333   0.460   4.899
 9018SOL     OW27952   4.138   3.492   6.325
 9018SOL    HW127953   4.230   3.467   6.294
 9018SOL    HW227954   4.124   3.459   6.418
 9019SOL     OW27955   0.274   3.024   3.584
 9019SOL    HW127956   0.192   3.014   3.527
 9019SOL    HW227957   0.292   3.121   3.600
 9020SOL     OW27958   5.872   6.042   1.817
 9020SOL    HW127959   5.824   6.128   1.831
 9020SOL    HW227960   5.835   5.972   1.878
 9021SOL     OW27961   0.030   0.855   3.999
 9021SOL    HW127962   0.072   0.830   4.086
 9021SOL    HW227963   6.984   0.788   3.976
 9022SOL     OW27964   4.304   2.664   6.067
 9022SOL    HW127965   4.205   2.680   6.056
 9022SOL    HW227966   4.328   2.666   6.164
 9023SOL     OW27967   5.069   3.624   0.936
 9023SOL    HW127968   5.163   3.590   0.938
 9023SOL    HW227969   5.064   3.707   0.881
 9024SOL     OW27970   1.810   5.159   6.482
 9024SOL    HW127971   1.774   5.116   6.565
 9024SOL    HW227972   1.764   5.122   6.402
 9025SOL     OW27973   0.521   5.631   0.873
 9025SOL    HW127974   0.428   5.657   0.848
 9025SOL    HW227975   0.522   5.534   0.899
 9026SOL     OW27976   4.062   1.552   0.374
 9026SOL    HW127977   4.140   1.606   0.344
 9026SOL    HW227978   4.077   1.520   0.468
 9027SOL     OW27979   6.836   3.788   3.460
 9027SOL    HW127980   6.809   3.696   3.489
 9027SOL    HW227981   6.776   3.855   3.502
 9028SOL     OW27982   3.462   4.293   5.675
 9028SOL    HW127983   3.546   4.283   5.622
 9028SOL    HW227984   3.412   4.374   5.643
 9029SOL     OW27985   4.214   6.700   5.005
 9029SOL    HW127986   4.195   6.776   5.067
 9029SOL    HW227987   4.285   6.726   4.940
 9030SOL     OW27988   2.647   1.941   3.563
 9030SOL    HW127989   2.610   1.865   3.616
 9030SOL    HW227990   2.738   1.965   3.597
 9031SOL     OW27991   4.485   0.557   4.631
 9031SOL    HW127992   4.484   0.639   4.574
 9031SOL    HW227993   4.404   0.501   4.612
 9032SOL     OW27994   4.543   3.601   1.683
 9032SOL    HW127995   4.568   3.694   1.656
 9032SOL    HW227996   4.626   3.548   1.698
 9033SOL     OW27997   1.462   5.929   3.366
 9033SOL    HW127998   1.520   5.852   3.341
 9033SOL    HW227999   1.406   5.904   3.445
 9034SOL     OW28000   3.493   6.165   4.680
 9034SOL    HW128001   3.533   6.077   4.654
 9034SOL    HW228002   3.412   6.183   4.625
 9035SOL     OW28003   1.191   5.231   0.519
 9035SOL    HW128004   1.176   5.323   0.485
 9035SOL    HW228005   1.197   5.233   0.619
 9036SOL     OW28006   1.363   3.717   5.807
 9036SOL    HW128007   1.455   3.684   5.785
 9036SOL    HW228008   1.323   3.659   5.878
 9037SOL     OW28009   0.657   2.187   3.008
 9037SOL    HW128010   0.610   2.100   3.017
 9037SOL    HW228011   0.604   2.249   2.950
 9038SOL     OW28012   4.414   3.065   5.602
 9038SOL    HW128013   4.428   3.066   5.503
 9038SOL    HW228014   4.502   3.059   5.649
 9039SOL     OW28015   3.362   5.169   0.028
 9039SOL    HW128016   3.378   5.082   7.005
 9039SOL    HW228017   3.439   5.189   0.088
 9040SOL     OW28018   1.847   1.979   0.779
 9040SOL    HW128019   1.924   1.958   0.840
 9040SOL    HW228020   1.763   1.984   0.833
 9041SOL     OW28021   0.033   2.516   1.187
 9041SOL    HW128022   0.038   2.503   1.286
 9041SOL    HW228023   0.125   2.534   1.151
 9042SOL     OW28024   3.996   5.901   6.162
 9042SOL    HW128025   4.046   5.816   6.145
 9042SOL    HW228026   4.051   5.960   6.221
 9043SOL     OW28027   2.920   1.930   0.347
 9043SOL    HW128028   3.001   1.921   0.405
 9043SOL    HW228029   2.942   1.990   0.270
 9044SOL     OW28030   0.866   0.618   6.287
 9044SOL    HW128031   0.943   0.675   6.258
 9044SOL    HW228032   0.823   0.657   6.368
 9045SOL     OW28033   4.126   0.422   3.067
 9045SOL    HW128034   4.118   0.457   2.973
 9045SOL    HW228035   4.150   0.497   3.129
 9046SOL     OW28036   3.082   3.957   2.912
 9046SOL    HW128037   3.016   3.883   2.893
 9046SOL    HW228038   3.106   4.003   2.827
 9047SOL     OW28039   1.053   4.460   6.156
 9047SOL    HW128040   0.956   4.440   6.140
 9047SOL    HW228041   1.089   4.396   6.224
 9048SOL     OW28042   6.405   1.901   6.137
 9048SOL    HW128043   6.482   1.885   6.199
 9048SOL    HW228044   6.357   1.815   6.120
 9049SOL     OW28045   3.102   6.642   6.349
 9049SOL    HW128046   3.144   6.605   6.432
 9049SOL    HW228047   3.003   6.650   6.362
 9050SOL     OW28048   0.664   4.637   1.535
 9050SOL    HW128049   0.689   4.734   1.527
 9050SOL    HW228050   0.590   4.616   1.472
 9051SOL     OW28051   2.417   2.078   0.801
 9051SOL    HW128052   2.507   2.122   0.801
 9051SOL    HW228053   2.425   1.985   0.766
 9052SOL     OW28054   1.470   3.169   5.147
 9052SOL    HW128055   1.567   3.187   5.132
 9052SOL    HW228056   1.460   3.103   5.222
 9053SOL     OW28057   1.516   1.615   0.571
 9053SOL    HW128058   1.483   1.543   0.633
 9053SOL    HW228059   1.480   1.703   0.601
 9054SOL     OW28060   2.186   5.634   3.759
 9054SOL    HW128061   2.112   5.581   3.802
 9054SOL    HW228062   2.220   5.586   3.678
 9055SOL     OW28063   0.188   4.080   4.671
 9055SOL    HW128064   0.145   4.169   4.654
 9055SOL    HW228065   0.150   4.039   4.754
 9056SOL     OW28066   6.605   2.082   2.726
 9056SOL    HW128067   6.613   2.151   2.798
 9056SOL    HW228068   6.697   2.056   2.695
 9057SOL     OW28069   4.697   1.839   3.968
 9057SOL    HW128070   4.761   1.907   3.931
 9057SOL    HW228071   4.662   1.872   4.056
 9058SOL     OW28072   1.835   0.863   6.296
 9058SOL    HW128073   1.826   0.959   6.269
 9058SOL    HW228074   1.928   0.847   6.329
 9059SOL     OW28075   1.383   1.968   2.541
 9059SOL    HW128076   1.459   1.918   2.500
 9059SOL    HW228077   1.394   2.066   2.524
 9060SOL     OW28078   5.640   2.498   4.726
 9060SOL    HW128079   5.674   2.408   4.699
 9060SOL    HW228080   5.713   2.566   4.715
 9061SOL     OW28081   4.830   5.633   2.525
 9061SOL    HW128082   4.803   5.537   2.527
 9061SOL    HW228083   4.787   5.678   2.447
 9062SOL     OW28084   1.783   5.600   1.040
 9062SOL    HW128085   1.855   5.661   1.074
 9062SOL    HW228086   1.724   5.650   0.977
 9063SOL     OW28087   3.178   1.871   2.209
 9063SOL    HW128088   3.217   1.955   2.248
 9063SOL    HW228089   3.146   1.890   2.116
 9064SOL     OW28090   6.174   3.133   6.984
 9064SOL    HW128091   6.090   3.096   7.022
 9064SOL    HW228092   6.234   3.058   6.957
 9065SOL     OW28093   2.402   0.928   0.319
 9065SOL    HW128094   2.324   0.963   0.371
 9065SOL    HW228095   2.483   0.923   0.378
 9066SOL     OW28096   4.784   6.777   0.141
 9066SOL    HW128097   4.833   6.783   0.228
 9066SOL    HW228098   4.688   6.754   0.159
 9067SOL     OW28099   1.894   6.733   3.499
 9067SOL    HW128100   1.865   6.805   3.436
 9067SOL    HW228101   1.939   6.774   3.578
 9068SOL     OW28102   1.893   5.804   6.937
 9068SOL    HW128103   1.967   5.851   6.889
 9068SOL    HW228104   1.845   5.870   6.995
 9069SOL     OW28105   1.647   2.174   6.678
 9069SOL    HW128106   1.577   2.219   6.622
 9069SOL    HW228107   1.652   2.218   6.768
 9070SOL     OW28108   1.329   4.438   3.630
 9070SOL    HW128109   1.387   4.507   3.587
 9070SOL    HW228110   1.312   4.462   3.725
 9071SOL     OW28111   5.919   6.788   6.729
 9071SOL    HW128112   5.884   6.880   6.743
 9071SOL    HW228113   5.848   6.731   6.688
 9072SOL     OW28114   5.699   4.540   6.313
 9072SOL    HW128115   5.622   4.517   6.253
 9072SOL    HW228116   5.781   4.494   6.281
 9073SOL     OW28117   1.969   0.531   2.071
 9073SOL    HW128118   2.008   0.466   2.136
 9073SOL    HW228119   1.879   0.498   2.041
 9074SOL     OW28120   1.373   6.639   3.060
 9074SOL    HW128121   1.451   6.625   2.999
 9074SOL    HW228122   1.339   6.733   3.049
 9075SOL     OW28123   6.933   1.160   2.495
 9075SOL    HW128124   6.994   1.111   2.557
 9075SOL    HW228125   6.879   1.226   2.546
 9076SOL     OW28126   6.418   1.456   5.621
 9076SOL    HW128127   6.350   1.485   5.554
 9076SOL    HW228128   6.375   1.395   5.688
 9077SOL     OW28129   6.253   6.198   2.232
 9077SOL    HW128130   6.183   6.138   2.192
 9077SOL    HW228131   6.317   6.226   2.161
 9078SOL     OW28132   3.734   2.955   4.727
 9078SOL    HW128133   3.816   2.987   4.680
 9078SOL    HW228134   3.758   2.916   4.815
 9079SOL     OW28135   3.676   0.722   5.975
 9079SOL    HW128136   3.735   0.641   5.980
 9079SOL    HW228137   3.582   0.696   5.998
 9080SOL     OW28138   5.040   2.185   0.484
 9080SOL    HW128139   5.128   2.203   0.529
 9080SOL    HW228140   5.047   2.103   0.428
 9081SOL     OW28141   5.445   6.823   2.202
 9081SOL    HW128142   5.526   6.871   2.169
 9081SOL    HW228143   5.467   6.774   2.287
 9082SOL     OW28144   3.467   1.567   3.284
 9082SOL    HW128145   3.488   1.656   3.325
 9082SOL    HW228146   3.510   1.561   3.194
 9083SOL     OW28147   4.506   4.912   4.518
 9083SOL    HW128148   4.553   4.841   4.570
 9083SOL    HW228149   4.408   4.910   4.540
 9084SOL     OW28150   3.172   3.423   3.193
 9084SOL    HW128151   3.100   3.475   3.146
 9084SOL    HW228152   3.142   3.328   3.205
 9085SOL     OW28153   0.777   2.353   0.505
 9085SOL    HW128154   0.791   2.342   0.407
 9085SOL    HW228155   0.773   2.263   0.548
 9086SOL     OW28156   0.426   3.896   0.803
 9086SOL    HW128157   0.374   3.811   0.814
 9086SOL    HW228158   0.406   3.957   0.880
 9087SOL     OW28159   4.898   4.006   1.643
 9087SOL    HW128160   4.816   3.952   1.627
 9087SOL    HW228161   4.964   3.952   1.695
 9088SOL     OW28162   4.889   6.809   0.436
 9088SOL    HW128163   4.872   6.722   0.482
 9088SOL    HW228164   4.987   6.824   0.428
 9089SOL     OW28165   4.669   0.142   5.685
 9089SOL    HW128166   4.666   0.221   5.746
 9089SOL    HW228167   4.764   0.118   5.666
 9090SOL     OW28168   6.308   1.241   4.259
 9090SOL    HW128169   6.332   1.146   4.241
 9090SOL    HW228170   6.378   1.301   4.220
 9091SOL     OW28171   3.059   3.130   6.715
 9091SOL    HW128172   3.085   3.152   6.809
 9091SOL    HW228173   2.960   3.143   6.704
 9092SOL     OW28174   0.286   2.829   6.821
 9092SOL    HW128175   0.327   2.835   6.729
 9092SOL    HW228176   0.358   2.812   6.888
 9093SOL     OW28177   1.613   6.030   5.664
 9093SOL    HW128178   1.561   6.039   5.749
 9093SOL    HW228179   1.709   6.014   5.685
 9094SOL     OW28180   0.662   3.691   2.005
 9094SOL    HW128181   0.713   3.648   1.930
 9094SOL    HW228182   0.600   3.760   1.968
 9095SOL     OW28183   6.541   6.025   5.139
 9095SOL    HW128184   6.618   5.985   5.090
 9095SOL    HW228185   6.573   6.101   5.196
 9096SOL     OW28186   6.795   6.120   3.167
 9096SOL    HW128187   6.840   6.099   3.080
 9096SOL    HW228188   6.712   6.173   3.150
 9097SOL     OW28189   1.630   1.997   5.898
 9097SOL    HW128190   1.679   2.082   5.915
 9097SOL    HW228191   1.640   1.971   5.801
 9098SOL     OW28192   1.728   3.718   4.198
 9098SOL    HW128193   1.677   3.696   4.115
 9098SOL    HW228194   1.735   3.637   4.256
 9099SOL     OW28195   2.967   2.532   6.633
 9099SOL    HW128196   3.021   2.585   6.699
 9099SOL    HW228197   2.872   2.528   6.664
 9100SOL     OW28198   0.675   4.591   3.555
 9100SOL    HW128199   0.649   4.564   3.462
 9100SOL    HW228200   0.728   4.518   3.598
 9101SOL     OW28201   0.882   2.546   1.529
 9101SOL    HW128202   0.932   2.596   1.599
 9101SOL    HW228203   0.895   2.448   1.541
 9102SOL     OW28204   4.424   6.768   3.254
 9102SOL    HW128205   4.374   6.695   3.301
 9102SOL    HW228206   4.519   6.770   3.287
 9103SOL     OW28207   6.487   1.105   0.626
 9103SOL    HW128208   6.398   1.081   0.664
 9103SOL    HW228209   6.476   1.133   0.530
 9104SOL     OW28210   5.743   1.886   6.778
 9104SOL    HW128211   5.828   1.876   6.726
 9104SOL    HW228212   5.668   1.841   6.728
 9105SOL     OW28213   1.759   0.926   5.925
 9105SOL    HW128214   1.831   0.990   5.897
 9105SOL    HW228215   1.789   0.832   5.908
 9106SOL     OW28216   1.615   4.393   0.739
 9106SOL    HW128217   1.549   4.431   0.804
 9106SOL    HW228218   1.566   4.360   0.658
 9107SOL     OW28219   2.580   1.473   0.290
 9107SOL    HW128220   2.519   1.543   0.253
 9107SOL    HW228221   2.613   1.501   0.380
 9108SOL     OW28222   5.718   5.631   6.476
 9108SOL    HW128223   5.697   5.612   6.380
 9108SOL    HW228224   5.634   5.637   6.529
 9109SOL     OW28225   5.104   3.555   2.471
 9109SOL    HW128226   5.041   3.529   2.544
 9109SOL    HW228227   5.054   3.600   2.397
 9110SOL     OW28228   1.351   6.360   4.408
 9110SOL    HW128229   1.314   6.268   4.398
 9110SOL    HW228230   1.357   6.404   4.319
 9111SOL     OW28231   4.526   2.490   6.111
 9111SOL    HW128232   4.487   2.535   6.191
 9111SOL    HW228233   4.527   2.554   6.034
 9112SOL     OW28234   1.214   5.544   1.768
 9112SOL    HW128235   1.264   5.474   1.819
 9112SOL    HW228236   1.117   5.541   1.792
 9113SOL     OW28237   5.631   1.253   3.933
 9113SOL    HW128238   5.651   1.293   4.022
 9113SOL    HW228239   5.595   1.161   3.944
 9114SOL     OW28240   1.378   6.204   5.594
 9114SOL    HW128241   1.436   6.134   5.635
 9114SOL    HW228242   1.285   6.167   5.581
 9115SOL     OW28243   5.389   4.299   3.933
 9115SOL    HW128244   5.418   4.310   3.838
 9115SOL    HW228245   5.308   4.241   3.937
 9116SOL     OW28246   1.797   6.923   3.347
 9116SOL    HW128247   1.702   6.954   3.357
 9116SOL    HW228248   1.833   6.953   3.259
 9117SOL     OW28249   2.859   6.302   0.204
 9117SOL    HW128250   2.804   6.365   0.149
 9117SOL    HW228251   2.906   6.353   0.276
 9118SOL     OW28252   6.264   4.370   2.156
 9118SOL    HW128253   6.359   4.340   2.142
 9118SOL    HW228254   6.263   4.444   2.223
 9119SOL     OW28255   3.381   0.280   0.357
 9119SOL    HW128256   3.304   0.342   0.369
 9119SOL    HW228257   3.403   0.272   0.259
 9120SOL     OW28258   5.893   3.948   4.890
 9120SOL    HW128259   5.952   3.947   4.970
 9120SOL    HW228260   5.933   3.890   4.818
 9121SOL     OW28261   2.981   0.720   4.985
 9121SOL    HW128262   2.943   0.754   4.899
 9121SOL    HW228263   2.982   0.620   4.985
 9122SOL     OW28264   1.521   3.364   1.981
 9122SOL    HW128265   1.499   3.371   2.078
 9122SOL    HW228266   1.581   3.440   1.955
 9123SOL     OW28267   0.309   6.814   4.359
 9123SOL    HW128268   0.280   6.722   4.332
 9123SOL    HW228269   0.230   6.868   4.387
 9124SOL     OW28270   2.562   5.616   0.664
 9124SOL    HW128271   2.501   5.539   0.684
 9124SOL    HW228272   2.536   5.656   0.576
 9125SOL     OW28273   4.888   6.140   1.325
 9125SOL    HW128274   4.826   6.082   1.377
 9125SOL    HW228275   4.878   6.121   1.228
 9126SOL     OW28276   4.128   4.557   0.795
 9126SOL    HW128277   4.064   4.517   0.861
 9126SOL    HW228278   4.125   4.504   0.710
 9127SOL     OW28279   6.711   4.803   4.642
 9127SOL    HW128280   6.730   4.901   4.642
 9127SOL    HW228281   6.730   4.765   4.551
 9128SOL     OW28282   5.759   4.435   6.012
 9128SOL    HW128283   5.824   4.504   6.044
 9128SOL    HW228284   5.806   4.348   5.997
 9129SOL     OW28285   0.940   3.496   0.867
 9129SOL    HW128286   0.891   3.413   0.893
 9129SOL    HW228287   0.880   3.555   0.812
 9130SOL     OW28288   2.870   3.936   5.049
 9130SOL    HW128289   2.791   3.972   4.998
 9130SOL    HW228290   2.941   3.908   4.984
 9131SOL     OW28291   4.569   2.659   0.202
 9131SOL    HW128292   4.497   2.695   0.262
 9131SOL    HW228293   4.611   2.735   0.152
 9132SOL     OW28294   0.059   3.885   3.524
 9132SOL    HW128295   6.990   3.853   3.511
 9132SOL    HW228296   0.068   3.976   3.486
 9133SOL     OW28297   5.464   0.795   0.895
 9133SOL    HW128298   5.479   0.891   0.921
 9133SOL    HW228299   5.369   0.785   0.864
 9134SOL     OW28300   4.622   4.751   0.928
 9134SOL    HW128301   4.617   4.851   0.939
 9134SOL    HW228302   4.679   4.729   0.850
 9135SOL     OW28303   6.180   6.482   2.571
 9135SOL    HW128304   6.242   6.492   2.493
 9135SOL    HW228305   6.111   6.413   2.550
 9136SOL     OW28306   6.618   4.412   0.117
 9136SOL    HW128307   6.627   4.319   0.082
 9136SOL    HW228308   6.592   4.473   0.043
 9137SOL     OW28309   5.075   6.117   5.793
 9137SOL    HW128310   5.122   6.075   5.715
 9137SOL    HW228311   5.018   6.048   5.839
 9138SOL     OW28312   2.664   3.536   6.963
 9138SOL    HW128313   2.763   3.542   6.978
 9138SOL    HW228314   2.632   3.620   6.918
 9139SOL     OW28315   6.623   0.076   0.456
 9139SOL    HW128316   6.680   0.078   0.538
 9139SOL    HW228317   6.587   7.008   0.442
 9140SOL     OW28318   1.733   3.908   3.506
 9140SOL    HW128319   1.741   3.882   3.602
 9140SOL    HW228320   1.719   3.826   3.450
 9141SOL     OW28321   6.948   5.213   4.763
 9141SOL    HW128322   7.002   5.295   4.742
 9141SOL    HW228323   6.907   5.222   4.854
 9142SOL     OW28324   1.254   4.192   4.633
 9142SOL    HW128325   1.194   4.124   4.676
 9142SOL    HW228326   1.337   4.201   4.687
 9143SOL     OW28327   6.923   4.433   2.181
 9143SOL    HW128328   6.850   4.365   2.189
 9143SOL    HW228329   6.963   4.428   2.089
 9144SOL     OW28330   2.758   4.750   5.295
 9144SOL    HW128331   2.760   4.850   5.295
 9144SOL    HW228332   2.770   4.716   5.202
 9145SOL     OW28333   1.493   6.064   5.913
 9145SOL    HW128334   1.503   6.005   5.993
 9145SOL    HW228335   1.464   6.155   5.942
 9146SOL     OW28336   5.440   2.777   2.974
 9146SOL    HW128337   5.476   2.859   2.930
 9146SOL    HW228338   5.433   2.791   3.072
 9147SOL     OW28339   4.289   6.941   5.225
 9147SOL    HW128340   4.315   0.011   5.208
 9147SOL    HW228341   4.191   6.929   5.206
 9148SOL     OW28342   5.659   5.672   1.376
 9148SOL    HW128343   5.572   5.673   1.425
 9148SOL    HW228344   5.707   5.758   1.392
 9149SOL     OW28345   0.381   3.890   1.300
 9149SOL    HW128346   0.408   3.794   1.299
 9149SOL    HW228347   0.353   3.917   1.392
 9150SOL     OW28348   2.538   3.385   0.263
 9150SOL    HW128349   2.488   3.346   0.185
 9150SOL    HW228350   2.476   3.443   0.315
 9151SOL     OW28351   1.465   3.303   4.106
 9151SOL    HW128352   1.529   3.246   4.158
 9151SOL    HW228353   1.466   3.275   4.010
 9152SOL     OW28354   1.633   4.158   2.571
 9152SOL    HW128355   1.673   4.200   2.490
 9152SOL    HW228356   1.634   4.223   2.647
 9153SOL     OW28357   0.573   3.178   6.246
 9153SOL    HW128358   0.481   3.140   6.235
 9153SOL    HW228359   0.571   3.276   6.226
 9154SOL     OW28360   5.914   5.514   2.970
 9154SOL    HW128361   5.982   5.472   2.910
 9154SOL    HW228362   5.946   5.510   3.065
 9155SOL     OW28363   1.320   6.399   2.801
 9155SOL    HW128364   1.369   6.323   2.760
 9155SOL    HW228365   1.384   6.474   2.820
 9156SOL     OW28366   6.522   4.103   6.066
 9156SOL    HW128367   6.429   4.123   6.098
 9156SOL    HW228368   6.584   4.095   6.144
 9157SOL     OW28369   1.957   4.434   6.298
 9157SOL    HW128370   1.913   4.369   6.361
 9157SOL    HW228371   1.897   4.451   6.220
 9158SOL     OW28372   6.552   4.319   4.724
 9158SOL    HW128373   6.610   4.266   4.662
 9158SOL    HW228374   6.608   4.355   4.799
 9159SOL     OW28375   2.327   1.495   4.036
 9159SOL    HW128376   2.259   1.430   4.070
 9159SOL    HW228377   2.368   1.459   3.952
 9160SOL     OW28378   1.276   4.005   1.179
 9160SOL    HW128379   1.222   3.960   1.250
 9160SOL    HW228380   1.244   4.099   1.167
 9161SOL     OW28381   6.709   4.235   2.198
 9161SOL    HW128382   6.685   4.138   2.193
 9161SOL    HW228383   6.642   4.288   2.147
 9162SOL     OW28384   4.290   2.248   1.843
 9162SOL    HW128385   4.259   2.324   1.901
 9162SOL    HW228386   4.330   2.177   1.900
 9163SOL     OW28387   2.202   2.237   3.352
 9163SOL    HW128388   2.291   2.191   3.341
 9163SOL    HW228389   2.139   2.205   3.282
 9164SOL     OW28390   2.471   6.528   6.700
 9164SOL    HW128391   2.491   6.431   6.715
 9164SOL    HW228392   2.376   6.538   6.671
 9165SOL     OW28393   6.000   1.881   5.493
 9165SOL    HW128394   5.975   1.947   5.422
 9165SOL    HW228395   6.027   1.931   5.576
 9166SOL     OW28396   4.893   6.444   1.700
 9166SOL    HW128397   4.952   6.489   1.632
 9166SOL    HW228398   4.797   6.458   1.675
 9167SOL     OW28399   1.993   1.556   4.962
 9167SOL    HW128400   1.911   1.577   5.015
 9167SOL    HW228401   1.975   1.476   4.904
 9168SOL     OW28402   6.322   6.091   4.978
 9168SOL    HW128403   6.292   6.156   5.047
 9168SOL    HW228404   6.398   6.037   5.013
 9169SOL     OW28405   6.847   6.434   1.644
 9169SOL    HW128406   6.934   6.393   1.615
 9169SOL    HW228407   6.812   6.384   1.723
 9170SOL     OW28408   1.352   0.872   6.062
 9170SOL    HW128409   1.436   0.889   6.113
 9170SOL    HW228410   1.314   0.960   6.031
 9171SOL     OW28411   3.906   5.485   6.277
 9171SOL    HW128412   3.816   5.442   6.276
 9171SOL    HW228413   3.927   5.517   6.369
 9172SOL     OW28414   4.414   1.813   5.046
 9172SOL    HW128415   4.326   1.843   5.082
 9172SOL    HW228416   4.436   1.864   4.963
 9173SOL     OW28417   5.547   3.655   5.027
 9173SOL    HW128418   5.513   3.678   4.936
 9173SOL    HW228419   5.481   3.684   5.096
 9174SOL     OW28420   0.018   5.098   1.563
 9174SOL    HW128421   0.052   5.182   1.519
 9174SOL    HW228422   0.088   5.063   1.625
 9175SOL     OW28423   2.333   6.958   0.535
 9175SOL    HW128424   2.366   6.957   0.629
 9175SOL    HW228425   2.277   0.015   0.521
 9176SOL     OW28426   1.463   1.776   2.146
 9176SOL    HW128427   1.520   1.801   2.224
 9176SOL    HW228428   1.459   1.853   2.082
 9177SOL     OW28429   0.356   5.397   3.529
 9177SOL    HW128430   0.434   5.428   3.474
 9177SOL    HW228431   0.277   5.382   3.471
 9178SOL     OW28432   1.465   4.369   1.624
 9178SOL    HW128433   1.382   4.417   1.652
 9178SOL    HW228434   1.537   4.435   1.604
 9179SOL     OW28435   3.084   5.493   4.157
 9179SOL    HW128436   3.057   5.549   4.236
 9179SOL    HW228437   3.165   5.532   4.114
 9180SOL     OW28438   0.400   1.678   5.437
 9180SOL    HW128439   0.325   1.744   5.442
 9180SOL    HW228440   0.475   1.709   5.495
 9181SOL     OW28441   2.300   2.504   3.279
 9181SOL    HW128442   2.247   2.439   3.334
 9181SOL    HW228443   2.321   2.462   3.190
 9182SOL     OW28444   0.785   1.866   2.324
 9182SOL    HW128445   0.735   1.803   2.384
 9182SOL    HW228446   0.730   1.948   2.308
 9183SOL     OW28447   1.655   1.779   6.240
 9183SOL    HW128448   1.661   1.686   6.277
 9183SOL    HW228449   1.728   1.792   6.173
 9184SOL     OW28450   4.100   3.366   0.677
 9184SOL    HW128451   4.022   3.342   0.736
 9184SOL    HW228452   4.098   3.310   0.595
 9185SOL     OW28453   1.639   0.659   6.254
 9185SOL    HW128454   1.692   0.744   6.251
 9185SOL    HW228455   1.630   0.630   6.349
 9186SOL     OW28456   4.714   0.996   6.193
 9186SOL    HW128457   4.742   0.950   6.109
 9186SOL    HW228458   4.790   1.051   6.228
 9187SOL     OW28459   5.595   2.399   1.119
 9187SOL    HW128460   5.665   2.459   1.080
 9187SOL    HW228461   5.564   2.437   1.206
 9188SOL     OW28462   1.754   0.405   1.832
 9188SOL    HW128463   1.810   0.487   1.818
 9188SOL    HW228464   1.679   0.404   1.766
 9189SOL     OW28465   4.321   1.279   6.020
 9189SOL    HW128466   4.258   1.326   6.083
 9189SOL    HW228467   4.269   1.219   5.959
 9190SOL     OW28468   5.130   1.605   5.458
 9190SOL    HW128469   5.188   1.572   5.384
 9190SOL    HW228470   5.060   1.536   5.478
 9191SOL     OW28471   5.686   0.033   0.916
 9191SOL    HW128472   5.646   0.030   1.008
 9191SOL    HW228473   5.784   0.013   0.922
 9192SOL     OW28474   4.966   3.651   3.871
 9192SOL    HW128475   4.926   3.720   3.932
 9192SOL    HW228476   4.970   3.688   3.778
 9193SOL     OW28477   3.761   2.902   3.488
 9193SOL    HW128478   3.675   2.922   3.440
 9193SOL    HW228479   3.827   2.866   3.423
 9194SOL     OW28480   4.487   5.656   2.568
 9194SOL    HW128481   4.485   5.560   2.541
 9194SOL    HW228482   4.397   5.697   2.552
 9195SOL     OW28483   0.684   2.691   2.788
 9195SOL    HW128484   0.609   2.738   2.835
 9195SOL    HW228485   0.697   2.731   2.697
 9196SOL     OW28486   5.117   6.821   4.030
 9196SOL    HW128487   5.145   6.838   3.936
 9196SOL    HW228488   5.123   6.906   4.082
 9197SOL     OW28489   4.295   2.495   5.848
 9197SOL    HW128490   4.303   2.548   5.932
 9197SOL    HW228491   4.247   2.409   5.867
 9198SOL     OW28492   5.869   2.183   5.411
 9198SOL    HW128493   5.889   2.209   5.316
 9198SOL    HW228494   5.901   2.255   5.472
 9199SOL     OW28495   2.021   2.741   6.267
 9199SOL    HW128496   2.006   2.826   6.317
 9199SOL    HW228497   2.008   2.758   6.169
 9200SOL     OW28498   5.727   6.179   0.827
 9200SOL    HW128499   5.739   6.161   0.729
 9200SOL    HW228500   5.746   6.095   0.878
 9201SOL     OW28501   1.067   3.885   2.429
 9201SOL    HW128502   1.088   3.981   2.446
 9201SOL    HW228503   1.035   3.842   2.513
 9202SOL     OW28504   2.911   5.720   3.898
 9202SOL    HW128505   2.827   5.709   3.952
 9202SOL    HW228506   2.968   5.639   3.910
 9203SOL     OW28507   4.431   0.771   6.503
 9203SOL    HW128508   4.472   0.825   6.430
 9203SOL    HW228509   4.414   0.678   6.471
 9204SOL     OW28510   5.123   4.745   2.546
 9204SOL    HW128511   5.136   4.691   2.463
 9204SOL    HW228512   5.184   4.712   2.618
 9205SOL     OW28513   4.883   3.145   1.754
 9205SOL    HW128514   4.866   3.244   1.760
 9205SOL    HW228515   4.837   3.098   1.829
 9206SOL     OW28516   0.743   5.873   3.728
 9206SOL    HW128517   0.826   5.915   3.764
 9206SOL    HW228518   0.672   5.875   3.798
 9207SOL     OW28519   4.237   6.319   6.759
 9207SOL    HW128520   4.284   6.397   6.719
 9207SOL    HW228521   4.139   6.340   6.769
 9208SOL     OW28522   4.757   4.203   1.910
 9208SOL    HW128523   4.801   4.186   1.822
 9208SOL    HW228524   4.657   4.203   1.897
 9209SOL     OW28525   4.015   6.945   2.958
 9209SOL    HW128526   4.098   6.889   2.956
 9209SOL    HW228527   3.939   6.891   2.995
 9210SOL     OW28528   1.252   6.628   0.845
 9210SOL    HW128529   1.237   6.562   0.919
 9210SOL    HW228530   1.188   6.609   0.770
 9211SOL     OW28531   4.861   1.327   6.053
 9211SOL    HW128532   4.955   1.297   6.064
 9211SOL    HW228533   4.858   1.427   6.053
 9212SOL     OW28534   5.637   3.706   5.382
 9212SOL    HW128535   5.596   3.787   5.340
 9212SOL    HW228536   5.660   3.726   5.477
 9213SOL     OW28537   6.599   6.844   2.058
 9213SOL    HW128538   6.543   6.927   2.051
 9213SOL    HW228539   6.696   6.868   2.049
 9214SOL     OW28540   2.051   2.381   5.343
 9214SOL    HW128541   2.113   2.424   5.277
 9214SOL    HW228542   2.054   2.282   5.332
 9215SOL     OW28543   0.427   2.776   2.914
 9215SOL    HW128544   0.357   2.710   2.884
 9215SOL    HW228545   0.459   2.750   3.005
 9216SOL     OW28546   2.433   5.690   3.877
 9216SOL    HW128547   2.460   5.786   3.867
 9216SOL    HW228548   2.349   5.674   3.826
 9217SOL     OW28549   3.526   1.475   6.779
 9217SOL    HW128550   3.524   1.537   6.857
 9217SOL    HW228551   3.587   1.511   6.709
 9218SOL     OW28552   5.454   5.605   6.537
 9218SOL    HW128553   5.396   5.544   6.591
 9218SOL    HW228554   5.430   5.597   6.440
 9219SOL     OW28555   3.280   2.169   5.600
 9219SOL    HW128556   3.242   2.165   5.507
 9219SOL    HW228557   3.248   2.090   5.652
 9220SOL     OW28558   0.387   6.417   3.485
 9220SOL    HW128559   0.384   6.505   3.438
 9220SOL    HW228560   0.438   6.427   3.571
 9221SOL     OW28561   2.318   1.287   0.796
 9221SOL    HW128562   2.250   1.215   0.812
 9221SOL    HW228563   2.279   1.357   0.736
 9222SOL     OW28564   1.517   3.353   4.472
 9222SOL    HW128565   1.470   3.441   4.478
 9222SOL    HW228566   1.615   3.367   4.490
 9223SOL     OW28567   6.792   3.171   4.878
 9223SOL    HW128568   6.809   3.215   4.790
 9223SOL    HW228569   6.839   3.222   4.950
 9224SOL     OW28570   2.387   4.921   3.107
 9224SOL    HW128571   2.298   4.951   3.073
 9224SOL    HW228572   2.379   4.897   3.204
 9225SOL     OW28573   5.933   5.557   6.220
 9225SOL    HW128574   5.848   5.544   6.273
 9225SOL    HW228575   5.984   5.472   6.218
 9226SOL     OW28576   1.038   0.711   0.305
 9226SOL    HW128577   1.113   0.679   0.248
 9226SOL    HW228578   1.051   0.680   0.399
 9227SOL     OW28579   3.046   3.969   0.616
 9227SOL    HW128580   3.036   4.068   0.620
 9227SOL    HW228581   2.956   3.926   0.616
 9228SOL     OW28582   3.783   3.397   5.115
 9228SOL    HW128583   3.761   3.366   5.022
 9228SOL    HW228584   3.776   3.496   5.119
 9229SOL     OW28585   6.721   5.135   0.500
 9229SOL    HW128586   6.780   5.076   0.556
 9229SOL    HW228587   6.626   5.105   0.510
 9230SOL     OW28588   4.353   1.291   4.975
 9230SOL    HW128589   4.391   1.274   4.884
 9230SOL    HW228590   4.261   1.329   4.966
 9231SOL     OW28591   0.031   6.162   2.429
 9231SOL    HW128592   0.039   6.081   2.371
 9231SOL    HW228593   6.979   6.219   2.397
 9232SOL     OW28594   0.969   5.235   2.694
 9232SOL    HW128595   1.019   5.263   2.613
 9232SOL    HW228596   0.870   5.236   2.675
 9233SOL     OW28597   1.264   6.490   5.627
 9233SOL    HW128598   1.206   6.451   5.697
 9233SOL    HW228599   1.327   6.420   5.592
 9234SOL     OW28600   2.583   3.379   6.523
 9234SOL    HW128601   2.565   3.333   6.435
 9234SOL    HW228602   2.511   3.356   6.588
 9235SOL     OW28603   1.792   2.224   3.338
 9235SOL    HW128604   1.707   2.197   3.292
 9235SOL    HW228605   1.836   2.143   3.375
 9236SOL     OW28606   1.450   3.150   6.324
 9236SOL    HW128607   1.479   3.067   6.276
 9236SOL    HW228608   1.499   3.157   6.411
 9237SOL     OW28609   6.302   5.480   2.810
 9237SOL    HW128610   6.212   5.439   2.823
 9237SOL    HW228611   6.319   5.491   2.712
 9238SOL     OW28612   1.807   2.965   4.593
 9238SOL    HW128613   1.852   3.035   4.537
 9238SOL    HW228614   1.725   3.005   4.636
 9239SOL     OW28615   1.012   4.670   6.742
 9239SOL    HW128616   1.033   4.684   6.839
 9239SOL    HW228617   0.913   4.665   6.730
 9240SOL     OW28618   4.439   1.552   3.348
 9240SOL    HW128619   4.466   1.467   3.303
 9240SOL    HW228620   4.428   1.535   3.446
 9241SOL     OW28621   5.547   6.929   0.658
 9241SOL    HW128622   5.477   7.000   0.661
 9241SOL    HW228623   5.513   6.850   0.608
 9242SOL     OW28624   1.805   2.295   0.832
 9242SOL    HW128625   1.842   2.205   0.810
 9242SOL    HW228626   1.819   2.313   0.930
 9243SOL     OW28627   1.525   0.232   0.111
 9243SOL    HW128628   1.598   0.164   0.122
 9243SOL    HW228629   1.537   0.279   0.024
 9244SOL     OW28630   3.651   6.195   6.195
 9244SOL    HW128631   3.622   6.101   6.175
 9244SOL    HW228632   3.719   6.223   6.128
 9245SOL     OW28633   1.188   5.133   3.020
 9245SOL    HW128634   1.184   5.088   2.931
 9245SOL    HW228635   1.133   5.082   3.086
 9246SOL     OW28636   4.998   6.955   6.799
 9246SOL    HW128637   4.902   6.936   6.818
 9246SOL    HW228638   5.023   6.918   6.709
 9247SOL     OW28639   3.916   5.542   2.953
 9247SOL    HW128640   3.966   5.620   2.917
 9247SOL    HW228641   3.979   5.482   3.003
 9248SOL     OW28642   2.227   1.011   6.838
 9248SOL    HW128643   2.290   0.967   6.902
 9248SOL    HW228644   2.277   1.047   6.760
 9249SOL     OW28645   2.164   6.543   0.238
 9249SOL    HW128646   2.159   6.640   0.261
 9249SOL    HW228647   2.189   6.532   0.142
 9250SOL     OW28648   0.276   2.873   3.801
 9250SOL    HW128649   0.176   2.868   3.811
 9250SOL    HW228650   0.299   2.932   3.724
 9251SOL     OW28651   2.936   1.917   0.978
 9251SOL    HW128652   2.934   1.998   0.920
 9251SOL    HW228653   2.896   1.840   0.929
 9252SOL     OW28654   5.667   1.234   5.003
 9252SOL    HW128655   5.669   1.212   5.100
 9252SOL    HW228656   5.759   1.259   4.973
 9253SOL     OW28657   1.159   5.702   5.035
 9253SOL    HW128658   1.170   5.658   4.946
 9253SOL    HW228659   1.219   5.783   5.040
 9254SOL     OW28660   0.366   5.003   2.159
 9254SOL    HW128661   0.360   5.089   2.211
 9254SOL    HW228662   0.280   4.953   2.169
 9255SOL     OW28663   6.783   4.308   0.614
 9255SOL    HW128664   6.776   4.408   0.609
 9255SOL    HW228665   6.746   4.276   0.701
 9256SOL     OW28666   3.322   6.636   1.026
 9256SOL    HW128667   3.295   6.546   1.061
 9256SOL    HW228668   3.274   6.654   0.940
 9257SOL     OW28669   5.683   5.740   4.776
 9257SOL    HW128670   5.670   5.693   4.863
 9257SOL    HW228671   5.620   5.701   4.708
 9258SOL     OW28672   3.579   5.381   0.733
 9258SOL    HW128673   3.485   5.365   0.762
 9258SOL    HW228674   3.641   5.324   0.788
 9259SOL     OW28675   0.787   2.032   6.918
 9259SOL    HW128676   0.769   1.934   6.912
 9259SOL    HW228677   0.781   2.073   6.827
 9260SOL     OW28678   5.173   3.915   4.792
 9260SOL    HW128679   5.194   3.887   4.699
 9260SOL    HW228680   5.092   3.867   4.824
 9261SOL     OW28681   2.648   1.940   1.088
 9261SOL    HW128682   2.740   1.925   1.054
 9261SOL    HW228683   2.611   1.855   1.125
 9262SOL     OW28684   6.893   6.116   6.058
 9262SOL    HW128685   6.864   6.026   6.092
 9262SOL    HW228686   6.812   6.170   6.033
 9263SOL     OW28687   1.704   4.532   2.881
 9263SOL    HW128688   1.688   4.523   2.979
 9263SOL    HW228689   1.790   4.487   2.856
 9264SOL     OW28690   5.481   4.300   6.475
 9264SOL    HW128691   5.534   4.284   6.391
 9264SOL    HW228692   5.384   4.309   6.451
 9265SOL     OW28693   6.078   1.638   1.780
 9265SOL    HW128694   6.083   1.580   1.861
 9265SOL    HW228695   6.134   1.720   1.795
 9266SOL     OW28696   1.665   4.561   1.103
 9266SOL    HW128697   1.637   4.512   1.186
 9266SOL    HW228698   1.755   4.602   1.117
 9267SOL     OW28699   6.767   0.651   4.652
 9267SOL    HW128700   6.772   0.614   4.745
 9267SOL    HW228701   6.831   0.727   4.643
 9268SOL     OW28702   0.456   6.947   1.358
 9268SOL    HW128703   0.404   6.936   1.274
 9268SOL    HW228704   0.401   6.916   1.436
 9269SOL     OW28705   3.549   1.090   0.121
 9269SOL    HW128706   3.563   1.014   0.059
 9269SOL    HW228707   3.636   1.117   0.162
 9270SOL     OW28708   2.594   0.529   6.697
 9270SOL    HW128709   2.552   0.614   6.665
 9270SOL    HW228710   2.651   0.549   6.777
 9271SOL     OW28711   1.572   5.805   5.149
 9271SOL    HW128712   1.504   5.804   5.223
 9271SOL    HW228713   1.560   5.723   5.093
 9272SOL     OW28714   6.713   6.483   6.030
 9272SOL    HW128715   6.704   6.401   5.974
 9272SOL    HW228716   6.788   6.539   5.996
 9273SOL     OW28717   5.344   4.114   3.018
 9273SOL    HW128718   5.324   4.211   3.035
 9273SOL    HW228719   5.369   4.070   3.104
 9274SOL     OW28720   0.823   3.036   0.515
 9274SOL    HW128721   0.848   3.120   0.467
 9274SOL    HW228722   0.897   2.969   0.507
 9275SOL     OW28723   5.477   0.760   0.613
 9275SOL    HW128724   5.526   0.773   0.699
 9275SOL    HW228725   5.434   0.846   0.586
 9276SOL     OW28726   2.884   4.990   0.146
 9276SOL    HW128727   2.843   5.073   0.183
 9276SOL    HW228728   2.973   4.976   0.190
 9277SOL     OW28729   4.560   5.000   2.465
 9277SOL    HW128730   4.486   5.055   2.425
 9277SOL    HW228731   4.637   4.997   2.402
 9278SOL     OW28732   0.618   6.977   5.256
 9278SOL    HW128733   0.660   6.947   5.342
 9278SOL    HW228734   0.556   6.906   5.223
 9279SOL     OW28735   3.466   5.301   1.714
 9279SOL    HW128736   3.372   5.328   1.693
 9279SOL    HW228737   3.501   5.356   1.790
 9280SOL     OW28738   1.839   6.248   3.024
 9280SOL    HW128739   1.829   6.250   3.124
 9280SOL    HW228740   1.893   6.168   2.998
 9281SOL     OW28741   2.062   5.908   0.743
 9281SOL    HW128742   1.976   5.949   0.712
 9281SOL    HW228743   2.109   5.867   0.665
 9282SOL     OW28744   3.022   6.742   4.926
 9282SOL    HW128745   3.021   6.787   4.837
 9282SOL    HW228746   3.026   6.811   4.998
 9283SOL     OW28747   4.456   6.512   1.056
 9283SOL    HW128748   4.491   6.601   1.024
 9283SOL    HW228749   4.520   6.473   1.122
 9284SOL     OW28750   4.430   4.239   5.729
 9284SOL    HW128751   4.336   4.206   5.735
 9284SOL    HW228752   4.486   4.195   5.799
 9285SOL     OW28753   0.583   5.652   2.947
 9285SOL    HW128754   0.563   5.585   3.019
 9285SOL    HW228755   0.682   5.654   2.932
 9286SOL     OW28756   4.093   6.882   1.594
 9286SOL    HW128757   4.107   6.908   1.689
 9286SOL    HW228758   4.071   6.964   1.540
 9287SOL     OW28759   4.158   4.028   5.955
 9287SOL    HW128760   4.199   3.938   5.942
 9287SOL    HW228761   4.164   4.080   5.869
 9288SOL     OW28762   3.706   1.796   1.829
 9288SOL    HW128763   3.762   1.850   1.892
 9288SOL    HW228764   3.629   1.852   1.796
 9289SOL     OW28765   4.645   6.920   0.563
 9289SOL    HW128766   4.556   6.912   0.517
 9289SOL    HW228767   4.718   6.913   0.496
 9290SOL     OW28768   5.253   1.371   4.424
 9290SOL    HW128769   5.190   1.400   4.352
 9290SOL    HW228770   5.328   1.436   4.431
 9291SOL     OW28771   0.782   3.788   5.939
 9291SOL    HW128772   0.825   3.873   5.910
 9291SOL    HW228773   0.742   3.741   5.861
 9292SOL     OW28774   0.779   0.758   6.516
 9292SOL    HW128775   0.782   0.768   6.615
 9292SOL    HW228776   0.802   0.845   6.473
 9293SOL     OW28777   5.064   2.325   3.938
 9293SOL    HW128778   5.101   2.351   3.848
 9293SOL    HW228779   5.103   2.385   4.008
 9294SOL     OW28780   4.499   0.088   6.080
 9294SOL    HW128781   4.406   0.093   6.117
 9294SOL    HW228782   4.494   0.078   5.980
 9295SOL     OW28783   6.291   1.079   5.040
 9295SOL    HW128784   6.289   1.014   5.116
 9295SOL    HW228785   6.284   1.029   4.953
 9296SOL     OW28786   2.224   5.004   6.084
 9296SOL    HW128787   2.317   5.011   6.120
 9296SOL    HW228788   2.180   4.923   6.122
 9297SOL     OW28789   6.268   5.903   2.453
 9297SOL    HW128790   6.336   5.930   2.385
 9297SOL    HW228791   6.312   5.895   2.543
 9298SOL     OW28792   1.153   4.289   6.379
 9298SOL    HW128793   1.096   4.250   6.451
 9298SOL    HW228794   1.234   4.331   6.419
 9299SOL     OW28795   2.178   2.704   4.477
 9299SOL    HW128796   2.124   2.766   4.534
 9299SOL    HW228797   2.124   2.622   4.456
 9300SOL     OW28798   1.989   5.625   5.272
 9300SOL    HW128799   1.907   5.642   5.327
 9300SOL    HW228800   2.067   5.668   5.316
 9301SOL     OW28801   0.021   4.072   4.283
 9301SOL    HW128802   7.011   3.980   4.304
 9301SOL    HW228803   7.002   4.139   4.343
 9302SOL     OW28804   2.182   3.883   4.458
 9302SOL    HW128805   2.209   3.941   4.381
 9302SOL    HW228806   2.199   3.931   4.544
 9303SOL     OW28807   2.583   4.436   0.189
 9303SOL    HW128808   2.502   4.378   0.203
 9303SOL    HW228809   2.553   4.526   0.156
 9304SOL     OW28810   5.274   5.417   6.655
 9304SOL    HW128811   5.241   5.356   6.584
 9304SOL    HW228812   5.300   5.364   6.736
 9305SOL     OW28813   1.619   1.989   0.916
 9305SOL    HW128814   1.632   1.964   1.012
 9305SOL    HW228815   1.553   2.064   0.910
 9306SOL     OW28816   0.067   6.311   4.831
 9306SOL    HW128817   7.006   6.260   4.827
 9306SOL    HW228818   0.094   6.337   4.738
 9307SOL     OW28819   1.895   3.430   1.555
 9307SOL    HW128820   1.938   3.436   1.465
 9307SOL    HW228821   1.952   3.477   1.622
 9308SOL     OW28822   2.199   3.221   1.832
 9308SOL    HW128823   2.237   3.305   1.871
 9308SOL    HW228824   2.102   3.235   1.812
 9309SOL     OW28825   5.073   5.204   6.777
 9309SOL    HW128826   5.166   5.206   6.813
 9309SOL    HW228827   5.061   5.123   6.719
 9310SOL     OW28828   5.961   5.445   6.538
 9310SOL    HW128829   6.011   5.528   6.513
 9310SOL    HW228830   5.865   5.455   6.513
 9311SOL     OW28831   5.006   4.076   0.546
 9311SOL    HW128832   5.029   4.026   0.462
 9311SOL    HW228833   5.089   4.088   0.601
 9312SOL     OW28834   0.437   3.049   3.001
 9312SOL    HW128835   0.442   2.960   2.955
 9312SOL    HW228836   0.474   3.040   3.093
 9313SOL     OW28837   0.458   0.555   2.350
 9313SOL    HW128838   0.511   0.523   2.272
 9313SOL    HW228839   0.418   0.644   2.329
 9314SOL     OW28840   5.215   4.677   1.337
 9314SOL    HW128841   5.158   4.759   1.333
 9314SOL    HW228842   5.231   4.644   1.244
 9315SOL     OW28843   5.224   6.261   5.989
 9315SOL    HW128844   5.247   6.357   6.006
 9315SOL    HW228845   5.159   6.255   5.914
 9316SOL     OW28846   4.867   0.694   6.345
 9316SOL    HW128847   4.960   0.660   6.360
 9316SOL    HW228848   4.809   0.620   6.313
 9317SOL     OW28849   3.499   6.177   3.020
 9317SOL    HW128850   3.574   6.198   2.957
 9317SOL    HW228851   3.417   6.155   2.968
 9318SOL     OW28852   3.906   0.000   2.060
 9318SOL    HW128853   3.815   0.042   2.053
 9318SOL    HW228854   3.937   0.005   2.155
 9319SOL     OW28855   4.221   2.297   6.923
 9319SOL    HW128856   4.221   2.394   6.947
 9319SOL    HW228857   4.293   2.251   6.975
 9320SOL     OW28858   6.598   6.751   6.799
 9320SOL    HW128859   6.575   6.702   6.884
 9320SOL    HW228860   6.692   6.784   6.804
 9321SOL     OW28861   0.432   2.951   5.017
 9321SOL    HW128862   0.495   2.877   4.993
 9321SOL    HW228863   0.343   2.912   5.041
 9322SOL     OW28864   5.868   3.180   6.829
 9322SOL    HW128865   5.944   3.232   6.867
 9322SOL    HW228866   5.783   3.229   6.846
 9323SOL     OW28867   0.740   2.099   5.867
 9323SOL    HW128868   0.778   2.085   5.958
 9323SOL    HW228869   0.812   2.127   5.804
 9324SOL     OW28870   0.826   4.163   1.743
 9324SOL    HW128871   0.810   4.192   1.837
 9324SOL    HW228872   0.744   4.120   1.706
 9325SOL     OW28873   0.820   4.103   3.653
 9325SOL    HW128874   0.909   4.137   3.683
 9325SOL    HW228875   0.751   4.122   3.723
 9326SOL     OW28876   4.180   3.946   1.251
 9326SOL    HW128877   4.121   3.933   1.171
 9326SOL    HW228878   4.263   3.995   1.224
 9327SOL     OW28879   2.515   0.874   3.446
 9327SOL    HW128880   2.530   0.903   3.351
 9327SOL    HW228881   2.417   0.859   3.461
 9328SOL     OW28882   2.483   0.555   3.742
 9328SOL    HW128883   2.455   0.566   3.837
 9328SOL    HW228884   2.470   0.460   3.713
 9329SOL     OW28885   7.007   5.447   0.147
 9329SOL    HW128886   0.047   5.497   0.205
 9329SOL    HW228887   6.995   5.354   0.184
 9330SOL     OW28888   6.646   6.198   6.989
 9330SOL    HW128889   6.551   6.223   7.007
 9330SOL    HW228890   6.672   6.228   6.897
 9331SOL     OW28891   1.884   3.525   3.768
 9331SOL    HW128892   1.821   3.475   3.828
 9331SOL    HW228893   1.850   3.617   3.752
 9332SOL     OW28894   5.997   5.909   0.790
 9332SOL    HW128895   5.938   5.908   0.871
 9332SOL    HW228896   6.091   5.930   0.818
 9333SOL     OW28897   3.469   3.542   1.111
 9333SOL    HW128898   3.444   3.458   1.159
 9333SOL    HW228899   3.402   3.562   1.040
 9334SOL     OW28900   5.875   5.896   5.875
 9334SOL    HW128901   5.926   5.847   5.947
 9334SOL    HW228902   5.841   5.830   5.808
 9335SOL     OW28903   0.831   3.195   1.711
 9335SOL    HW128904   0.781   3.118   1.671
 9335SOL    HW228905   0.924   3.197   1.674
 9336SOL     OW28906   5.492   0.588   5.942
 9336SOL    HW128907   5.484   0.575   5.843
 9336SOL    HW228908   5.537   0.675   5.961
 9337SOL     OW28909   2.393   1.278   5.950
 9337SOL    HW128910   2.426   1.187   5.925
 9337SOL    HW228911   2.399   1.339   5.871
 9338SOL     OW28912   5.520   6.580   0.218
 9338SOL    HW128913   5.502   6.671   0.181
 9338SOL    HW228914   5.614   6.553   0.195
 9339SOL     OW28915   0.027   3.875   5.868
 9339SOL    HW128916   6.996   3.806   5.822
 9339SOL    HW228917   6.992   3.947   5.904
 9340SOL     OW28918   3.154   4.782   1.133
 9340SOL    HW128919   3.222   4.744   1.069
 9340SOL    HW228920   3.183   4.763   1.227
 9341SOL     OW28921   5.059   5.013   6.563
 9341SOL    HW128922   5.021   5.019   6.471
 9341SOL    HW228923   5.154   5.046   6.562
 9342SOL     OW28924   3.152   0.179   4.535
 9342SOL    HW128925   3.228   0.136   4.486
 9342SOL    HW228926   3.142   0.138   4.625
 9343SOL     OW28927   4.570   3.865   1.083
 9343SOL    HW128928   4.663   3.867   1.119
 9343SOL    HW228929   4.538   3.770   1.082
 9344SOL     OW28930   5.779   0.099   5.470
 9344SOL    HW128931   5.838   0.052   5.404
 9344SOL    HW228932   5.771   0.195   5.443
 9345SOL     OW28933   0.321   4.858   0.527
 9345SOL    HW128934   0.352   4.951   0.510
 9345SOL    HW228935   0.231   4.860   0.570
 9346SOL     OW28936   5.839   6.308   1.380
 9346SOL    HW128937   5.784   6.247   1.323
 9346SOL    HW228938   5.880   6.256   1.455
 9347SOL     OW28939   3.829   5.665   0.968
 9347SOL    HW128940   3.861   5.574   0.943
 9347SOL    HW228941   3.754   5.691   0.907
 9348SOL     OW28942   2.519   5.669   2.229
 9348SOL    HW128943   2.597   5.642   2.285
 9348SOL    HW228944   2.454   5.593   2.222
 9349SOL     OW28945   0.087   6.161   2.077
 9349SOL    HW128946   7.023   6.174   2.122
 9349SOL    HW228947   0.127   6.250   2.055
 9350SOL     OW28948   6.775   0.713   6.687
 9350SOL    HW128949   6.852   0.676   6.739
 9350SOL    HW228950   6.705   0.643   6.676
 9351SOL     OW28951   4.007   3.212   5.581
 9351SOL    HW128952   4.100   3.218   5.615
 9351SOL    HW228953   4.008   3.212   5.481
 9352SOL     OW28954   3.553   3.163   6.310
 9352SOL    HW128955   3.473   3.157   6.368
 9352SOL    HW228956   3.623   3.098   6.341
 9353SOL     OW28957   0.289   3.650   0.814
 9353SOL    HW128958   0.213   3.586   0.826
 9353SOL    HW228959   0.344   3.622   0.735
 9354SOL     OW28960   4.675   1.515   1.734
 9354SOL    HW128961   4.690   1.568   1.817
 9354SOL    HW228962   4.748   1.535   1.669
 9355SOL     OW28963   6.476   1.125   2.973
 9355SOL    HW128964   6.398   1.063   2.977
 9355SOL    HW228965   6.493   1.162   3.065
 9356SOL     OW28966   4.139   4.755   2.822
 9356SOL    HW128967   4.193   4.721   2.745
 9356SOL    HW228968   4.093   4.840   2.795
 9357SOL     OW28969   3.420   3.047   0.479
 9357SOL    HW128970   3.378   2.961   0.451
 9357SOL    HW228971   3.348   3.111   0.508
 9358SOL     OW28972   5.405   4.499   1.859
 9358SOL    HW128973   5.307   4.501   1.881
 9358SOL    HW228974   5.454   4.448   1.929
 9359SOL     OW28975   5.467   4.503   6.112
 9359SOL    HW128976   5.380   4.467   6.146
 9359SOL    HW228977   5.501   4.445   6.038
 9360SOL     OW28978   1.701   0.247   5.348
 9360SOL    HW128979   1.663   0.339   5.355
 9360SOL    HW228980   1.649   0.195   5.280
 9361SOL     OW28981   2.669   0.463   2.549
 9361SOL    HW128982   2.604   0.524   2.595
 9361SOL    HW228983   2.680   0.492   2.454
 9362SOL     OW28984   2.082   1.865   3.039
 9362SOL    HW128985   2.030   1.943   3.004
 9362SOL    HW228986   2.130   1.821   2.963
 9363SOL     OW28987   2.334   6.449   1.782
 9363SOL    HW128988   2.296   6.431   1.873
 9363SOL    HW228989   2.360   6.362   1.739
 9364SOL     OW28990   5.508   5.187   0.510
 9364SOL    HW128991   5.513   5.093   0.542
 9364SOL    HW228992   5.600   5.222   0.494
 9365SOL     OW28993   1.995   1.102   5.173
 9365SOL    HW128994   1.899   1.131   5.178
 9365SOL    HW228995   2.037   1.108   5.263
 9366SOL     OW28996   2.999   2.188   0.843
 9366SOL    HW128997   3.036   2.258   0.782
 9366SOL    HW228998   3.058   2.179   0.923
 9367SOL     OW28999   6.819   5.962   3.472
 9367SOL    HW129000   6.866   5.941   3.386
 9367SOL    HW229001   6.877   5.933   3.548
 9368SOL     OW29002   3.783   2.814   1.041
 9368SOL    HW129003   3.788   2.716   1.057
 9368SOL    HW229004   3.864   2.845   0.991
 9369SOL     OW29005   0.205   2.266   5.218
 9369SOL    HW129006   0.191   2.308   5.307
 9369SOL    HW229007   0.117   2.239   5.179
 9370SOL     OW29008   6.134   0.620   3.474
 9370SOL    HW129009   6.216   0.678   3.473
 9370SOL    HW229010   6.123   0.580   3.565
 9371SOL     OW29011   0.914   6.729   0.480
 9371SOL    HW129012   0.931   6.632   0.463
 9371SOL    HW229013   0.821   6.740   0.515
 9372SOL     OW29014   6.847   6.267   6.421
 9372SOL    HW129015   6.899   6.244   6.503
 9372SOL    HW229016   6.795   6.187   6.391
 9373SOL     OW29017   4.404   1.584   3.624
 9373SOL    HW129018   4.376   1.678   3.640
 9373SOL    HW229019   4.504   1.579   3.618
 9374SOL     OW29020   5.330   3.946   0.623
 9374SOL    HW129021   5.381   3.959   0.708
 9374SOL    HW229022   5.347   3.854   0.587
 9375SOL     OW29023   0.855   1.424   4.028
 9375SOL    HW129024   0.874   1.341   3.977
 9375SOL    HW229025   0.910   1.424   4.112
 9376SOL     OW29026   2.114   2.978   2.064
 9376SOL    HW129027   2.023   2.959   2.027
 9376SOL    HW229028   2.183   2.957   1.996
 9377SOL     OW29029   5.832   5.578   3.756
 9377SOL    HW129030   5.748   5.523   3.757
 9377SOL    HW229031   5.907   5.522   3.719
 9378SOL     OW29032   2.927   6.260   0.829
 9378SOL    HW129033   3.011   6.206   0.819
 9378SOL    HW229034   2.855   6.220   0.773
 9379SOL     OW29035   5.308   4.553   4.827
 9379SOL    HW129036   5.365   4.472   4.842
 9379SOL    HW229037   5.311   4.578   4.730
 9380SOL     OW29038   5.818   6.480   6.461
 9380SOL    HW129039   5.779   6.388   6.449
 9380SOL    HW229040   5.797   6.535   6.380
 9381SOL     OW29041   2.603   1.190   6.868
 9381SOL    HW129042   2.696   1.191   6.832
 9381SOL    HW229043   2.606   1.180   6.967
 9382SOL     OW29044   4.669   2.152   2.310
 9382SOL    HW129045   4.605   2.226   2.288
 9382SOL    HW229046   4.762   2.189   2.308
 9383SOL     OW29047   4.924   5.991   5.444
 9383SOL    HW129048   4.922   5.892   5.427
 9383SOL    HW229049   4.867   6.013   5.523
 9384SOL     OW29050   5.213   5.690   1.215
 9384SOL    HW129051   5.260   5.764   1.262
 9384SOL    HW229052   5.279   5.634   1.167
 9385SOL     OW29053   3.515   1.211   3.122
 9385SOL    HW129054   3.479   1.249   3.207
 9385SOL    HW229055   3.439   1.182   3.063
 9386SOL     OW29056   3.396   0.041   4.169
 9386SOL    HW129057   3.381   0.027   4.267
 9386SOL    HW229058   3.459   6.995   4.135
 9387SOL     OW29059   4.031   6.845   7.020
 9387SOL    HW129060   4.035   6.746   7.006
 9387SOL    HW229061   3.972   6.886   6.950
 9388SOL     OW29062   0.180   0.644   2.772
 9388SOL    HW129063   0.152   0.664   2.678
 9388SOL    HW229064   0.249   0.572   2.770
 9389SOL     OW29065   2.674   0.730   6.433
 9389SOL    HW129066   2.752   0.683   6.474
 9389SOL    HW229067   2.612   0.762   6.505
 9390SOL     OW29068   3.202   5.766   2.279
 9390SOL    HW129069   3.291   5.727   2.301
 9390SOL    HW229070   3.212   5.863   2.256
 9391SOL     OW29071   0.548   1.043   5.261
 9391SOL    HW129072   0.612   1.070   5.189
 9391SOL    HW229073   0.455   1.072   5.235
 9392SOL     OW29074   1.340   6.427   4.675
 9392SOL    HW129075   1.252   6.425   4.722
 9392SOL    HW229076   1.326   6.409   4.577
 9393SOL     OW29077   3.869   2.203   5.240
 9393SOL    HW129078   3.931   2.179   5.165
 9393SOL    HW229079   3.776   2.174   5.216
 9394SOL     OW29080   5.112   2.031   2.548
 9394SOL    HW129081   5.020   1.999   2.525
 9394SOL    HW229082   5.108   2.128   2.574
 9395SOL     OW29083   1.572   3.190   6.894
 9395SOL    HW129084   1.664   3.178   6.930
 9395SOL    HW229085   1.572   3.262   6.825
 9396SOL     OW29086   6.705   0.344   6.486
 9396SOL    HW129087   6.647   0.288   6.545
 9396SOL    HW229088   6.795   0.355   6.528
 9397SOL     OW29089   3.018   0.376   0.975
 9397SOL    HW129090   2.923   0.387   1.004
 9397SOL    HW229091   3.041   0.279   0.973
 9398SOL     OW29092   2.642   1.750   6.452
 9398SOL    HW129093   2.646   1.670   6.512
 9398SOL    HW229094   2.581   1.819   6.491
 9399SOL     OW29095   7.016   0.897   5.478
 9399SOL    HW129096   0.092   0.897   5.486
 9399SOL    HW229097   6.988   0.827   5.412
 9400SOL     OW29098   5.292   2.423   2.821
 9400SOL    HW129099   5.243   2.482   2.886
 9400SOL    HW229100   5.380   2.464   2.798
 9401SOL     OW29101   3.096   0.190   2.948
 9401SOL    HW129102   3.195   0.180   2.940
 9401SOL    HW229103   3.050   0.131   2.882
 9402SOL     OW29104   2.478   5.075   6.197
 9402SOL    HW129105   2.542   5.148   6.220
 9402SOL    HW229106   2.528   4.992   6.174
 9403SOL     OW29107   5.008   0.804   4.252
 9403SOL    HW129108   5.018   0.732   4.182
 9403SOL    HW229109   4.919   0.847   4.243
 9404SOL     OW29110   0.622   4.145   5.953
 9404SOL    HW129111   0.688   4.083   5.910
 9404SOL    HW229112   0.577   4.200   5.882
 9405SOL     OW29113   5.908   6.855   1.222
 9405SOL    HW129114   5.880   6.793   1.148
 9405SOL    HW229115   5.915   6.803   1.307
 9406SOL     OW29116   0.120   1.368   4.973
 9406SOL    HW129117   0.166   1.441   4.924
 9406SOL    HW229118   0.098   1.398   5.066
 9407SOL     OW29119   3.553   5.968   2.781
 9407SOL    HW129120   3.549   5.903   2.857
 9407SOL    HW229121   3.601   6.051   2.811
 9408SOL     OW29122   4.042   1.805   6.344
 9408SOL    HW129123   3.964   1.743   6.344
 9408SOL    HW229124   4.029   1.876   6.275
 9409SOL     OW29125   5.638   4.278   2.959
 9409SOL    HW129126   5.551   4.328   2.961
 9409SOL    HW229127   5.711   4.336   2.993
 9410SOL     OW29128   4.352   6.493   2.706
 9410SOL    HW129129   4.382   6.574   2.756
 9410SOL    HW229130   4.277   6.516   2.645
 9411SOL     OW29131   4.814   5.478   0.796
 9411SOL    HW129132   4.868   5.459   0.714
 9411SOL    HW229133   4.837   5.569   0.831
 9412SOL     OW29134   6.253   2.640   1.442
 9412SOL    HW129135   6.252   2.607   1.537
 9412SOL    HW229136   6.239   2.564   1.380
 9413SOL     OW29137   3.952   6.096   5.689
 9413SOL    HW129138   3.869   6.043   5.676
 9413SOL    HW229139   3.932   6.193   5.678
 9414SOL     OW29140   2.443   1.977   1.974
 9414SOL    HW129141   2.380   1.954   2.048
 9414SOL    HW229142   2.525   2.019   2.012
 9415SOL     OW29143   2.764   0.347   1.959
 9415SOL    HW129144   2.823   0.426   1.977
 9415SOL    HW229145   2.669   0.372   1.975
 9416SOL     OW29146   0.762   2.912   1.586
 9416SOL    HW129147   0.708   2.870   1.659
 9416SOL    HW229148   0.859   2.900   1.606
 9417SOL     OW29149   2.580   5.913   4.852
 9417SOL    HW129150   2.486   5.881   4.846
 9417SOL    HW229151   2.581   6.008   4.883
 9418SOL     OW29152   3.692   4.787   0.514
 9418SOL    HW129153   3.715   4.766   0.609
 9418SOL    HW229154   3.599   4.823   0.509
 9419SOL     OW29155   3.702   6.809   5.841
 9419SOL    HW129156   3.640   6.743   5.800
 9419SOL    HW229157   3.748   6.861   5.769
 9420SOL     OW29158   0.493   1.225   4.184
 9420SOL    HW129159   0.407   1.191   4.145
 9420SOL    HW229160   0.564   1.156   4.173
 9421SOL     OW29161   1.790   4.375   5.552
 9421SOL    HW129162   1.854   4.382   5.475
 9421SOL    HW229163   1.766   4.467   5.584
 9422SOL     OW29164   4.054   1.335   2.176
 9422SOL    HW129165   4.050   1.286   2.264
 9422SOL    HW229166   3.970   1.387   2.163
 9423SOL     OW29167   4.756   1.123   5.012
 9423SOL    HW129168   4.744   1.082   4.921
 9423SOL    HW229169   4.733   1.220   5.008
 9424SOL     OW29170   2.904   6.478   4.706
 9424SOL    HW129171   2.808   6.502   4.724
 9424SOL    HW229172   2.915   6.458   4.608
 9425SOL     OW29173   1.513   3.068   4.429
 9425SOL    HW129174   1.515   3.168   4.436
 9425SOL    HW229175   1.494   3.029   4.519
 9426SOL     OW29176   3.539   6.973   0.074
 9426SOL    HW129177   3.490   6.974   7.011
 9426SOL    HW229178   3.597   6.891   0.078
 9427SOL     OW29179   3.112   5.221   4.215
 9427SOL    HW129180   3.083   5.182   4.302
 9427SOL    HW229181   3.074   5.313   4.205
 9428SOL     OW29182   5.152   6.416   2.742
 9428SOL    HW129183   5.202   6.492   2.701
 9428SOL    HW229184   5.063   6.408   2.698
 9429SOL     OW29185   0.372   3.939   2.418
 9429SOL    HW129186   0.458   3.988   2.433
 9429SOL    HW229187   0.360   3.870   2.489
 9430SOL     OW29188   5.714   6.596   1.642
 9430SOL    HW129189   5.784   6.585   1.713
 9430SOL    HW229190   5.646   6.524   1.651
 9431SOL     OW29191   6.544   4.647   2.076
 9431SOL    HW129192   6.535   4.698   1.991
 9431SOL    HW229193   6.593   4.702   2.143
 9432SOL     OW29194   6.433   6.849   4.222
 9432SOL    HW129195   6.512   6.791   4.201
 9432SOL    HW229196   6.461   6.921   4.286
 9433SOL     OW29197   3.027   4.844   4.978
 9433SOL    HW129198   3.087   4.865   5.055
 9433SOL    HW229199   2.972   4.763   4.999
 9434SOL     OW29200   5.030   5.108   2.549
 9434SOL    HW129201   5.117   5.060   2.559
 9434SOL    HW229202   4.962   5.045   2.510
 9435SOL     OW29203   1.527   0.757   4.312
 9435SOL    HW129204   1.592   0.681   4.316
 9435SOL    HW229205   1.573   0.840   4.281
 9436SOL     OW29206   2.353   2.576   6.446
 9436SOL    HW129207   2.258   2.547   6.456
 9436SOL    HW229208   2.394   2.588   6.536
 9437SOL     OW29209   1.125   5.102   4.284
 9437SOL    HW129210   1.204   5.044   4.267
 9437SOL    HW229211   1.097   5.093   4.379
 9438SOL     OW29212   0.875   6.025   2.161
 9438SOL    HW129213   0.860   6.057   2.067
 9438SOL    HW229214   0.973   6.021   2.179
 9439SOL     OW29215   0.405   2.698   1.636
 9439SOL    HW129216   0.470   2.646   1.581
 9439SOL    HW229217   0.450   2.778   1.674
 9440SOL     OW29218   5.130   6.415   5.652
 9440SOL    HW129219   5.201   6.353   5.687
 9440SOL    HW229220   5.062   6.431   5.724
 9441SOL     OW29221   1.614   4.470   5.269
 9441SOL    HW129222   1.687   4.403   5.257
 9441SOL    HW229223   1.654   4.561   5.283
 9442SOL     OW29224   0.326   3.974   2.102
 9442SOL    HW129225   0.286   4.051   2.051
 9442SOL    HW229226   0.359   4.006   2.190
 9443SOL     OW29227   1.908   3.855   1.908
 9443SOL    HW129228   1.876   3.940   1.948
 9443SOL    HW229229   1.831   3.806   1.867
 9444SOL     OW29230   0.336   3.742   6.868
 9444SOL    HW129231   0.243   3.712   6.886
 9444SOL    HW229232   0.378   3.681   6.801
 9445SOL     OW29233   6.004   3.401   1.494
 9445SOL    HW129234   6.071   3.406   1.420
 9445SOL    HW229235   6.020   3.476   1.558
 9446SOL     OW29236   6.282   5.983   1.515
 9446SOL    HW129237   6.338   5.957   1.436
 9446SOL    HW229238   6.332   5.961   1.599
 9447SOL     OW29239   5.579   2.885   2.111
 9447SOL    HW129240   5.523   2.838   2.179
 9447SOL    HW229241   5.597   2.824   2.034
 9448SOL     OW29242   6.224   6.797   0.224
 9448SOL    HW129243   6.177   6.870   0.274
 9448SOL    HW229244   6.238   6.719   0.284
 9449SOL     OW29245   6.760   5.347   5.264
 9449SOL    HW129246   6.691   5.349   5.336
 9449SOL    HW229247   6.790   5.440   5.242
 9450SOL     OW29248   3.347   4.972   4.321
 9450SOL    HW129249   3.305   4.930   4.241
 9450SOL    HW229250   3.282   4.971   4.397
 9451SOL     OW29251   4.609   4.808   6.071
 9451SOL    HW129252   4.702   4.801   6.106
 9451SOL    HW229253   4.553   4.735   6.110
 9452SOL     OW29254   2.270   4.232   1.548
 9452SOL    HW129255   2.317   4.316   1.522
 9452SOL    HW229256   2.333   4.155   1.540
 9453SOL     OW29257   3.379   5.067   2.358
 9453SOL    HW129258   3.389   5.128   2.280
 9453SOL    HW229259   3.282   5.043   2.370
 9454SOL     OW29260   1.951   2.839   5.297
 9454SOL    HW129261   2.040   2.861   5.257
 9454SOL    HW229262   1.909   2.923   5.332
 9455SOL     OW29263   3.302   1.824   1.900
 9455SOL    HW129264   3.352   1.908   1.876
 9455SOL    HW229265   3.225   1.813   1.837
 9456SOL     OW29266   1.078   3.078   1.317
 9456SOL    HW129267   1.006   3.011   1.300
 9456SOL    HW229268   1.083   3.097   1.415
 9457SOL     OW29269   0.670   3.465   0.775
 9457SOL    HW129270   0.640   3.559   0.789
 9457SOL    HW229271   0.634   3.431   0.688
 9458SOL     OW29272   6.795   5.781   5.035
 9458SOL    HW129273   6.775   5.825   4.947
 9458SOL    HW229274   6.711   5.741   5.072
 9459SOL     OW29275   5.624   5.724   1.933
 9459SOL    HW129276   5.527   5.747   1.921
 9459SOL    HW229277   5.659   5.681   1.850
 9460SOL     OW29278   1.182   2.384   5.421
 9460SOL    HW129279   1.216   2.467   5.378
 9460SOL    HW229280   1.149   2.321   5.351
 9461SOL     OW29281   1.249   1.009   4.051
 9461SOL    HW129282   1.258   0.910   4.050
 9461SOL    HW229283   1.179   1.035   4.118
 9462SOL     OW29284   0.821   3.242   2.416
 9462SOL    HW129285   0.849   3.327   2.373
 9462SOL    HW229286   0.899   3.201   2.463
 9463SOL     OW29287   5.310   1.645   0.379
 9463SOL    HW129288   5.228   1.615   0.331
 9463SOL    HW229289   5.376   1.682   0.314
 9464SOL     OW29290   5.673   0.571   6.256
 9464SOL    HW129291   5.717   0.613   6.176
 9464SOL    HW229292   5.699   0.622   6.338
 9465SOL     OW29293   6.102   0.704   4.117
 9465SOL    HW129294   6.199   0.680   4.118
 9465SOL    HW229295   6.084   0.775   4.184
 9466SOL     OW29296   2.855   2.496   6.288
 9466SOL    HW129297   2.946   2.535   6.301
 9466SOL    HW229298   2.863   2.397   6.276
 9467SOL     OW29299   1.965   3.467   1.886
 9467SOL    HW129300   2.062   3.470   1.910
 9467SOL    HW229301   1.922   3.388   1.930
 9468SOL     OW29302   6.838   2.956   6.048
 9468SOL    HW129303   6.797   3.033   6.098
 9468SOL    HW229304   6.841   2.978   5.950
 9469SOL     OW29305   6.348   4.940   1.896
 9469SOL    HW129306   6.314   4.955   1.803
 9469SOL    HW229307   6.290   4.872   1.942
 9470SOL     OW29308   5.361   3.527   0.991
 9470SOL    HW129309   5.406   3.579   0.919
 9470SOL    HW229310   5.405   3.438   1.001
 9471SOL     OW29311   0.020   1.857   5.851
 9471SOL    HW129312   0.044   1.939   5.904
 9471SOL    HW229313   6.969   1.809   5.896
 9472SOL     OW29314   6.330   4.316   3.467
 9472SOL    HW129315   6.406   4.283   3.411
 9472SOL    HW229316   6.307   4.248   3.537
 9473SOL     OW29317   3.042   5.080   5.325
 9473SOL    HW129318   3.076   5.003   5.378
 9473SOL    HW229319   3.119   5.137   5.296
 9474SOL     OW29320   4.585   5.276   2.640
 9474SOL    HW129321   4.509   5.295   2.578
 9474SOL    HW229322   4.553   5.282   2.735
 9475SOL     OW29323   2.241   3.462   1.347
 9475SOL    HW129324   2.257   3.451   1.445
 9475SOL    HW229325   2.145   3.445   1.327
 9476SOL     OW29326   3.502   3.800   5.477
 9476SOL    HW129327   3.500   3.726   5.411
 9476SOL    HW229328   3.512   3.763   5.570
 9477SOL     OW29329   1.181   2.568   1.587
 9477SOL    HW129330   1.107   2.577   1.653
 9477SOL    HW229331   1.169   2.483   1.535
 9478SOL     OW29332   5.601   4.831   5.488
 9478SOL    HW129333   5.613   4.927   5.460
 9478SOL    HW229334   5.665   4.810   5.561
 9479SOL     OW29335   6.211   5.956   6.329
 9479SOL    HW129336   6.216   5.865   6.290
 9479SOL    HW229337   6.297   6.005   6.311
 9480SOL     OW29338   5.583   4.947   6.886
 9480SOL    HW129339   5.532   4.985   6.963
 9480SOL    HW229340   5.575   5.008   6.808
 9481SOL     OW29341   0.310   3.730   2.226
 9481SOL    HW129342   0.340   3.797   2.293
 9481SOL    HW229343   0.279   3.776   2.143
 9482SOL     OW29344   4.132   0.333   2.104
 9482SOL    HW129345   4.164   0.378   2.187
 9482SOL    HW229346   4.036   0.308   2.115
 9483SOL     OW29347   1.803   1.856   6.872
 9483SOL    HW129348   1.834   1.924   6.939
 9483SOL    HW229349   1.703   1.860   6.864
 9484SOL     OW29350   6.810   1.705   3.584
 9484SOL    HW129351   6.821   1.797   3.547
 9484SOL    HW229352   6.891   1.651   3.562
 9485SOL     OW29353   1.109   0.553   2.676
 9485SOL    HW129354   1.101   0.595   2.585
 9485SOL    HW229355   1.115   0.453   2.666
 9486SOL     OW29356   3.106   5.747   1.990
 9486SOL    HW129357   3.175   5.763   2.061
 9486SOL    HW229358   3.030   5.812   2.002
 9487SOL     OW29359   3.122   2.990   4.190
 9487SOL    HW129360   3.117   3.063   4.258
 9487SOL    HW229361   3.192   2.924   4.216
 9488SOL     OW29362   1.772   6.882   0.800
 9488SOL    HW129363   1.696   6.945   0.782
 9488SOL    HW229364   1.739   6.787   0.794
 9489SOL     OW29365   3.879   4.758   0.784
 9489SOL    HW129366   3.860   4.672   0.736
 9489SOL    HW229367   3.942   4.813   0.730
 9490SOL     OW29368   4.956   1.355   1.431
 9490SOL    HW129369   4.975   1.257   1.436
 9490SOL    HW229370   4.858   1.369   1.414
 9491SOL     OW29371   5.658   4.894   6.519
 9491SOL    HW129372   5.641   4.808   6.567
 9491SOL    HW229373   5.678   4.876   6.423
 9492SOL     OW29374   2.963   4.088   1.699
 9492SOL    HW129375   3.023   4.027   1.646
 9492SOL    HW229376   2.969   4.064   1.796
 9493SOL     OW29377   4.729   6.580   3.196
 9493SOL    HW129378   4.688   6.536   3.276
 9493SOL    HW229379   4.817   6.621   3.222
 9494SOL     OW29380   4.122   3.434   5.405
 9494SOL    HW129381   4.154   3.445   5.499
 9494SOL    HW229382   4.027   3.464   5.399
 9495SOL     OW29383   6.224   2.394   5.587
 9495SOL    HW129384   6.244   2.298   5.607
 9495SOL    HW229385   6.125   2.406   5.578
 9496SOL     OW29386   5.944   4.395   6.949
 9496SOL    HW129387   6.001   4.476   6.963
 9496SOL    HW229388   5.999   4.322   6.909
 9497SOL     OW29389   5.766   5.901   6.392
 9497SOL    HW129390   5.752   5.809   6.430
 9497SOL    HW229391   5.708   5.912   6.311
 9498SOL     OW29392   3.764   0.777   6.315
 9498SOL    HW129393   3.679   0.818   6.281
 9498SOL    HW229394   3.838   0.793   6.250
 9499SOL     OW29395   3.862   4.456   5.270
 9499SOL    HW129396   3.961   4.449   5.274
 9499SOL    HW229397   3.824   4.370   5.236
 9500SOL     OW29398   5.087   6.076   1.713
 9500SOL    HW129399   5.149   6.123   1.775
 9500SOL    HW229400   5.097   6.113   1.621
 9501SOL     OW29401   3.137   1.623   4.967
 9501SOL    HW129402   3.136   1.536   5.016
 9501SOL    HW229403   3.044   1.658   4.960
 9502SOL     OW29404   6.000   2.760   5.669
 9502SOL    HW129405   5.967   2.854   5.671
 9502SOL    HW229406   5.971   2.716   5.583
 9503SOL     OW29407   1.479   6.761   1.087
 9503SOL    HW129408   1.540   6.683   1.096
 9503SOL    HW229409   1.395   6.745   1.140
 9504SOL     OW29410   0.536   2.852   6.611
 9504SOL    HW129411   0.609   2.838   6.545
 9504SOL    HW229412   0.574   2.890   6.696
 9505SOL     OW29413   5.789   2.944   3.226
 9505SOL    HW129414   5.798   2.880   3.150
 9505SOL    HW229415   5.756   2.895   3.307
 9506SOL     OW29416   6.610   4.059   0.418
 9506SOL    HW129417   6.596   3.962   0.440
 9506SOL    HW229418   6.707   4.074   0.396
 9507SOL     OW29419   0.907   1.922   3.498
 9507SOL    HW129420   0.855   1.840   3.519
 9507SOL    HW229421   0.906   1.937   3.399
 9508SOL     OW29422   6.077   2.297   0.616
 9508SOL    HW129423   6.119   2.304   0.706
 9508SOL    HW229424   5.985   2.338   0.619
 9509SOL     OW29425   2.525   6.144   5.622
 9509SOL    HW129426   2.429   6.143   5.652
 9509SOL    HW229427   2.582   6.102   5.692
 9510SOL     OW29428   6.458   4.934   3.360
 9510SOL    HW129429   6.364   4.959   3.335
 9510SOL    HW229430   6.511   5.016   3.380
 9511SOL     OW29431   0.655   1.605   0.722
 9511SOL    HW129432   0.670   1.578   0.627
 9511SOL    HW229433   0.739   1.643   0.760
 9512SOL     OW29434   0.975   2.386   3.949
 9512SOL    HW129435   1.053   2.444   3.974
 9512SOL    HW229436   1.007   2.292   3.938
 9513SOL     OW29437   2.340   4.271   3.839
 9513SOL    HW129438   2.316   4.254   3.743
 9513SOL    HW229439   2.367   4.186   3.883
 9514SOL     OW29440   2.313   2.694   6.822
 9514SOL    HW129441   2.225   2.662   6.855
 9514SOL    HW229442   2.369   2.615   6.795
 9515SOL     OW29443   2.117   5.704   6.754
 9515SOL    HW129444   2.110   5.803   6.739
 9515SOL    HW229445   2.113   5.657   6.666
 9516SOL     OW29446   4.908   3.423   4.107
 9516SOL    HW129447   4.993   3.393   4.064
 9516SOL    HW229448   4.855   3.477   4.042
 9517SOL     OW29449   0.648   5.486   2.324
 9517SOL    HW129450   0.738   5.511   2.288
 9517SOL    HW229451   0.654   5.474   2.423
 9518SOL     OW29452   0.948   2.463   6.242
 9518SOL    HW129453   1.006   2.532   6.199
 9518SOL    HW229454   0.885   2.426   6.173
 9519SOL     OW29455   3.661   3.630   3.172
 9519SOL    HW129456   3.597   3.685   3.227
 9519SOL    HW229457   3.612   3.553   3.132
 9520SOL     OW29458   6.480   0.169   5.704
 9520SOL    HW129459   6.388   0.188   5.670
 9520SOL    HW229460   6.500   0.230   5.781
 9521SOL     OW29461   3.447   0.485   1.343
 9521SOL    HW129462   3.364   0.491   1.288
 9521SOL    HW229463   3.522   0.452   1.287
 9522SOL     OW29464   3.822   6.260   2.373
 9522SOL    HW129465   3.724   6.249   2.387
 9522SOL    HW229466   3.839   6.335   2.309
 9523SOL     OW29467   2.721   5.314   3.995
 9523SOL    HW129468   2.780   5.374   4.049
 9523SOL    HW229469   2.718   5.347   3.900
 9524SOL     OW29470   1.915   4.524   1.351
 9524SOL    HW129471   1.919   4.618   1.385
 9524SOL    HW229472   1.892   4.463   1.427
 9525SOL     OW29473   2.004   2.865   5.774
 9525SOL    HW129474   1.964   2.950   5.742
 9525SOL    HW229475   2.042   2.814   5.696
 9526SOL     OW29476   5.104   4.506   6.933
 9526SOL    HW129477   5.157   4.540   7.010
 9526SOL    HW229478   5.136   4.548   6.849
 9527SOL     OW29479   4.202   6.907   3.432
 9527SOL    HW129480   4.294   6.878   3.405
 9527SOL    HW229481   4.208   6.984   3.495
 9528SOL     OW29482   5.530   1.875   1.248
 9528SOL    HW129483   5.448   1.835   1.207
 9528SOL    HW229484   5.601   1.804   1.254
 9529SOL     OW29485   6.458   1.521   1.616
 9529SOL    HW129486   6.457   1.547   1.712
 9529SOL    HW229487   6.458   1.603   1.559
 9530SOL     OW29488   0.793   5.344   4.067
 9530SOL    HW129489   0.838   5.433   4.062
 9530SOL    HW229490   0.694   5.355   4.059
 9531SOL     OW29491   3.603   5.148   2.477
 9531SOL    HW129492   3.630   5.204   2.398
 9531SOL    HW229493   3.525   5.091   2.452
 9532SOL     OW29494   6.238   5.205   2.569
 9532SOL    HW129495   6.338   5.208   2.561
 9532SOL    HW229496   6.197   5.241   2.485
 9533SOL     OW29497   2.110   4.392   3.043
 9533SOL    HW129498   2.103   4.470   3.105
 9533SOL    HW229499   2.195   4.397   2.991
 9534SOL     OW29500   5.588   4.461   4.807
 9534SOL    HW129501   5.643   4.378   4.797
 9534SOL    HW229502   5.639   4.539   4.769
 9535SOL     OW29503   1.016   1.069   5.722
 9535SOL    HW129504   1.010   1.112   5.812
 9535SOL    HW229505   0.969   1.125   5.655
 9536SOL     OW29506   4.099   3.729   5.022
 9536SOL    HW129507   4.117   3.828   5.021
 9536SOL    HW229508   4.049   3.704   4.940
 9537SOL     OW29509   1.462   1.466   3.468
 9537SOL    HW129510   1.382   1.520   3.493
 9537SOL    HW229511   1.499   1.499   3.381
 9538SOL     OW29512   3.728   0.995   4.885
 9538SOL    HW129513   3.723   1.040   4.974
 9538SOL    HW229514   3.745   0.897   4.899
 9539SOL     OW29515   3.966   3.093   2.496
 9539SOL    HW129516   3.908   3.072   2.574
 9539SOL    HW229517   3.947   3.028   2.422
 9540SOL     OW29518   4.765   4.619   3.948
 9540SOL    HW129519   4.860   4.608   3.976
 9540SOL    HW229520   4.752   4.581   3.857
 9541SOL     OW29521   1.853   5.871   5.702
 9541SOL    HW129522   1.879   5.891   5.608
 9541SOL    HW229523   1.791   5.793   5.705
 9542SOL     OW29524   6.203   4.230   4.000
 9542SOL    HW129525   6.282   4.182   4.038
 9542SOL    HW229526   6.227   4.326   3.983
 9543SOL     OW29527   2.201   0.637   5.972
 9543SOL    HW129528   2.197   0.655   6.070
 9543SOL    HW229529   2.124   0.682   5.927
 9544SOL     OW29530   5.355   3.653   4.189
 9544SOL    HW129531   5.342   3.662   4.288
 9544SOL    HW229532   5.441   3.604   4.171
 9545SOL     OW29533   1.611   4.695   1.856
 9545SOL    HW129534   1.635   4.758   1.783
 9545SOL    HW229535   1.690   4.681   1.916
 9546SOL     OW29536   2.752   2.239   6.369
 9546SOL    HW129537   2.697   2.156   6.371
 9546SOL    HW229538   2.846   2.217   6.396
 9547SOL     OW29539   3.781   6.232   4.001
 9547SOL    HW129540   3.843   6.161   3.967
 9547SOL    HW229541   3.833   6.299   4.054
 9548SOL     OW29542   0.979   4.584   6.998
 9548SOL    HW129543   0.923   4.665   7.010
 9548SOL    HW229544   0.924   4.502   7.013
 9549SOL     OW29545   4.101   2.801   1.155
 9549SOL    HW129546   4.020   2.788   1.213
 9549SOL    HW229547   4.179   2.753   1.196
 9550SOL     OW29548   5.447   2.842   1.485
 9550SOL    HW129549   5.348   2.856   1.492
 9550SOL    HW229550   5.493   2.891   1.560
 9551SOL     OW29551   6.842   2.239   6.612
 9551SOL    HW129552   6.758   2.249   6.557
 9551SOL    HW229553   6.844   2.147   6.652
 9552SOL     OW29554   3.121   1.957   6.905
 9552SOL    HW129555   3.187   1.925   6.837
 9552SOL    HW229556   3.030   1.961   6.864
 9553SOL     OW29557   5.332   1.788   6.851
 9553SOL    HW129558   5.391   1.854   6.898
 9553SOL    HW229559   5.362   1.695   6.874
 9554SOL     OW29560   2.268   6.770   4.061
 9554SOL    HW129561   2.366   6.752   4.078
 9554SOL    HW229562   2.215   6.740   4.141
 9555SOL     OW29563   6.965   0.595   3.690
 9555SOL    HW129564   6.996   0.501   3.697
 9555SOL    HW229565   6.929   0.626   3.778
 9556SOL     OW29566   2.265   4.640   0.336
 9556SOL    HW129567   2.239   4.566   0.274
 9556SOL    HW229568   2.344   4.611   0.391
 9557SOL     OW29569   5.088   0.282   1.686
 9557SOL    HW129570   5.066   0.279   1.589
 9557SOL    HW229571   5.008   0.258   1.740
 9558SOL     OW29572   5.178   6.500   6.325
 9558SOL    HW129573   5.152   6.403   6.324
 9558SOL    HW229574   5.096   6.557   6.326
 9559SOL     OW29575   1.666   4.305   0.173
 9559SOL    HW129576   1.604   4.384   0.174
 9559SOL    HW229577   1.749   4.328   0.224
 9560SOL     OW29578   3.160   6.623   2.231
 9560SOL    HW129579   3.130   6.644   2.138
 9560SOL    HW229580   3.092   6.564   2.275
 9561SOL     OW29581   0.981   1.261   0.827
 9561SOL    HW129582   1.036   1.299   0.752
 9561SOL    HW229583   0.976   1.162   0.818
 9562SOL     OW29584   3.126   5.498   3.830
 9562SOL    HW129585   3.202   5.498   3.765
 9562SOL    HW229586   3.100   5.403   3.851
 9563SOL     OW29587   0.843   6.122   1.221
 9563SOL    HW129588   0.839   6.076   1.132
 9563SOL    HW229589   0.770   6.087   1.280
 9564SOL     OW29590   1.288   0.071   0.433
 9564SOL    HW129591   1.247   0.008   0.499
 9564SOL    HW229592   1.228   0.079   0.353
 9565SOL     OW29593   3.569   1.661   4.320
 9565SOL    HW129594   3.650   1.693   4.271
 9565SOL    HW229595   3.489   1.671   4.261
 9566SOL     OW29596   2.417   0.021   0.793
 9566SOL    HW129597   2.497   6.989   0.772
 9566SOL    HW229598   2.394   0.011   0.890
 9567SOL     OW29599   6.896   4.693   1.093
 9567SOL    HW129600   6.922   4.597   1.098
 9567SOL    HW229601   6.943   4.744   1.166
 9568SOL     OW29602   4.102   1.627   6.717
 9568SOL    HW129603   4.116   1.572   6.799
 9568SOL    HW229604   4.146   1.716   6.727
 9569SOL     OW29605   5.504   0.846   2.071
 9569SOL    HW129606   5.416   0.820   2.111
 9569SOL    HW229607   5.518   0.796   1.986
 9570SOL     OW29608   6.938   3.294   1.297
 9570SOL    HW129609   7.010   3.277   1.364
 9570SOL    HW229610   6.884   3.211   1.284
 9571SOL     OW29611   3.067   2.513   6.989
 9571SOL    HW129612   3.086   2.417   6.972
 9571SOL    HW229613   2.968   2.529   6.984
 9572SOL     OW29614   2.187   3.826   3.724
 9572SOL    HW129615   2.184   3.739   3.675
 9572SOL    HW229616   2.201   3.809   3.821
 9573SOL     OW29617   6.586   0.975   4.825
 9573SOL    HW129618   6.513   0.922   4.867
 9573SOL    HW229619   6.669   0.969   4.880
 9574SOL     OW29620   3.778   2.983   1.451
 9574SOL    HW129621   3.827   2.970   1.537
 9574SOL    HW229622   3.680   2.977   1.467
 9575SOL     OW29623   6.111   6.433   1.698
 9575SOL    HW129624   6.031   6.483   1.732
 9575SOL    HW229625   6.192   6.491   1.703
 9576SOL     OW29626   0.795   0.066   0.133
 9576SOL    HW129627   0.853   7.018   0.171
 9576SOL    HW229628   0.703   0.057   0.169
 9577SOL     OW29629   6.214   5.126   2.072
 9577SOL    HW129630   6.125   5.132   2.027
 9577SOL    HW229631   6.268   5.052   2.032
 9578SOL     OW29632   1.653   2.649   2.824
 9578SOL    HW129633   1.727   2.662   2.890
 9578SOL    HW229634   1.683   2.586   2.752
 9579SOL     OW29635   5.765   6.457   2.223
 9579SOL    HW129636   5.682   6.413   2.188
 9579SOL    HW229637   5.808   6.398   2.290
 9580SOL     OW29638   4.648   4.951   1.878
 9580SOL    HW129639   4.657   5.051   1.869
 9580SOL    HW229640   4.719   4.917   1.939
 9581SOL     OW29641   5.912   1.035   0.199
 9581SOL    HW129642   5.948   1.109   0.144
 9581SOL    HW229643   5.945   1.044   0.293
 9582SOL     OW29644   4.443   5.740   4.343
 9582SOL    HW129645   4.507   5.809   4.307
 9582SOL    HW229646   4.354   5.783   4.359
 9583SOL     OW29647   3.410   4.536   1.647
 9583SOL    HW129648   3.454   4.604   1.706
 9583SOL    HW229649   3.457   4.448   1.655
 9584SOL     OW29650   2.206   4.323   4.251
 9584SOL    HW129651   2.281   4.373   4.294
 9584SOL    HW229652   2.207   4.341   4.152
 9585SOL     OW29653   4.780   5.534   1.383
 9585SOL    HW129654   4.788   5.435   1.370
 9585SOL    HW229655   4.823   5.582   1.306
 9586SOL     OW29656   4.443   5.183   2.062
 9586SOL    HW129657   4.425   5.270   2.015
 9586SOL    HW229658   4.389   5.111   2.019
 9587SOL     OW29659   2.997   6.340   1.622
 9587SOL    HW129660   3.095   6.337   1.638
 9587SOL    HW229661   2.977   6.313   1.528
 9588SOL     OW29662   6.416   5.610   0.760
 9588SOL    HW129663   6.332   5.622   0.813
 9588SOL    HW229664   6.427   5.513   0.738
 9589SOL     OW29665   1.753   3.855   6.449
 9589SOL    HW129666   1.840   3.864   6.400
 9589SOL    HW229667   1.686   3.917   6.409
 9590SOL     OW29668   5.077   1.459   2.147
 9590SOL    HW129669   5.116   1.505   2.226
 9590SOL    HW229670   5.056   1.526   2.076
 9591SOL     OW29671   3.261   0.378   6.303
 9591SOL    HW129672   3.301   0.358   6.213
 9591SOL    HW229673   3.196   0.306   6.327
 9592SOL     OW29674   2.767   4.577   6.530
 9592SOL    HW129675   2.766   4.479   6.510
 9592SOL    HW229676   2.688   4.620   6.488
 9593SOL     OW29677   1.376   1.914   4.937
 9593SOL    HW129678   1.295   1.926   4.995
 9593SOL    HW229679   1.440   1.989   4.952
 9594SOL     OW29680   0.792   5.986   4.100
 9594SOL    HW129681   0.754   6.055   4.161
 9594SOL    HW229682   0.847   6.030   4.029
 9595SOL     OW29683   0.112   3.160   3.871
 9595SOL    HW129684   0.119   3.072   3.824
 9595SOL    HW229685   0.025   3.203   3.849
 9596SOL     OW29686   0.465   6.277   0.843
 9596SOL    HW129687   0.532   6.228   0.898
 9596SOL    HW229688   0.426   6.215   0.775
 9597SOL     OW29689   1.036   3.691   3.027
 9597SOL    HW129690   0.953   3.655   2.984
 9597SOL    HW229691   1.011   3.754   3.100
 9598SOL     OW29692   1.434   3.447   2.953
 9598SOL    HW129693   1.360   3.442   2.886
 9598SOL    HW229694   1.493   3.525   2.931
 9599SOL     OW29695   3.426   0.259   3.647
 9599SOL    HW129696   3.353   0.297   3.704
 9599SOL    HW229697   3.386   0.195   3.581
 9600SOL     OW29698   3.282   0.499   1.091
 9600SOL    HW129699   3.187   0.483   1.115
 9600SOL    HW229700   3.317   0.421   1.039
 9601SOL     OW29701   6.656   4.406   1.259
 9601SOL    HW129702   6.636   4.396   1.161
 9601SOL    HW229703   6.706   4.325   1.290
 9602SOL     OW29704   5.076   3.999   5.330
 9602SOL    HW129705   5.169   4.025   5.305
 9602SOL    HW229706   5.030   3.956   5.253
 9603SOL     OW29707   5.460   6.364   5.543
 9603SOL    HW129708   5.558   6.345   5.538
 9603SOL    HW229709   5.436   6.394   5.636
 9604SOL     OW29710   5.274   0.082   0.588
 9604SOL    HW129711   5.184   0.123   0.603
 9604SOL    HW229712   5.343   0.134   0.637
 9605SOL     OW29713   6.539   5.689   3.847
 9605SOL    HW129714   6.548   5.779   3.889
 9605SOL    HW229715   6.516   5.621   3.917
 9606SOL     OW29716   1.314   1.124   6.619
 9606SOL    HW129717   1.369   1.199   6.580
 9606SOL    HW229718   1.240   1.163   6.674
 9607SOL     OW29719   3.774   2.437   6.244
 9607SOL    HW129720   3.740   2.346   6.266
 9607SOL    HW229721   3.706   2.487   6.191
 9608SOL     OW29722   6.672   4.214   2.806
 9608SOL    HW129723   6.604   4.235   2.736
 9608SOL    HW229724   6.752   4.272   2.793
 9609SOL     OW29725   4.044   2.651   6.317
 9609SOL    HW129726   4.131   2.601   6.323
 9609SOL    HW229727   3.969   2.591   6.345
 9610SOL     OW29728   1.514   3.683   2.846
 9610SOL    HW129729   1.529   3.666   2.748
 9610SOL    HW229730   1.516   3.781   2.863
 9611SOL     OW29731   1.829   0.253   1.443
 9611SOL    HW129732   1.887   0.264   1.524
 9611SOL    HW229733   1.806   0.342   1.406
 9612SOL     OW29734   0.575   3.181   2.800
 9612SOL    HW129735   0.673   3.180   2.820
 9612SOL    HW229736   0.525   3.146   2.879
 9613SOL     OW29737   6.205   6.423   3.774
 9613SOL    HW129738   6.110   6.393   3.772
 9613SOL    HW229739   6.208   6.523   3.773
 9614SOL     OW29740   4.857   1.784   2.849
 9614SOL    HW129741   4.849   1.692   2.810
 9614SOL    HW229742   4.868   1.777   2.949
 9615SOL     OW29743   2.619   2.449   1.247
 9615SOL    HW129744   2.703   2.500   1.267
 9615SOL    HW229745   2.642   2.354   1.227
 9616SOL     OW29746   3.678   3.080   0.410
 9616SOL    HW129747   3.588   3.071   0.452
 9616SOL    HW229748   3.685   3.018   0.332
 9617SOL     OW29749   2.214   2.730   4.000
 9617SOL    HW129750   2.232   2.633   3.983
 9617SOL    HW229751   2.248   2.784   3.923
 9618SOL     OW29752   3.158   1.001   0.756
 9618SOL    HW129753   3.134   0.913   0.715
 9618SOL    HW229754   3.087   1.068   0.735
 9619SOL     OW29755   2.243   0.800   5.575
 9619SOL    HW129756   2.145   0.811   5.559
 9619SOL    HW229757   2.289   0.888   5.565
 9620SOL     OW29758   5.296   0.221   4.586
 9620SOL    HW129759   5.353   0.272   4.650
 9620SOL    HW229760   5.207   0.204   4.628
 9621SOL     OW29761   1.666   2.579   2.278
 9621SOL    HW129762   1.629   2.646   2.342
 9621SOL    HW229763   1.609   2.577   2.195
 9622SOL     OW29764   6.237   1.092   1.193
 9622SOL    HW129765   6.228   0.998   1.159
 9622SOL    HW229766   6.243   1.092   1.293
 9623SOL     OW29767   3.724   3.310   6.167
 9623SOL    HW129768   3.675   3.238   6.217
 9623SOL    HW229769   3.802   3.270   6.120
 9624SOL     OW29770   6.129   3.265   2.985
 9624SOL    HW129771   6.054   3.216   3.029
 9624SOL    HW229772   6.165   3.211   2.909
 9625SOL     OW29773   6.081   6.363   0.412
 9625SOL    HW129774   6.064   6.400   0.320
 9625SOL    HW229775   6.149   6.291   0.406
 9626SOL     OW29776   3.728   5.643   0.038
 9626SOL    HW129777   3.821   5.644   0.001
 9626SOL    HW229778   3.663   5.662   6.988
 9627SOL     OW29779   1.546   5.905   6.382
 9627SOL    HW129780   1.501   5.936   6.298
 9627SOL    HW229781   1.540   5.977   6.452
 9628SOL     OW29782   4.650   5.955   1.208
 9628SOL    HW129783   4.616   6.044   1.178
 9628SOL    HW229784   4.578   5.887   1.198
 9629SOL     OW29785   2.775   0.027   1.183
 9629SOL    HW129786   2.770   6.968   1.238
 9629SOL    HW229787   2.849   0.085   1.216
 9630SOL     OW29788   6.756   0.230   5.855
 9630SOL    HW129789   6.681   0.168   5.878
 9630SOL    HW229790   6.766   0.235   5.756
 9631SOL     OW29791   6.461   6.699   6.571
 9631SOL    HW129792   6.531   6.687   6.641
 9631SOL    HW229793   6.482   6.780   6.517
 9632SOL     OW29794   1.573   6.592   1.955
 9632SOL    HW129795   1.529   6.545   2.031
 9632SOL    HW229796   1.669   6.610   1.977
 9633SOL     OW29797   6.392   5.140   6.667
 9633SOL    HW129798   6.445   5.056   6.674
 9633SOL    HW229799   6.454   5.219   6.675
 9634SOL     OW29800   1.108   6.704   4.641
 9634SOL    HW129801   1.048   6.706   4.722
 9634SOL    HW229802   1.194   6.749   4.663
 9635SOL     OW29803   2.490   5.125   4.654
 9635SOL    HW129804   2.499   5.132   4.754
 9635SOL    HW229805   2.561   5.064   4.619
 9636SOL     OW29806   4.597   1.635   4.910
 9636SOL    HW129807   4.564   1.701   4.977
 9636SOL    HW229808   4.526   1.620   4.841
 9637SOL     OW29809   2.010   1.895   6.662
 9637SOL    HW129810   1.978   1.928   6.750
 9637SOL    HW229811   2.075   1.961   6.624
 9638SOL     OW29812   6.490   3.229   5.157
 9638SOL    HW129813   6.560   3.265   5.219
 9638SOL    HW229814   6.414   3.294   5.150
 9639SOL     OW29815   4.351   1.244   2.539
 9639SOL    HW129816   4.394   1.190   2.467
 9639SOL    HW229817   4.325   1.333   2.502
 9640SOL     OW29818   2.065   2.431   2.603
 9640SOL    HW129819   2.010   2.454   2.523
 9640SOL    HW229820   2.126   2.508   2.625
 9641SOL     OW29821   6.060   6.446   0.144
 9641SOL    HW129822   6.124   6.483   0.076
 9641SOL    HW229823   5.971   6.432   0.102
 9642SOL     OW29824   2.952   0.866   4.376
 9642SOL    HW129825   3.005   0.949   4.392
 9642SOL    HW229826   2.896   0.877   4.294
 9643SOL     OW29827   4.800   4.699   3.673
 9643SOL    HW129828   4.811   4.787   3.627
 9643SOL    HW229829   4.883   4.645   3.663
 9644SOL     OW29830   1.677   2.487   6.315
 9644SOL    HW129831   1.707   2.404   6.268
 9644SOL    HW229832   1.616   2.463   6.391
 9645SOL     OW29833   2.882   5.266   4.860
 9645SOL    HW129834   2.972   5.241   4.896
 9645SOL    HW229835   2.869   5.365   4.869
 9646SOL     OW29836   3.774   5.109   2.674
 9646SOL    HW129837   3.735   5.155   2.754
 9646SOL    HW229838   3.705   5.102   2.602
 9647SOL     OW29839   6.517   3.349   0.561
 9647SOL    HW129840   6.605   3.349   0.513
 9647SOL    HW229841   6.495   3.256   0.591
 9648SOL     OW29842   4.745   3.267   0.734
 9648SOL    HW129843   4.652   3.236   0.713
 9648SOL    HW229844   4.742   3.332   0.809
 9649SOL     OW29845   2.143   5.757   0.463
 9649SOL    HW129846   2.068   5.705   0.422
 9649SOL    HW229847   2.188   5.701   0.533
 9650SOL     OW29848   6.716   6.267   1.889
 9650SOL    HW129849   6.773   6.192   1.856
 9650SOL    HW229850   6.721   6.270   1.989
 9651SOL     OW29851   0.812   1.006   6.417
 9651SOL    HW129852   0.861   1.076   6.365
 9651SOL    HW229853   0.747   1.050   6.479
 9652SOL     OW29854   0.454   5.540   3.169
 9652SOL    HW129855   0.360   5.534   3.135
 9652SOL    HW229856   0.466   5.477   3.246
 9653SOL     OW29857   6.016   4.980   4.151
 9653SOL    HW129858   6.039   5.076   4.168
 9653SOL    HW229859   6.005   4.966   4.053
 9654SOL     OW29860   2.479   2.956   1.642
 9654SOL    HW129861   2.556   2.898   1.669
 9654SOL    HW229862   2.486   2.978   1.545
 9655SOL     OW29863   6.736   2.061   0.002
 9655SOL    HW129864   6.653   2.012   0.027
 9655SOL    HW229865   6.808   2.041   0.069
 9656SOL     OW29866   3.269   0.405   3.089
 9656SOL    HW129867   3.300   0.431   2.998
 9656SOL    HW229868   3.298   0.475   3.155
 9657SOL     OW29869   6.376   0.589   4.710
 9657SOL    HW129870   6.313   0.536   4.767
 9657SOL    HW229871   6.463   0.541   4.703
 9658SOL     OW29872   6.499   2.558   1.992
 9658SOL    HW129873   6.505   2.459   2.007
 9658SOL    HW229874   6.409   2.591   2.018
 9659SOL     OW29875   0.335   4.419   6.768
 9659SOL    HW129876   0.255   4.476   6.791
 9659SOL    HW229877   0.358   4.361   6.846
 9660SOL     OW29878   0.798   5.209   0.405
 9660SOL    HW129879   0.744   5.125   0.398
 9660SOL    HW229880   0.737   5.288   0.401
 9661SOL     OW29881   4.211   6.423   0.901
 9661SOL    HW129882   4.191   6.329   0.874
 9661SOL    HW229883   4.306   6.446   0.876
 9662SOL     OW29884   6.382   0.965   4.204
 9662SOL    HW129885   6.409   0.881   4.251
 9662SOL    HW229886   6.286   0.959   4.178
 9663SOL     OW29887   2.376   5.709   2.972
 9663SOL    HW129888   2.459   5.698   2.916
 9663SOL    HW229889   2.339   5.619   2.995
 9664SOL     OW29890   3.680   6.160   2.028
 9664SOL    HW129891   3.659   6.066   1.999
 9664SOL    HW229892   3.595   6.205   2.057
 9665SOL     OW29893   5.623   4.056   4.449
 9665SOL    HW129894   5.530   4.077   4.482
 9665SOL    HW229895   5.645   4.118   4.373
 9666SOL     OW29896   5.930   4.842   3.619
 9666SOL    HW129897   5.861   4.892   3.671
 9666SOL    HW229898   6.020   4.883   3.635
 9667SOL     OW29899   4.059   3.760   3.943
 9667SOL    HW129900   4.093   3.712   4.024
 9667SOL    HW229901   3.983   3.820   3.969
 9668SOL     OW29902   0.281   0.877   5.555
 9668SOL    HW129903   0.334   0.815   5.612
 9668SOL    HW229904   0.271   0.838   5.463
 9669SOL     OW29905   1.220   5.807   0.758
 9669SOL    HW129906   1.141   5.856   0.795
 9669SOL    HW229907   1.225   5.823   0.659
 9670SOL     OW29908   5.181   4.901   0.007
 9670SOL    HW129909   5.095   4.942   0.037
 9670SOL    HW229910   5.171   4.864   6.939
 9671SOL     OW29911   6.962   5.945   5.574
 9671SOL    HW129912   6.934   5.849   5.572
 9671SOL    HW229913   6.961   5.978   5.668
 9672SOL     OW29914   0.224   6.068   4.453
 9672SOL    HW129915   0.294   6.109   4.394
 9672SOL    HW229916   0.171   6.001   4.402
 9673SOL     OW29917   3.095   4.029   6.696
 9673SOL    HW129918   3.042   3.985   6.624
 9673SOL    HW229919   3.181   4.063   6.659
 9674SOL     OW29920   3.505   5.866   2.510
 9674SOL    HW129921   3.514   5.908   2.600
 9674SOL    HW229922   3.517   5.935   2.439
 9675SOL     OW29923   6.860   1.949   1.789
 9675SOL    HW129924   6.850   1.959   1.888
 9675SOL    HW229925   6.797   1.879   1.756
 9676SOL     OW29926   0.296   3.638   4.391
 9676SOL    HW129927   0.349   3.690   4.325
 9676SOL    HW229928   0.247   3.564   4.344
 9677SOL     OW29929   1.939   3.249   6.258
 9677SOL    HW129930   1.888   3.332   6.238
 9677SOL    HW229931   2.037   3.264   6.240
 9678SOL     OW29932   3.457   3.000   3.410
 9678SOL    HW129933   3.493   3.093   3.401
 9678SOL    HW229934   3.367   2.995   3.366
 9679SOL     OW29935   1.205   2.700   1.882
 9679SOL    HW129936   1.292   2.665   1.846
 9679SOL    HW229937   1.204   2.800   1.878
 9680SOL     OW29938   5.857   5.829   3.725
 9680SOL    HW129939   5.848   5.731   3.741
 9680SOL    HW229940   5.861   5.847   3.627
 9681SOL     OW29941   2.291   0.726   2.875
 9681SOL    HW129942   2.382   0.746   2.841
 9681SOL    HW229943   2.222   0.761   2.811
 9682SOL     OW29944   5.964   4.383   2.766
 9682SOL    HW129945   6.062   4.366   2.754
 9682SOL    HW229946   5.930   4.438   2.689
 9683SOL     OW29947   4.701   6.139   6.936
 9683SOL    HW129948   4.735   6.048   6.957
 9683SOL    HW229949   4.653   6.137   6.848
 9684SOL     OW29950   1.080   3.439   4.857
 9684SOL    HW129951   1.008   3.397   4.912
 9684SOL    HW229952   1.099   3.531   4.891
 9685SOL     OW29953   1.314   2.956   0.328
 9685SOL    HW129954   1.360   2.902   0.259
 9685SOL    HW229955   1.382   3.000   0.387
 9686SOL     OW29956   6.245   0.895   2.007
 9686SOL    HW129957   6.304   0.960   2.056
 9686SOL    HW229958   6.283   0.879   1.916
 9687SOL     OW29959   3.016   0.450   4.136
 9687SOL    HW129960   3.080   0.498   4.075
 9687SOL    HW229961   3.029   0.351   4.126
 9688SOL     OW29962   7.017   1.348   2.775
 9688SOL    HW129963   6.926   1.327   2.739
 9688SOL    HW229964   0.003   1.448   2.781
 9689SOL     OW29965   2.278   6.207   6.344
 9689SOL    HW129966   2.376   6.201   6.363
 9689SOL    HW229967   2.263   6.274   6.271
 9690SOL     OW29968   6.506   4.679   1.005
 9690SOL    HW129969   6.543   4.692   1.097
 9690SOL    HW229970   6.426   4.738   0.993
 9691SOL     OW29971   1.878   5.009   2.322
 9691SOL    HW129972   1.811   4.982   2.253
 9691SOL    HW229973   1.836   5.075   2.384
 9692SOL     OW29974   2.633   5.775   1.777
 9692SOL    HW129975   2.567   5.835   1.821
 9692SOL    HW229976   2.701   5.829   1.728
 9693SOL     OW29977   6.161   5.934   1.862
 9693SOL    HW129978   6.078   5.969   1.904
 9693SOL    HW229979   6.201   6.004   1.802
 9694SOL     OW29980   1.512   2.541   6.788
 9694SOL    HW129981   1.434   2.537   6.726
 9694SOL    HW229982   1.548   2.449   6.803
 9695SOL     OW29983   6.385   4.434   1.310
 9695SOL    HW129984   6.364   4.347   1.265
 9695SOL    HW229985   6.482   4.453   1.302
 9696SOL     OW29986   4.073   3.596   1.610
 9696SOL    HW129987   4.077   3.569   1.707
 9696SOL    HW229988   4.102   3.691   1.601
 9697SOL     OW29989   1.026   5.752   0.174
 9697SOL    HW129990   1.018   5.658   0.205
 9697SOL    HW229991   0.943   5.802   0.199
 9698SOL     OW29992   5.790   1.889   4.924
 9698SOL    HW129993   5.833   1.799   4.913
 9698SOL    HW229994   5.841   1.956   4.869
 9699SOL     OW29995   1.618   3.304   0.318
 9699SOL    HW129996   1.704   3.269   0.283
 9699SOL    HW229997   1.635   3.360   0.400
 9700SOL     OW29998   3.313   3.717   5.014
 9700SOL    HW129999   3.295   3.679   5.104
 9700SOL    HW230000   3.409   3.702   4.990
 9701SOL     OW30001   4.794   5.448   4.764
 9701SOL    HW130002   4.784   5.382   4.839
 9701SOL    HW230003   4.876   5.425   4.711
 9702SOL     OW30004   4.620   0.961   0.304
 9702SOL    HW130005   4.589   1.047   0.266
 9702SOL    HW230006   4.588   0.885   0.247
 9703SOL     OW30007   2.914   5.954   4.165
 9703SOL    HW130008   2.833   5.949   4.222
 9703SOL    HW230009   2.890   5.934   4.070
 9704SOL     OW30010   3.664   0.124   3.169
 9704SOL    HW130011   3.601   0.202   3.177
 9704SOL    HW230012   3.752   0.156   3.134
 9705SOL     OW30013   3.356   4.105   0.598
 9705SOL    HW130014   3.344   4.008   0.574
 9705SOL    HW230015   3.271   4.140   0.637
 9706SOL     OW30016   5.509   2.995   2.845
 9706SOL    HW130017   5.573   3.059   2.888
 9706SOL    HW230018   5.499   3.017   2.748
 9707SOL     OW30019   2.836   5.543   2.322
 9707SOL    HW130020   2.827   5.522   2.224
 9707SOL    HW230021   2.857   5.640   2.333
 9708SOL     OW30022   2.484   1.612   3.485
 9708SOL    HW130023   2.511   1.536   3.427
 9708SOL    HW230024   2.385   1.606   3.504
 9709SOL     OW30025   1.720   5.944   3.030
 9709SOL    HW130026   1.650   6.005   2.993
 9709SOL    HW230027   1.786   5.922   2.958
 9710SOL     OW30028   0.585   0.629   3.425
 9710SOL    HW130029   0.630   0.603   3.511
 9710SOL    HW230030   0.520   0.558   3.399
 9711SOL     OW30031   1.156   3.777   5.451
 9711SOL    HW130032   1.190   3.810   5.363
 9711SOL    HW230033   1.163   3.850   5.519
 9712SOL     OW30034   5.131   1.886   3.824
 9712SOL    HW130035   5.160   1.791   3.830
 9712SOL    HW230036   5.080   1.901   3.739
 9713SOL     OW30037   6.896   5.161   2.861
 9713SOL    HW130038   6.807   5.182   2.822
 9713SOL    HW230039   6.968   5.181   2.794
 9714SOL     OW30040   2.042   2.128   1.345
 9714SOL    HW130041   2.091   2.188   1.282
 9714SOL    HW230042   2.022   2.176   1.430
 9715SOL     OW30043   5.234   5.637   4.962
 9715SOL    HW130044   5.225   5.736   4.972
 9715SOL    HW230045   5.215   5.592   5.049
 9716SOL     OW30046   4.447   2.020   6.542
 9716SOL    HW130047   4.362   1.969   6.530
 9716SOL    HW230048   4.443   2.073   6.627
 9717SOL     OW30049   5.574   5.462   3.806
 9717SOL    HW130050   5.530   5.423   3.725
 9717SOL    HW230051   5.558   5.403   3.885
 9718SOL     OW30052   4.301   3.455   1.448
 9718SOL    HW130053   4.238   3.423   1.519
 9718SOL    HW230054   4.310   3.555   1.454
 9719SOL     OW30055   0.377   1.889   6.944
 9719SOL    HW130056   0.392   1.848   6.854
 9719SOL    HW230057   0.436   1.844   7.011
 9720SOL     OW30058   6.639   0.421   2.148
 9720SOL    HW130059   6.564   0.406   2.084
 9720SOL    HW230060   6.610   0.485   2.219
 9721SOL     OW30061   6.672   3.882   2.430
 9721SOL    HW130062   6.595   3.939   2.457
 9721SOL    HW230063   6.755   3.912   2.479
 9722SOL     OW30064   1.015   0.280   4.224
 9722SOL    HW130065   0.986   0.354   4.163
 9722SOL    HW230066   0.952   0.203   4.215
 9723SOL     OW30067   0.454   0.802   3.808
 9723SOL    HW130068   0.420   0.891   3.779
 9723SOL    HW230069   0.379   0.735   3.801
 9724SOL     OW30070   3.780   2.472   1.470
 9724SOL    HW130071   3.878   2.455   1.464
 9724SOL    HW230072   3.757   2.509   1.560
 9725SOL     OW30073   4.267   3.280   5.685
 9725SOL    HW130074   4.327   3.222   5.630
 9725SOL    HW230075   4.280   3.258   5.782
 9726SOL     OW30076   4.780   6.602   4.886
 9726SOL    HW130077   4.715   6.633   4.955
 9726SOL    HW230078   4.872   6.633   4.910
 9727SOL     OW30079   1.436   2.809   5.894
 9727SOL    HW130080   1.498   2.881   5.862
 9727SOL    HW230081   1.488   2.739   5.943
 9728SOL     OW30082   2.524   5.938   0.209
 9728SOL    HW130083   2.434   5.973   0.183
 9728SOL    HW230084   2.550   5.864   0.148
 9729SOL     OW30085   2.815   5.254   2.773
 9729SOL    HW130086   2.716   5.260   2.785
 9729SOL    HW230087   2.845   5.327   2.711
 9730SOL     OW30088   6.468   2.943   2.956
 9730SOL    HW130089   6.424   2.859   2.924
 9730SOL    HW230090   6.398   3.010   2.980
 9731SOL     OW30091   3.658   4.644   0.947
 9731SOL    HW130092   3.636   4.674   0.854
 9731SOL    HW230093   3.745   4.595   0.946
 9732SOL     OW30094   6.584   6.412   2.769
 9732SOL    HW130095   6.584   6.510   2.747
 9732SOL    HW230096   6.633   6.398   2.854
 9733SOL     OW30097   5.070   4.303   5.692
 9733SOL    HW130098   5.112   4.323   5.780
 9733SOL    HW230099   5.036   4.209   5.691
 9734SOL     OW30100   5.329   2.388   4.211
 9734SOL    HW130101   5.393   2.376   4.135
 9734SOL    HW230102   5.286   2.477   4.204
 9735SOL     OW30103   1.664   4.543   1.589
 9735SOL    HW130104   1.742   4.481   1.580
 9735SOL    HW230105   1.692   4.624   1.640
 9736SOL     OW30106   3.635   1.137   0.520
 9736SOL    HW130107   3.606   1.057   0.572
 9736SOL    HW230108   3.682   1.108   0.437
 9737SOL     OW30109   4.070   2.161   5.061
 9737SOL    HW130110   4.121   2.246   5.060
 9737SOL    HW230111   4.132   2.084   5.078
 9738SOL     OW30112   1.232   0.994   2.889
 9738SOL    HW130113   1.133   0.980   2.876
 9738SOL    HW230114   1.282   0.942   2.819
 9739SOL     OW30115   5.620   4.663   1.850
 9739SOL    HW130116   5.605   4.755   1.814
 9739SOL    HW230117   5.533   4.614   1.854
 9740SOL     OW30118   6.780   4.551   2.835
 9740SOL    HW130119   6.791   4.546   2.934
 9740SOL    HW230120   6.683   4.540   2.812
 9741SOL     OW30121   4.472   2.332   2.242
 9741SOL    HW130122   4.409   2.276   2.295
 9741SOL    HW230123   4.431   2.355   2.154
 9742SOL     OW30124   5.081   1.204   3.969
 9742SOL    HW130125   4.992   1.159   3.956
 9742SOL    HW230126   5.067   1.290   4.018
 9743SOL     OW30127   1.621   3.047   5.992
 9743SOL    HW130128   1.577   2.989   6.060
 9743SOL    HW230129   1.583   3.140   5.998
 9744SOL     OW30130   2.075   1.038   1.917
 9744SOL    HW130131   2.096   0.943   1.892
 9744SOL    HW230132   2.094   1.098   1.839
 9745SOL     OW30133   0.015   2.511   5.146
 9745SOL    HW130134   0.094   2.569   5.161
 9745SOL    HW230135   6.956   2.561   5.171
 9746SOL     OW30136   6.140   0.835   4.800
 9746SOL    HW130137   6.073   0.774   4.842
 9746SOL    HW230138   6.232   0.812   4.833
 9747SOL     OW30139   0.777   6.969   6.138
 9747SOL    HW130140   0.821   7.018   6.062
 9747SOL    HW230141   0.680   6.957   6.117
 9748SOL     OW30142   0.376   6.063   4.192
 9748SOL    HW130143   0.383   6.061   4.093
 9748SOL    HW230144   0.437   5.994   4.231
 9749SOL     OW30145   0.661   4.275   4.033
 9749SOL    HW130146   0.585   4.320   4.079
 9749SOL    HW230147   0.722   4.235   4.101
 9750SOL     OW30148   4.001   4.923   3.688
 9750SOL    HW130149   3.924   4.927   3.752
 9750SOL    HW230150   3.967   4.923   3.594
 9751SOL     OW30151   1.878   2.855   0.504
 9751SOL    HW130152   1.860   2.801   0.586
 9751SOL    HW230153   1.935   2.802   0.441
 9752SOL     OW30154   4.624   1.220   5.946
 9752SOL    HW130155   4.684   1.283   5.996
 9752SOL    HW230156   4.531   1.256   5.948
 9753SOL     OW30157   0.140   5.447   5.239
 9753SOL    HW130158   0.047   5.461   5.203
 9753SOL    HW230159   0.188   5.382   5.180
 9754SOL     OW30160   1.223   1.475   6.355
 9754SOL    HW130161   1.285   1.396   6.362
 9754SOL    HW230162   1.201   1.509   6.447
 9755SOL     OW30163   3.759   4.962   5.351
 9755SOL    HW130164   3.755   4.863   5.340
 9755SOL    HW230165   3.742   4.986   5.447
 9756SOL     OW30166   5.905   2.404   6.660
 9756SOL    HW130167   5.870   2.384   6.752
 9756SOL    HW230168   5.854   2.481   6.622
 9757SOL     OW30169   6.273   2.576   3.632
 9757SOL    HW130170   6.200   2.552   3.696
 9757SOL    HW230171   6.336   2.500   3.623
 9758SOL     OW30172   3.027   0.473   6.924
 9758SOL    HW130173   2.930   0.494   6.934
 9758SOL    HW230174   3.041   0.374   6.924
 9759SOL     OW30175   3.172   6.123   0.777
 9759SOL    HW130176   3.195   6.038   0.730
 9759SOL    HW230177   3.177   6.108   0.876
 9760SOL     OW30178   6.118   4.479   6.059
 9760SOL    HW130179   6.145   4.429   5.977
 9760SOL    HW230180   6.138   4.576   6.048
 9761SOL     OW30181   5.453   5.620   1.548
 9761SOL    HW130182   5.360   5.647   1.572
 9761SOL    HW230183   5.468   5.524   1.574
 9762SOL     OW30184   2.441   1.487   5.117
 9762SOL    HW130185   2.453   1.388   5.113
 9762SOL    HW230186   2.441   1.524   5.024
 9763SOL     OW30187   2.459   1.830   0.694
 9763SOL    HW130188   2.490   1.753   0.749
 9763SOL    HW230189   2.427   1.797   0.605
 9764SOL     OW30190   1.171   1.945   2.161
 9764SOL    HW130191   1.154   2.029   2.109
 9764SOL    HW230192   1.267   1.917   2.147
 9765SOL     OW30193   0.451   1.995   5.260
 9765SOL    HW130194   0.456   2.052   5.342
 9765SOL    HW230195   0.434   2.053   5.180
 9766SOL     OW30196   2.670   0.205   2.626
 9766SOL    HW130197   2.664   0.302   2.605
 9766SOL    HW230198   2.691   0.154   2.542
 9767SOL     OW30199   5.179   0.431   4.923
 9767SOL    HW130200   5.109   0.361   4.929
 9767SOL    HW230201   5.183   0.483   5.009
 9768SOL     OW30202   4.531   2.522   2.467
 9768SOL    HW130203   4.520   2.466   2.384
 9768SOL    HW230204   4.614   2.493   2.514
 9769SOL     OW30205   0.809   1.984   1.662
 9769SOL    HW130206   0.752   2.058   1.697
 9769SOL    HW230207   0.800   1.979   1.562
 9770SOL     OW30208   5.635   5.072   6.195
 9770SOL    HW130209   5.700   5.111   6.130
 9770SOL    HW230210   5.649   4.973   6.201
 9771SOL     OW30211   3.736   5.743   6.185
 9771SOL    HW130212   3.830   5.711   6.171
 9771SOL    HW230213   3.672   5.680   6.141
 9772SOL     OW30214   6.331   0.518   1.609
 9772SOL    HW130215   6.333   0.609   1.568
 9772SOL    HW230216   6.298   0.452   1.542
 9773SOL     OW30217   6.226   5.680   3.172
 9773SOL    HW130218   6.211   5.710   3.078
 9773SOL    HW230219   6.281   5.748   3.221
 9774SOL     OW30220   6.868   4.950   3.272
 9774SOL    HW130221   6.777   4.913   3.292
 9774SOL    HW230222   6.921   4.882   3.223
 9775SOL     OW30223   2.408   2.708   4.647
 9775SOL    HW130224   2.484   2.655   4.609
 9775SOL    HW230225   2.331   2.705   4.583
 9776SOL     OW30226   0.633   5.664   4.738
 9776SOL    HW130227   0.646   5.634   4.832
 9776SOL    HW230228   0.617   5.763   4.737
 9777SOL     OW30229   5.392   4.754   6.150
 9777SOL    HW130230   5.430   4.667   6.118
 9777SOL    HW230231   5.357   4.742   6.243
 9778SOL     OW30232   4.594   0.715   2.525
 9778SOL    HW130233   4.507   0.764   2.529
 9778SOL    HW230234   4.593   0.653   2.447
 9779SOL     OW30235   2.603   1.876   5.893
 9779SOL    HW130236   2.563   1.875   5.801
 9779SOL    HW230237   2.561   1.949   5.947
 9780SOL     OW30238   3.516   4.497   0.169
 9780SOL    HW130239   3.493   4.400   0.160
 9780SOL    HW230240   3.553   4.514   0.261
 9781SOL     OW30241   1.825   5.060   4.373
 9781SOL    HW130242   1.874   4.973   4.369
 9781SOL    HW230243   1.872   5.122   4.435
 9782SOL     OW30244   6.607   0.702   1.045
 9782SOL    HW130245   6.645   0.612   1.026
 9782SOL    HW230246   6.669   0.752   1.105
 9783SOL     OW30247   5.013   1.189   2.177
 9783SOL    HW130248   5.029   1.287   2.162
 9783SOL    HW230249   5.095   1.138   2.152
 9784SOL     OW30250   4.830   0.799   3.816
 9784SOL    HW130251   4.814   0.745   3.898
 9784SOL    HW230252   4.788   0.890   3.827
 9785SOL     OW30253   0.466   3.194   1.750
 9785SOL    HW130254   0.485   3.159   1.841
 9785SOL    HW230255   0.511   3.283   1.738
 9786SOL     OW30256   2.756   6.461   5.037
 9786SOL    HW130257   2.814   6.495   4.963
 9786SOL    HW230258   2.813   6.412   5.103
 9787SOL     OW30259   5.496   4.325   2.046
 9787SOL    HW130260   5.491   4.384   2.127
 9787SOL    HW230261   5.565   4.254   2.062
 9788SOL     OW30262   0.108   1.338   5.448
 9788SOL    HW130263   0.154   1.291   5.523
 9788SOL    HW230264   0.020   1.374   5.481
 9789SOL     OW30265   2.302   5.908   4.803
 9789SOL    HW130266   2.265   5.971   4.735
 9789SOL    HW230267   2.241   5.904   4.882
 9790SOL     OW30268   6.199   1.780   4.552
 9790SOL    HW130269   6.168   1.726   4.631
 9790SOL    HW230270   6.296   1.766   4.538
 9791SOL     OW30271   0.716   2.513   1.000
 9791SOL    HW130272   0.673   2.522   0.910
 9791SOL    HW230273   0.721   2.603   1.043
 9792SOL     OW30274   4.237   5.473   1.704
 9792SOL    HW130275   4.312   5.537   1.724
 9792SOL    HW230276   4.170   5.518   1.646
 9793SOL     OW30277   4.598   6.117   2.246
 9793SOL    HW130278   4.660   6.146   2.318
 9793SOL    HW230279   4.507   6.153   2.263
 9794SOL     OW30280   3.625   2.936   6.493
 9794SOL    HW130281   3.555   2.872   6.462
 9794SOL    HW230282   3.609   2.960   6.589
 9795SOL     OW30283   1.740   3.437   4.242
 9795SOL    HW130284   1.806   3.411   4.172
 9795SOL    HW230285   1.680   3.359   4.261
 9796SOL     OW30286   3.462   4.957   6.894
 9796SOL    HW130287   3.396   4.974   6.821
 9796SOL    HW230288   3.548   5.004   6.872
 9797SOL     OW30289   4.898   2.887   5.360
 9797SOL    HW130290   4.826   2.818   5.368
 9797SOL    HW230291   4.863   2.966   5.309
 9798SOL     OW30292   1.612   1.930   1.173
 9798SOL    HW130293   1.547   1.857   1.155
 9798SOL    HW230294   1.574   1.994   1.239
 9799SOL     OW30295   3.021   4.049   1.985
 9799SOL    HW130296   2.996   3.952   1.993
 9799SOL    HW230297   2.981   4.100   2.061
 9800SOL     OW30298   4.289   5.119   6.458
 9800SOL    HW130299   4.327   5.189   6.397
 9800SOL    HW230300   4.361   5.088   6.521
 9801SOL     OW30301   4.726   4.948   6.995
 9801SOL    HW130302   4.769   5.038   6.993
 9801SOL    HW230303   4.633   4.955   0.007
 9802SOL     OW30304   6.964   3.659   0.991
 9802SOL    HW130305   6.932   3.623   1.078
 9802SOL    HW230306   0.034   3.691   1.001
 9803SOL     OW30307   6.140   0.649   6.562
 9803SOL    HW130308   6.221   0.707   6.573
 9803SOL    HW230309   6.081   0.660   6.642
 9804SOL     OW30310   5.467   5.286   4.473
 9804SOL    HW130311   5.547   5.345   4.477
 9804SOL    HW230312   5.398   5.327   4.413
 9805SOL     OW30313   2.857   4.719   0.118
 9805SOL    HW130314   2.860   4.817   0.096
 9805SOL    HW230315   2.811   4.706   0.206
 9806SOL     OW30316   6.763   1.562   3.045
 9806SOL    HW130317   6.681   1.577   3.099
 9806SOL    HW230318   6.740   1.561   2.947
 9807SOL     OW30319   3.818   2.609   0.759
 9807SOL    HW130320   3.887   2.660   0.810
 9807SOL    HW230321   3.753   2.568   0.822
 9808SOL     OW30322   1.226   1.418   4.910
 9808SOL    HW130323   1.215   1.435   4.812
 9808SOL    HW230324   1.181   1.332   4.934
 9809SOL     OW30325   1.275   0.905   4.958
 9809SOL    HW130326   1.176   0.906   4.951
 9809SOL    HW230327   1.307   0.990   4.999
 9810SOL     OW30328   3.641   0.898   3.389
 9810SOL    HW130329   3.669   0.988   3.424
 9810SOL    HW230330   3.655   0.829   3.460
 9811SOL     OW30331   1.066   6.895   2.783
 9811SOL    HW130332   1.017   6.978   2.809
 9811SOL    HW230333   1.062   6.882   2.684
 9812SOL     OW30334   4.793   2.644   5.341
 9812SOL    HW130335   4.726   2.665   5.412
 9812SOL    HW230336   4.805   2.545   5.335
 9813SOL     OW30337   6.546   4.632   0.283
 9813SOL    HW130338   6.551   4.548   0.229
 9813SOL    HW230339   6.452   4.668   0.280
 9814SOL     OW30340   0.004   0.182   5.632
 9814SOL    HW130341   0.063   0.257   5.604
 9814SOL    HW230342   7.005   0.192   5.729
 9815SOL     OW30343   6.535   4.069   3.012
 9815SOL    HW130344   6.544   3.979   2.969
 9815SOL    HW230345   6.589   4.135   2.961
 9816SOL     OW30346   0.254   6.771   6.321
 9816SOL    HW130347   0.240   6.694   6.384
 9816SOL    HW230348   0.329   6.749   6.257
 9817SOL     OW30349   2.963   6.932   6.312
 9817SOL    HW130350   2.903   6.853   6.326
 9817SOL    HW230351   2.996   6.932   6.218
 9818SOL     OW30352   1.028   6.760   3.259
 9818SOL    HW130353   0.932   6.777   3.239
 9818SOL    HW230354   1.044   6.661   3.263
 9819SOL     OW30355   6.972   3.562   4.707
 9819SOL    HW130356   7.010   3.520   4.789
 9819SOL    HW230357   0.016   3.621   4.665
 9820SOL     OW30358   4.322   1.984   5.904
 9820SOL    HW130359   4.366   2.062   5.947
 9820SOL    HW230360   4.283   2.011   5.816
 9821SOL     OW30361   3.950   3.201   1.479
 9821SOL    HW130362   3.873   3.142   1.455
 9821SOL    HW230363   3.973   3.187   1.575
 9822SOL     OW30364   3.589   6.510   5.457
 9822SOL    HW130365   3.525   6.582   5.429
 9822SOL    HW230366   3.578   6.492   5.555
 9823SOL     OW30367   2.477   6.662   3.068
 9823SOL    HW130368   2.454   6.625   3.158
 9823SOL    HW230369   2.446   6.598   2.997
 9824SOL     OW30370   0.875   5.984   5.206
 9824SOL    HW130371   0.901   5.887   5.208
 9824SOL    HW230372   0.905   6.025   5.120
 9825SOL     OW30373   5.849   6.547   5.012
 9825SOL    HW130374   5.889   6.455   5.016
 9825SOL    HW230375   5.819   6.574   5.104
 9826SOL     OW30376   1.955   5.618   4.996
 9826SOL    HW130377   2.017   5.547   4.963
 9826SOL    HW230378   1.967   5.629   5.095
 9827SOL     OW30379   1.434   4.729   1.548
 9827SOL    HW130380   1.527   4.691   1.554
 9827SOL    HW230381   1.420   4.769   1.458
 9828SOL     OW30382   4.444   2.477   4.427
 9828SOL    HW130383   4.470   2.512   4.337
 9828SOL    HW230384   4.351   2.440   4.423
 9829SOL     OW30385   4.388   5.603   5.561
 9829SOL    HW130386   4.293   5.576   5.547
 9829SOL    HW230387   4.448   5.542   5.509
 9830SOL     OW30388   5.986   1.924   3.110
 9830SOL    HW130389   6.059   1.911   3.043
 9830SOL    HW230390   5.897   1.914   3.065
 9831SOL     OW30391   0.537   3.883   2.789
 9831SOL    HW130392   0.545   3.856   2.885
 9831SOL    HW230393   0.603   3.955   2.769
 9832SOL     OW30394   4.498   5.402   4.701
 9832SOL    HW130395   4.504   5.317   4.648
 9832SOL    HW230396   4.590   5.438   4.718
 9833SOL     OW30397   3.789   3.552   3.590
 9833SOL    HW130398   3.860   3.590   3.649
 9833SOL    HW230399   3.702   3.597   3.609
 9834SOL     OW30400   2.765   6.473   5.917
 9834SOL    HW130401   2.713   6.423   5.986
 9834SOL    HW230402   2.845   6.516   5.959
 9835SOL     OW30403   3.894   3.965   4.022
 9835SOL    HW130404   3.831   4.019   3.967
 9835SOL    HW230405   3.895   4.000   4.116
 9836SOL     OW30406   0.127   4.235   5.995
 9836SOL    HW130407   0.214   4.184   5.989
 9836SOL    HW230408   0.052   4.174   5.969
 9837SOL     OW30409   5.517   2.046   2.975
 9837SOL    HW130410   5.592   2.027   2.912
 9837SOL    HW230411   5.463   1.963   2.990
 9838SOL     OW30412   2.066   7.000   1.434
 9838SOL    HW130413   1.977   0.001   1.395
 9838SOL    HW230414   2.139   0.015   1.378
 9839SOL     OW30415   5.130   0.081   3.744
 9839SOL    HW130416   5.216   0.108   3.787
 9839SOL    HW230417   5.063   0.154   3.755
 9840SOL     OW30418   6.191   1.658   6.682
 9840SOL    HW130419   6.284   1.670   6.647
 9840SOL    HW230420   6.192   1.591   6.756
 9841SOL     OW30421   0.325   6.717   2.954
 9841SOL    HW130422   0.233   6.686   2.980
 9841SOL    HW230423   0.319   6.789   2.886
 9842SOL     OW30424   3.277   0.811   6.607
 9842SOL    HW130425   3.317   0.750   6.537
 9842SOL    HW230426   3.227   0.756   6.674
 9843SOL     OW30427   0.450   0.182   1.318
 9843SOL    HW130428   0.464   0.213   1.224
 9843SOL    HW230429   0.453   0.083   1.322
 9844SOL     OW30430   4.546   0.249   4.090
 9844SOL    HW130431   4.485   0.183   4.047
 9844SOL    HW230432   4.639   0.236   4.055
 9845SOL     OW30433   1.941   3.490   2.575
 9845SOL    HW130434   1.863   3.538   2.536
 9845SOL    HW230435   1.996   3.450   2.501
 9846SOL     OW30436   5.799   2.531   1.898
 9846SOL    HW130437   5.866   2.566   1.832
 9846SOL    HW230438   5.718   2.589   1.897
 9847SOL     OW30439   4.157   4.300   6.620
 9847SOL    HW130440   4.119   4.263   6.535
 9847SOL    HW230441   4.088   4.356   6.666
 9848SOL     OW30442   3.193   4.231   5.749
 9848SOL    HW130443   3.291   4.246   5.737
 9848SOL    HW230444   3.152   4.212   5.660
 9849SOL     OW30445   0.510   2.321   4.236
 9849SOL    HW130446   0.438   2.385   4.211
 9849SOL    HW230447   0.472   2.229   4.241
 9850SOL     OW30448   1.750   0.256   4.203
 9850SOL    HW130449   1.801   0.188   4.257
 9850SOL    HW230450   1.743   0.225   4.109
 9851SOL     OW30451   3.928   5.374   4.944
 9851SOL    HW130452   3.999   5.429   4.988
 9851SOL    HW230453   3.944   5.277   4.964
 9852SOL     OW30454   2.218   0.249   0.224
 9852SOL    HW130455   2.210   0.184   0.301
 9852SOL    HW230456   2.133   0.301   0.217
 9853SOL     OW30457   7.000   4.545   3.369
 9853SOL    HW130458   6.902   4.528   3.353
 9853SOL    HW230459   0.013   4.473   3.427
 9854SOL     OW30460   0.733   4.398   6.064
 9854SOL    HW130461   0.679   4.481   6.052
 9854SOL    HW230462   0.673   4.319   6.067
 9855SOL     OW30463   1.133   4.988   1.025
 9855SOL    HW130464   1.123   5.019   1.120
 9855SOL    HW230465   1.118   4.889   1.021
 9856SOL     OW30466   5.751   4.014   3.245
 9856SOL    HW130467   5.731   4.069   3.326
 9856SOL    HW230468   5.719   3.921   3.259
 9857SOL     OW30469   4.406   0.175   5.200
 9857SOL    HW130470   4.463   0.155   5.120
 9857SOL    HW230471   4.368   0.267   5.192
 9858SOL     OW30472   6.889   6.280   2.180
 9858SOL    HW130473   6.937   6.365   2.156
 9858SOL    HW230474   6.804   6.302   2.226
 9859SOL     OW30475   7.016   5.279   3.105
 9859SOL    HW130476   7.014   5.231   3.192
 9859SOL    HW230477   6.946   5.241   3.044
 9860SOL     OW30478   1.267   3.105   4.874
 9860SOL    HW130479   1.292   3.186   4.820
 9860SOL    HW230480   1.316   3.107   4.961
 9861SOL     OW30481   3.429   2.065   2.921
 9861SOL    HW130482   3.442   2.139   2.855
 9861SOL    HW230483   3.378   1.990   2.878
 9862SOL     OW30484   1.184   4.197   0.203
 9862SOL    HW130485   1.265   4.168   0.255
 9862SOL    HW230486   1.123   4.249   0.263
 9863SOL     OW30487   4.185   5.952   1.224
 9863SOL    HW130488   4.285   5.951   1.228
 9863SOL    HW230489   4.154   6.028   1.167
 9864SOL     OW30490   2.411   5.498   5.547
 9864SOL    HW130491   2.370   5.443   5.620
 9864SOL    HW230492   2.380   5.463   5.458
 9865SOL     OW30493   0.898   5.410   5.786
 9865SOL    HW130494   0.989   5.412   5.827
 9865SOL    HW230495   0.831   5.382   5.855
 9866SOL     OW30496   6.832   5.077   5.348
 9866SOL    HW130497   6.922   5.048   5.381
 9866SOL    HW230498   6.830   5.177   5.338
 9867SOL     OW30499   3.927   1.689   2.496
 9867SOL    HW130500   4.000   1.647   2.550
 9867SOL    HW230501   3.949   1.784   2.478
 9868SOL     OW30502   2.466   4.505   3.890
 9868SOL    HW130503   2.424   4.416   3.874
 9868SOL    HW230504   2.512   4.536   3.807
 9869SOL     OW30505   6.192   2.845   1.096
 9869SOL    HW130506   6.232   2.936   1.084
 9869SOL    HW230507   6.165   2.833   1.192
 9870SOL     OW30508   2.332   2.158   2.518
 9870SOL    HW130509   2.236   2.176   2.496
 9870SOL    HW230510   2.387   2.238   2.497
 9871SOL     OW30511   6.060   5.395   3.625
 9871SOL    HW130512   6.010   5.335   3.563
 9871SOL    HW230513   6.102   5.469   3.572
 9872SOL     OW30514   0.454   4.939   6.111
 9872SOL    HW130515   0.535   4.978   6.155
 9872SOL    HW230516   0.421   4.862   6.165
 9873SOL     OW30517   1.494   1.408   5.650
 9873SOL    HW130518   1.455   1.454   5.570
 9873SOL    HW230519   1.443   1.325   5.669
 9874SOL     OW30520   0.052   2.861   5.122
 9874SOL    HW130521   0.129   2.822   5.173
 9874SOL    HW230522   6.996   2.864   5.181
 9875SOL     OW30523   6.426   5.923   1.293
 9875SOL    HW130524   6.473   6.007   1.267
 9875SOL    HW230525   6.492   5.847   1.295
 9876SOL     OW30526   1.086   6.446   3.244
 9876SOL    HW130527   1.176   6.467   3.282
 9876SOL    HW230528   1.034   6.390   3.309
 9877SOL     OW30529   0.969   5.113   5.181
 9877SOL    HW130530   0.876   5.078   5.188
 9877SOL    HW230531   1.019   5.093   5.265
 9878SOL     OW30532   3.334   2.885   6.425
 9878SOL    HW130533   3.388   2.834   6.358
 9878SOL    HW230534   3.338   2.838   6.513
 9879SOL     OW30535   6.887   5.071   5.851
 9879SOL    HW130536   6.921   5.001   5.788
 9879SOL    HW230537   6.835   5.139   5.799
 9880SOL     OW30538   2.423   1.010   1.027
 9880SOL    HW130539   2.426   1.092   1.085
 9880SOL    HW230540   2.471   1.029   0.941
 9881SOL     OW30541   6.278   1.395   3.768
 9881SOL    HW130542   6.246   1.325   3.832
 9881SOL    HW230543   6.355   1.444   3.807
 9882SOL     OW30544   3.399   3.092   5.340
 9882SOL    HW130545   3.457   3.089   5.421
 9882SOL    HW230546   3.457   3.097   5.258
 9883SOL     OW30547   2.043   0.343   2.266
 9883SOL    HW130548   2.119   0.295   2.223
 9883SOL    HW230549   2.071   0.375   2.357
 9884SOL     OW30550   3.037   2.408   5.399
 9884SOL    HW130551   3.089   2.383   5.317
 9884SOL    HW230552   3.074   2.492   5.437
 9885SOL     OW30553   5.058   3.145   5.427
 9885SOL    HW130554   5.106   3.104   5.350
 9885SOL    HW230555   4.984   3.085   5.456
 9886SOL     OW30556   3.558   5.994   1.628
 9886SOL    HW130557   3.542   5.910   1.680
 9886SOL    HW230558   3.516   6.071   1.676
 9887SOL     OW30559   3.098   1.538   6.924
 9887SOL    HW130560   3.134   1.510   6.835
 9887SOL    HW230561   3.151   1.616   6.958
 9888SOL     OW30562   6.363   6.654   3.699
 9888SOL    HW130563   6.349   6.579   3.634
 9888SOL    HW230564   6.422   6.723   3.658
 9889SOL     OW30565   0.013   6.202   3.388
 9889SOL    HW130566   0.035   6.248   3.302
 9889SOL    HW230567   6.947   6.159   3.381
 9890SOL     OW30568   0.814   3.603   1.794
 9890SOL    HW130569   0.794   3.673   1.725
 9890SOL    HW230570   0.913   3.585   1.794
 9891SOL     OW30571   5.496   5.373   1.624
 9891SOL    HW130572   5.467   5.338   1.713
 9891SOL    HW230573   5.594   5.358   1.612
 9892SOL     OW30574   1.401   5.080   4.010
 9892SOL    HW130575   1.417   5.023   4.091
 9892SOL    HW230576   1.357   5.025   3.939
 9893SOL     OW30577   5.520   4.858   4.709
 9893SOL    HW130578   5.450   4.787   4.715
 9893SOL    HW230579   5.563   4.870   4.799
 9894SOL     OW30580   4.678   2.766   5.584
 9894SOL    HW130581   4.658   2.863   5.567
 9894SOL    HW230582   4.753   2.759   5.650
 9895SOL     OW30583   5.489   1.945   7.002
 9895SOL    HW130584   5.582   1.981   6.992
 9895SOL    HW230585   5.424   2.020   7.006
 9896SOL     OW30586   4.559   2.909   6.889
 9896SOL    HW130587   4.467   2.871   6.879
 9896SOL    HW230588   4.599   2.875   6.974
 9897SOL     OW30589   0.089   1.873   3.835
 9897SOL    HW130590   0.043   1.912   3.755
 9897SOL    HW230591   0.022   1.823   3.890
 9898SOL     OW30592   1.160   5.175   5.750
 9898SOL    HW130593   1.069   5.159   5.711
 9898SOL    HW230594   1.169   5.128   5.837
 9899SOL     OW30595   4.811   5.057   2.343
 9899SOL    HW130596   4.821   5.054   2.243
 9899SOL    HW230597   4.785   5.150   2.370
 9900SOL     OW30598   0.787   3.611   3.354
 9900SOL    HW130599   0.780   3.517   3.387
 9900SOL    HW230600   0.877   3.626   3.314
 9901SOL     OW30601   2.508   1.878   5.642
 9901SOL    HW130602   2.576   1.819   5.597
 9901SOL    HW230603   2.419   1.863   5.600
 9902SOL     OW30604   4.809   3.641   0.085
 9902SOL    HW130605   4.718   3.611   0.056
 9902SOL    HW230606   4.849   3.698   0.014
 9903SOL     OW30607   3.700   0.891   1.174
 9903SOL    HW130608   3.752   0.915   1.257
 9903SOL    HW230609   3.628   0.959   1.159
 9904SOL     OW30610   0.184   0.004   2.074
 9904SOL    HW130611   0.140   7.001   2.160
 9904SOL    HW230612   0.156   0.097   2.050
 9905SOL     OW30613   1.818   6.058   6.550
 9905SOL    HW130614   1.760   6.028   6.626
 9905SOL    HW230615   1.860   6.145   6.573
 9906SOL     OW30616   3.826   3.765   5.927
 9906SOL    HW130617   3.811   3.689   5.864
 9906SOL    HW230618   3.919   3.762   5.963
 9907SOL     OW30619   1.590   6.375   2.970
 9907SOL    HW130620   1.685   6.349   2.986
 9907SOL    HW230621   1.585   6.438   2.893
 9908SOL     OW30622   0.871   3.415   5.049
 9908SOL    HW130623   0.789   3.472   5.055
 9908SOL    HW230624   0.952   3.471   5.065
 9909SOL     OW30625   3.602   0.063   2.885
 9909SOL    HW130626   3.626   0.051   2.981
 9909SOL    HW230627   3.503   0.075   2.876
 9910SOL     OW30628   0.867   4.447   1.512
 9910SOL    HW130629   0.800   4.521   1.519
 9910SOL    HW230630   0.939   4.461   1.580
 9911SOL     OW30631   3.706   4.949   3.295
 9911SOL    HW130632   3.626   4.934   3.238
 9911SOL    HW230633   3.706   5.043   3.329
 9912SOL     OW30634   4.359   0.166   1.126
 9912SOL    HW130635   4.383   0.069   1.132
 9912SOL    HW230636   4.373   0.208   1.216
 9913SOL     OW30637   4.338   2.391   2.601
 9913SOL    HW130638   4.400   2.371   2.677
 9913SOL    HW230639   4.384   2.454   2.537
 9914SOL     OW30640   1.648   5.683   5.719
 9914SOL    HW130641   1.638   5.671   5.620
 9914SOL    HW230642   1.669   5.594   5.761
 9915SOL     OW30643   5.565   3.438   4.285
 9915SOL    HW130644   5.608   3.359   4.328
 9915SOL    HW230645   5.597   3.522   4.329
 9916SOL     OW30646   2.625   3.363   0.672
 9916SOL    HW130647   2.678   3.366   0.757
 9916SOL    HW230648   2.597   3.269   0.653
 9917SOL     OW30649   2.010   3.287   5.218
 9917SOL    HW130650   2.010   3.385   5.200
 9917SOL    HW230651   2.061   3.239   5.147
 9918SOL     OW30652   2.117   0.911   5.051
 9918SOL    HW130653   2.068   0.981   5.103
 9918SOL    HW230654   2.091   0.917   4.955
 9919SOL     OW30655   0.071   5.217   2.647
 9919SOL    HW130656   0.095   5.147   2.579
 9919SOL    HW230657   0.148   5.232   2.708
 9920SOL     OW30658   4.230   6.636   2.218
 9920SOL    HW130659   4.151   6.657   2.161
 9920SOL    HW230660   4.215   6.550   2.266
 9921SOL     OW30661   4.800   7.015   3.572
 9921SOL    HW130662   4.712   0.012   3.615
 9921SOL    HW230663   4.838   6.932   3.612
 9922SOL     OW30664   4.794   3.410   1.289
 9922SOL    HW130665   4.749   3.354   1.219
 9922SOL    HW230666   4.726   3.464   1.339
 9923SOL     OW30667   6.387   0.804   6.119
 9923SOL    HW130668   6.365   0.872   6.190
 9923SOL    HW230669   6.379   0.712   6.157
 9924SOL     OW30670   4.997   0.964   2.897
 9924SOL    HW130671   5.047   0.895   2.845
 9924SOL    HW230672   5.057   1.005   2.965
 9925SOL     OW30673   3.017   2.180   4.773
 9925SOL    HW130674   3.083   2.237   4.821
 9925SOL    HW230675   3.064   2.102   4.732
 9926SOL     OW30676   1.650   1.227   0.130
 9926SOL    HW130677   1.712   1.304   0.114
 9926SOL    HW230678   1.555   1.259   0.124
 9927SOL     OW30679   0.587   2.064   2.395
 9927SOL    HW130680   0.662   2.127   2.414
 9927SOL    HW230681   0.532   2.050   2.478
 9928SOL     OW30682   6.800   3.265   2.937
 9928SOL    HW130683   6.711   3.292   2.901
 9928SOL    HW230684   6.870   3.281   2.868
 9929SOL     OW30685   1.615   4.116   5.794
 9929SOL    HW130686   1.609   4.126   5.695
 9929SOL    HW230687   1.548   4.175   5.839
 9930SOL     OW30688   0.487   5.790   0.134
 9930SOL    HW130689   0.496   5.703   0.086
 9930SOL    HW230690   0.393   5.824   0.125
 9931SOL     OW30691   2.884   5.345   6.899
 9931SOL    HW130692   2.984   5.350   6.903
 9931SOL    HW230693   2.853   5.260   6.943
 9932SOL     OW30694   1.848   2.504   0.679
 9932SOL    HW130695   1.871   2.441   0.752
 9932SOL    HW230696   1.790   2.577   0.714
 9933SOL     OW30697   1.000   1.476   2.514
 9933SOL    HW130698   1.026   1.566   2.549
 9933SOL    HW230699   0.923   1.486   2.451
 9934SOL     OW30700   4.656   1.582   6.939
 9934SOL    HW130701   4.738   1.635   6.961
 9934SOL    HW230702   4.679   1.486   6.928
 9935SOL     OW30703   2.833   2.518   1.015
 9935SOL    HW130704   2.917   2.495   1.063
 9935SOL    HW230705   2.765   2.445   1.028
 9936SOL     OW30706   5.895   6.133   6.116
 9936SOL    HW130707   5.810   6.082   6.104
 9936SOL    HW230708   5.929   6.120   6.209
 9937SOL     OW30709   1.143   0.280   3.395
 9937SOL    HW130710   1.203   0.310   3.468
 9937SOL    HW230711   1.190   0.213   3.338
 9938SOL     OW30712   6.666   1.305   3.913
 9938SOL    HW130713   6.762   1.281   3.932
 9938SOL    HW230714   6.606   1.236   3.953
 9939SOL     OW30715   3.148   4.177   1.318
 9939SOL    HW130716   3.082   4.235   1.270
 9939SOL    HW230717   3.189   4.112   1.253
 9940SOL     OW30718   0.298   1.056   3.701
 9940SOL    HW130719   0.224   1.060   3.767
 9940SOL    HW230720   0.265   1.014   3.616
 9941SOL     OW30721   5.530   4.928   0.604
 9941SOL    HW130722   5.514   4.904   0.700
 9941SOL    HW230723   5.490   4.858   0.545
 9942SOL     OW30724   5.600   5.313   2.952
 9942SOL    HW130725   5.589   5.262   2.867
 9942SOL    HW230726   5.662   5.390   2.937
 9943SOL     OW30727   1.618   3.857   6.019
 9943SOL    HW130728   1.694   3.792   6.020
 9943SOL    HW230729   1.598   3.883   5.925
 9944SOL     OW30730   1.083   5.507   6.373
 9944SOL    HW130731   1.017   5.550   6.311
 9944SOL    HW230732   1.111   5.419   6.335
 9945SOL     OW30733   6.517   3.721   6.640
 9945SOL    HW130734   6.585   3.791   6.620
 9945SOL    HW230735   6.519   3.650   6.570
 9946SOL     OW30736   4.898   2.307   1.542
 9946SOL    HW130737   4.899   2.227   1.601
 9946SOL    HW230738   4.842   2.379   1.585
 9947SOL     OW30739   0.492   2.013   3.439
 9947SOL    HW130740   0.562   2.077   3.407
 9947SOL    HW230741   0.429   1.994   3.364
 9948SOL     OW30742   5.659   0.197   4.615
 9948SOL    HW130743   5.565   0.165   4.611
 9948SOL    HW230744   5.721   0.123   4.590
 9949SOL     OW30745   6.535   4.590   2.726
 9949SOL    HW130746   6.592   4.672   2.719
 9949SOL    HW230747   6.439   4.616   2.721
 9950SOL     OW30748   5.064   4.180   5.111
 9950SOL    HW130749   5.075   4.139   5.020
 9950SOL    HW230750   5.003   4.123   5.166
 9951SOL     OW30751   0.075   1.828   3.146
 9951SOL    HW130752   0.081   1.752   3.210
 9951SOL    HW230753   7.004   1.849   3.127
 9952SOL     OW30754   1.294   4.836   2.161
 9952SOL    HW130755   1.340   4.877   2.082
 9952SOL    HW230756   1.229   4.767   2.129
 9953SOL     OW30757   6.053   3.557   4.106
 9953SOL    HW130758   6.008   3.510   4.181
 9953SOL    HW230759   5.991   3.628   4.070
 9954SOL     OW30760   3.766   0.888   0.891
 9954SOL    HW130761   3.676   0.896   0.848
 9954SOL    HW230762   3.759   0.914   0.988
 9955SOL     OW30763   5.692   4.637   1.215
 9955SOL    HW130764   5.787   4.666   1.201
 9955SOL    HW230765   5.683   4.597   1.306
 9956SOL     OW30766   2.007   3.054   3.662
 9956SOL    HW130767   1.993   3.129   3.727
 9956SOL    HW230768   2.040   3.091   3.575
 9957SOL     OW30769   5.592   0.391   0.533
 9957SOL    HW130770   5.673   0.407   0.477
 9957SOL    HW230771   5.521   0.458   0.508
 9958SOL     OW30772   5.688   5.645   0.322
 9958SOL    HW130773   5.734   5.572   0.373
 9958SOL    HW230774   5.748   5.678   0.249
 9959SOL     OW30775   5.016   5.400   0.384
 9959SOL    HW130776   5.103   5.351   0.381
 9959SOL    HW230777   4.941   5.334   0.374
 9960SOL     OW30778   6.996   0.427   0.347
 9960SOL    HW130779   0.067   0.419   0.319
 9960SOL    HW230780   6.947   0.488   0.284
 9961SOL     OW30781   3.283   5.373   0.729
 9961SOL    HW130782   3.258   5.463   0.765
 9961SOL    HW230783   3.207   5.336   0.677
 9962SOL     OW30784   3.281   0.252   1.325
 9962SOL    HW130785   3.329   0.303   1.396
 9962SOL    HW230786   3.334   0.170   1.301
 9963SOL     OW30787   0.892   0.649   5.824
 9963SOL    HW130788   0.923   0.707   5.749
 9963SOL    HW230789   0.852   0.706   5.896
 9964SOL     OW30790   4.465   4.616   6.186
 9964SOL    HW130791   4.404   4.668   6.246
 9964SOL    HW230792   4.411   4.565   6.120
 9965SOL     OW30793   3.024   5.192   3.827
 9965SOL    HW130794   2.992   5.169   3.919
 9965SOL    HW230795   3.084   5.119   3.793
 9966SOL     OW30796   3.412   4.989   2.702
 9966SOL    HW130797   3.360   5.048   2.640
 9966SOL    HW230798   3.477   4.934   2.648
 9967SOL     OW30799   6.667   0.241   3.314
 9967SOL    HW130800   6.617   0.189   3.384
 9967SOL    HW230801   6.757   0.200   3.300
 9968SOL     OW30802   4.519   6.708   0.154
 9968SOL    HW130803   4.469   6.675   0.234
 9968SOL    HW230804   4.487   6.660   0.073
 9969SOL     OW30805   0.661   5.780   4.228
 9969SOL    HW130806   0.725   5.848   4.193
 9969SOL    HW230807   0.590   5.826   4.282
 9970SOL     OW30808   6.801   3.386   1.916
 9970SOL    HW130809   6.732   3.457   1.905
 9970SOL    HW230810   6.788   3.340   2.004
 9971SOL     OW30811   0.401   5.137   4.169
 9971SOL    HW130812   0.456   5.195   4.230
 9971SOL    HW230813   0.350   5.195   4.105
 9972SOL     OW30814   3.153   4.112   6.123
 9972SOL    HW130815   3.187   4.019   6.115
 9972SOL    HW230816   3.060   4.117   6.085
 9973SOL     OW30817   2.195   2.289   3.030
 9973SOL    HW130818   2.226   2.195   3.043
 9973SOL    HW230819   2.127   2.292   2.956
 9974SOL     OW30820   1.107   2.428   3.052
 9974SOL    HW130821   1.031   2.479   3.014
 9974SOL    HW230822   1.190   2.445   2.998
 9975SOL     OW30823   2.495   4.631   7.007
 9975SOL    HW130824   2.499   4.725   6.974
 9975SOL    HW230825   2.547   4.571   6.945
 9976SOL     OW30826   4.015   4.934   5.617
 9976SOL    HW130827   3.993   4.936   5.714
 9976SOL    HW230828   3.930   4.932   5.564
 9977SOL     OW30829   4.687   6.827   5.519
 9977SOL    HW130830   4.644   6.788   5.437
 9977SOL    HW230831   4.616   6.855   5.584
 9978SOL     OW30832   0.961   3.243   6.636
 9978SOL    HW130833   0.865   3.269   6.633
 9978SOL    HW230834   1.018   3.326   6.633
 9979SOL     OW30835   3.533   3.600   5.297
 9979SOL    HW130836   3.548   3.615   5.199
 9979SOL    HW230837   3.561   3.506   5.320
 9980SOL     OW30838   1.962   1.632   1.167
 9980SOL    HW130839   1.937   1.724   1.196
 9980SOL    HW230840   2.037   1.637   1.101
 9981SOL     OW30841   6.033   2.001   0.337
 9981SOL    HW130842   6.025   1.905   0.367
 9981SOL    HW230843   6.100   2.048   0.394
 9982SOL     OW30844   2.012   2.265   4.414
 9982SOL    HW130845   2.056   2.330   4.352
 9982SOL    HW230846   1.913   2.281   4.416
 9983SOL     OW30847   0.988   3.469   2.348
 9983SOL    HW130848   1.030   3.524   2.275
 9983SOL    HW230849   0.955   3.530   2.420
 9984SOL     OW30850   0.279   5.255   1.232
 9984SOL    HW130851   0.224   5.209   1.162
 9984SOL    HW230852   0.376   5.247   1.209
 9985SOL     OW30853   4.928   4.457   0.137
 9985SOL    HW130854   5.009   4.515   0.127
 9985SOL    HW230855   4.954   4.370   0.178
 9986SOL     OW30856   5.847   5.214   0.423
 9986SOL    HW130857   5.856   5.143   0.493
 9986SOL    HW230858   5.829   5.171   0.335
 9987SOL     OW30859   5.862   2.491   1.532
 9987SOL    HW130860   5.877   2.459   1.439
 9987SOL    HW230861   5.777   2.542   1.537
 9988SOL     OW30862   5.730   6.552   4.042
 9988SOL    HW130863   5.686   6.597   3.964
 9988SOL    HW230864   5.678   6.574   4.125
 9989SOL     OW30865   6.984   5.644   2.289
 9989SOL    HW130866   7.022   5.585   2.360
 9989SOL    HW230867   6.911   5.597   2.241
 9990SOL     OW30868   0.065   6.718   3.660
 9990SOL    HW130869   0.049   6.712   3.562
 9990SOL    HW230870   0.023   6.801   3.696
 9991SOL     OW30871   1.839   5.199   3.157
 9991SOL    HW130872   1.906   5.141   3.203
 9991SOL    HW230873   1.883   5.248   3.082
 9992SOL     OW30874   2.303   5.114   0.545
 9992SOL    HW130875   2.266   5.049   0.479
 9992SOL    HW230876   2.266   5.094   0.636
 9993SOL     OW30877   3.933   6.451   4.683
 9993SOL    HW130878   3.932   6.516   4.758
 9993SOL    HW230879   3.841   6.442   4.645
 9994SOL     OW30880   5.872   5.243   4.618
 9994SOL    HW130881   5.821   5.233   4.704
 9994SOL    HW230882   5.808   5.248   4.542
 9995SOL     OW30883   3.496   1.113   5.291
 9995SOL    HW130884   3.453   1.170   5.360
 9995SOL    HW230885   3.541   1.035   5.335
 9996SOL     OW30886   3.004   3.572   0.816
 9996SOL    HW130887   3.007   3.609   0.723
 9996SOL    HW230888   2.925   3.609   0.864
 9997SOL     OW30889   6.223   2.810   3.488
 9997SOL    HW130890   6.249   2.878   3.556
 9997SOL    HW230891   6.239   2.718   3.524
 9998SOL     OW30892   4.783   4.647   2.626
 9998SOL    HW130893   4.771   4.654   2.725
 9998SOL    HW230894   4.848   4.573   2.606
 9999SOL     OW30895   0.899   6.735   3.877
 9999SOL    HW130896   0.899   6.835   3.871
 9999SOL    HW230897   0.823   6.705   3.935
10000SOL     OW30898   4.746   2.429   1.135
10000SOL    HW130899   4.810   2.474   1.197
10000SOL    HW230900   4.755   2.467   1.043
10001SOL     OW30901   3.867   5.889   1.891
10001SOL    HW130902   3.860   5.920   1.796
10001SOL    HW230903   3.948   5.931   1.933
10002SOL     OW30904   3.175   1.305   1.722
10002SOL    HW130905   3.207   1.284   1.630
10002SOL    HW230906   3.082   1.340   1.719
10003SOL     OW30907   1.488   1.028   3.658
10003SOL    HW130908   1.521   0.961   3.724
10003SOL    HW230909   1.518   1.003   3.567
10004SOL     OW30910   6.001   4.302   4.642
10004SOL    HW130911   6.087   4.263   4.612
10004SOL    HW230912   6.009   4.402   4.646
10005SOL     OW30913   2.290   5.323   3.289
10005SOL    HW130914   2.378   5.370   3.291
10005SOL    HW230915   2.295   5.241   3.346
10006SOL     OW30916   5.759   0.373   5.453
10006SOL    HW130917   5.823   0.423   5.512
10006SOL    HW230918   5.741   0.427   5.371
10007SOL     OW30919   1.467   4.899   4.421
10007SOL    HW130920   1.422   4.886   4.509
10007SOL    HW230921   1.528   4.979   4.426
10008SOL     OW30922   4.004   1.494   5.733
10008SOL    HW130923   4.005   1.523   5.828
10008SOL    HW230924   3.958   1.564   5.678
10009SOL     OW30925   1.071   3.690   2.216
10009SOL    HW130926   1.060   3.775   2.267
10009SOL    HW230927   1.164   3.683   2.181
10010SOL     OW30928   2.661   3.767   0.194
10010SOL    HW130929   2.579   3.746   0.248
10010SOL    HW230930   2.675   3.695   0.126
10011SOL     OW30931   1.831   3.141   0.041
10011SOL    HW130932   1.912   3.200   0.034
10011SOL    HW230933   1.857   3.046   0.025
10012SOL     OW30934   6.065   2.507   3.078
10012SOL    HW130935   6.131   2.579   3.101
10012SOL    HW230936   5.987   2.512   3.141
10013SOL     OW30937   0.205   6.011   5.137
10013SOL    HW130938   0.170   6.031   5.229
10013SOL    HW230939   0.279   5.944   5.143
10014SOL     OW30940   0.991   0.671   3.280
10014SOL    HW130941   0.896   0.699   3.269
10014SOL    HW230942   1.039   0.683   3.193
10015SOL     OW30943   4.273   5.287   6.075
10015SOL    HW130944   4.184   5.328   6.057
10015SOL    HW230945   4.282   5.202   6.023
10016SOL     OW30946   2.126   0.269   3.714
10016SOL    HW130947   2.030   0.241   3.705
10016SOL    HW230948   2.185   0.189   3.701
10017SOL     OW30949   2.512   2.362   2.438
10017SOL    HW130950   2.491   2.410   2.353
10017SOL    HW230951   2.606   2.329   2.435
10018SOL     OW30952   6.655   3.255   5.808
10018SOL    HW130953   6.697   3.172   5.772
10018SOL    HW230954   6.659   3.253   5.908
10019SOL     OW30955   0.515   2.106   2.142
10019SOL    HW130956   0.530   2.081   2.237
10019SOL    HW230957   0.417   2.102   2.121
10020SOL     OW30958   6.217   0.792   2.280
10020SOL    HW130959   6.127   0.829   2.302
10020SOL    HW230960   6.215   0.750   2.190
10021SOL     OW30961   1.131   3.260   2.417
10021SOL    HW130962   1.110   3.204   2.496
10021SOL    HW230963   1.060   3.329   2.405
10022SOL     OW30964   2.614   5.170   6.809
10022SOL    HW130965   2.694   5.121   6.845
10022SOL    HW230966   2.574   5.226   6.880
10023SOL     OW30967   0.674   0.527   6.128
10023SOL    HW130968   0.741   0.559   6.195
10023SOL    HW230969   0.692   0.431   6.105
10024SOL     OW30970   1.664   4.927   2.575
10024SOL    HW130971   1.694   5.014   2.534
10024SOL    HW230972   1.665   4.936   2.675
10025SOL     OW30973   1.216   4.482   1.635
10025SOL    HW130974   1.185   4.571   1.602
10025SOL    HW230975   1.170   4.460   1.721
10026SOL     OW30976   5.034   1.935   4.468
10026SOL    HW130977   5.060   1.947   4.372
10026SOL    HW230978   5.110   1.963   4.527
10027SOL     OW30979   2.532   1.732   5.228
10027SOL    HW130980   2.511   1.643   5.188
10027SOL    HW230981   2.620   1.764   5.194
10028SOL     OW30982   4.012   0.608   0.911
10028SOL    HW130983   3.942   0.612   0.982
10028SOL    HW230984   3.978   0.651   0.827
10029SOL     OW30985   0.350   3.727   4.771
10029SOL    HW130986   0.397   3.789   4.708
10029SOL    HW230987   0.331   3.641   4.724
10030SOL     OW30988   2.608   6.983   4.864
10030SOL    HW130989   2.658   6.902   4.894
10030SOL    HW230990   2.533   6.955   4.803
10031SOL     OW30991   2.984   4.777   3.620
10031SOL    HW130992   2.939   4.694   3.589
10031SOL    HW230993   2.915   4.842   3.652
10032SOL     OW30994   2.976   6.306   5.138
10032SOL    HW130995   3.037   6.350   5.072
10032SOL    HW230996   3.031   6.267   5.213
10033SOL     OW30997   3.115   1.369   3.581
10033SOL    HW130998   3.036   1.350   3.523
10033SOL    HW230999   3.153   1.459   3.558
10034SOL     OW31000   2.341   0.856   3.756
10034SOL    HW131001   2.313   0.951   3.771
10034SOL    HW231002   2.382   0.820   3.840
10035SOL     OW31003   6.213   2.617   2.544
10035SOL    HW131004   6.143   2.642   2.477
10035SOL    HW231005   6.224   2.518   2.545
10036SOL     OW31006   0.043   0.829   6.919
10036SOL    HW131007   0.135   0.838   6.956
10036SOL    HW231008   0.043   0.759   6.847
10037SOL     OW31009   6.435   6.992   6.774
10037SOL    HW131010   6.493   6.910   6.771
10037SOL    HW231011   6.339   6.966   6.759
10038SOL     OW31012   4.567   6.573   6.387
10038SOL    HW131013   4.600   6.661   6.420
10038SOL    HW231014   4.622   6.500   6.428
10039SOL     OW31015   6.721   5.722   2.721
10039SOL    HW131016   6.753   5.792   2.657
10039SOL    HW231017   6.788   5.712   2.795
10040SOL     OW31018   3.213   6.381   1.057
10040SOL    HW131019   3.230   6.398   0.960
10040SOL    HW231020   3.143   6.310   1.067
10041SOL     OW31021   6.875   5.208   5.030
10041SOL    HW131022   6.857   5.110   5.032
10041SOL    HW231023   6.852   5.248   5.119
10042SOL     OW31024   0.351   0.472   4.786
10042SOL    HW131025   0.343   0.381   4.827
10042SOL    HW231026   0.433   0.518   4.822
10043SOL     OW31027   0.653   0.609   3.715
10043SOL    HW131028   0.575   0.670   3.727
10043SOL    HW231029   0.716   0.619   3.793
10044SOL     OW31030   2.768   1.634   6.215
10044SOL    HW131031   2.855   1.683   6.208
10044SOL    HW231032   2.719   1.665   6.296
10045SOL     OW31033   3.824   6.757   5.113
10045SOL    HW131034   3.851   6.698   5.037
10045SOL    HW231035   3.817   6.702   5.197
10046SOL     OW31036   0.075   2.686   1.485
10046SOL    HW131037   7.022   2.724   1.435
10046SOL    HW231038   0.134   2.760   1.517
10047SOL     OW31039   0.086   2.234   4.503
10047SOL    HW131040   0.125   2.154   4.549
10047SOL    HW231041   7.013   2.242   4.526
10048SOL     OW31042   4.042   2.016   1.494
10048SOL    HW131043   4.116   2.078   1.519
10048SOL    HW231044   4.076   1.922   1.493
10049SOL     OW31045   1.497   0.071   5.217
10049SOL    HW131046   1.515   7.000   5.240
10049SOL    HW231047   1.521   0.087   5.121
10050SOL     OW31048   5.066   2.856   3.682
10050SOL    HW131049   5.159   2.874   3.714
10050SOL    HW231050   5.060   2.763   3.646
10051SOL     OW31051   5.849   2.874   5.238
10051SOL    HW131052   5.891   2.812   5.303
10051SOL    HW231053   5.920   2.928   5.193
10052SOL     OW31054   0.514   3.021   1.534
10052SOL    HW131055   0.602   2.977   1.544
10052SOL    HW231056   0.496   3.079   1.613
10053SOL     OW31057   2.919   5.797   3.607
10053SOL    HW131058   2.931   5.767   3.701
10053SOL    HW231059   2.893   5.720   3.549
10054SOL     OW31060   3.777   5.794   5.013
10054SOL    HW131061   3.760   5.703   5.049
10054SOL    HW231062   3.744   5.799   4.918
10055SOL     OW31063   5.989   2.660   5.405
10055SOL    HW131064   5.923   2.610   5.348
10055SOL    HW231065   6.082   2.630   5.382
10056SOL     OW31066   6.569   4.992   1.354
10056SOL    HW131067   6.594   4.904   1.313
10056SOL    HW231068   6.573   5.064   1.285
10057SOL     OW31069   3.280   2.153   4.041
10057SOL    HW131070   3.350   2.223   4.049
10057SOL    HW231071   3.299   2.078   4.103
10058SOL     OW31072   0.849   5.255   3.767
10058SOL    HW131073   0.944   5.232   3.744
10058SOL    HW231074   0.846   5.294   3.859
10059SOL     OW31075   5.875   0.648   1.015
10059SOL    HW131076   5.922   0.694   1.090
10059SOL    HW231077   5.942   0.618   0.947
10060SOL     OW31078   2.688   2.780   1.727
10060SOL    HW131079   2.777   2.826   1.726
10060SOL    HW231080   2.702   2.681   1.731
10061SOL     OW31081   6.167   1.479   4.388
10061SOL    HW131082   6.225   1.559   4.372
10061SOL    HW231083   6.210   1.398   4.350
10062SOL     OW31084   6.785   6.417   3.017
10062SOL    HW131085   6.785   6.517   3.021
10062SOL    HW231086   6.716   6.381   3.080
10063SOL     OW31087   1.244   3.065   3.531
10063SOL    HW131088   1.243   3.046   3.629
10063SOL    HW231089   1.150   3.063   3.495
10064SOL     OW31090   5.579   6.624   4.249
10064SOL    HW131091   5.577   6.627   4.349
10064SOL    HW231092   5.500   6.675   4.213
10065SOL     OW31093   1.618   6.369   3.472
10065SOL    HW131094   1.571   6.339   3.389
10065SOL    HW231095   1.585   6.316   3.550
10066SOL     OW31096   0.745   6.759   3.611
10066SOL    HW131097   0.730   6.708   3.696
10066SOL    HW231098   0.808   6.834   3.629
10067SOL     OW31099   4.179   4.906   4.190
10067SOL    HW131100   4.194   4.924   4.092
10067SOL    HW231101   4.154   4.991   4.236
10068SOL     OW31102   5.078   3.613   5.118
10068SOL    HW131103   4.986   3.603   5.081
10068SOL    HW231104   5.074   3.624   5.217
10069SOL     OW31105   2.834   1.551   3.270
10069SOL    HW131106   2.752   1.597   3.234
10069SOL    HW231107   2.858   1.590   3.359
10070SOL     OW31108   0.885   6.784   4.797
10070SOL    HW131109   0.855   6.879   4.788
10070SOL    HW231110   0.809   6.723   4.775
10071SOL     OW31111   5.382   5.900   4.791
10071SOL    HW131112   5.306   5.911   4.727
10071SOL    HW231113   5.468   5.919   4.744
10072SOL     OW31114   0.871   6.613   2.991
10072SOL    HW131115   0.962   6.581   3.017
10072SOL    HW231116   0.822   6.643   3.073
10073SOL     OW31117   6.910   4.716   6.103
10073SOL    HW131118   6.927   4.794   6.163
10073SOL    HW231119   6.909   4.632   6.157
10074SOL     OW31120   2.122   0.585   6.344
10074SOL    HW131121   2.055   0.537   6.287
10074SOL    HW231122   2.209   0.537   6.341
10075SOL     OW31123   0.808   2.562   4.081
10075SOL    HW131124   0.787   2.627   4.008
10075SOL    HW231125   0.863   2.487   4.043
10076SOL     OW31126   5.178   6.928   4.716
10076SOL    HW131127   5.214   6.922   4.809
10076SOL    HW231128   5.114   7.004   4.709
10077SOL     OW31129   4.379   1.767   6.076
10077SOL    HW131130   4.420   1.680   6.050
10077SOL    HW231131   4.337   1.809   5.995
10078SOL     OW31132   5.784   0.118   5.738
10078SOL    HW131133   5.714   0.185   5.763
10078SOL    HW231134   5.773   0.092   5.642
10079SOL     OW31135   0.366   3.190   1.328
10079SOL    HW131136   0.429   3.141   1.389
10079SOL    HW231137   0.417   3.237   1.257
10080SOL     OW31138   2.046   2.653   6.912
10080SOL    HW131139   2.043   2.585   6.985
10080SOL    HW231140   2.000   2.736   6.943
10081SOL     OW31141   0.648   0.491   6.517
10081SOL    HW131142   0.619   0.477   6.423
10081SOL    HW231143   0.700   0.576   6.524
10082SOL     OW31144   5.996   1.993   1.948
10082SOL    HW131145   5.926   1.965   1.882
10082SOL    HW231146   6.061   2.055   1.905
10083SOL     OW31147   4.990   0.562   4.054
10083SOL    HW131148   4.892   0.558   4.032
10083SOL    HW231149   5.026   0.469   4.065
10084SOL     OW31150   2.648   1.219   5.636
10084SOL    HW131151   2.610   1.159   5.706
10084SOL    HW231152   2.659   1.311   5.672
10085SOL     OW31153   0.659   5.802   2.369
10085SOL    HW131154   0.748   5.841   2.393
10085SOL    HW231155   0.664   5.702   2.373
10086SOL     OW31156   6.155   4.189   1.991
10086SOL    HW131157   6.191   4.260   2.053
10086SOL    HW231158   6.097   4.232   1.922
10087SOL     OW31159   1.675   0.579   4.026
10087SOL    HW131160   1.686   0.554   4.122
10087SOL    HW231161   1.581   0.609   4.010
10088SOL     OW31162   0.684   6.776   4.559
10088SOL    HW131163   0.724   6.843   4.497
10088SOL    HW231164   0.648   6.699   4.507
10089SOL     OW31165   1.702   2.680   1.671
10089SOL    HW131166   1.750   2.601   1.707
10089SOL    HW231167   1.732   2.763   1.719
10090SOL     OW31168   1.431   3.965   0.967
10090SOL    HW131169   1.369   4.002   1.036
10090SOL    HW231170   1.459   4.038   0.905
10091SOL     OW31171   0.906   2.775   4.717
10091SOL    HW131172   1.002   2.798   4.730
10091SOL    HW231173   0.887   2.763   4.620
10092SOL     OW31174   1.870   3.799   5.180
10092SOL    HW131175   1.936   3.849   5.123
10092SOL    HW231176   1.816   3.865   5.232
10093SOL     OW31177   6.373   5.479   6.096
10093SOL    HW131178   6.386   5.382   6.116
10093SOL    HW231179   6.342   5.490   6.001
10094SOL     OW31180   1.858   1.663   2.258
10094SOL    HW131181   1.851   1.566   2.281
10094SOL    HW231182   1.857   1.673   2.158
10095SOL     OW31183   6.924   0.891   5.886
10095SOL    HW131184   6.924   0.793   5.865
10095SOL    HW231185   6.849   0.912   5.949
10096SOL     OW31186   0.676   5.475   2.608
10096SOL    HW131187   0.734   5.553   2.629
10096SOL    HW231188   0.597   5.475   2.668
10097SOL     OW31189   1.392   0.771   0.881
10097SOL    HW131190   1.320   0.725   0.932
10097SOL    HW231191   1.385   0.870   0.895
10098SOL     OW31192   2.446   4.887   6.871
10098SOL    HW131193   2.412   4.870   6.778
10098SOL    HW231194   2.494   4.974   6.873
10099SOL     OW31195   6.605   4.590   5.140
10099SOL    HW131196   6.552   4.652   5.198
10099SOL    HW231197   6.650   4.643   5.068
10100SOL     OW31198   4.971   0.699   4.575
10100SOL    HW131199   4.999   0.795   4.569
10100SOL    HW231200   4.920   0.685   4.659
10101SOL     OW31201   0.159   4.716   2.399
10101SOL    HW131202   0.074   4.721   2.347
10101SOL    HW231203   0.139   4.686   2.492
10102SOL     OW31204   3.152   1.704   1.614
10102SOL    HW131205   3.251   1.688   1.622
10102SOL    HW231206   3.104   1.650   1.684
10103SOL     OW31207   2.644   1.619   5.939
10103SOL    HW131208   2.630   1.718   5.945
10103SOL    HW231209   2.683   1.585   6.025
10104SOL     OW31210   0.975   5.449   5.278
10104SOL    HW131211   0.945   5.405   5.194
10104SOL    HW231212   0.932   5.404   5.357
10105SOL     OW31213   1.857   0.521   6.817
10105SOL    HW131214   1.818   0.595   6.871
10105SOL    HW231215   1.865   0.551   6.721
10106SOL     OW31216   5.447   5.973   0.563
10106SOL    HW131217   5.537   5.983   0.606
10106SOL    HW231218   5.455   5.915   0.481
10107SOL     OW31219   5.744   1.601   5.962
10107SOL    HW131220   5.684   1.625   5.886
10107SOL    HW231221   5.692   1.600   6.047
10108SOL     OW31222   6.719   0.066   0.178
10108SOL    HW131223   6.731   6.992   0.187
10108SOL    HW231224   6.679   0.103   0.262
10109SOL     OW31225   4.298   5.451   3.850
10109SOL    HW131226   4.343   5.495   3.928
10109SOL    HW231227   4.262   5.362   3.878
10110SOL     OW31228   4.025   0.586   6.006
10110SOL    HW131229   4.052   0.589   5.910
10110SOL    HW231230   3.934   0.545   6.014
10111SOL     OW31231   0.508   2.993   2.580
10111SOL    HW131232   0.448   3.034   2.512
10111SOL    HW231233   0.520   3.056   2.656
10112SOL     OW31234   4.674   4.327   6.000
10112SOL    HW131235   4.712   4.379   6.077
10112SOL    HW231236   4.578   4.305   6.020
10113SOL     OW31237   3.871   6.996   6.860
10113SOL    HW131238   3.853   0.031   6.939
10113SOL    HW231239   3.826   0.009   6.779
10114SOL     OW31240   5.201   1.020   0.962
10114SOL    HW131241   5.201   1.064   0.873
10114SOL    HW231242   5.165   1.083   1.031
10115SOL     OW31243   1.856   2.387   3.848
10115SOL    HW131244   1.800   2.459   3.806
10115SOL    HW231245   1.842   2.388   3.947
10116SOL     OW31246   0.926   1.031   1.428
10116SOL    HW131247   0.984   1.061   1.505
10116SOL    HW231248   0.838   1.000   1.463
10117SOL     OW31249   5.486   0.340   6.027
10117SOL    HW131250   5.444   0.338   6.118
10117SOL    HW231251   5.480   0.432   5.989
10118SOL     OW31252   6.797   5.467   2.175
10118SOL    HW131253   6.789   5.502   2.082
10118SOL    HW231254   6.780   5.368   2.176
10119SOL     OW31255   2.405   0.586   5.653
10119SOL    HW131256   2.336   0.641   5.606
10119SOL    HW231257   2.434   0.510   5.595
10120SOL     OW31258   7.018   2.856   3.795
10120SOL    HW131259   6.965   2.878   3.713
10120SOL    HW231260   6.958   2.815   3.864
10121SOL     OW31261   6.095   4.556   4.731
10121SOL    HW131262   6.192   4.546   4.752
10121SOL    HW231263   6.075   4.652   4.711
10122SOL     OW31264   5.596   3.586   0.397
10122SOL    HW131265   5.508   3.623   0.427
10122SOL    HW231266   5.607   3.493   0.433
10123SOL     OW31267   6.878   6.147   0.605
10123SOL    HW131268   6.948   6.077   0.617
10123SOL    HW231269   6.865   6.196   0.692
10124SOL     OW31270   3.134   4.050   0.213
10124SOL    HW131271   3.141   4.147   0.237
10124SOL    HW231272   3.128   4.041   0.114
10125SOL     OW31273   1.371   0.367   1.965
10125SOL    HW131274   1.445   0.412   2.016
10125SOL    HW231275   1.303   0.331   2.029
10126SOL     OW31276   6.397   5.042   0.868
10126SOL    HW131277   6.316   5.017   0.815
10126SOL    HW231278   6.395   4.996   0.957
10127SOL     OW31279   3.406   5.582   5.355
10127SOL    HW131280   3.429   5.624   5.267
10127SOL    HW231281   3.326   5.523   5.344
10128SOL     OW31282   0.202   2.197   0.905
10128SOL    HW131283   0.225   2.171   0.999
10128SOL    HW231284   0.210   2.296   0.896
10129SOL     OW31285   6.007   2.421   3.539
10129SOL    HW131286   5.989   2.504   3.486
10129SOL    HW231287   6.101   2.392   3.524
10130SOL     OW31288   6.815   5.890   2.121
10130SOL    HW131289   6.824   5.938   2.209
10130SOL    HW231290   6.893   5.829   2.109
10131SOL     OW31291   0.564   1.138   1.909
10131SOL    HW131292   0.561   1.098   2.000
10131SOL    HW231293   0.635   1.209   1.906
10132SOL     OW31294   2.970   6.424   2.614
10132SOL    HW131295   2.912   6.359   2.664
10132SOL    HW231296   3.011   6.489   2.678
10133SOL     OW31297   4.618   5.866   3.554
10133SOL    HW131298   4.672   5.823   3.626
10133SOL    HW231299   4.664   5.855   3.466
10134SOL     OW31300   0.014   1.541   3.573
10134SOL    HW131301   0.057   1.584   3.653
10134SOL    HW231302   0.071   1.465   3.542
10135SOL     OW31303   4.003   4.987   2.766
10135SOL    HW131304   3.973   4.980   2.861
10135SOL    HW231305   3.932   5.033   2.712
10136SOL     OW31306   6.337   0.409   3.478
10136SOL    HW131307   6.379   0.497   3.500
10136SOL    HW231308   6.263   0.423   3.412
10137SOL     OW31309   6.365   5.474   4.368
10137SOL    HW131310   6.399   5.388   4.331
10137SOL    HW231311   6.295   5.512   4.307
10138SOL     OW31312   6.030   1.807   6.964
10138SOL    HW131313   6.032   1.855   6.876
10138SOL    HW231314   5.936   1.802   6.997
10139SOL     OW31315   3.581   2.850   3.143
10139SOL    HW131316   3.536   2.845   3.232
10139SOL    HW231317   3.516   2.884   3.075
10140SOL     OW31318   6.809   5.079   0.040
10140SOL    HW131319   6.864   5.028   6.997
10140SOL    HW231320   6.833   5.176   0.036
10141SOL     OW31321   1.782   1.315   4.462
10141SOL    HW131322   1.880   1.323   4.445
10141SOL    HW231323   1.762   1.223   4.495
10142SOL     OW31324   4.107   5.954   4.793
10142SOL    HW131325   4.183   6.017   4.779
10142SOL    HW231326   4.141   5.871   4.838
10143SOL     OW31327   5.027   0.232   1.401
10143SOL    HW131328   5.031   0.283   1.315
10143SOL    HW231329   4.934   0.234   1.437
10144SOL     OW31330   3.215   5.838   4.412
10144SOL    HW131331   3.175   5.780   4.482
10144SOL    HW231332   3.226   5.931   4.448
10145SOL     OW31333   3.009   5.890   5.785
10145SOL    HW131334   3.073   5.846   5.848
10145SOL    HW231335   2.916   5.883   5.821
10146SOL     OW31336   4.156   5.444   4.247
10146SOL    HW131337   4.112   5.522   4.291
10146SOL    HW231338   4.116   5.430   4.156
10147SOL     OW31339   4.893   4.078   4.006
10147SOL    HW131340   4.976   4.037   4.045
10147SOL    HW231341   4.820   4.076   4.074
10148SOL     OW31342   5.891   5.715   0.645
10148SOL    HW131343   5.913   5.803   0.687
10148SOL    HW231344   5.965   5.688   0.583
10149SOL     OW31345   4.159   2.279   1.342
10149SOL    HW131346   4.152   2.258   1.439
10149SOL    HW231347   4.168   2.194   1.290
10150SOL     OW31348   4.920   4.347   0.614
10150SOL    HW131349   4.973   4.268   0.584
10150SOL    HW231350   4.869   4.323   0.697
10151SOL     OW31351   1.321   0.086   6.253
10151SOL    HW131352   1.352   0.108   6.346
10151SOL    HW231353   1.393   0.037   6.205
10152SOL     OW31354   0.305   5.016   3.883
10152SOL    HW131355   0.317   4.994   3.979
10152SOL    HW231356   0.388   4.993   3.832
10153SOL     OW31357   4.854   6.263   3.788
10153SOL    HW131358   4.913   6.186   3.765
10153SOL    HW231359   4.909   6.333   3.835
10154SOL     OW31360   6.766   5.523   6.037
10154SOL    HW131361   6.714   5.510   5.953
10154SOL    HW231362   6.847   5.465   6.036
10155SOL     OW31363   4.153   0.916   5.816
10155SOL    HW131364   4.063   0.891   5.782
10155SOL    HW231365   4.155   1.014   5.835
10156SOL     OW31366   5.202   0.152   2.148
10156SOL    HW131367   5.256   0.121   2.070
10156SOL    HW231368   5.212   0.087   2.224
10157SOL     OW31369   5.764   1.001   6.193
10157SOL    HW131370   5.796   0.924   6.248
10157SOL    HW231371   5.786   1.086   6.239
10158SOL     OW31372   4.413   3.412   0.197
10158SOL    HW131373   4.395   3.478   0.270
10158SOL    HW231374   4.491   3.442   0.142
10159SOL     OW31375   2.171   2.190   6.127
10159SOL    HW131376   2.252   2.234   6.166
10159SOL    HW231377   2.107   2.261   6.097
10160SOL     OW31378   0.654   4.896   3.618
10160SOL    HW131379   0.608   4.866   3.701
10160SOL    HW231380   0.669   4.817   3.558
10161SOL     OW31381   3.372   5.327   6.279
10161SOL    HW131382   3.321   5.248   6.312
10161SOL    HW231383   3.320   5.410   6.298
10162SOL     OW31384   2.351   2.721   5.935
10162SOL    HW131385   2.300   2.807   5.930
10162SOL    HW231386   2.321   2.669   6.015
10163SOL     OW31387   6.638   3.997   5.855
10163SOL    HW131388   6.624   3.900   5.839
10163SOL    HW231389   6.576   4.028   5.928
10164SOL     OW31390   6.308   3.015   5.056
10164SOL    HW131391   6.386   3.068   5.091
10164SOL    HW231392   6.317   3.005   4.957
10165SOL     OW31393   0.701   2.171   4.531
10165SOL    HW131394   0.770   2.158   4.459
10165SOL    HW231395   0.708   2.264   4.567
10166SOL     OW31396   2.563   1.759   1.843
10166SOL    HW131397   2.505   1.830   1.885
10166SOL    HW231398   2.658   1.789   1.844
10167SOL     OW31399   4.795   0.778   6.595
10167SOL    HW131400   4.815   0.748   6.502
10167SOL    HW231401   4.785   0.877   6.597
10168SOL     OW31402   6.674   4.077   4.282
10168SOL    HW131403   6.659   4.108   4.376
10168SOL    HW231404   6.683   3.977   4.281
10169SOL     OW31405   6.436   4.959   3.032
10169SOL    HW131406   6.474   4.955   3.125
10169SOL    HW231407   6.346   4.916   3.031
10170SOL     OW31408   1.288   3.909   5.226
10170SOL    HW131409   1.226   3.927   5.150
10170SOL    HW231410   1.290   3.988   5.287
10171SOL     OW31411   6.579   4.303   5.521
10171SOL    HW131412   6.648   4.322   5.452
10171SOL    HW231413   6.611   4.230   5.582
10172SOL     OW31414   4.876   0.324   2.662
10172SOL    HW131415   4.820   0.406   2.672
10172SOL    HW231416   4.967   0.342   2.698
10173SOL     OW31417   1.609   1.621   1.352
10173SOL    HW131418   1.544   1.566   1.405
10173SOL    HW231419   1.607   1.592   1.257
10174SOL     OW31420   6.279   4.720   2.665
10174SOL    HW131421   6.197   4.730   2.609
10174SOL    HW231422   6.323   4.809   2.676
10175SOL     OW31423   6.318   2.320   5.168
10175SOL    HW131424   6.344   2.264   5.247
10175SOL    HW231425   6.386   2.309   5.095
10176SOL     OW31426   1.932   3.535   6.479
10176SOL    HW131427   2.000   3.462   6.479
10176SOL    HW231428   1.863   3.516   6.549
10177SOL     OW31429   2.978   6.800   0.366
10177SOL    HW131430   3.011   6.828   0.276
10177SOL    HW231431   3.055   6.768   0.421
10178SOL     OW31432   5.980   2.340   4.497
10178SOL    HW131433   6.034   2.412   4.540
10178SOL    HW231434   5.906   2.313   4.558
10179SOL     OW31435   1.485   2.309   6.497
10179SOL    HW131436   1.401   2.350   6.460
10179SOL    HW231437   1.490   2.213   6.470
10180SOL     OW31438   2.571   5.701   5.656
10180SOL    HW131439   2.528   5.628   5.604
10180SOL    HW231440   2.544   5.790   5.619
10181SOL     OW31441   6.072   3.110   1.508
10181SOL    HW131442   6.021   3.196   1.505
10181SOL    HW231443   6.029   3.048   1.574
10182SOL     OW31444   5.833   0.686   1.539
10182SOL    HW131445   5.837   0.703   1.637
10182SOL    HW231446   5.747   0.641   1.516
10183SOL     OW31447   1.124   1.603   6.621
10183SOL    HW131448   1.055   1.534   6.642
10183SOL    HW231449   1.102   1.688   6.668
10184SOL     OW31450   4.889   1.596   6.029
10184SOL    HW131451   4.880   1.597   6.129
10184SOL    HW231452   4.802   1.622   5.987
10185SOL     OW31453   4.866   0.010   0.911
10185SOL    HW131454   4.964   7.013   0.912
10185SOL    HW231455   4.815   6.955   0.944
10186SOL     OW31456   4.687   2.758   3.089
10186SOL    HW131457   4.640   2.697   3.025
10186SOL    HW231458   4.642   2.752   3.178
10187SOL     OW31459   0.747   2.192   1.972
10187SOL    HW131460   0.705   2.166   2.058
10187SOL    HW231461   0.678   2.196   1.900
10188SOL     OW31462   3.797   6.433   0.502
10188SOL    HW131463   3.749   6.378   0.433
10188SOL    HW231464   3.737   6.446   0.581
10189SOL     OW31465   2.272   6.573   5.061
10189SOL    HW131466   2.262   6.557   4.963
10189SOL    HW231467   2.368   6.587   5.083
10190SOL     OW31468   4.485   2.484   0.035
10190SOL    HW131469   4.517   2.543   0.109
10190SOL    HW231470   4.388   2.502   0.017
10191SOL     OW31471   5.096   4.453   6.500
10191SOL    HW131472   5.043   4.373   6.528
10191SOL    HW231473   5.113   4.511   6.581
10192SOL     OW31474   3.377   0.905   4.937
10192SOL    HW131475   3.475   0.906   4.916
10192SOL    HW231476   3.331   0.975   4.882
10193SOL     OW31477   4.413   4.348   0.721
10193SOL    HW131478   4.338   4.290   0.753
10193SOL    HW231479   4.439   4.319   0.628
10194SOL     OW31480   6.021   4.343   5.624
10194SOL    HW131481   5.998   4.368   5.530
10194SOL    HW231482   6.087   4.268   5.624
10195SOL     OW31483   6.983   4.781   1.345
10195SOL    HW131484   7.024   4.855   1.399
10195SOL    HW231485   6.981   4.698   1.400
10196SOL     OW31486   6.856   1.345   5.066
10196SOL    HW131487   6.906   1.368   5.149
10196SOL    HW231488   6.896   1.394   4.988
10197SOL     OW31489   6.525   0.505   5.599
10197SOL    HW131490   6.523   0.446   5.680
10197SOL    HW231491   6.620   0.529   5.577
10198SOL     OW31492   3.845   0.134   2.586
10198SOL    HW131493   3.745   0.135   2.585
10198SOL    HW231494   3.878   0.211   2.641
10199SOL     OW31495   0.991   2.869   5.420
10199SOL    HW131496   0.949   2.916   5.497
10199SOL    HW231497   0.965   2.915   5.335
10200SOL     OW31498   5.851   2.829   1.158
10200SOL    HW131499   5.814   2.921   1.161
10200SOL    HW231500   5.951   2.833   1.163
10201SOL     OW31501   1.007   4.238   1.218
10201SOL    HW131502   1.040   4.207   1.308
10201SOL    HW231503   1.017   4.164   1.152
10202SOL     OW31504   4.094   1.271   5.593
10202SOL    HW131505   4.159   1.301   5.523
10202SOL    HW231506   4.052   1.350   5.637
10203SOL     OW31507   5.841   2.808   4.936
10203SOL    HW131508   5.884   2.720   4.956
10203SOL    HW231509   5.778   2.831   5.011
10204SOL     OW31510   5.014   6.954   6.189
10204SOL    HW131511   4.920   6.985   6.204
10204SOL    HW231512   5.017   6.893   6.110
10205SOL     OW31513   1.091   0.841   6.822
10205SOL    HW131514   1.156   0.828   6.897
10205SOL    HW231515   1.131   0.807   6.737
10206SOL     OW31516   1.262   0.938   5.715
10206SOL    HW131517   1.174   0.983   5.726
10206SOL    HW231518   1.257   0.846   5.754
10207SOL     OW31519   1.448   1.565   5.896
10207SOL    HW131520   1.477   1.511   5.817
10207SOL    HW231521   1.465   1.514   5.980
10208SOL     OW31522   6.206   4.848   5.132
10208SOL    HW131523   6.172   4.757   5.111
10208SOL    HW231524   6.140   4.916   5.100
10209SOL     OW31525   6.792   6.851   6.528
10209SOL    HW131526   6.788   6.945   6.562
10209SOL    HW231527   6.737   6.844   6.445
10210SOL     OW31528   4.093   5.927   1.484
10210SOL    HW131529   3.997   5.899   1.477
10210SOL    HW231530   4.128   5.949   1.393
10211SOL     OW31531   4.255   6.040   5.529
10211SOL    HW131532   4.241   6.138   5.519
10211SOL    HW231533   4.166   5.994   5.531
10212SOL     OW31534   0.944   0.254   6.148
10212SOL    HW131535   1.005   0.182   6.114
10212SOL    HW231536   0.957   0.337   6.094
10213SOL     OW31537   5.117   1.958   0.351
10213SOL    HW131538   5.086   1.891   0.418
10213SOL    HW231539   5.120   1.916   0.260
10214SOL     OW31540   0.334   2.821   1.377
10214SOL    HW131541   0.325   2.769   1.462
10214SOL    HW231542   0.401   2.895   1.391
10215SOL     OW31543   3.471   3.300   2.565
10215SOL    HW131544   3.448   3.265   2.474
10215SOL    HW231545   3.561   3.344   2.561
10216SOL     OW31546   6.711   0.108   1.911
10216SOL    HW131547   6.769   0.188   1.896
10216SOL    HW231548   6.769   0.027   1.922
10217SOL     OW31549   2.784   0.994   3.200
10217SOL    HW131550   2.864   1.003   3.258
10217SOL    HW231551   2.803   0.929   3.126
10218SOL     OW31552   1.338   2.667   2.778
10218SOL    HW131553   1.408   2.602   2.808
10218SOL    HW231554   1.380   2.737   2.720
10219SOL     OW31555   0.602   0.968   2.476
10219SOL    HW131556   0.701   0.984   2.477
10219SOL    HW231557   0.584   0.874   2.447
10220SOL     OW31558   3.368   2.553   1.749
10220SOL    HW131559   3.315   2.482   1.704
10220SOL    HW231560   3.458   2.517   1.774
10221SOL     OW31561   1.128   5.932   3.180
10221SOL    HW131562   1.044   5.984   3.199
10221SOL    HW231563   1.205   5.995   3.172
10222SOL     OW31564   3.231   4.134   4.629
10222SOL    HW131565   3.239   4.231   4.652
10222SOL    HW231566   3.258   4.120   4.534
10223SOL     OW31567   0.913   5.533   1.744
10223SOL    HW131568   0.846   5.590   1.791
10223SOL    HW231569   0.881   5.439   1.740
10224SOL     OW31570   5.984   4.170   3.035
10224SOL    HW131571   6.046   4.177   3.112
10224SOL    HW231572   6.024   4.217   2.956
10225SOL     OW31573   2.455   3.495   6.136
10225SOL    HW131574   2.502   3.543   6.210
10225SOL    HW231575   2.522   3.440   6.085
10226SOL     OW31576   4.320   2.888   0.100
10226SOL    HW131577   4.271   2.812   0.144
10226SOL    HW231578   4.320   2.875   0.001
10227SOL     OW31579   5.478   3.824   1.209
10227SOL    HW131580   5.420   3.746   1.231
10227SOL    HW231581   5.509   3.819   1.114
10228SOL     OW31582   5.251   0.645   0.733
10228SOL    HW131583   5.202   0.731   0.745
10228SOL    HW231584   5.329   0.660   0.672
10229SOL     OW31585   0.434   3.829   4.248
10229SOL    HW131586   0.525   3.847   4.213
10229SOL    HW231587   0.395   3.914   4.286
10230SOL     OW31588   6.913   6.530   2.104
10230SOL    HW131589   6.933   6.545   2.007
10230SOL    HW231590   6.931   6.613   2.156
10231SOL     OW31591   1.744   5.598   3.463
10231SOL    HW131592   1.738   5.601   3.363
10231SOL    HW231593   1.689   5.672   3.502
10232SOL     OW31594   4.813   5.830   3.772
10232SOL    HW131595   4.863   5.809   3.688
10232SOL    HW231596   4.866   5.895   3.827
10233SOL     OW31597   4.284   4.409   6.365
10233SOL    HW131598   4.239   4.484   6.413
10233SOL    HW231599   4.234   4.389   6.281
10234SOL     OW31600   0.091   0.616   1.585
10234SOL    HW131601   0.017   0.683   1.586
10234SOL    HW231602   0.077   0.552   1.509
10235SOL     OW31603   1.283   1.487   3.157
10235SOL    HW131604   1.249   1.417   3.218
10235SOL    HW231605   1.375   1.515   3.186
10236SOL     OW31606   2.505   6.788   1.885
10236SOL    HW131607   2.540   6.708   1.835
10236SOL    HW231608   2.417   6.814   1.846
10237SOL     OW31609   0.167   3.443   6.427
10237SOL    HW131610   0.093   3.376   6.423
10237SOL    HW231611   0.203   3.460   6.336
10238SOL     OW31612   3.569   6.021   1.364
10238SOL    HW131613   3.569   6.004   1.463
10238SOL    HW231614   3.660   6.004   1.327
10239SOL     OW31615   1.834   2.784   4.366
10239SOL    HW131616   1.797   2.818   4.453
10239SOL    HW231617   1.779   2.707   4.334
10240SOL     OW31618   2.894   6.255   1.097
10240SOL    HW131619   2.796   6.239   1.112
10240SOL    HW231620   2.911   6.271   1.000
10241SOL     OW31621   3.968   2.284   1.853
10241SOL    HW131622   4.010   2.341   1.783
10241SOL    HW231623   3.873   2.312   1.866
10242SOL     OW31624   6.958   2.582   0.038
10242SOL    HW131625   6.901   2.501   0.056
10242SOL    HW231626   0.020   2.573   0.087
10243SOL     OW31627   2.386   5.378   0.751
10243SOL    HW131628   2.357   5.292   0.710
10243SOL    HW231629   2.338   5.391   0.838
10244SOL     OW31630   2.516   4.097   1.446
10244SOL    HW131631   2.537   4.174   1.386
10244SOL    HW231632   2.595   4.077   1.504
10245SOL     OW31633   4.055   4.373   0.588
10245SOL    HW131634   4.131   4.312   0.612
10245SOL    HW231635   3.969   4.322   0.591
10246SOL     OW31636   3.505   3.451   4.774
10246SOL    HW131637   3.409   3.478   4.759
10246SOL    HW231638   3.544   3.418   4.689
10247SOL     OW31639   0.760   2.577   4.876
10247SOL    HW131640   0.829   2.643   4.848
10247SOL    HW231641   0.799   2.513   4.942
10248SOL     OW31642   1.000   0.059   3.509
10248SOL    HW131643   1.032   0.152   3.520
10248SOL    HW231644   0.978   0.042   3.413
10249SOL     OW31645   2.921   4.778   6.219
10249SOL    HW131646   2.854   4.806   6.150
10249SOL    HW231647   2.938   4.680   6.212
10250SOL     OW31648   4.942   2.159   0.079
10250SOL    HW131649   4.869   2.226   0.090
10250SOL    HW231650   5.019   2.183   0.139
10251SOL     OW31651   2.143   0.168   4.659
10251SOL    HW131652   2.086   0.251   4.662
10251SOL    HW231653   2.231   0.190   4.616
10252SOL     OW31654   5.439   4.254   5.974
10252SOL    HW131655   5.511   4.194   5.939
10252SOL    HW231656   5.369   4.198   6.020
10253SOL     OW31657   3.986   6.866   6.598
10253SOL    HW131658   3.951   6.926   6.526
10253SOL    HW231659   4.049   6.917   6.657
10254SOL     OW31660   5.236   1.137   4.582
10254SOL    HW131661   5.242   1.205   4.509
10254SOL    HW231662   5.320   1.083   4.584
10255SOL     OW31663   3.842   5.296   1.903
10255SOL    HW131664   3.876   5.231   1.971
10255SOL    HW231665   3.745   5.315   1.921
10256SOL     OW31666   4.120   0.727   2.959
10256SOL    HW131667   4.073   0.809   2.994
10256SOL    HW231668   4.194   0.755   2.899
10257SOL     OW31669   3.288   5.110   2.910
10257SOL    HW131670   3.333   5.051   2.844
10257SOL    HW231671   3.355   5.171   2.953
10258SOL     OW31672   1.926   1.555   1.681
10258SOL    HW131673   1.998   1.599   1.735
10258SOL    HW231674   1.892   1.618   1.612
10259SOL     OW31675   0.534   3.729   3.755
10259SOL    HW131676   0.558   3.759   3.663
10259SOL    HW231677   0.577   3.788   3.823
10260SOL     OW31678   1.162   1.141   3.541
10260SOL    HW131679   1.246   1.177   3.584
10260SOL    HW231680   1.184   1.104   3.451
10261SOL     OW31681   6.614   3.519   1.147
10261SOL    HW131682   6.613   3.549   1.052
10261SOL    HW231683   6.598   3.421   1.151
10262SOL     OW31684   3.404   1.400   0.053
10262SOL    HW131685   3.404   1.382   6.979
10262SOL    HW231686   3.407   1.499   0.068
10263SOL     OW31687   6.018   0.476   1.646
10263SOL    HW131688   6.107   0.495   1.606
10263SOL    HW231689   5.955   0.550   1.624
10264SOL     OW31690   6.674   5.155   6.750
10264SOL    HW131691   6.746   5.156   6.679
10264SOL    HW231692   6.627   5.067   6.746
10265SOL     OW31693   1.855   1.804   0.166
10265SOL    HW131694   1.877   1.889   0.214
10265SOL    HW231695   1.939   1.766   0.127
10266SOL     OW31696   2.894   3.526   2.139
10266SOL    HW131697   2.844   3.511   2.224
10266SOL    HW231698   2.915   3.438   2.096
10267SOL     OW31699   5.942   1.006   0.922
10267SOL    HW131700   6.015   1.074   0.918
10267SOL    HW231701   5.953   0.941   0.847
10268SOL     OW31702   4.249   0.582   1.326
10268SOL    HW131703   4.255   0.660   1.388
10268SOL    HW231704   4.255   0.613   1.232
10269SOL     OW31705   2.433   1.905   6.580
10269SOL    HW131706   2.385   1.833   6.530
10269SOL    HW231707   2.375   1.986   6.585
10270SOL     OW31708   3.040   6.186   2.182
10270SOL    HW131709   2.951   6.163   2.141
10270SOL    HW231710   3.031   6.192   2.281
10271SOL     OW31711   1.342   2.086   0.041
10271SOL    HW131712   1.244   2.086   0.021
10271SOL    HW231713   1.372   2.179   0.060
10272SOL     OW31714   6.412   0.156   4.635
10272SOL    HW131715   6.450   0.073   4.674
10272SOL    HW231716   6.313   0.145   4.622
10273SOL     OW31717   2.275   5.133   3.470
10273SOL    HW131718   2.208   5.192   3.515
10273SOL    HW231719   2.298   5.057   3.531
10274SOL     OW31720   0.203   5.084   5.246
10274SOL    HW131721   0.298   5.063   5.222
10274SOL    HW231722   0.142   5.049   5.174
10275SOL     OW31723   0.328   0.580   3.115
10275SOL    HW131724   0.303   0.667   3.072
10275SOL    HW231725   0.274   0.507   3.074
10276SOL     OW31726   3.802   6.025   5.974
10276SOL    HW131727   3.884   6.055   5.925
10276SOL    HW231728   3.827   5.994   6.066
10277SOL     OW31729   0.468   6.478   4.501
10277SOL    HW131730   0.457   6.414   4.426
10277SOL    HW231731   0.473   6.428   4.588
10278SOL     OW31732   0.098   0.425   5.291
10278SOL    HW131733   0.120   0.350   5.229
10278SOL    HW231734   0.105   0.392   5.386
10279SOL     OW31735   1.665   5.900   4.240
10279SOL    HW131736   1.647   5.998   4.226
10279SOL    HW231737   1.750   5.889   4.292
10280SOL     OW31738   5.354   4.121   0.400
10280SOL    HW131739   5.353   4.068   0.485
10280SOL    HW231740   5.439   4.105   0.351
10281SOL     OW31741   6.864   2.340   4.093
10281SOL    HW131742   6.935   2.270   4.086
10281SOL    HW231743   6.891   2.409   4.160
10282SOL     OW31744   5.242   3.786   3.120
10282SOL    HW131745   5.278   3.788   3.027
10282SOL    HW231746   5.311   3.745   3.181
10283SOL     OW31747   0.712   3.751   0.840
10283SOL    HW131748   0.810   3.767   0.833
10283SOL    HW231749   0.663   3.829   0.800
10284SOL     OW31750   0.451   2.795   3.983
10284SOL    HW131751   0.404   2.842   3.908
10284SOL    HW231752   0.512   2.725   3.944
10285SOL     OW31753   5.452   6.175   4.684
10285SOL    HW131754   5.432   6.119   4.765
10285SOL    HW231755   5.538   6.145   4.643
10286SOL     OW31756   2.667   1.304   4.374
10286SOL    HW131757   2.619   1.301   4.462
10286SOL    HW231758   2.631   1.233   4.314
10287SOL     OW31759   2.142   5.735   3.175
10287SOL    HW131760   2.097   5.647   3.190
10287SOL    HW231761   2.233   5.720   3.137
10288SOL     OW31762   3.835   6.943   5.651
10288SOL    HW131763   3.919   6.950   5.597
10288SOL    HW231764   3.755   6.952   5.591
10289SOL     OW31765   2.694   5.961   6.452
10289SOL    HW131766   2.673   5.986   6.547
10289SOL    HW231767   2.735   5.870   6.450
10290SOL     OW31768   3.049   3.202   2.408
10290SOL    HW131769   3.086   3.295   2.404
10290SOL    HW231770   2.957   3.205   2.448
10291SOL     OW31771   2.331   1.541   2.422
10291SOL    HW131772   2.391   1.462   2.420
10291SOL    HW231773   2.355   1.604   2.348
10292SOL     OW31774   6.240   6.376   6.563
10292SOL    HW131775   6.223   6.474   6.574
10292SOL    HW231776   6.339   6.359   6.564
10293SOL     OW31777   0.972   4.272   4.209
10293SOL    HW131778   1.035   4.240   4.279
10293SOL    HW231779   0.894   4.318   4.252
10294SOL     OW31780   3.466   1.689   2.099
10294SOL    HW131781   3.441   1.731   2.012
10294SOL    HW231782   3.450   1.754   2.173
10295SOL     OW31783   0.969   2.298   6.864
10295SOL    HW131784   0.908   2.369   6.829
10295SOL    HW231785   0.929   2.208   6.848
10296SOL     OW31786   5.908   1.391   6.019
10296SOL    HW131787   5.829   1.445   5.989
10296SOL    HW231788   5.957   1.440   6.091
10297SOL     OW31789   2.925   1.788   6.604
10297SOL    HW131790   2.898   1.864   6.546
10297SOL    HW231791   2.954   1.711   6.548
10298SOL     OW31792   0.509   2.326   2.774
10298SOL    HW131793   0.423   2.374   2.788
10298SOL    HW231794   0.551   2.357   2.688
10299SOL     OW31795   4.251   6.209   2.523
10299SOL    HW131796   4.168   6.206   2.578
10299SOL    HW231797   4.331   6.219   2.582
10300SOL     OW31798   0.156   3.284   1.459
10300SOL    HW131799   0.135   3.209   1.523
10300SOL    HW231800   0.237   3.260   1.406
10301SOL     OW31801   4.043   1.110   6.156
10301SOL    HW131802   4.082   1.043   6.220
10301SOL    HW231803   4.043   1.072   6.064
10302SOL     OW31804   2.928   5.868   4.517
10302SOL    HW131805   2.874   5.842   4.596
10302SOL    HW231806   2.867   5.896   4.442
10303SOL     OW31807   0.687   6.030   4.953
10303SOL    HW131808   0.644   6.109   4.998
10303SOL    HW231809   0.784   6.029   4.975
10304SOL     OW31810   6.474   6.870   0.111
10304SOL    HW131811   6.474   6.967   0.086
10304SOL    HW231812   6.380   6.840   0.126
10305SOL     OW31813   2.263   4.149   5.991
10305SOL    HW131814   2.196   4.084   5.957
10305SOL    HW231815   2.329   4.102   6.050
10306SOL     OW31816   5.300   0.085   1.418
10306SOL    HW131817   5.354   0.168   1.405
10306SOL    HW231818   5.207   0.100   1.383
10307SOL     OW31819   2.543   0.274   5.013
10307SOL    HW131820   2.514   0.197   5.070
10307SOL    HW231821   2.463   0.321   4.976
10308SOL     OW31822   2.686   4.635   2.764
10308SOL    HW131823   2.647   4.545   2.743
10308SOL    HW231824   2.614   4.704   2.766
10309SOL     OW31825   6.308   0.905   5.243
10309SOL    HW131826   6.390   0.851   5.230
10309SOL    HW231827   6.265   0.881   5.330
10310SOL     OW31828   3.257   2.674   5.935
10310SOL    HW131829   3.240   2.769   5.961
10310SOL    HW231830   3.184   2.643   5.873
10311SOL     OW31831   5.521   6.332   7.017
10311SOL    HW131832   5.460   6.297   0.064
10311SOL    HW231833   5.490   6.423   6.989
10312SOL     OW31834   4.626   0.032   1.936
10312SOL    HW131835   4.541   0.043   1.988
10312SOL    HW231836   4.694   7.010   1.992
10313SOL     OW31837   4.778   6.450   2.956
10313SOL    HW131838   4.774   6.472   3.053
10313SOL    HW231839   4.798   6.532   2.903
10314SOL     OW31840   0.779   7.006   0.992
10314SOL    HW131841   0.756   6.947   1.070
10314SOL    HW231842   0.845   0.050   1.021
10315SOL     OW31843   5.206   6.364   3.627
10315SOL    HW131844   5.133   6.363   3.558
10315SOL    HW231845   5.168   6.391   3.715
10316SOL     OW31846   0.167   2.498   6.677
10316SOL    HW131847   0.254   2.475   6.634
10316SOL    HW231848   0.183   2.526   6.772
10317SOL     OW31849   3.340   5.997   5.985
10317SOL    HW131850   3.294   5.908   5.989
10317SOL    HW231851   3.438   5.983   5.999
10318SOL     OW31852   6.177   6.652   6.976
10318SOL    HW131853   6.079   6.655   6.956
10318SOL    HW231854   6.195   6.705   0.035
10319SOL     OW31855   0.094   4.616   4.633
10319SOL    HW131856   0.079   4.692   4.697
10319SOL    HW231857   0.040   4.632   4.550
10320SOL     OW31858   0.765   0.221   3.858
10320SOL    HW131859   0.745   0.284   3.782
10320SOL    HW231860   0.821   0.269   3.926
10321SOL     OW31861   5.450   2.212   1.927
10321SOL    HW131862   5.390   2.253   1.858
10321SOL    HW231863   5.465   2.278   2.001
10322SOL     OW31864   4.591   4.395   4.788
10322SOL    HW131865   4.557   4.429   4.700
10322SOL    HW231866   4.527   4.420   4.860
10323SOL     OW31867   0.173   4.423   5.114
10323SOL    HW131868   0.219   4.379   5.037
10323SOL    HW231869   0.105   4.488   5.080
10324SOL     OW31870   3.315   3.466   2.200
10324SOL    HW131871   3.411   3.439   2.192
10324SOL    HW231872   3.305   3.562   2.174
10325SOL     OW31873   0.708   6.023   2.883
10325SOL    HW131874   0.629   5.994   2.828
10325SOL    HW231875   0.691   6.000   2.979
10326SOL     OW31876   5.695   3.554   6.601
10326SOL    HW131877   5.718   3.625   6.535
10326SOL    HW231878   5.690   3.594   6.692
10327SOL     OW31879   2.717   4.007   1.264
10327SOL    HW131880   2.619   4.012   1.280
10327SOL    HW231881   2.749   3.914   1.282
10328SOL     OW31882   6.655   3.050   2.173
10328SOL    HW131883   6.657   3.061   2.074
10328SOL    HW231884   6.560   3.046   2.205
10329SOL     OW31885   3.531   1.612   2.991
10329SOL    HW131886   3.498   1.632   2.899
10329SOL    HW231887   3.600   1.540   2.987
10330SOL     OW31888   4.436   0.433   1.388
10330SOL    HW131889   4.465   0.460   1.480
10330SOL    HW231890   4.369   0.499   1.353
10331SOL     OW31891   6.292   5.725   0.151
10331SOL    HW131892   6.323   5.647   0.097
10331SOL    HW231893   6.229   5.780   0.097
10332SOL     OW31894   1.276   1.197   0.389
10332SOL    HW131895   1.358   1.177   0.442
10332SOL    HW231896   1.209   1.124   0.401
10333SOL     OW31897   1.188   5.463   4.536
10333SOL    HW131898   1.208   5.518   4.455
10333SOL    HW231899   1.123   5.390   4.513
10334SOL     OW31900   3.240   0.336   3.829
10334SOL    HW131901   3.301   0.291   3.894
10334SOL    HW231902   3.223   0.430   3.860
10335SOL     OW31903   0.357   3.494   5.777
10335SOL    HW131904   0.309   3.551   5.843
10335SOL    HW231905   0.436   3.450   5.821
10336SOL     OW31906   5.431   0.147   2.941
10336SOL    HW131907   5.478   0.230   2.910
10336SOL    HW231908   5.488   0.101   3.010
10337SOL     OW31909   6.225   5.118   0.319
10337SOL    HW131910   6.312   5.082   0.351
10337SOL    HW231911   6.151   5.057   0.347
10338SOL     OW31912   1.842   6.568   2.071
10338SOL    HW131913   1.894   6.503   2.015
10338SOL    HW231914   1.900   6.647   2.091
10339SOL     OW31915   6.878   2.222   5.927
10339SOL    HW131916   6.956   2.161   5.941
10339SOL    HW231917   6.818   2.220   6.007
10340SOL     OW31918   2.014   3.772   6.353
10340SOL    HW131919   2.064   3.763   6.267
10340SOL    HW231920   1.969   3.685   6.374
10341SOL     OW31921   2.157   2.718   2.585
10341SOL    HW131922   2.206   2.695   2.501
10341SOL    HW231923   2.209   2.786   2.636
10342SOL     OW31924   1.253   0.607   3.801
10342SOL    HW131925   1.172   0.551   3.781
10342SOL    HW231926   1.228   0.704   3.793
10343SOL     OW31927   2.232   5.646   0.839
10343SOL    HW131928   2.259   5.561   0.882
10343SOL    HW231929   2.277   5.723   0.885
10344SOL     OW31930   3.866   4.707   6.494
10344SOL    HW131931   3.858   4.794   6.542
10344SOL    HW231932   3.794   4.645   6.525
10345SOL     OW31933   0.980   3.075   4.954
10345SOL    HW131934   0.945   3.130   4.878
10345SOL    HW231935   1.077   3.094   4.966
10346SOL     OW31936   0.605   6.041   1.894
10346SOL    HW131937   0.543   6.042   1.973
10346SOL    HW231938   0.552   6.056   1.810
10347SOL     OW31939   4.661   1.561   3.639
10347SOL    HW131940   4.661   1.517   3.549
10347SOL    HW231941   4.745   1.537   3.687
10348SOL     OW31942   6.313   4.015   0.588
10348SOL    HW131943   6.274   4.107   0.582
10348SOL    HW231944   6.409   4.021   0.614
10349SOL     OW31945   0.286   6.367   6.411
10349SOL    HW131946   0.295   6.450   6.466
10349SOL    HW231947   0.191   6.355   6.384
10350SOL     OW31948   2.869   6.821   5.374
10350SOL    HW131949   2.912   6.741   5.415
10350SOL    HW231950   2.913   6.904   5.407
10351SOL     OW31951   4.333   5.051   5.911
10351SOL    HW131952   4.389   4.971   5.888
10351SOL    HW231953   4.293   5.089   5.828
10352SOL     OW31954   3.883   2.241   5.862
10352SOL    HW131955   3.886   2.209   5.956
10352SOL    HW231956   3.865   2.163   5.801
10353SOL     OW31957   6.514   2.711   4.644
10353SOL    HW131958   6.530   2.621   4.684
10353SOL    HW231959   6.594   2.769   4.658
10354SOL     OW31960   5.342   1.384   2.018
10354SOL    HW131961   5.382   1.475   2.024
10354SOL    HW231962   5.247   1.386   2.050
10355SOL     OW31963   2.428   5.842   2.428
10355SOL    HW131964   2.446   5.782   2.351
10355SOL    HW231965   2.457   5.935   2.405
10356SOL     OW31966   6.997   4.032   5.280
10356SOL    HW131967   6.950   3.983   5.207
10356SOL    HW231968   6.959   4.004   5.368
10357SOL     OW31969   2.453   1.795   6.893
10357SOL    HW131970   2.504   1.804   6.978
10357SOL    HW231971   2.512   1.758   6.822
10358SOL     OW31972   0.216   1.872   1.667
10358SOL    HW131973   0.313   1.897   1.666
10358SOL    HW231974   0.160   1.952   1.645
10359SOL     OW31975   7.005   1.100   1.869
10359SOL    HW131976   0.011   1.034   1.939
10359SOL    HW231977   6.914   1.133   1.891
10360SOL     OW31978   5.637   6.168   3.476
10360SOL    HW131979   5.661   6.129   3.564
10360SOL    HW231980   5.718   6.209   3.434
10361SOL     OW31981   2.645   5.314   1.833
10361SOL    HW131982   2.688   5.336   1.921
10361SOL    HW231983   2.593   5.393   1.801
10362SOL     OW31984   1.966   4.319   4.453
10362SOL    HW131985   1.930   4.227   4.468
10362SOL    HW231986   2.038   4.316   4.383
10363SOL     OW31987   4.984   0.859   3.496
10363SOL    HW131988   4.891   0.897   3.493
10363SOL    HW231989   5.034   0.898   3.574
10364SOL     OW31990   1.923   4.807   1.469
10364SOL    HW131991   2.003   4.800   1.408
10364SOL    HW231992   1.955   4.815   1.564
10365SOL     OW31993   4.850   5.593   0.064
10365SOL    HW131994   4.918   5.607   0.135
10365SOL    HW231995   4.802   5.506   0.079
10366SOL     OW31996   3.120   6.600   3.108
10366SOL    HW131997   3.192   6.532   3.092
10366SOL    HW231998   3.149   6.661   3.182
10367SOL     OW31999   6.500   2.631   3.441
10367SOL    HW132000   6.530   2.695   3.512
10367SOL    HW232001   6.410   2.595   3.465
10368SOL     OW32002   2.043   0.922   1.447
10368SOL    HW132003   1.978   0.985   1.489
10368SOL    HW232004   2.136   0.949   1.471
10369SOL     OW32005   3.732   2.624   0.049
10369SOL    HW132006   3.654   2.564   0.070
10369SOL    HW232007   3.806   2.606   0.113
10370SOL     OW32008   3.985   0.766   5.437
10370SOL    HW132009   4.070   0.714   5.428
10370SOL    HW232010   4.006   0.861   5.458
10371SOL     OW32011   4.961   6.629   5.214
10371SOL    HW132012   4.889   6.560   5.204
10371SOL    HW232013   5.047   6.584   5.240
10372SOL     OW32014   2.049   0.785   3.846
10372SOL    HW132015   2.010   0.699   3.813
10372SOL    HW232016   2.101   0.829   3.774
10373SOL     OW32017   0.553   6.124   4.557
10373SOL    HW132018   0.565   6.212   4.603
10373SOL    HW232019   0.600   6.126   4.469
10374SOL     OW32020   2.759   2.275   2.805
10374SOL    HW132021   2.839   2.335   2.811
10374SOL    HW232022   2.686   2.322   2.756
10375SOL     OW32023   5.574   2.295   0.805
10375SOL    HW132024   5.560   2.278   0.903
10375SOL    HW232025   5.490   2.335   0.767
10376SOL     OW32026   0.758   1.009   3.811
10376SOL    HW132027   0.819   0.992   3.733
10376SOL    HW232028   0.676   1.057   3.778
10377SOL     OW32029   1.265   0.368   4.370
10377SOL    HW132030   1.277   0.308   4.450
10377SOL    HW232031   1.213   0.320   4.300
10378SOL     OW32032   0.142   0.229   6.638
10378SOL    HW132033   0.054   0.232   6.590
10378SOL    HW232034   0.152   0.141   6.685
10379SOL     OW32035   5.326   1.493   4.098
10379SOL    HW132036   5.352   1.577   4.146
10379SOL    HW232037   5.230   1.473   4.116
10380SOL     OW32038   5.281   0.443   2.139
10380SOL    HW132039   5.230   0.509   2.195
10380SOL    HW232040   5.249   0.351   2.159
10381SOL     OW32041   4.733   4.950   5.574
10381SOL    HW132042   4.769   4.909   5.490
10381SOL    HW232043   4.720   4.878   5.642
10382SOL     OW32044   2.357   5.288   0.037
10382SOL    HW132045   2.358   5.388   0.047
10382SOL    HW232046   2.402   5.247   0.116
10383SOL     OW32047   0.407   2.467   0.563
10383SOL    HW132048   0.352   2.549   0.549
10383SOL    HW232049   0.428   2.425   0.475
10384SOL     OW32050   6.124   0.055   0.176
10384SOL    HW132051   6.197   0.079   0.239
10384SOL    HW232052   6.061   7.016   0.220
10385SOL     OW32053   6.069   1.492   6.485
10385SOL    HW132054   6.095   1.551   6.562
10385SOL    HW232055   6.019   1.413   6.520
10386SOL     OW32056   6.111   2.632   5.868
10386SOL    HW132057   6.069   2.678   5.790
10386SOL    HW232058   6.104   2.690   5.949
10387SOL     OW32059   1.986   2.917   3.208
10387SOL    HW132060   1.929   2.837   3.220
10387SOL    HW232061   2.057   2.918   3.279
10388SOL     OW32062   1.573   4.896   2.859
10388SOL    HW132063   1.592   4.962   2.932
10388SOL    HW232064   1.524   4.818   2.897
10389SOL     OW32065   0.664   4.775   3.195
10389SOL    HW132066   0.735   4.770   3.265
10389SOL    HW232067   0.585   4.823   3.231
10390SOL     OW32068   1.438   3.179   3.839
10390SOL    HW132069   1.339   3.168   3.834
10390SOL    HW232070   1.482   3.091   3.818
10391SOL     OW32071   2.527   6.647   6.139
10391SOL    HW132072   2.439   6.642   6.092
10391SOL    HW232073   2.520   6.709   6.217
10392SOL     OW32074   6.546   5.381   0.210
10392SOL    HW132075   6.559   5.284   0.231
10392SOL    HW232076   6.471   5.391   0.145
10393SOL     OW32077   1.344   1.294   3.990
10393SOL    HW132078   1.320   1.197   3.988
10393SOL    HW232079   1.339   1.331   3.897
10394SOL     OW32080   1.906   6.677   0.041
10394SOL    HW132081   1.981   6.742   0.033
10394SOL    HW232082   1.830   6.707   7.008
10395SOL     OW32083   0.511   1.358   4.801
10395SOL    HW132084   0.605   1.328   4.785
10395SOL    HW232085   0.494   1.363   4.900
10396SOL     OW32086   0.462   0.219   5.330
10396SOL    HW132087   0.437   0.233   5.234
10396SOL    HW232088   0.408   0.143   5.367
10397SOL     OW32089   4.025   1.478   2.686
10397SOL    HW132090   4.077   1.419   2.748
10397SOL    HW232091   3.941   1.508   2.730
10398SOL     OW32092   6.909   2.663   2.769
10398SOL    HW132093   6.820   2.632   2.801
10398SOL    HW232094   6.925   2.628   2.677
10399SOL     OW32095   6.039   1.651   5.269
10399SOL    HW132096   6.087   1.677   5.185
10399SOL    HW232097   5.993   1.731   5.308
10400SOL     OW32098   2.487   4.782   1.641
10400SOL    HW132099   2.546   4.856   1.608
10400SOL    HW232100   2.544   4.705   1.669
10401SOL     OW32101   0.155   6.332   1.313
10401SOL    HW132102   0.120   6.298   1.400
10401SOL    HW232103   0.155   6.432   1.313
10402SOL     OW32104   0.322   3.180   4.319
10402SOL    HW132105   0.312   3.161   4.417
10402SOL    HW232106   0.402   3.132   4.284
10403SOL     OW32107   5.263   1.065   2.145
10403SOL    HW132108   5.285   0.967   2.138
10403SOL    HW232109   5.339   1.113   2.188
10404SOL     OW32110   0.510   6.410   3.771
10404SOL    HW132111   0.442   6.386   3.840
10404SOL    HW232112   0.584   6.342   3.772
10405SOL     OW32113   1.572   6.519   5.858
10405SOL    HW132114   1.665   6.482   5.863
10405SOL    HW232115   1.555   6.553   5.766
10406SOL     OW32116   2.592   4.837   6.104
10406SOL    HW132117   2.675   4.871   6.060
10406SOL    HW232118   2.524   4.815   6.034
10407SOL     OW32119   1.072   1.423   6.873
10407SOL    HW132120   1.116   1.339   6.905
10407SOL    HW232121   1.101   1.500   6.929
10408SOL     OW32122   4.105   5.150   3.461
10408SOL    HW132123   4.073   5.227   3.405
10408SOL    HW232124   4.051   5.068   3.438
10409SOL     OW32125   6.057   4.931   2.265
10409SOL    HW132126   5.973   4.950   2.316
10409SOL    HW232127   6.123   5.004   2.282
10410SOL     OW32128   5.817   6.823   0.734
10410SOL    HW132129   5.795   6.747   0.674
10410SOL    HW232130   5.751   6.897   0.720
10411SOL     OW32131   2.140   4.471   2.622
10411SOL    HW132132   2.162   4.569   2.617
10411SOL    HW232133   2.218   4.418   2.591
10412SOL     OW32134   0.479   2.253   0.048
10412SOL    HW132135   0.416   2.182   0.079
10412SOL    HW232136   0.504   2.237   6.977
10413SOL     OW32137   0.389   1.829   6.661
10413SOL    HW132138   0.359   1.922   6.642
10413SOL    HW232139   0.317   1.765   6.636
10414SOL     OW32140   5.557   6.948   5.364
10414SOL    HW132141   5.582   6.979   5.272
10414SOL    HW232142   5.638   6.947   5.422
10415SOL     OW32143   0.646   5.433   3.483
10415SOL    HW132144   0.707   5.357   3.463
10415SOL    HW232145   0.691   5.496   3.547
10416SOL     OW32146   5.114   0.441   6.476
10416SOL    HW132147   5.137   0.507   6.404
10416SOL    HW232148   5.075   0.490   6.554
10417SOL     OW32149   3.558   5.221   4.490
10417SOL    HW132150   3.651   5.228   4.452
10417SOL    HW232151   3.491   5.231   4.416
10418SOL     OW32152   6.300   4.111   6.227
10418SOL    HW132153   6.208   4.129   6.194
10418SOL    HW232154   6.296   4.065   6.316
10419SOL     OW32155   2.548   1.360   4.631
10419SOL    HW132156   2.573   1.428   4.701
10419SOL    HW232157   2.464   1.388   4.585
10420SOL     OW32158   5.673   3.762   3.301
10420SOL    HW132159   5.578   3.770   3.271
10420SOL    HW232160   5.685   3.676   3.351
10421SOL     OW32161   0.789   4.516   4.295
10421SOL    HW132162   0.714   4.579   4.314
10421SOL    HW232163   0.852   4.557   4.229
10422SOL     OW32164   6.687   3.973   5.260
10422SOL    HW132165   6.651   3.959   5.352
10422SOL    HW232166   6.665   3.894   5.203
10423SOL     OW32167   2.512   4.879   4.214
10423SOL    HW132168   2.486   4.784   4.199
10423SOL    HW232169   2.451   4.939   4.163
10424SOL     OW32170   3.325   1.077   0.458
10424SOL    HW132171   3.335   1.119   0.548
10424SOL    HW232172   3.314   0.978   0.469
10425SOL     OW32173   1.567   2.612   0.763
10425SOL    HW132174   1.478   2.657   0.749
10425SOL    HW232175   1.556   2.513   0.750
10426SOL     OW32176   6.289   2.048   6.529
10426SOL    HW132177   6.267   2.010   6.440
10426SOL    HW232178   6.205   2.086   6.570
10427SOL     OW32179   5.222   0.646   4.355
10427SOL    HW132180   5.235   0.624   4.452
10427SOL    HW232181   5.141   0.703   4.345
10428SOL     OW32182   2.446   0.358   4.137
10428SOL    HW132183   2.545   0.376   4.141
10428SOL    HW232184   2.405   0.416   4.067
10429SOL     OW32185   1.267   2.685   1.356
10429SOL    HW132186   1.364   2.697   1.375
10429SOL    HW232187   1.222   2.645   1.436
10430SOL     OW32188   3.204   0.168   3.478
10430SOL    HW132189   3.182   0.070   3.480
10430SOL    HW232190   3.126   0.220   3.511
10431SOL     OW32191   4.308   0.213   2.921
10431SOL    HW132192   4.237   0.163   2.871
10431SOL    HW232193   4.269   0.299   2.955
10432SOL     OW32194   0.544   5.376   6.398
10432SOL    HW132195   0.624   5.414   6.351
10432SOL    HW232196   0.478   5.343   6.330
10433SOL     OW32197   2.874   6.857   2.872
10433SOL    HW132198   2.843   6.951   2.861
10433SOL    HW232199   2.836   6.818   2.956
10434SOL     OW32200   5.145   0.923   5.937
10434SOL    HW132201   5.175   0.992   5.871
10434SOL    HW232202   5.145   0.963   6.029
10435SOL     OW32203   2.162   1.861   0.357
10435SOL    HW132204   2.090   1.883   0.292
10435SOL    HW232205   2.127   1.873   0.451
10436SOL     OW32206   6.745   3.549   5.147
10436SOL    HW132207   6.834   3.530   5.104
10436SOL    HW232208   6.712   3.467   5.193
10437SOL     OW32209   5.447   6.618   4.763
10437SOL    HW132210   5.511   6.668   4.822
10437SOL    HW232211   5.425   6.530   4.806
10438SOL     OW32212   6.645   5.648   6.826
10438SOL    HW132213   6.742   5.660   6.808
10438SOL    HW232214   6.623   5.686   6.916
10439SOL     OW32215   6.220   5.805   4.575
10439SOL    HW132216   6.210   5.841   4.668
10439SOL    HW232217   6.231   5.706   4.579
10440SOL     OW32218   6.120   2.582   1.076
10440SOL    HW132219   6.066   2.540   1.003
10440SOL    HW232220   6.127   2.680   1.060
10441SOL     OW32221   4.523   1.658   6.706
10441SOL    HW132222   4.558   1.627   6.794
10441SOL    HW232223   4.586   1.726   6.667
10442SOL     OW32224   2.072   1.616   5.257
10442SOL    HW132225   2.055   1.606   5.159
10442SOL    HW232226   2.004   1.677   5.297
10443SOL     OW32227   0.484   1.502   1.511
10443SOL    HW132228   0.530   1.416   1.493
10443SOL    HW232229   0.547   1.578   1.494
10444SOL     OW32230   4.061   4.991   4.599
10444SOL    HW132231   4.096   5.056   4.667
10444SOL    HW232232   3.964   4.974   4.616
10445SOL     OW32233   0.666   3.453   3.006
10445SOL    HW132234   0.574   3.414   2.997
10445SOL    HW232235   0.723   3.391   3.060
10446SOL     OW32236   2.507   4.428   5.539
10446SOL    HW132237   2.501   4.377   5.624
10446SOL    HW232238   2.601   4.428   5.506
10447SOL     OW32239   0.206   2.211   2.641
10447SOL    HW132240   0.205   2.281   2.712
10447SOL    HW232241   0.293   2.163   2.643
10448SOL     OW32242   2.183   6.588   1.564
10448SOL    HW132243   2.225   6.578   1.655
10448SOL    HW232244   2.134   6.504   1.542
10449SOL     OW32245   3.867   4.924   4.930
10449SOL    HW132246   3.801   4.929   5.005
10449SOL    HW232247   3.819   4.906   4.844
10450SOL     OW32248   6.959   0.647   5.348
10450SOL    HW132249   7.011   0.564   5.329
10450SOL    HW232250   6.877   0.649   5.291
10451SOL     OW32251   3.375   1.323   3.361
10451SOL    HW132252   3.397   1.420   3.354
10451SOL    HW232253   3.278   1.310   3.339
10452SOL     OW32254   6.094   2.548   4.626
10452SOL    HW132255   6.174   2.542   4.566
10452SOL    HW232256   6.123   2.558   4.721
10453SOL     OW32257   4.590   6.224   3.744
10453SOL    HW132258   4.572   6.126   3.758
10453SOL    HW232259   4.688   6.239   3.741
10454SOL     OW32260   6.464   1.196   6.357
10454SOL    HW132261   6.500   1.266   6.420
10454SOL    HW232262   6.540   1.141   6.322
10455SOL     OW32263   0.158   5.351   3.361
10455SOL    HW132264   0.078   5.291   3.371
10455SOL    HW232265   0.167   5.380   3.266
10456SOL     OW32266   1.220   5.247   6.578
10456SOL    HW132267   1.136   5.194   6.566
10456SOL    HW232268   1.206   5.316   6.649
10457SOL     OW32269   3.956   2.359   6.888
10457SOL    HW132270   4.050   2.327   6.901
10457SOL    HW232271   3.896   2.317   6.956
10458SOL     OW32272   0.116   5.845   6.875
10458SOL    HW132273   0.021   5.871   6.889
10458SOL    HW232274   0.126   5.746   6.889
10459SOL     OW32275   6.373   5.229   1.659
10459SOL    HW132276   6.340   5.309   1.710
10459SOL    HW232277   6.399   5.257   1.567
10460SOL     OW32278   0.033   0.770   0.911
10460SOL    HW132279   7.007   0.685   0.903
10460SOL    HW232280   7.000   0.846   0.880
10461SOL     OW32281   0.049   5.209   6.398
10461SOL    HW132282   0.062   5.265   6.316
10461SOL    HW232283   0.132   5.213   6.454
10462SOL     OW32284   4.221   2.312   6.659
10462SOL    HW132285   4.215   2.316   6.759
10462SOL    HW232286   4.163   2.238   6.625
10463SOL     OW32287   4.804   2.079   6.615
10463SOL    HW132288   4.755   2.145   6.558
10463SOL    HW232289   4.900   2.107   6.624
10464SOL     OW32290   6.596   4.996   2.323
10464SOL    HW132291   6.587   5.010   2.225
10464SOL    HW232292   6.521   4.938   2.356
10465SOL     OW32293   5.399   4.342   1.557
10465SOL    HW132294   5.488   4.297   1.560
10465SOL    HW232295   5.326   4.275   1.568
10466SOL     OW32296   6.315   4.267   5.806
10466SOL    HW132297   6.267   4.347   5.771
10466SOL    HW232298   6.396   4.297   5.857
10467SOL     OW32299   0.905   3.321   0.435
10467SOL    HW132300   0.985   3.334   0.493
10467SOL    HW232301   0.930   3.334   0.339
10468SOL     OW32302   1.823   4.413   3.483
10468SOL    HW132303   1.901   4.452   3.533
10468SOL    HW232304   1.848   4.403   3.387
10469SOL     OW32305   0.444   1.467   4.081
10469SOL    HW132306   0.480   1.382   4.119
10469SOL    HW232307   0.355   1.488   4.122
10470SOL     OW32308   2.178   3.333   2.856
10470SOL    HW132309   2.160   3.267   2.929
10470SOL    HW232310   2.111   3.319   2.782
10471SOL     OW32311   2.735   6.585   6.598
10471SOL    HW132312   2.782   6.536   6.672
10471SOL    HW232313   2.637   6.567   6.604
10472SOL     OW32314   3.960   4.986   6.705
10472SOL    HW132315   4.058   5.000   6.720
10472SOL    HW232316   3.911   5.071   6.724
10473SOL     OW32317   5.762   4.637   0.765
10473SOL    HW132318   5.854   4.665   0.738
10473SOL    HW232319   5.766   4.584   0.850
10474SOL     OW32320   5.870   1.050   4.769
10474SOL    HW132321   5.870   0.994   4.852
10474SOL    HW232322   5.965   1.068   4.741
10475SOL     OW32323   1.372   5.777   1.440
10475SOL    HW132324   1.453   5.787   1.496
10475SOL    HW232325   1.290   5.789   1.496
10476SOL     OW32326   4.766   6.200   0.603
10476SOL    HW132327   4.686   6.156   0.563
10476SOL    HW232328   4.826   6.131   0.644
10477SOL     OW32329   6.827   5.668   3.874
10477SOL    HW132330   6.729   5.684   3.881
10477SOL    HW232331   6.846   5.610   3.795
10478SOL     OW32332   6.982   1.369   6.760
10478SOL    HW132333   0.027   1.329   6.820
10478SOL    HW232334   7.005   1.465   6.743
10479SOL     OW32335   0.723   2.666   1.980
10479SOL    HW132336   0.774   2.580   1.977
10479SOL    HW232337   0.699   2.687   2.075
10480SOL     OW32338   2.551   6.949   2.672
10480SOL    HW132339   2.585   0.018   2.680
10480SOL    HW232340   2.478   6.934   2.739
10481SOL     OW32341   6.937   0.691   2.266
10481SOL    HW132342   6.902   0.707   2.174
10481SOL    HW232343   6.932   0.776   2.319
10482SOL     OW32344   5.154   3.335   3.996
10482SOL    HW132345   5.195   3.316   3.907
10482SOL    HW232346   5.226   3.351   4.064
10483SOL     OW32347   6.355   6.478   6.969
10483SOL    HW132348   6.286   6.550   6.956
10483SOL    HW232349   6.384   6.477   0.040
10484SOL     OW32350   6.147   0.968   2.701
10484SOL    HW132351   6.167   0.872   2.683
10484SOL    HW232352   6.222   1.024   2.666
10485SOL     OW32353   5.577   4.146   5.679
10485SOL    HW132354   5.484   4.181   5.663
10485SOL    HW232355   5.573   4.048   5.697
10486SOL     OW32356   5.262   3.011   2.183
10486SOL    HW132357   5.342   3.048   2.136
10486SOL    HW232358   5.226   3.080   2.247
10487SOL     OW32359   5.653   6.209   1.596
10487SOL    HW132360   5.722   6.252   1.538
10487SOL    HW232361   5.577   6.176   1.540
10488SOL     OW32362   2.433   2.450   6.726
10488SOL    HW132363   2.529   2.438   6.698
10488SOL    HW232364   2.413   2.388   6.802
10489SOL     OW32365   0.974   5.612   6.124
10489SOL    HW132366   0.964   5.706   6.158
10489SOL    HW232367   0.957   5.610   6.026
10490SOL     OW32368   0.169   0.450   4.042
10490SOL    HW132369   0.106   0.475   4.115
10490SOL    HW232370   0.252   0.410   4.081
10491SOL     OW32371   0.882   4.295   5.853
10491SOL    HW132372   0.887   4.352   5.772
10491SOL    HW232373   0.851   4.350   5.931
10492SOL     OW32374   4.196   3.683   5.710
10492SOL    HW132375   4.267   3.648   5.648
10492SOL    HW232376   4.149   3.606   5.753
10493SOL     OW32377   3.224   0.703   1.303
10493SOL    HW132378   3.233   0.801   1.324
10493SOL    HW232379   3.238   0.689   1.205
10494SOL     OW32380   5.704   2.327   4.131
10494SOL    HW132381   5.743   2.300   4.043
10494SOL    HW232382   5.705   2.249   4.193
10495SOL     OW32383   1.436   6.636   0.095
10495SOL    HW132384   1.419   6.599   0.003
10495SOL    HW232385   1.467   6.563   0.155
10496SOL     OW32386   6.699   0.270   5.554
10496SOL    HW132387   6.718   0.262   5.456
10496SOL    HW232388   6.624   0.208   5.578
10497SOL     OW32389   1.173   1.276   1.350
10497SOL    HW132390   1.099   1.209   1.353
10497SOL    HW232391   1.260   1.231   1.371
10498SOL     OW32392   2.787   5.534   5.978
10498SOL    HW132393   2.795   5.626   5.940
10498SOL    HW232394   2.873   5.510   6.024
10499SOL     OW32395   3.532   5.619   3.532
10499SOL    HW132396   3.614   5.632   3.478
10499SOL    HW232397   3.551   5.640   3.628
10500SOL     OW32398   1.321   1.780   6.329
10500SOL    HW132399   1.222   1.790   6.343
10500SOL    HW232400   1.348   1.828   6.246
10501SOL     OW32401   1.905   3.324   3.153
10501SOL    HW132402   1.913   3.224   3.164
10501SOL    HW232403   1.988   3.359   3.109
10502SOL     OW32404   3.247   6.503   6.524
10502SOL    HW132405   3.207   6.485   6.614
10502SOL    HW232406   3.347   6.507   6.533
10503SOL     OW32407   2.524   3.128   6.366
10503SOL    HW132408   2.452   3.060   6.380
10503SOL    HW232409   2.610   3.082   6.345
10504SOL     OW32410   2.929   3.205   0.514
10504SOL    HW132411   2.879   3.280   0.472
10504SOL    HW232412   2.907   3.201   0.612
10505SOL     OW32413   6.844   6.291   1.253
10505SOL    HW132414   6.747   6.266   1.256
10505SOL    HW232415   6.864   6.338   1.167
10506SOL     OW32416   0.838   4.358   5.530
10506SOL    HW132417   0.902   4.289   5.497
10506SOL    HW232418   0.762   4.367   5.465
10507SOL     OW32419   1.007   0.306   5.437
10507SOL    HW132420   0.955   0.388   5.412
10507SOL    HW232421   0.960   0.225   5.404
10508SOL     OW32422   4.995   4.378   2.885
10508SOL    HW132423   5.084   4.341   2.858
10508SOL    HW232424   5.003   4.423   2.974
10509SOL     OW32425   2.041   0.053   5.884
10509SOL    HW132426   1.963   0.082   5.940
10509SOL    HW232427   2.071   0.129   5.827
10510SOL     OW32428   6.622   5.871   7.014
10510SOL    HW132429   6.625   5.970   7.002
10510SOL    HW232430   6.622   5.850   0.088
10511SOL     OW32431   5.289   2.898   0.018
10511SOL    HW132432   5.339   2.832   0.075
10511SOL    HW232433   5.245   2.849   6.967
10512SOL     OW32434   3.409   6.524   6.849
10512SOL    HW132435   3.437   6.503   6.756
10512SOL    HW232436   3.417   6.623   6.866
10513SOL     OW32437   6.515   1.985   0.267
10513SOL    HW132438   6.482   1.995   0.361
10513SOL    HW232439   6.577   1.907   0.261
10514SOL     OW32440   0.362   4.420   1.549
10514SOL    HW132441   0.331   4.343   1.606
10514SOL    HW232442   0.314   4.503   1.577
10515SOL     OW32443   6.310   2.299   4.596
10515SOL    HW132444   6.401   2.283   4.634
10515SOL    HW232445   6.305   2.392   4.558
10516SOL     OW32446   4.108   0.568   6.258
10516SOL    HW132447   4.102   0.552   6.159
10516SOL    HW232448   4.192   0.526   6.293
10517SOL     OW32449   0.290   1.545   2.962
10517SOL    HW132450   0.328   1.533   2.870
10517SOL    HW232451   0.197   1.509   2.965
10518SOL     OW32452   0.698   6.790   1.166
10518SOL    HW132453   0.622   6.829   1.218
10518SOL    HW232454   0.668   6.705   1.122
10519SOL     OW32455   2.557   3.569   5.412
10519SOL    HW132456   2.611   3.525   5.340
10519SOL    HW232457   2.558   3.668   5.399
10520SOL     OW32458   4.081   2.982   6.524
10520SOL    HW132459   3.997   2.932   6.547
10520SOL    HW232460   4.141   2.922   6.471
10521SOL     OW32461   6.476   5.814   1.662
10521SOL    HW132462   6.415   5.736   1.657
10521SOL    HW232463   6.507   5.828   1.756
10522SOL     OW32464   5.813   0.363   2.025
10522SOL    HW132465   5.834   0.340   2.121
10522SOL    HW232466   5.731   0.315   1.996
10523SOL     OW32467   0.037   5.567   6.912
10523SOL    HW132468   0.110   5.513   6.870
10523SOL    HW232469   0.022   5.536   7.006
10524SOL     OW32470   3.225   0.725   4.171
10524SOL    HW132471   3.261   0.719   4.264
10524SOL    HW232472   3.209   0.821   4.148
10525SOL     OW32473   2.979   6.129   4.597
10525SOL    HW132474   2.899   6.179   4.564
10525SOL    HW232475   2.974   6.034   4.567
10526SOL     OW32476   5.543   6.648   2.792
10526SOL    HW132477   5.503   6.563   2.825
10526SOL    HW232478   5.632   6.628   2.750
10527SOL     OW32479   1.114   2.606   5.096
10527SOL    HW132480   1.136   2.621   5.193
10527SOL    HW232481   1.199   2.603   5.043
10528SOL     OW32482   6.479   4.870   4.999
10528SOL    HW132483   6.394   4.883   5.050
10528SOL    HW232484   6.458   4.847   4.904
10529SOL     OW32485   6.463   6.553   3.955
10529SOL    HW132486   6.435   6.596   3.869
10529SOL    HW232487   6.386   6.553   4.019
10530SOL     OW32488   1.871   1.591   5.891
10530SOL    HW132489   1.871   1.683   5.930
10530SOL    HW232490   1.951   1.541   5.924
10531SOL     OW32491   1.869   2.576   5.242
10531SOL    HW132492   1.909   2.668   5.239
10531SOL    HW232493   1.939   2.511   5.271
10532SOL     OW32494   3.524   2.446   5.755
10532SOL    HW132495   3.471   2.511   5.701
10532SOL    HW232496   3.483   2.437   5.846
10533SOL     OW32497   2.649   1.364   6.177
10533SOL    HW132498   2.721   1.428   6.153
10533SOL    HW232499   2.684   1.270   6.171
10534SOL     OW32500   6.315   5.489   1.193
10534SOL    HW132501   6.280   5.581   1.177
10534SOL    HW232502   6.330   5.443   1.106
10535SOL     OW32503   6.938   0.998   2.276
10535SOL    HW132504   6.871   1.046   2.219
10535SOL    HW232505   6.937   1.037   2.368
10536SOL     OW32506   4.659   0.300   3.040
10536SOL    HW132507   4.676   0.285   3.137
10536SOL    HW232508   4.597   0.230   3.005
10537SOL     OW32509   0.856   4.847   1.550
10537SOL    HW132510   0.946   4.881   1.521
10537SOL    HW232511   0.867   4.790   1.631
10538SOL     OW32512   5.281   3.563   0.027
10538SOL    HW132513   5.296   3.525   6.960
10538SOL    HW232514   5.336   3.646   0.038
10539SOL     OW32515   0.327   3.170   5.865
10539SOL    HW132516   0.366   3.103   5.929
10539SOL    HW232517   0.356   3.148   5.772
10540SOL     OW32518   2.806   0.641   6.909
10540SOL    HW132519   2.721   0.689   6.932
10540SOL    HW232520   2.883   0.705   6.912
10541SOL     OW32521   3.564   2.493   0.349
10541SOL    HW132522   3.657   2.494   0.388
10541SOL    HW232523   3.499   2.526   0.418
10542SOL     OW32524   0.666   2.641   0.198
10542SOL    HW132525   0.724   2.647   0.279
10542SOL    HW232526   0.679   2.553   0.153
10543SOL     OW32527   2.041   1.054   5.722
10543SOL    HW132528   1.975   1.103   5.779
10543SOL    HW232529   2.027   1.077   5.626
10544SOL     OW32530   0.858   2.446   1.997
10544SOL    HW132531   0.812   2.358   1.985
10544SOL    HW232532   0.906   2.447   2.085
10545SOL     OW32533   5.686   6.961   2.538
10545SOL    HW132534   5.650   0.027   2.517
10545SOL    HW232535   5.780   6.954   2.505
10546SOL     OW32536   2.942   0.970   3.864
10546SOL    HW132537   3.032   0.999   3.894
10546SOL    HW232538   2.890   1.049   3.831
10547SOL     OW32539   4.223   1.555   1.308
10547SOL    HW132540   4.135   1.593   1.278
10547SOL    HW232541   4.296   1.592   1.250
10548SOL     OW32542   4.919   4.056   4.886
10548SOL    HW132543   4.830   4.080   4.924
10548SOL    HW232544   4.926   3.957   4.876
10549SOL     OW32545   1.213   0.805   1.911
10549SOL    HW132546   1.258   0.828   1.997
10549SOL    HW232547   1.116   0.788   1.928
10550SOL     OW32548   4.931   0.208   4.298
10550SOL    HW132549   4.832   0.199   4.313
10550SOL    HW232550   4.965   0.289   4.344
10551SOL     OW32551   1.163   2.847   5.932
10551SOL    HW132552   1.255   2.820   5.905
10551SOL    HW232553   1.164   2.940   5.968
10552SOL     OW32554   3.216   2.134   5.294
10552SOL    HW132555   3.138   2.078   5.265
10552SOL    HW232556   3.208   2.225   5.253
10553SOL     OW32557   3.010   4.632   6.930
10553SOL    HW132558   2.945   4.638   7.007
10553SOL    HW232559   3.103   4.629   6.966
10554SOL     OW32560   6.657   4.411   6.236
10554SOL    HW132561   6.650   4.427   6.137
10554SOL    HW232562   6.566   4.391   6.273
10555SOL     OW32563   3.096   2.118   1.107
10555SOL    HW132564   3.127   2.100   1.200
10555SOL    HW232565   3.033   2.046   1.078
10556SOL     OW32566   2.177   3.141   4.602
10556SOL    HW132567   2.129   3.200   4.666
10556SOL    HW232568   2.240   3.081   4.652
10557SOL     OW32569   6.495   2.774   3.721
10557SOL    HW132570   6.536   2.862   3.700
10557SOL    HW232571   6.456   2.777   3.813
10558SOL     OW32572   5.158   6.248   5.129
10558SOL    HW132573   5.161   6.330   5.072
10558SOL    HW232574   5.063   6.229   5.155
10559SOL     OW32575   4.217   2.232   0.172
10559SOL    HW132576   4.238   2.290   0.251
10559SOL    HW232577   4.302   2.194   0.135
10560SOL     OW32578   0.428   2.852   4.434
10560SOL    HW132579   0.332   2.882   4.433
10560SOL    HW232580   0.441   2.789   4.510
10561SOL     OW32581   2.450   3.987   6.989
10561SOL    HW132582   2.542   3.972   6.953
10561SOL    HW232583   2.450   4.067   0.024
10562SOL     OW32584   3.543   0.911   0.645
10562SOL    HW132585   3.548   0.822   0.599
10562SOL    HW232586   3.504   0.899   0.736
10563SOL     OW32587   1.761   1.680   4.672
10563SOL    HW132588   1.707   1.762   4.651
10563SOL    HW232589   1.711   1.624   4.739
10564SOL     OW32590   6.266   1.805   1.928
10564SOL    HW132591   6.277   1.884   1.867
10564SOL    HW232592   6.285   1.832   2.022
10565SOL     OW32593   5.561   1.742   4.762
10565SOL    HW132594   5.532   1.756   4.856
10565SOL    HW232595   5.654   1.778   4.749
10566SOL     OW32596   4.126   4.609   6.535
10566SOL    HW132597   4.028   4.624   6.522
10566SOL    HW232598   4.140   4.533   6.599
10567SOL     OW32599   1.939   4.784   4.087
10567SOL    HW132600   1.926   4.724   4.008
10567SOL    HW232601   1.860   4.777   4.148
10568SOL     OW32602   4.165   1.207   3.347
10568SOL    HW132603   4.260   1.237   3.351
10568SOL    HW232604   4.106   1.275   3.392
10569SOL     OW32605   6.134   3.080   4.160
10569SOL    HW132606   6.091   3.145   4.223
10569SOL    HW232607   6.196   3.129   4.098
10570SOL     OW32608   1.700   4.618   2.416
10570SOL    HW132609   1.766   4.548   2.442
10570SOL    HW232610   1.660   4.595   2.327
10571SOL     OW32611   5.992   6.730   3.832
10571SOL    HW132612   6.068   6.782   3.793
10571SOL    HW232613   5.922   6.793   3.865
10572SOL     OW32614   6.300   3.530   2.093
10572SOL    HW132615   6.269   3.478   2.014
10572SOL    HW232616   6.373   3.479   2.140
10573SOL     OW32617   5.927   4.998   5.674
10573SOL    HW132618   5.885   4.966   5.760
10573SOL    HW232619   5.869   5.068   5.633
10574SOL     OW32620   0.466   1.791   2.995
10574SOL    HW132621   0.411   1.708   2.983
10574SOL    HW232622   0.547   1.769   3.050
10575SOL     OW32623   0.947   6.849   5.407
10575SOL    HW132624   0.948   6.925   5.472
10575SOL    HW232625   1.040   6.826   5.380
10576SOL     OW32626   1.653   5.053   3.469
10576SOL    HW132627   1.642   5.146   3.432
10576SOL    HW232628   1.717   5.055   3.546
10577SOL     OW32629   1.321   2.033   5.409
10577SOL    HW132630   1.250   2.086   5.364
10577SOL    HW232631   1.390   2.095   5.447
10578SOL     OW32632   6.186   0.761   5.930
10578SOL    HW132633   6.274   0.792   5.966
10578SOL    HW232634   6.119   0.835   5.938
10579SOL     OW32635   4.259   1.673   0.285
10579SOL    HW132636   4.273   1.769   0.308
10579SOL    HW232637   4.339   1.638   0.238
10580SOL     OW32638   6.368   6.212   0.003
10580SOL    HW132639   6.358   6.309   7.004
10580SOL    HW232640   6.302   6.158   6.974
10581SOL     OW32641   5.117   1.104   3.390
10581SOL    HW132642   5.190   1.116   3.458
10581SOL    HW232643   5.071   1.016   3.406
10582SOL     OW32644   3.832   4.753   6.800
10582SOL    HW132645   3.817   4.789   6.892
10582SOL    HW232646   3.888   4.818   6.748
10583SOL     OW32647   4.442   1.781   0.698
10583SOL    HW132648   4.484   1.821   0.616
10583SOL    HW232649   4.342   1.780   0.687
10584SOL     OW32650   5.892   0.141   1.862
10584SOL    HW132651   5.909   0.234   1.895
10584SOL    HW232652   5.883   0.143   1.762
10585SOL     OW32653   1.123   3.561   6.408
10585SOL    HW132654   1.205   3.614   6.384
10585SOL    HW232655   1.111   3.561   6.507
10586SOL     OW32656   3.846   0.794   6.814
10586SOL    HW132657   3.847   0.875   6.874
10586SOL    HW232658   3.860   0.822   6.719
10587SOL     OW32659   6.504   4.173   1.128
10587SOL    HW132660   6.454   4.191   1.044
10587SOL    HW232661   6.491   4.078   1.155
10588SOL     OW32662   6.852   5.316   2.540
10588SOL    HW132663   6.934   5.279   2.583
10588SOL    HW232664   6.777   5.317   2.607
10589SOL     OW32665   6.084   1.917   3.804
10589SOL    HW132666   6.104   2.015   3.795
10589SOL    HW232667   6.160   1.872   3.852
10590SOL     OW32668   1.132   0.730   4.103
10590SOL    HW132669   1.193   0.674   4.159
10590SOL    HW232670   1.053   0.676   4.074
10591SOL     OW32671   1.348   2.898   0.955
10591SOL    HW132672   1.261   2.921   0.912
10591SOL    HW232673   1.333   2.880   1.053
10592SOL     OW32674   6.734   1.350   6.964
10592SOL    HW132675   6.821   1.366   6.917
10592SOL    HW232676   6.659   1.377   6.905
10593SOL     OW32677   1.898   5.127   1.040
10593SOL    HW132678   1.813   5.073   1.040
10593SOL    HW232679   1.912   5.168   1.130
10594SOL     OW32680   0.487   1.841   4.319
10594SOL    HW132681   0.559   1.837   4.249
10594SOL    HW232682   0.487   1.932   4.361
10595SOL     OW32683   3.575   5.956   6.106
10595SOL    HW132684   3.621   5.988   6.024
10595SOL    HW232685   3.638   5.899   6.159
10596SOL     OW32686   3.657   1.164   1.531
10596SOL    HW132687   3.611   1.101   1.593
10596SOL    HW232688   3.740   1.199   1.575
10597SOL     OW32689   1.681   0.255   4.577
10597SOL    HW132690   1.643   0.175   4.531
10597SOL    HW232691   1.615   0.330   4.576
10598SOL     OW32692   1.615   2.170   0.129
10598SOL    HW132693   1.557   2.090   0.110
10598SOL    HW232694   1.567   2.253   0.102
10599SOL     OW32695   5.030   1.440   6.773
10599SOL    HW132696   4.936   1.417   6.799
10599SOL    HW232697   5.091   1.425   6.851
10600SOL     OW32698   2.110   3.057   6.568
10600SOL    HW132699   2.036   3.055   6.500
10600SOL    HW232700   2.160   2.970   6.565
10601SOL     OW32701   3.118   6.707   5.864
10601SOL    HW132702   3.083   6.646   5.936
10601SOL    HW232703   3.210   6.738   5.889
10602SOL     OW32704   4.690   1.146   1.995
10602SOL    HW132705   4.747   1.227   2.012
10602SOL    HW232706   4.747   1.064   2.002
10603SOL     OW32707   1.524   5.339   4.858
10603SOL    HW132708   1.569   5.306   4.775
10603SOL    HW232709   1.473   5.264   4.900
10604SOL     OW32710   7.015   4.305   5.284
10604SOL    HW132711   0.002   4.206   5.280
10604SOL    HW232712   0.074   4.350   5.251
10605SOL     OW32713   1.773   4.954   6.674
10605SOL    HW132714   1.869   4.967   6.699
10605SOL    HW232715   1.730   4.891   6.739
10606SOL     OW32716   0.589   0.658   2.744
10606SOL    HW132717   0.667   0.693   2.795
10606SOL    HW232718   0.621   0.598   2.671
10607SOL     OW32719   5.394   5.055   0.054
10607SOL    HW132720   5.328   4.981   0.054
10607SOL    HW232721   5.350   5.140   0.083
10608SOL     OW32722   6.100   1.719   3.308
10608SOL    HW132723   6.103   1.771   3.393
10608SOL    HW232724   6.023   1.750   3.252
10609SOL     OW32725   4.010   6.401   1.437
10609SOL    HW132726   3.972   6.402   1.345
10609SOL    HW232727   3.987   6.487   1.483
10610SOL     OW32728   1.733   3.102   5.721
10610SOL    HW132729   1.711   3.031   5.787
10610SOL    HW232730   1.652   3.156   5.700
10611SOL     OW32731   5.465   2.736   6.273
10611SOL    HW132732   5.494   2.659   6.330
10611SOL    HW232733   5.494   2.720   6.178
10612SOL     OW32734   1.940   0.084   0.674
10612SOL    HW132735   1.934   7.020   0.720
10612SOL    HW232736   1.883   0.083   0.592
10613SOL     OW32737   0.477   6.517   5.910
10613SOL    HW132738   0.445   6.599   5.862
10613SOL    HW232739   0.434   6.436   5.871
10614SOL     OW32740   6.596   0.952   4.525
10614SOL    HW132741   6.668   1.020   4.541
10614SOL    HW232742   6.558   0.923   4.613
10615SOL     OW32743   6.051   5.513   5.494
10615SOL    HW132744   5.974   5.450   5.489
10615SOL    HW232745   6.027   5.592   5.550
10616SOL     OW32746   2.901   5.634   0.310
10616SOL    HW132747   2.827   5.581   0.352
10616SOL    HW232748   2.943   5.580   0.237
10617SOL     OW32749   1.248   1.968   6.632
10617SOL    HW132750   1.190   1.907   6.687
10617SOL    HW232751   1.319   1.914   6.587
10618SOL     OW32752   6.273   3.926   0.908
10618SOL    HW132753   6.363   3.963   0.884
10618SOL    HW232754   6.238   3.870   0.833
10619SOL     OW32755   1.352   3.993   3.890
10619SOL    HW132756   1.339   3.901   3.929
10619SOL    HW232757   1.274   4.015   3.831
10620SOL     OW32758   1.491   5.889   4.619
10620SOL    HW132759   1.491   5.822   4.545
10620SOL    HW232760   1.584   5.897   4.657
10621SOL     OW32761   2.668   6.040   0.999
10621SOL    HW132762   2.656   6.126   1.048
10621SOL    HW232763   2.602   6.036   0.924
10622SOL     OW32764   4.237   1.057   1.551
10622SOL    HW132765   4.336   1.068   1.544
10622SOL    HW232766   4.192   1.144   1.531
10623SOL     OW32767   6.678   1.767   3.821
10623SOL    HW132768   6.731   1.763   3.736
10623SOL    HW232769   6.580   1.773   3.799
10624SOL     OW32770   2.085   0.409   3.991
10624SOL    HW132771   2.117   0.365   4.074
10624SOL    HW232772   2.148   0.389   3.916
10625SOL     OW32773   0.250   3.316   6.871
10625SOL    HW132774   0.286   3.385   6.807
10625SOL    HW232775   0.150   3.320   6.871
10626SOL     OW32776   0.478   2.648   1.116
10626SOL    HW132777   0.477   2.637   1.017
10626SOL    HW232778   0.459   2.744   1.139
10627SOL     OW32779   6.161   5.812   3.810
10627SOL    HW132780   6.061   5.808   3.807
10627SOL    HW232781   6.191   5.906   3.826
10628SOL     OW32782   6.285   5.743   6.099
10628SOL    HW132783   6.319   5.652   6.124
10628SOL    HW232784   6.329   5.773   6.015
10629SOL     OW32785   2.674   5.316   5.804
10629SOL    HW132786   2.712   5.352   5.718
10629SOL    HW232787   2.692   5.380   5.878
10630SOL     OW32788   0.175   1.344   3.406
10630SOL    HW132789   0.263   1.383   3.432
10630SOL    HW232790   0.180   1.244   3.410
10631SOL     OW32791   1.105   6.608   4.359
10631SOL    HW132792   1.090   6.623   4.456
10631SOL    HW232793   1.184   6.662   4.328
10632SOL     OW32794   0.525   2.251   5.383
10632SOL    HW132795   0.572   2.313   5.320
10632SOL    HW232796   0.429   2.277   5.388
10633SOL     OW32797   1.107   4.914   1.451
10633SOL    HW132798   1.174   4.874   1.389
10633SOL    HW232799   1.087   5.008   1.422
10634SOL     OW32800   3.178   6.655   1.902
10634SOL    HW132801   3.229   6.572   1.925
10634SOL    HW232802   3.171   6.664   1.803
10635SOL     OW32803   2.637   1.228   1.280
10635SOL    HW132804   2.707   1.281   1.327
10635SOL    HW232805   2.674   1.192   1.194
10636SOL     OW32806   0.596   2.210   1.720
10636SOL    HW132807   0.608   2.249   1.629
10636SOL    HW232808   0.513   2.248   1.762
10637SOL     OW32809   3.724   4.687   5.342
10637SOL    HW132810   3.641   4.648   5.380
10637SOL    HW232811   3.788   4.614   5.319
10638SOL     OW32812   6.860   6.953   5.654
10638SOL    HW132813   6.912   0.014   5.662
10638SOL    HW232814   6.774   6.971   5.606
10639SOL     OW32815   2.545   0.712   4.337
10639SOL    HW132816   2.581   0.747   4.250
10639SOL    HW232817   2.450   0.685   4.325
10640SOL     OW32818   4.088   0.011   0.481
10640SOL    HW132819   4.101   0.008   0.382
10640SOL    HW232820   4.147   0.083   0.520
10641SOL     OW32821   5.000   1.089   6.642
10641SOL    HW132822   5.010   1.135   6.730
10641SOL    HW232823   4.905   1.095   6.611
10642SOL     OW32824   6.672   2.832   1.038
10642SOL    HW132825   6.670   2.743   1.085
10642SOL    HW232826   6.677   2.817   0.939
10643SOL     OW32827   3.394   3.473   5.559
10643SOL    HW132828   3.311   3.467   5.505
10643SOL    HW232829   3.429   3.381   5.578
10644SOL     OW32830   4.023   1.182   4.928
10644SOL    HW132831   3.996   1.244   4.854
10644SOL    HW232832   3.986   1.215   5.015
10645SOL     OW32833   2.765   0.885   5.151
10645SOL    HW132834   2.782   0.790   5.124
10645SOL    HW232835   2.747   0.940   5.069
10646SOL     OW32836   0.735   3.871   6.610
10646SOL    HW132837   0.663   3.867   6.541
10646SOL    HW232838   0.752   3.778   6.645
10647SOL     OW32839   0.451   5.149   0.849
10647SOL    HW132840   0.393   5.075   0.883
10647SOL    HW232841   0.410   5.188   0.767
10648SOL     OW32842   4.432   3.452   6.809
10648SOL    HW132843   4.426   3.486   6.715
10648SOL    HW232844   4.437   3.352   6.809
10649SOL     OW32845   0.153   4.597   5.686
10649SOL    HW132846   0.118   4.690   5.674
10649SOL    HW232847   0.118   4.559   5.772
10650SOL     OW32848   3.175   6.929   3.566
10650SOL    HW132849   3.179   6.843   3.516
10650SOL    HW232850   3.186   6.911   3.664
10651SOL     OW32851   3.864   6.931   6.055
10651SOL    HW132852   3.795   6.869   6.019
10651SOL    HW232853   3.822   6.994   6.120
10652SOL     OW32854   3.483   0.950   6.693
10652SOL    HW132855   3.533   0.962   6.607
10652SOL    HW232856   3.404   0.892   6.678
10653SOL     OW32857   5.321   3.317   3.777
10653SOL    HW132858   5.395   3.384   3.769
10653SOL    HW232859   5.307   3.271   3.689
10654SOL     OW32860   4.317   0.651   1.073
10654SOL    HW132861   4.383   0.704   1.020
10654SOL    HW232862   4.224   0.677   1.046
10655SOL     OW32863   3.057   5.803   1.723
10655SOL    HW132864   3.096   5.787   1.814
10655SOL    HW232865   3.113   5.755   1.655
10656SOL     OW32866   6.738   3.138   6.240
10656SOL    HW132867   6.729   3.191   6.324
10656SOL    HW232868   6.677   3.059   6.244
10657SOL     OW32869   5.922   0.762   1.246
10657SOL    HW132870   5.913   0.759   1.345
10657SOL    HW232871   5.948   0.855   1.218
10658SOL     OW32872   0.517   5.541   5.068
10658SOL    HW132873   0.449   5.614   5.072
10658SOL    HW232874   0.501   5.476   5.142
10659SOL     OW32875   5.137   0.676   0.414
10659SOL    HW132876   5.180   0.752   0.366
10659SOL    HW232877   5.208   0.611   0.443
10660SOL     OW32878   4.972   5.029   5.717
10660SOL    HW132879   4.878   5.036   5.685
10660SOL    HW232880   4.977   5.058   5.813
10661SOL     OW32881   0.385   0.463   2.749
10661SOL    HW132882   0.435   0.377   2.759
10661SOL    HW232883   0.447   0.540   2.764
10662SOL     OW32884   6.244   1.449   0.809
10662SOL    HW132885   6.212   1.414   0.722
10662SOL    HW232886   6.305   1.527   0.793
10663SOL     OW32887   6.897   0.687   0.518
10663SOL    HW132888   6.913   0.775   0.475
10663SOL    HW232889   6.950   0.616   0.471
10664SOL     OW32890   2.141   4.427   6.755
10664SOL    HW132891   2.214   4.471   6.703
10664SOL    HW232892   2.058   4.483   6.751
10665SOL     OW32893   6.305   1.002   0.332
10665SOL    HW132894   6.383   0.953   0.371
10665SOL    HW232895   6.305   1.096   0.365
10666SOL     OW32896   1.234   6.692   0.434
10666SOL    HW132897   1.213   6.778   0.481
10666SOL    HW232898   1.280   6.712   0.347
10667SOL     OW32899   3.413   1.734   5.200
10667SOL    HW132900   3.346   1.783   5.145
10667SOL    HW232901   3.441   1.791   5.278
10668SOL     OW32902   2.401   0.765   5.866
10668SOL    HW132903   2.399   0.698   5.792
10668SOL    HW232904   2.320   0.756   5.923
10669SOL     OW32905   1.050   6.430   6.108
10669SOL    HW132906   1.104   6.463   6.185
10669SOL    HW232907   0.964   6.391   6.142
10670SOL     OW32908   6.838   4.538   5.592
10670SOL    HW132909   6.747   4.575   5.611
10670SOL    HW232910   6.842   4.506   5.497
10671SOL     OW32911   1.642   1.832   3.196
10671SOL    HW132912   1.630   1.928   3.221
10671SOL    HW232913   1.740   1.810   3.194
10672SOL     OW32914   6.800   2.933   0.611
10672SOL    HW132915   6.887   2.975   0.637
10672SOL    HW232916   6.817   2.848   0.561
10673SOL     OW32917   3.198   3.485   5.155
10673SOL    HW132918   3.171   3.527   5.069
10673SOL    HW232919   3.244   3.398   5.137
10674SOL     OW32920   3.998   1.946   2.403
10674SOL    HW132921   3.956   2.017   2.348
10674SOL    HW232922   4.076   1.984   2.453
10675SOL     OW32923   0.529   0.741   6.159
10675SOL    HW132924   0.581   0.811   6.110
10675SOL    HW232925   0.565   0.651   6.137
10676SOL     OW32926   6.950   0.422   6.635
10676SOL    HW132927   6.945   0.388   6.729
10676SOL    HW232928   6.959   0.522   6.636
10677SOL     OW32929   0.082   0.831   0.309
10677SOL    HW132930   0.005   0.887   0.278
10677SOL    HW232931   0.166   0.886   0.306
10678SOL     OW32932   2.649   6.434   3.423
10678SOL    HW132933   2.574   6.470   3.368
10678SOL    HW232934   2.639   6.466   3.518
10679SOL     OW32935   6.171   5.161   3.754
10679SOL    HW132936   6.192   5.079   3.702
10679SOL    HW232937   6.152   5.237   3.691
10680SOL     OW32938   1.648   2.395   3.536
10680SOL    HW132939   1.725   2.334   3.518
10680SOL    HW232940   1.614   2.434   3.450
10681SOL     OW32941   0.701   1.430   5.394
10681SOL    HW132942   0.679   1.515   5.345
10681SOL    HW232943   0.764   1.451   5.469
10682SOL     OW32944   6.599   1.755   3.240
10682SOL    HW132945   6.614   1.826   3.309
10682SOL    HW232946   6.533   1.788   3.172
10683SOL     OW32947   1.575   1.473   4.374
10683SOL    HW132948   1.581   1.570   4.397
10683SOL    HW232949   1.648   1.423   4.421
10684SOL     OW32950   6.067   5.976   0.285
10684SOL    HW132951   6.101   6.017   0.370
10684SOL    HW232952   6.136   5.983   0.214
10685SOL     OW32953   6.972   2.566   1.829
10685SOL    HW132954   6.893   2.593   1.884
10685SOL    HW232955   0.010   2.643   1.820
10686SOL     OW32956   3.926   4.497   1.044
10686SOL    HW132957   3.877   4.507   1.130
10686SOL    HW232958   3.975   4.410   1.043
10687SOL     OW32959   0.284   5.205   1.598
10687SOL    HW132960   0.278   5.293   1.646
10687SOL    HW232961   0.276   5.131   1.664
10688SOL     OW32962   0.024   5.920   2.299
10688SOL    HW132963   0.014   5.820   2.306
10688SOL    HW232964   0.078   5.943   2.219
10689SOL     OW32965   0.462   0.724   1.843
10689SOL    HW132966   0.462   0.624   1.848
10689SOL    HW232967   0.368   0.756   1.831
10690SOL     OW32968   4.334   5.916   2.180
10690SOL    HW132969   4.416   5.904   2.123
10690SOL    HW232970   4.360   5.958   2.267
10691SOL     OW32971   6.636   0.955   1.654
10691SOL    HW132972   6.715   0.993   1.606
10691SOL    HW232973   6.603   1.021   1.722
10692SOL     OW32974   5.044   6.365   4.588
10692SOL    HW132975   5.089   6.303   4.525
10692SOL    HW232976   4.950   6.381   4.558
10693SOL     OW32977   5.699   2.194   2.711
10693SOL    HW132978   5.794   2.169   2.731
10693SOL    HW232979   5.657   2.123   2.655
10694SOL     OW32980   4.109   6.131   0.799
10694SOL    HW132981   4.150   6.040   0.807
10694SOL    HW232982   4.136   6.172   0.712
10695SOL     OW32983   5.802   2.706   4.669
10695SOL    HW132984   5.808   2.750   4.759
10695SOL    HW232985   5.891   2.670   4.644
10696SOL     OW32986   6.019   0.080   1.236
10696SOL    HW132987   5.973   7.021   1.206
10696SOL    HW232988   6.004   0.153   1.169
10697SOL     OW32989   2.081   6.167   3.688
10697SOL    HW132990   2.152   6.169   3.618
10697SOL    HW232991   2.050   6.073   3.703
10698SOL     OW32992   2.684   0.789   2.917
10698SOL    HW132993   2.780   0.762   2.916
10698SOL    HW232994   2.636   0.739   2.988
10699SOL     OW32995   1.761   2.537   2.595
10699SOL    HW132996   1.770   2.637   2.600
10699SOL    HW232997   1.820   2.502   2.523
10700SOL     OW32998   6.222   0.602   2.028
10700SOL    HW132999   6.256   0.696   2.020
10700SOL    HW233000   6.122   0.603   2.034
10701SOL     OW33001   3.514   6.130   0.952
10701SOL    HW133002   3.473   6.043   0.922
10701SOL    HW233003   3.463   6.166   1.030
10702SOL     OW33004   5.983   3.234   1.134
10702SOL    HW133005   6.060   3.177   1.160
10702SOL    HW233006   5.998   3.327   1.167
10703SOL     OW33007   3.999   3.096   4.037
10703SOL    HW133008   3.934   3.025   4.011
10703SOL    HW233009   4.040   3.136   3.955
10704SOL     OW33010   5.603   6.563   1.966
10704SOL    HW133011   5.668   6.636   1.945
10704SOL    HW233012   5.607   6.541   2.063
10705SOL     OW33013   1.024   2.809   6.622
10705SOL    HW133014   1.108   2.819   6.674
10705SOL    HW233015   0.967   2.739   6.663
10706SOL     OW33016   3.656   1.750   1.397
10706SOL    HW133017   3.720   1.696   1.343
10706SOL    HW233018   3.698   1.777   1.483
10707SOL     OW33019   6.370   6.700   6.149
10707SOL    HW133020   6.464   6.676   6.173
10707SOL    HW233021   6.307   6.663   6.217
10708SOL     OW33022   4.479   1.027   1.320
10708SOL    HW133023   4.497   1.121   1.350
10708SOL    HW233024   4.471   0.968   1.401
10709SOL     OW33025   0.735   6.591   5.769
10709SOL    HW133026   0.637   6.596   5.748
10709SOL    HW233027   0.748   6.589   5.868
10710SOL     OW33028   6.602   5.890   3.044
10710SOL    HW133029   6.663   5.932   2.977
10710SOL    HW233030   6.549   5.817   3.000
10711SOL     OW33031   2.312   5.730   5.396
10711SOL    HW133032   2.370   5.680   5.460
10711SOL    HW233033   2.357   5.737   5.307
10712SOL     OW33034   4.610   1.380   4.996
10712SOL    HW133035   4.525   1.328   5.001
10712SOL    HW233036   4.590   1.477   4.981
10713SOL     OW33037   1.611   6.526   1.341
10713SOL    HW133038   1.666   6.581   1.279
10713SOL    HW233039   1.630   6.553   1.436
10714SOL     OW33040   0.072   5.599   5.712
10714SOL    HW133041   0.047   5.638   5.801
10714SOL    HW233042   7.014   5.592   5.655
10715SOL     OW33043   5.745   1.417   3.766
10715SOL    HW133044   5.747   1.422   3.666
10715SOL    HW233045   5.688   1.340   3.795
10716SOL     OW33046   6.431   0.708   3.058
10716SOL    HW133047   6.366   0.783   3.058
10716SOL    HW233048   6.487   0.712   3.141
10717SOL     OW33049   6.406   6.650   2.156
10717SOL    HW133050   6.477   6.695   2.101
10717SOL    HW233051   6.348   6.719   2.199
10718SOL     OW33052   0.639   3.640   5.758
10718SOL    HW133053   0.630   3.586   5.674
10718SOL    HW233054   0.625   3.582   5.837
10719SOL     OW33055   3.700   0.733   2.250
10719SOL    HW133056   3.661   0.825   2.248
10719SOL    HW233057   3.673   0.684   2.166
10720SOL     OW33058   0.513   3.224   6.959
10720SOL    HW133059   0.482   3.311   6.997
10720SOL    HW233060   0.533   3.160   0.010
10721SOL     OW33061   4.675   2.761   3.809
10721SOL    HW133062   4.693   2.840   3.750
10721SOL    HW233063   4.679   2.790   3.905
10722SOL     OW33064   0.327   4.024   1.034
10722SOL    HW133065   0.385   4.105   1.023
10722SOL    HW233066   0.365   3.965   1.104
10723SOL     OW33067   6.055   4.561   0.143
10723SOL    HW133068   6.129   4.625   0.160
10723SOL    HW233069   6.012   4.536   0.229
10724SOL     OW33070   4.214   6.840   5.675
10724SOL    HW133071   4.155   6.861   5.597
10724SOL    HW233072   4.171   6.875   5.759
10725SOL     OW33073   6.538   6.941   5.228
10725SOL    HW133074   6.562   6.846   5.209
10725SOL    HW233075   6.568   6.965   5.320
10726SOL     OW33076   5.510   1.353   4.762
10726SOL    HW133077   5.573   1.371   4.838
10726SOL    HW233078   5.557   1.296   4.694
10727SOL     OW33079   2.479   6.323   0.156
10727SOL    HW133080   2.447   6.390   0.089
10727SOL    HW233081   2.414   6.247   0.160
10728SOL     OW33082   6.139   6.275   3.505
10728SOL    HW133083   6.173   6.250   3.415
10728SOL    HW233084   6.162   6.202   3.571
10729SOL     OW33085   5.872   2.771   4.275
10729SOL    HW133086   5.864   2.839   4.349
10729SOL    HW233087   5.827   2.686   4.303
10730SOL     OW33088   1.953   5.455   4.113
10730SOL    HW133089   1.903   5.371   4.136
10730SOL    HW233090   1.889   5.532   4.115
10731SOL     OW33091   4.729   6.399   6.943
10731SOL    HW133092   4.824   6.428   6.937
10731SOL    HW233093   4.724   6.299   6.937
10732SOL     OW33094   6.462   6.124   3.044
10732SOL    HW133095   6.496   6.030   3.043
10732SOL    HW233096   6.419   6.145   2.956
10733SOL     OW33097   0.474   1.054   6.288
10733SOL    HW133098   0.468   1.106   6.373
10733SOL    HW233099   0.430   0.965   6.300
10734SOL     OW33100   1.976   0.445   4.314
10734SOL    HW133101   1.934   0.370   4.263
10734SOL    HW233102   1.962   0.432   4.412
10735SOL     OW33103   6.617   6.693   1.809
10735SOL    HW133104   6.588   6.707   1.903
10735SOL    HW233105   6.714   6.717   1.800
10736SOL     OW33106   5.173   6.687   3.510
10736SOL    HW133107   5.262   6.643   3.505
10736SOL    HW233108   5.172   6.753   3.585
10737SOL     OW33109   6.019   1.135   1.882
10737SOL    HW133110   5.988   1.190   1.804
10737SOL    HW233111   6.006   1.038   1.862
10738SOL     OW33112   3.594   0.321   1.150
10738SOL    HW133113   3.600   0.328   1.051
10738SOL    HW233114   3.539   0.241   1.175
10739SOL     OW33115   5.706   3.057   3.894
10739SOL    HW133116   5.616   3.050   3.939
10739SOL    HW233117   5.766   2.985   3.926
10740SOL     OW33118   2.931   0.812   6.302
10740SOL    HW133119   2.899   0.905   6.283
10740SOL    HW233120   2.854   0.757   6.333
10741SOL     OW33121   1.451   2.284   3.708
10741SOL    HW133122   1.360   2.325   3.717
10741SOL    HW233123   1.498   2.325   3.630
10742SOL     OW33124   6.588   6.663   2.650
10742SOL    HW133125   6.532   6.733   2.694
10742SOL    HW233126   6.557   6.649   2.556
10743SOL     OW33127   3.059   1.738   5.259
10743SOL    HW133128   3.049   1.639   5.267
10743SOL    HW233129   3.142   1.767   5.305
10744SOL     OW33130   2.221   1.009   0.503
10744SOL    HW133131   2.177   1.094   0.531
10744SOL    HW233132   2.300   0.990   0.562
10745SOL     OW33133   1.837   4.687   2.024
10745SOL    HW133134   1.816   4.633   2.106
10745SOL    HW233135   1.933   4.716   2.028
10746SOL     OW33136   2.199   5.922   6.577
10746SOL    HW133137   2.158   5.963   6.495
10746SOL    HW233138   2.273   5.860   6.550
10747SOL     OW33139   6.683   1.183   4.659
10747SOL    HW133140   6.651   1.099   4.703
10747SOL    HW233141   6.609   1.251   4.661
10748SOL     OW33142   3.187   6.682   1.423
10748SOL    HW133143   3.271   6.688   1.477
10748SOL    HW233144   3.108   6.675   1.484
10749SOL     OW33145   5.849   4.265   1.425
10749SOL    HW133146   5.784   4.192   1.445
10749SOL    HW233147   5.922   4.230   1.366
10750SOL     OW33148   4.347   2.323   4.146
10750SOL    HW133149   4.442   2.292   4.133
10750SOL    HW233150   4.330   2.402   4.087
10751SOL     OW33151   0.120   5.926   4.216
10751SOL    HW133152   0.181   5.996   4.179
10751SOL    HW233153   0.027   5.961   4.220
10752SOL     OW33154   6.446   6.435   0.184
10752SOL    HW133155   6.544   6.452   0.181
10752SOL    HW233156   6.406   6.483   0.262
10753SOL     OW33157   5.153   0.625   3.837
10753SOL    HW133158   5.096   0.615   3.919
10753SOL    HW233159   5.184   0.535   3.807
10754SOL     OW33160   1.003   4.509   2.320
10754SOL    HW133161   0.958   4.426   2.288
10754SOL    HW233162   0.944   4.555   2.387
10755SOL     OW33163   0.286   2.955   0.896
10755SOL    HW133164   0.190   2.931   0.910
10755SOL    HW233165   0.299   3.053   0.914
10756SOL     OW33166   1.378   0.803   0.589
10756SOL    HW133167   1.385   0.789   0.688
10756SOL    HW233168   1.291   0.766   0.556
10757SOL     OW33169   0.297   3.321   2.067
10757SOL    HW133170   0.228   3.372   2.119
10757SOL    HW233171   0.365   3.284   2.131
10758SOL     OW33172   1.015   0.335   0.388
10758SOL    HW133173   0.988   0.297   0.300
10758SOL    HW233174   0.935   0.371   0.435
10759SOL     OW33175   2.682   2.816   5.511
10759SOL    HW133176   2.758   2.797   5.572
10759SOL    HW233177   2.677   2.915   5.494
10760SOL     OW33178   1.121   4.734   6.485
10760SOL    HW133179   1.219   4.711   6.487
10760SOL    HW233180   1.082   4.722   6.576
10761SOL     OW33181   1.086   1.605   5.372
10761SOL    HW133182   1.107   1.579   5.277
10761SOL    HW233183   1.007   1.666   5.372
10762SOL     OW33184   2.929   5.952   6.092
10762SOL    HW133185   2.909   6.047   6.071
10762SOL    HW233186   2.844   5.900   6.098
10763SOL     OW33187   4.809   0.605   3.129
10763SOL    HW133188   4.892   0.655   3.155
10763SOL    HW233189   4.796   0.528   3.191
10764SOL     OW33190   5.108   6.787   4.478
10764SOL    HW133191   5.131   6.858   4.545
10764SOL    HW233192   5.158   6.703   4.501
10765SOL     OW33193   0.563   1.628   1.886
10765SOL    HW133194   0.621   1.643   1.806
10765SOL    HW233195   0.571   1.705   1.949
10766SOL     OW33196   2.261   5.002   0.030
10766SOL    HW133197   2.270   5.102   0.031
10766SOL    HW233198   2.314   4.964   6.979
10767SOL     OW33199   1.336   5.037   6.714
10767SOL    HW133200   1.296   5.107   6.656
10767SOL    HW233201   1.355   4.955   6.659
10768SOL     OW33202   5.402   6.273   6.505
10768SOL    HW133203   5.409   6.367   6.472
10768SOL    HW233204   5.448   6.264   6.593
10769SOL     OW33205   3.117   3.278   4.531
10769SOL    HW133206   3.180   3.340   4.483
10769SOL    HW233207   3.157   3.186   4.534
10770SOL     OW33208   5.815   0.013   3.263
10770SOL    HW133209   5.909   0.034   3.236
10770SOL    HW233210   5.800   0.043   3.357
10771SOL     OW33211   4.364   5.877   5.898
10771SOL    HW133212   4.400   5.796   5.851
10771SOL    HW233213   4.272   5.897   5.864
10772SOL     OW33214   5.575   5.373   2.503
10772SOL    HW133215   5.611   5.464   2.521
10772SOL    HW233216   5.475   5.374   2.515
10773SOL     OW33217   0.000   3.869   1.506
10773SOL    HW133218   0.048   3.785   1.531
10773SOL    HW233219   6.955   3.849   1.437
10774SOL     OW33220   0.579   3.816   0.360
10774SOL    HW133221   0.639   3.796   0.438
10774SOL    HW233222   0.552   3.913   0.363
10775SOL     OW33223   1.671   3.828   0.778
10775SOL    HW133224   1.607   3.811   0.703
10775SOL    HW233225   1.672   3.926   0.799
10776SOL     OW33226   0.561   2.628   3.800
10776SOL    HW133227   0.631   2.699   3.808
10776SOL    HW233228   0.569   2.584   3.710
10777SOL     OW33229   1.898   0.673   1.558
10777SOL    HW133230   1.824   0.701   1.619
10777SOL    HW233231   1.948   0.754   1.526
10778SOL     OW33232   4.788   0.089   2.718
10778SOL    HW133233   4.825   0.182   2.712
10778SOL    HW233234   4.768   0.056   2.625
10779SOL     OW33235   5.678   3.211   5.642
10779SOL    HW133236   5.660   3.124   5.688
10779SOL    HW233237   5.686   3.196   5.544
10780SOL     OW33238   1.994   5.223   4.498
10780SOL    HW133239   1.954   5.275   4.573
10780SOL    HW233240   2.061   5.280   4.450
10781SOL     OW33241   5.566   2.091   4.546
10781SOL    HW133242   5.499   2.143   4.599
10781SOL    HW233243   5.525   2.004   4.518
10782SOL     OW33244   0.831   1.298   5.161
10782SOL    HW133245   0.777   1.315   5.244
10782SOL    HW233246   0.855   1.385   5.118
10783SOL     OW33247   0.869   2.411   3.681
10783SOL    HW133248   0.847   2.325   3.635
10783SOL    HW233249   0.910   2.392   3.770
10784SOL     OW33250   4.239   5.695   3.045
10784SOL    HW133251   4.327   5.730   3.014
10784SOL    HW233252   4.205   5.753   3.119
10785SOL     OW33253   1.251   5.309   1.957
10785SOL    HW133254   1.313   5.251   1.904
10785SOL    HW233255   1.169   5.258   1.982
10786SOL     OW33256   4.242   1.911   2.201
10786SOL    HW133257   4.153   1.935   2.239
10786SOL    HW233258   4.312   1.918   2.272
10787SOL     OW33259   3.797   1.612   3.385
10787SOL    HW133260   3.779   1.702   3.345
10787SOL    HW233261   3.831   1.550   3.315
10788SOL     OW33262   1.997   3.886   0.157
10788SOL    HW133263   2.031   3.977   0.135
10788SOL    HW233264   2.059   3.817   0.121
10789SOL     OW33265   6.533   1.258   2.254
10789SOL    HW133266   6.543   1.213   2.342
10789SOL    HW233267   6.443   1.238   2.216
10790SOL     OW33268   0.647   1.780   5.670
10790SOL    HW133269   0.566   1.834   5.648
10790SOL    HW233270   0.729   1.828   5.638
10791SOL     OW33271   1.601   2.531   3.123
10791SOL    HW133272   1.571   2.585   3.045
10791SOL    HW233273   1.532   2.538   3.196
10792SOL     OW33274   3.814   1.463   2.159
10792SOL    HW133275   3.801   1.474   2.061
10792SOL    HW233276   3.748   1.520   2.208
10793SOL     OW33277   3.930   1.614   4.466
10793SOL    HW133278   3.851   1.620   4.526
10793SOL    HW233279   3.963   1.706   4.445
10794SOL     OW33280   5.283   2.287   0.525
10794SOL    HW133281   5.286   2.266   0.623
10794SOL    HW233282   5.287   2.386   0.512
10795SOL     OW33283   6.924   3.287   3.528
10795SOL    HW133284   6.949   3.229   3.605
10795SOL    HW233285   7.004   3.302   3.470
10796SOL     OW33286   0.208   0.031   6.228
10796SOL    HW133287   0.209   6.959   6.253
10796SOL    HW233288   0.114   0.064   6.224
10797SOL     OW33289   4.384   4.571   6.975
10797SOL    HW133290   4.298   4.623   6.976
10797SOL    HW233291   4.393   4.523   6.888
10798SOL     OW33292   2.128   6.549   6.911
10798SOL    HW133293   2.043   6.599   6.927
10798SOL    HW233294   2.149   6.548   6.813
10799SOL     OW33295   2.544   1.438   2.753
10799SOL    HW133296   2.448   1.410   2.749
10799SOL    HW233297   2.601   1.357   2.765
10800SOL     OW33298   2.423   6.961   5.376
10800SOL    HW133299   2.439   0.011   5.441
10800SOL    HW233300   2.327   6.933   5.381
10801SOL     OW33301   3.205   6.242   6.382
10801SOL    HW133302   3.188   6.307   6.455
10801SOL    HW233303   3.300   6.249   6.352
10802SOL     OW33304   0.513   5.310   4.354
10802SOL    HW133305   0.524   5.409   4.364
10802SOL    HW233306   0.601   5.266   4.366
10803SOL     OW33307   6.827   4.427   4.616
10803SOL    HW133308   6.745   4.482   4.602
10803SOL    HW233309   6.867   4.450   4.705
10804SOL     OW33310   4.816   4.619   1.072
10804SOL    HW133311   4.745   4.645   1.007
10804SOL    HW233312   4.788   4.645   1.164
10805SOL     OW33313   3.913   6.111   0.239
10805SOL    HW133314   4.008   6.110   0.206
10805SOL    HW233315   3.891   6.021   0.277
10806SOL     OW33316   5.999   4.462   6.558
10806SOL    HW133317   5.973   4.459   6.461
10806SOL    HW233318   5.919   4.439   6.614
10807SOL     OW33319   4.455   1.026   4.467
10807SOL    HW133320   4.422   1.049   4.376
10807SOL    HW233321   4.544   1.071   4.482
10808SOL     OW33322   6.970   2.059   0.215
10808SOL    HW133323   0.039   2.025   0.215
10808SOL    HW233324   6.957   2.122   0.291
10809SOL     OW33325   3.030   1.431   2.586
10809SOL    HW133326   3.010   1.510   2.643
10809SOL    HW233327   3.119   1.392   2.611
10810SOL     OW33328   2.023   1.577   6.553
10810SOL    HW133329   1.962   1.654   6.569
10810SOL    HW233330   2.066   1.550   6.639
10811SOL     OW33331   4.722   4.475   6.233
10811SOL    HW133332   4.739   4.421   6.315
10811SOL    HW233333   4.627   4.507   6.232
10812SOL     OW33334   6.676   2.653   2.375
10812SOL    HW133335   6.720   2.711   2.307
10812SOL    HW233336   6.578   2.674   2.379
10813SOL     OW33337   3.583   5.301   2.747
10813SOL    HW133338   3.502   5.330   2.697
10813SOL    HW233339   3.656   5.369   2.736
10814SOL     OW33340   2.074   6.287   4.908
10814SOL    HW133341   1.976   6.307   4.908
10814SOL    HW233342   2.088   6.188   4.913
10815SOL     OW33343   4.960   2.083   3.382
10815SOL    HW133344   4.964   2.178   3.414
10815SOL    HW233345   4.886   2.073   3.316
10816SOL     OW33346   2.098   2.302   1.819
10816SOL    HW133347   2.052   2.225   1.864
10816SOL    HW233348   2.192   2.275   1.797
10817SOL     OW33349   4.366   0.082   2.047
10817SOL    HW133350   4.358   7.018   2.093
10817SOL    HW233351   4.294   0.143   2.079
10818SOL     OW33352   4.522   2.867   6.246
10818SOL    HW133353   4.539   2.939   6.179
10818SOL    HW233354   4.586   2.875   6.321
10819SOL     OW33355   0.536   4.096   5.505
10819SOL    HW133356   0.550   4.170   5.571
10819SOL    HW233357   0.478   4.129   5.431
10820SOL     OW33358   6.548   0.377   4.696
10820SOL    HW133359   6.639   0.366   4.656
10820SOL    HW233360   6.489   0.302   4.667
10821SOL     OW33361   6.969   6.793   0.897
10821SOL    HW133362   6.943   6.753   0.985
10821SOL    HW233363   7.007   6.884   0.912
10822SOL     OW33364   0.461   4.548   0.126
10822SOL    HW133365   0.432   4.581   0.216
10822SOL    HW233366   0.415   4.461   0.107
10823SOL     OW33367   1.265   1.964   1.223
10823SOL    HW133368   1.252   1.886   1.163
10823SOL    HW233369   1.318   1.936   1.304
10824SOL     OW33370   5.642   0.298   3.141
10824SOL    HW133371   5.565   0.250   3.182
10824SOL    HW233372   5.674   0.369   3.203
10825SOL     OW33373   3.893   1.403   1.698
10825SOL    HW133374   3.901   1.408   1.599
10825SOL    HW233375   3.968   1.454   1.740
10826SOL     OW33376   6.470   2.766   1.348
10826SOL    HW133377   6.474   2.761   1.248
10826SOL    HW233378   6.374   2.766   1.378
10827SOL     OW33379   1.271   2.715   3.619
10827SOL    HW133380   1.266   2.732   3.520
10827SOL    HW233381   1.355   2.755   3.655
10828SOL     OW33382   1.159   5.845   0.504
10828SOL    HW133383   1.206   5.834   0.416
10828SOL    HW233384   1.061   5.855   0.489
10829SOL     OW33385   2.151   3.751   1.603
10829SOL    HW133386   2.165   3.829   1.664
10829SOL    HW233387   2.225   3.747   1.537
10830SOL     OW33388   4.638   1.244   3.556
10830SOL    HW133389   4.558   1.224   3.614
10830SOL    HW233390   4.704   1.297   3.609
10831SOL     OW33391   5.118   2.832   2.336
10831SOL    HW133392   5.176   2.880   2.270
10831SOL    HW233393   5.085   2.746   2.296
10832SOL     OW33394   7.007   2.830   3.014
10832SOL    HW133395   0.004   2.897   3.084
10832SOL    HW233396   6.935   2.866   2.954
10833SOL     OW33397   2.784   6.885   4.108
10833SOL    HW133398   2.685   6.900   4.105
10833SOL    HW233399   2.831   6.958   4.057
10834SOL     OW33400   0.368   1.139   5.626
10834SOL    HW133401   0.465   1.141   5.601
10834SOL    HW233402   0.332   1.047   5.612
10835SOL     OW33403   6.766   2.637   1.972
10835SOL    HW133404   6.789   2.622   2.068
10835SOL    HW233405   6.670   2.614   1.956
10836SOL     OW33406   1.648   2.809   1.205
10836SOL    HW133407   1.628   2.899   1.165
10836SOL    HW233408   1.646   2.740   1.133
10837SOL     OW33409   1.521   6.106   1.437
10837SOL    HW133410   1.493   6.023   1.388
10837SOL    HW233411   1.476   6.185   1.396
10838SOL     OW33412   6.755   0.347   0.507
10838SOL    HW133413   6.783   0.283   0.578
10838SOL    HW233414   6.836   0.377   0.456
10839SOL     OW33415   1.875   1.597   6.927
10839SOL    HW133416   1.849   1.694   6.921
10839SOL    HW233417   1.973   1.590   6.946
10840SOL     OW33418   3.749   5.495   2.748
10840SOL    HW133419   3.686   5.557   2.703
10840SOL    HW233420   3.783   5.536   2.833
10841SOL     OW33421   4.865   3.347   6.070
10841SOL    HW133422   4.811   3.430   6.084
10841SOL    HW233423   4.953   3.356   6.117
10842SOL     OW33424   6.517   2.907   1.577
10842SOL    HW133425   6.540   2.996   1.538
10842SOL    HW233426   6.495   2.843   1.503
10843SOL     OW33427   0.326   0.807   2.180
10843SOL    HW133428   0.398   0.864   2.141
10843SOL    HW233429   0.299   0.843   2.269
10844SOL     OW33430   3.250   6.881   3.152
10844SOL    HW133431   3.240   6.857   3.249
10844SOL    HW233432   3.236   6.980   3.141
10845SOL     OW33433   2.155   2.836   1.102
10845SOL    HW133434   2.182   2.910   1.164
10845SOL    HW233435   2.205   2.845   1.016
10846SOL     OW33436   3.843   1.828   1.595
10846SOL    HW133437   3.804   1.784   1.676
10846SOL    HW233438   3.870   1.922   1.617
10847SOL     OW33439   4.274   2.931   5.808
10847SOL    HW133440   4.296   2.989   5.730
10847SOL    HW233441   4.282   2.835   5.781
10848SOL     OW33442   1.174   0.608   0.572
10848SOL    HW133443   1.106   0.554   0.621
10848SOL    HW233444   1.261   0.560   0.572
10849SOL     OW33445   2.436   5.242   4.006
10849SOL    HW133446   2.513   5.306   3.996
10849SOL    HW233447   2.360   5.287   4.052
10850SOL     OW33448   5.665   0.466   2.322
10850SOL    HW133449   5.628   0.480   2.230
10850SOL    HW233450   5.755   0.509   2.328
10851SOL     OW33451   4.311   1.754   6.386
10851SOL    HW133452   4.216   1.749   6.356
10851SOL    HW233453   4.366   1.797   6.315
10852SOL     OW33454   0.015   0.253   5.911
10852SOL    HW133455   6.942   0.233   5.914
10852SOL    HW233456   0.043   0.297   5.996
10853SOL     OW33457   2.357   0.418   4.805
10853SOL    HW133458   2.419   0.381   4.735
10853SOL    HW233459   2.294   0.347   4.836
10854SOL     OW33460   6.886   6.225   0.871
10854SOL    HW133461   6.807   6.177   0.910
10854SOL    HW233462   6.904   6.308   0.923
10855SOL     OW33463   1.272   5.493   1.470
10855SOL    HW133464   1.234   5.569   1.418
10855SOL    HW233465   1.279   5.518   1.566
10856SOL     OW33466   6.456   0.362   6.712
10856SOL    HW133467   6.406   0.325   6.633
10856SOL    HW233468   6.473   0.289   6.777
10857SOL     OW33469   6.500   0.315   5.007
10857SOL    HW133470   6.507   0.358   4.917
10857SOL    HW233471   6.484   0.217   4.996
10858SOL     OW33472   1.771   2.273   0.342
10858SOL    HW133473   1.737   2.261   0.249
10858SOL    HW233474   1.701   2.248   0.408
10859SOL     OW33475   1.481   5.565   3.104
10859SOL    HW133476   1.540   5.507   3.048
10859SOL    HW233477   1.437   5.509   3.175
10860SOL     OW33478   6.227   3.618   1.664
10860SOL    HW133479   6.231   3.711   1.626
10860SOL    HW233480   6.294   3.561   1.616
10861SOL     OW33481   2.945   3.365   1.211
10861SOL    HW133482   2.850   3.395   1.207
10861SOL    HW233483   3.005   3.445   1.224
10862SOL     OW33484   3.871   3.875   5.507
10862SOL    HW133485   3.877   3.973   5.490
10862SOL    HW233486   3.775   3.846   5.501
10863SOL     OW33487   1.940   0.501   3.070
10863SOL    HW133488   1.910   0.409   3.096
10863SOL    HW233489   1.863   0.564   3.077
10864SOL     OW33490   3.242   4.271   1.544
10864SOL    HW133491   3.189   4.223   1.474
10864SOL    HW233492   3.180   4.324   1.602
10865SOL     OW33493   4.025   1.313   2.480
10865SOL    HW133494   4.019   1.374   2.558
10865SOL    HW233495   3.934   1.296   2.443
10866SOL     OW33496   0.346   3.531   3.536
10866SOL    HW133497   0.327   3.625   3.510
10866SOL    HW233498   0.425   3.497   3.485
10867SOL     OW33499   4.552   2.480   6.786
10867SOL    HW133500   4.539   2.462   6.883
10867SOL    HW233501   4.649   2.501   6.769
10868SOL     OW33502   1.727   0.097   4.845
10868SOL    HW133503   1.793   0.025   4.823
10868SOL    HW233504   1.734   0.170   4.777
10869NA      NA33505   0.070   1.036   6.028
10870NA      NA33506   4.517   4.521   5.167
10871NA      NA33507   1.525   4.733   2.527
10872NA      NA33508   5.777   4.046   2.996
10873NA      NA33509   3.861   2.360   5.449
10874NA      NA33510   2.195   4.817   0.182
10875NA      NA33511   1.639   5.403   6.800
10876NA      NA33512   3.997   4.480   1.369
10877NA      NA33513   4.754   4.582   0.212
10878NA      NA33514   3.386   1.221   0.248
10879NA      NA33515   5.529   6.953   1.734
10880NA      NA33516   2.630   6.346   5.554
10881NA      NA33517   4.108   5.061   1.814
10882NA      NA33518   3.894   3.778   6.629
   7.02440   7.02440   7.02440
