Generated by trjconv : CNT in water t= 344.00000
33518
    1C        C    1   2.841   2.771   4.747
    1C        C    2   2.894   2.715   4.866
    1C        C    3   2.839   2.771   4.983
    1C        C    4   2.848   2.777   4.260
    1C        C    5   2.901   2.730   4.382
    1C        C    6   2.845   2.775   4.504
    1C        C    7   3.013   2.646   4.628
    1C        C    8   2.894   2.721   4.626
    1C        C    9   3.076   2.604   4.747
    1C        C   10   3.007   2.632   4.867
    1C        C   11   3.181   2.489   4.976
    1C        C   12   3.060   2.560   4.976
    1C        C   13   2.852   2.776   3.774
    1C        C   14   2.900   2.728   3.897
    1C        C   15   2.847   2.774   4.019
    1C        C   16   3.021   2.650   4.136
    1C        C   17   2.903   2.727   4.140
    1C        C   18   3.081   2.620   4.260
    1C        C   19   3.019   2.652   4.383
    1C        C   20   3.206   2.557   4.504
    1C        C   21   3.076   2.611   4.506
    1C        C   22   3.277   2.533   4.623
    1C        C   23   3.209   2.555   4.745
    1C        C   24   3.410   2.486   4.865
    1C        C   25   3.268   2.507   4.865
    1C        C   26   3.489   2.492   4.981
    1C        C   27   2.853   2.770   3.283
    1C        C   28   2.906   2.727   3.406
    1C        C   29   2.851   2.773   3.528
    1C        C   30   3.016   2.643   3.649
    1C        C   31   2.902   2.727   3.651
    1C        C   32   3.076   2.608   3.772
    1C        C   33   3.011   2.640   3.893
    1C        C   34   3.210   2.560   4.016
    1C        C   35   3.076   2.606   4.014
    1C        C   36   3.277   2.541   4.138
    1C        C   37   3.211   2.564   4.261
    1C        C   38   3.416   2.511   4.383
    1C        C   39   3.278   2.542   4.383
    1C        C   40   3.487   2.500   4.505
    1C        C   41   3.416   2.506   4.627
    1C        C   42   3.631   2.484   4.746
    1C        C   43   3.489   2.487   4.746
    1C        C   44   3.704   2.486   4.866
    1C        C   45   3.628   2.485   4.984
    1C        C   46   2.838   2.756   2.794
    1C        C   47   2.898   2.715   2.915
    1C        C   48   2.846   2.765   3.037
    1C        C   49   3.021   2.645   3.161
    1C        C   50   2.903   2.724   3.159
    1C        C   51   3.082   2.608   3.283
    1C        C   52   3.020   2.643   3.405
    1C        C   53   3.208   2.549   3.527
    1C        C   54   3.078   2.605   3.528
    1C        C   55   3.276   2.530   3.649
    1C        C   56   3.208   2.557   3.770
    1C        C   57   3.414   2.507   3.896
    1C        C   58   3.276   2.538   3.893
    1C        C   59   3.487   2.500   4.017
    1C        C   60   3.416   2.512   4.138
    1C        C   61   3.627   2.509   4.262
    1C        C   62   3.486   2.505   4.261
    1C        C   63   3.701   2.512   4.382
    1C        C   64   3.629   2.496   4.502
    1C        C   65   3.833   2.549   4.625
    1C        C   66   3.700   2.501   4.624
    1C        C   67   3.902   2.567   4.747
    1C        C   68   3.840   2.525   4.866
    1C        C   69   4.053   2.589   4.973
    1C        C   70   3.924   2.534   4.978
    1C        C   71   2.821   2.733   2.309
    1C        C   72   2.887   2.698   2.429
    1C        C   73   2.836   2.748   2.551
    1C        C   74   3.012   2.632   2.674
    1C        C   75   2.891   2.704   2.673
    1C        C   76   3.073   2.595   2.796
    1C        C   77   3.013   2.633   2.918
    1C        C   78   3.210   2.550   3.037
    1C        C   79   3.081   2.608   3.039
    1C        C   80   3.278   2.530   3.160
    1C        C   81   3.212   2.553   3.283
    1C        C   82   3.417   2.505   3.403
    1C        C   83   3.277   2.528   3.405
    1C        C   84   3.484   2.497   3.527
    1C        C   85   3.415   2.506   3.650
    1C        C   86   3.626   2.505   3.770
    1C        C   87   3.484   2.502   3.773
    1C        C   88   3.695   2.508   3.893
    1C        C   89   3.628   2.506   4.018
    1C        C   90   3.834   2.551   4.137
    1C        C   91   3.698   2.513   4.140
    1C        C   92   3.899   2.580   4.259
    1C        C   93   3.837   2.550   4.383
    1C        C   94   4.030   2.634   4.500
    1C        C   95   3.906   2.567   4.505
    1C        C   96   4.091   2.674   4.621
    1C        C   97   4.029   2.631   4.740
    1C        C   98   4.192   2.771   4.862
    1C        C   99   4.101   2.661   4.859
    1C        C  100   4.214   2.847   4.977
    1C        C  101   2.821   2.731   2.068
    1C        C  102   2.989   2.595   2.186
    1C        C  103   2.877   2.684   2.188
    1C        C  104   3.063   2.583   2.306
    1C        C  105   3.006   2.622   2.429
    1C        C  106   3.200   2.536   2.550
    1C        C  107   3.071   2.594   2.551
    1C        C  108   3.272   2.521   2.671
    1C        C  109   3.205   2.544   2.793
    1C        C  110   3.414   2.500   2.915
    1C        C  111   3.275   2.524   2.915
    1C        C  112   3.484   2.493   3.037
    1C        C  113   3.416   2.502   3.161
    1C        C  114   3.630   2.494   3.282
    1C        C  115   3.488   2.493   3.282
    1C        C  116   3.697   2.509   3.406
    1C        C  117   3.625   2.497   3.527
    1C        C  118   3.835   2.541   3.648
    1C        C  119   3.697   2.510   3.648
    1C        C  120   3.901   2.564   3.771
    1C        C  121   3.832   2.541   3.893
    1C        C  122   4.025   2.634   4.012
    1C        C  123   3.900   2.569   4.013
    1C        C  124   4.085   2.676   4.133
    1C        C  125   4.026   2.640   4.256
    1C        C  126   4.199   2.764   4.377
    1C        C  127   4.088   2.676   4.378
    1C        C  128   4.249   2.817   4.498
    1C        C  129   4.200   2.764   4.619
    1C        C  130   4.330   2.936   4.740
    1C        C  131   4.243   2.823   4.740
    1C        C  132   4.365   3.000   4.860
    1C        C  133   4.289   2.964   4.973
    1C        C  134   3.173   2.472   2.081
    1C        C  135   3.038   2.509   2.082
    1C        C  136   3.259   2.487   2.191
    1C        C  137   3.195   2.530   2.309
    1C        C  138   3.406   2.479   2.429
    1C        C  139   3.268   2.509   2.429
    1C        C  140   3.482   2.480   2.548
    1C        C  141   3.410   2.492   2.669
    1C        C  142   3.623   2.485   2.790
    1C        C  143   3.482   2.488   2.791
    1C        C  144   3.692   2.498   2.913
    1C        C  145   3.625   2.493   3.037
    1C        C  146   3.835   2.530   3.157
    1C        C  147   3.698   2.497   3.158
    1C        C  148   3.899   2.559   3.279
    1C        C  149   3.834   2.542   3.403
    1C        C  150   4.028   2.625   3.522
    1C        C  151   3.901   2.564   3.526
    1C        C  152   4.084   2.665   3.646
    1C        C  153   4.022   2.637   3.769
    1C        C  154   4.196   2.762   3.890
    1C        C  155   4.084   2.675   3.890
    1C        C  156   4.250   2.810   4.011
    1C        C  157   4.198   2.762   4.133
    1C        C  158   4.342   2.920   4.254
    1C        C  159   4.251   2.811   4.254
    1C        C  160   4.378   2.986   4.373
    1C        C  161   4.339   2.926   4.494
    1C        C  162   4.438   3.114   4.617
    1C        C  163   4.374   2.988   4.616
    1C        C  164   4.471   3.183   4.735
    1C        C  165   4.434   3.122   4.857
    1C        C  166   4.516   3.318   4.971
    1C        C  167   4.488   3.182   4.972
    1C        C  168   3.476   2.435   2.074
    1C        C  169   3.397   2.457   2.188
    1C        C  170   3.616   2.473   2.307
    1C        C  171   3.474   2.466   2.306
    1C        C  172   3.693   2.484   2.424
    1C        C  173   3.623   2.484   2.547
    1C        C  174   3.828   2.536   2.666
    1C        C  175   3.694   2.492   2.669
    1C        C  176   3.893   2.559   2.789
    1C        C  177   3.829   2.535   2.912
    1C        C  178   4.025   2.620   3.032
    1C        C  179   3.898   2.559   3.033
    1C        C  180   4.086   2.656   3.154
    1C        C  181   4.027   2.621   3.277
    1C        C  182   4.196   2.750   3.398
    1C        C  183   4.088   2.659   3.399
    1C        C  184   4.243   2.801   3.521
    1C        C  185   4.197   2.749   3.644
    1C        C  186   4.336   2.913   3.764
    1C        C  187   4.248   2.802   3.765
    1C        C  188   4.379   2.975   3.883
    1C        C  189   4.340   2.919   4.007
    1C        C  190   4.446   3.101   4.127
    1C        C  191   4.381   2.975   4.130
    1C        C  192   4.470   3.172   4.247
    1C        C  193   4.438   3.114   4.372
    1C        C  194   4.507   3.314   4.490
    1C        C  195   4.465   3.179   4.495
    1C        C  196   4.526   3.386   4.610
    1C        C  197   4.509   3.320   4.733
    1C        C  198   4.555   3.534   4.850
    1C        C  199   4.535   3.392   4.853
    1C        C  200   4.587   3.621   4.960
    1C        C  201   3.614   2.415   2.078
    1C        C  202   3.826   2.517   2.180
    1C        C  203   3.692   2.467   2.187
    1C        C  204   3.898   2.536   2.301
    1C        C  205   3.831   2.514   2.424
    1C        C  206   4.021   2.619   2.545
    1C        C  207   3.897   2.552   2.543
    1C        C  208   4.076   2.665   2.666
    1C        C  209   4.018   2.625   2.789
    1C        C  210   4.193   2.748   2.906
    1C        C  211   4.084   2.658   2.909
    1C        C  212   4.242   2.796   3.030
    1C        C  213   4.196   2.745   3.152
    1C        C  214   4.327   2.913   3.272
    1C        C  215   4.243   2.800   3.274
    1C        C  216   4.362   2.972   3.395
    1C        C  217   4.326   2.915   3.519
    1C        C  218   4.429   3.101   3.639
    1C        C  219   4.370   2.973   3.640
    1C        C  220   4.460   3.168   3.760
    1C        C  221   4.438   3.103   3.884
    1C        C  222   4.505   3.304   4.001
    1C        C  223   4.469   3.168   4.005
    1C        C  224   4.514   3.377   4.121
    1C        C  225   4.503   3.309   4.245
    1C        C  226   4.522   3.522   4.365
    1C        C  227   4.514   3.381   4.366
    1C        C  228   4.522   3.596   4.485
    1C        C  229   4.539   3.527   4.607
    1C        C  230   4.503   3.739   4.728
    1C        C  231   4.541   3.602   4.727
    1C        C  232   4.492   3.817   4.845
    1C        C  233   4.552   3.756   4.956
    1C        C  234   4.020   2.603   2.063
    1C        C  235   3.899   2.535   2.062
    1C        C  236   4.087   2.638   2.181
    1C        C  237   4.027   2.594   2.302
    1C        C  238   4.193   2.735   2.419
    1C        C  239   4.083   2.646   2.421
    1C        C  240   4.246   2.788   2.539
    1C        C  241   4.191   2.747   2.662
    1C        C  242   4.339   2.900   2.784
    1C        C  243   4.249   2.791   2.784
    1C        C  244   4.379   2.961   2.905
    1C        C  245   4.333   2.905   3.027
    1C        C  246   4.440   3.090   3.148
    1C        C  247   4.370   2.967   3.148
    1C        C  248   4.455   3.160   3.270
    1C        C  249   4.423   3.100   3.394
    1C        C  250   4.494   3.300   3.513
    1C        C  251   4.452   3.165   3.515
    1C        C  252   4.507   3.372   3.634
    1C        C  253   4.499   3.304   3.757
    1C        C  254   4.528   3.514   3.878
    1C        C  255   4.520   3.373   3.878
    1C        C  256   4.516   3.588   3.998
    1C        C  257   4.517   3.519   4.121
    1C        C  258   4.492   3.731   4.242
    1C        C  259   4.518   3.592   4.242
    1C        C  260   4.477   3.804   4.363
    1C        C  261   4.489   3.733   4.485
    1C        C  262   4.421   3.936   4.604
    1C        C  263   4.473   3.804   4.606
    1C        C  264   4.396   4.008   4.722
    1C        C  265   4.431   3.945   4.843
    1C        C  266   4.327   4.131   4.959
    1C        C  267   4.400   4.013   4.961
    1C        C  268   4.261   2.773   2.062
    1C        C  269   4.195   2.729   2.178
    1C        C  270   4.344   2.886   2.301
    1C        C  271   4.251   2.779   2.298
    1C        C  272   4.382   2.951   2.420
    1C        C  273   4.341   2.893   2.542
    1C        C  274   4.447   3.081   2.663
    1C        C  275   4.379   2.957   2.662
    1C        C  276   4.470   3.153   2.783
    1C        C  277   4.444   3.086   2.904
    1C        C  278   4.499   3.292   3.025
    1C        C  279   4.470   3.153   3.026
    1C        C  280   4.509   3.363   3.146
    1C        C  281   4.494   3.296   3.270
    1C        C  282   4.516   3.510   3.390
    1C        C  283   4.505   3.369   3.390
    1C        C  284   4.513   3.582   3.512
    1C        C  285   4.510   3.513   3.635
    1C        C  286   4.495   3.723   3.755
    1C        C  287   4.524   3.585   3.756
    1C        C  288   4.470   3.793   3.875
    1C        C  289   4.492   3.727   3.998
    1C        C  290   4.436   3.934   4.118
    1C        C  291   4.478   3.799   4.119
    1C        C  292   4.400   3.998   4.238
    1C        C  293   4.429   3.936   4.362
    1C        C  294   4.326   4.126   4.480
    1C        C  295   4.392   4.001   4.482
    1C        C  296   4.283   4.185   4.601
    1C        C  297   4.328   4.133   4.725
    1C        C  298   4.201   4.315   4.839
    1C        C  299   4.278   4.194   4.843
    1C        C  300   4.170   4.403   4.948
    1C        C  301   4.350   2.880   2.065
    1C        C  302   4.471   3.064   2.181
    1C        C  303   4.399   2.941   2.182
    1C        C  304   4.486   3.141   2.300
    1C        C  305   4.451   3.075   2.419
    1C        C  306   4.510   3.281   2.536
    1C        C  307   4.477   3.144   2.540
    1C        C  308   4.518   3.354   2.656
    1C        C  309   4.502   3.290   2.781
    1C        C  310   4.523   3.502   2.897
    1C        C  311   4.515   3.361   2.903
    1C        C  312   4.517   3.572   3.020
    1C        C  313   4.518   3.504   3.144
    1C        C  314   4.487   3.714   3.265
    1C        C  315   4.516   3.576   3.266
    1C        C  316   4.473   3.785   3.387
    1C        C  317   4.495   3.722   3.511
    1C        C  318   4.428   3.924   3.629
    1C        C  319   4.478   3.792   3.633
    1C        C  320   4.396   3.989   3.750
    1C        C  321   4.421   3.925   3.874
    1C        C  322   4.315   4.108   3.993
    1C        C  323   4.398   3.994   3.995
    1C        C  324   4.277   4.170   4.113
    1C        C  325   4.325   4.118   4.235
    1C        C  326   4.191   4.284   4.356
    1C        C  327   4.288   4.182   4.356
    1C        C  328   4.133   4.333   4.475
    1C        C  329   4.186   4.287   4.598
    1C        C  330   4.025   4.434   4.713
    1C        C  331   4.139   4.349   4.716
    1C        C  332   3.969   4.490   4.830
    1C        C  333   4.050   4.475   4.943
    1C        C  334   4.546   3.267   2.060
    1C        C  335   4.531   3.127   2.067
    1C        C  336   4.538   3.348   2.174
    1C        C  337   4.517   3.280   2.296
    1C        C  338   4.528   3.494   2.413
    1C        C  339   4.528   3.353   2.416
    1C        C  340   4.522   3.568   2.534
    1C        C  341   4.525   3.496   2.655
    1C        C  342   4.500   3.711   2.775
    1C        C  343   4.522   3.572   2.775
    1C        C  344   4.482   3.781   2.897
    1C        C  345   4.490   3.710   3.019
    1C        C  346   4.423   3.912   3.139
    1C        C  347   4.467   3.778   3.141
    1C        C  348   4.392   3.978   3.260
    1C        C  349   4.426   3.918   3.383
    1C        C  350   4.325   4.105   3.501
    1C        C  351   4.399   3.985   3.505
    1C        C  352   4.277   4.159   3.623
    1C        C  353   4.321   4.109   3.747
    1C        C  354   4.176   4.264   3.868
    1C        C  355   4.272   4.161   3.869
    1C        C  356   4.123   4.313   3.989
    1C        C  357   4.176   4.269   4.113
    1C        C  358   4.012   4.402   4.230
    1C        C  359   4.130   4.323   4.235
    1C        C  360   3.954   4.444   4.351
    1C        C  361   4.017   4.414   4.474
    1C        C  362   3.830   4.521   4.594
    1C        C  363   3.960   4.466   4.592
    1C        C  364   3.761   4.547   4.715
    1C        C  365   3.838   4.543   4.833
    1C        C  366   3.630   4.591   4.948
    1C        C  367   3.767   4.568   4.952
    1C        C  368   4.503   3.561   2.056
    1C        C  369   4.528   3.489   2.173
    1C        C  370   4.507   3.706   2.287
    1C        C  371   4.524   3.566   2.291
    1C        C  372   4.491   3.777   2.409
    1C        C  373   4.507   3.708   2.531
    1C        C  374   4.427   3.907   2.649
    1C        C  375   4.482   3.777   2.651
    1C        C  376   4.393   3.970   2.771
    1C        C  377   4.427   3.911   2.894
    1C        C  378   4.319   4.094   3.012
    1C        C  379   4.398   3.977   3.016
    1C        C  380   4.273   4.149   3.134
    1C        C  381   4.315   4.097   3.258
    1C        C  382   4.177   4.258   3.379
    1C        C  383   4.279   4.160   3.379
    1C        C  384   4.123   4.306   3.501
    1C        C  385   4.177   4.259   3.623
    1C        C  386   4.008   4.389   3.743
    1C        C  387   4.125   4.309   3.744
    1C        C  388   3.945   4.427   3.863
    1C        C  389   4.005   4.391   3.986
    1C        C  390   3.814   4.480   4.111
    1C        C  391   3.946   4.430   4.108
    1C        C  392   3.750   4.515   4.232
    1C        C  393   3.826   4.504   4.351
    1C        C  394   3.622   4.563   4.472
    1C        C  395   3.760   4.536   4.472
    1C        C  396   3.548   4.567   4.593
    1C        C  397   3.621   4.565   4.714
    1C        C  398   3.410   4.553   4.837
    1C        C  399   3.550   4.575   4.835
    1C        C  400   3.342   4.527   4.956
    1C        C  401   4.498   3.700   2.050
    1C        C  402   4.452   3.912   2.168
    1C        C  403   4.495   3.778   2.166
    1C        C  404   4.414   3.977   2.288
    1C        C  405   4.439   3.908   2.408
    1C        C  406   4.318   4.089   2.529
    1C        C  407   4.401   3.974   2.527
    1C        C  408   4.268   4.144   2.649
    1C        C  409   4.314   4.087   2.769
    1C        C  410   4.173   4.247   2.890
    1C        C  411   4.274   4.148   2.890
    1C        C  412   4.119   4.293   3.012
    1C        C  413   4.171   4.248   3.135
    1C        C  414   4.002   4.377   3.253
    1C        C  415   4.120   4.299   3.257
    1C        C  416   3.941   4.411   3.376
    1C        C  417   4.005   4.383   3.499
    1C        C  418   3.814   4.475   3.621
    1C        C  419   3.943   4.418   3.621
    1C        C  420   3.747   4.502   3.742
    1C        C  421   3.814   4.480   3.865
    1C        C  422   3.612   4.537   3.986
    1C        C  423   3.750   4.508   3.988
    1C        C  424   3.542   4.541   4.109
    1C        C  425   3.611   4.535   4.232
    1C        C  426   3.403   4.549   4.358
    1C        C  427   3.544   4.552   4.355
    1C        C  428   3.331   4.544   4.479
    1C        C  429   3.408   4.555   4.597
    1C        C  430   3.195   4.520   4.722
    1C        C  431   3.334   4.551   4.718
    1C        C  432   3.127   4.493   4.844
    1C        C  433   3.207   4.495   4.959
    1C        C  434   4.385   4.123   2.052
    1C        C  435   4.448   3.998   2.058
    1C        C  436   4.302   4.158   2.163
    1C        C  437   4.335   4.095   2.286
    1C        C  438   4.178   4.245   2.404
    1C        C  439   4.277   4.144   2.406
    1C        C  440   4.125   4.297   2.523
    1C        C  441   4.173   4.250   2.647
    1C        C  442   4.003   4.376   2.766
    1C        C  443   4.120   4.297   2.769
    1C        C  444   3.943   4.410   2.889
    1C        C  445   4.005   4.377   3.011
    1C        C  446   3.811   4.469   3.131
    1C        C  447   3.941   4.413   3.132
    1C        C  448   3.746   4.492   3.254
    1C        C  449   3.813   4.471   3.376
    1C        C  450   3.608   4.527   3.499
    1C        C  451   3.746   4.496   3.498
    1C        C  452   3.539   4.538   3.621
    1C        C  453   3.609   4.533   3.744
    1C        C  454   3.397   4.547   3.866
    1C        C  455   3.538   4.540   3.865
    1C        C  456   3.329   4.543   3.990
    1C        C  457   3.400   4.542   4.112
    1C        C  458   3.196   4.498   4.237
    1C        C  459   3.333   4.534   4.236
    1C        C  460   3.127   4.480   4.359
    1C        C  461   3.194   4.510   4.479
    1C        C  462   3.000   4.429   4.605
    1C        C  463   3.126   4.492   4.602
    1C        C  464   2.935   4.396   4.725
    1C        C  465   2.996   4.437   4.847
    1C        C  466   2.797   4.341   4.959
    1C        C  467   2.911   4.422   4.961
    1C        C  468   4.117   4.272   2.042
    1C        C  469   4.185   4.241   2.161
    1C        C  470   4.004   4.364   2.280
    1C        C  471   4.124   4.288   2.280
    1C        C  472   3.936   4.397   2.399
    1C        C  473   4.004   4.371   2.520
    1C        C  474   3.812   4.463   2.645
    1C        C  475   3.942   4.407   2.642
    1C        C  476   3.742   4.482   2.766
    1C        C  477   3.811   4.461   2.887
    1C        C  478   3.604   4.513   3.010
    1C        C  479   3.743   4.487   3.008
    1C        C  480   3.534   4.522   3.132
    1C        C  481   3.606   4.516   3.253
    1C        C  482   3.397   4.527   3.376
    1C        C  483   3.538   4.532   3.376
    1C        C  484   3.327   4.526   3.499
    1C        C  485   3.398   4.540   3.620
    1C        C  486   3.192   4.501   3.746
    1C        C  487   3.328   4.536   3.744
    1C        C  488   3.128   4.475   3.869
    1C        C  489   3.193   4.503   3.992
    1C        C  490   3.001   4.417   4.117
    1C        C  491   3.127   4.481   4.115
    1C        C  492   2.944   4.377   4.239
    1C        C  493   3.000   4.418   4.362
    1C        C  494   2.834   4.292   4.483
    1C        C  495   2.937   4.389   4.485
    1C        C  496   2.778   4.249   4.605
    1C        C  497   2.822   4.309   4.726
    1C        C  498   2.662   4.167   4.843
    1C        C  499   2.751   4.276   4.843
    1C        C  500   2.599   4.117   4.958
    1C        C  501   4.002   4.350   2.045
    1C        C  502   3.808   4.456   2.157
    1C        C  503   3.936   4.395   2.160
    1C        C  504   3.739   4.473   2.279
    1C        C  505   3.806   4.451   2.401
    1C        C  506   3.605   4.513   2.521
    1C        C  507   3.743   4.484   2.523
    1C        C  508   3.534   4.524   2.643
    1C        C  509   3.605   4.515   2.765
    1C        C  510   3.394   4.519   2.887
    1C        C  511   3.535   4.525   2.887
    1C        C  512   3.325   4.517   3.010
    1C        C  513   3.393   4.528   3.133
    1C        C  514   3.185   4.492   3.257
    1C        C  515   3.323   4.525   3.256
    1C        C  516   3.122   4.465   3.380
    1C        C  517   3.191   4.486   3.502
    1C        C  518   2.997   4.409   3.625
    1C        C  519   3.124   4.473   3.625
    1C        C  520   2.940   4.373   3.749
    1C        C  521   3.003   4.409   3.870
    1C        C  522   2.838   4.283   3.996
    1C        C  523   2.944   4.376   3.994
    1C        C  524   2.787   4.233   4.118
    1C        C  525   2.837   4.284   4.239
    1C        C  526   2.702   4.124   4.365
    1C        C  527   2.782   4.240   4.362
    1C        C  528   2.656   4.069   4.487
    1C        C  529   2.688   4.140   4.605
    1C        C  530   2.581   3.961   4.734
    1C        C  531   2.632   4.094   4.726
    1C        C  532   2.541   3.900   4.856
    1C        C  533   2.531   3.995   4.962
    1C        C  534   3.612   4.550   2.036
    1C        C  535   3.746   4.510   2.044
    1C        C  536   3.534   4.541   2.156
    1C        C  537   3.602   4.510   2.277
    1C        C  538   3.391   4.520   2.401
    1C        C  539   3.532   4.514   2.400
    1C        C  540   3.320   4.511   2.523
    1C        C  541   3.393   4.517   2.644
    1C        C  542   3.183   4.483   2.766
    1C        C  543   3.321   4.511   2.766
    1C        C  544   3.115   4.470   2.890
    1C        C  545   3.186   4.490   3.010
    1C        C  546   2.996   4.401   3.131
    1C        C  547   3.120   4.468   3.133
    1C        C  548   2.939   4.362   3.255
    1C        C  549   2.996   4.402   3.378
    1C        C  550   2.830   4.279   3.503
    1C        C  551   2.938   4.369   3.503
    1C        C  552   2.781   4.233   3.627
    1C        C  553   2.834   4.280   3.750
    1C        C  554   2.700   4.120   3.875
    1C        C  555   2.787   4.231   3.874
    1C        C  556   2.659   4.062   3.997
    1C        C  557   2.696   4.125   4.118
    1C        C  558   2.598   3.941   4.247
    1C        C  559   2.664   4.065   4.242
    1C        C  560   2.567   3.878   4.369
    1C        C  561   2.591   3.944   4.492
    1C        C  562   2.529   3.747   4.617
    1C        C  563   2.564   3.884   4.617
    1C        C  564   2.512   3.681   4.740
    1C        C  565   2.518   3.759   4.859
    1C        C  566   2.521   3.545   4.980
    1C        C  567   2.517   3.684   4.978
    1C        C  568   3.324   4.482   2.041
    1C        C  569   3.395   4.512   2.158
    1C        C  570   3.182   4.479   2.279
    1C        C  571   3.320   4.515   2.279
    1C        C  572   3.114   4.459   2.401
    1C        C  573   3.182   4.483   2.522
    1C        C  574   2.988   4.401   2.647
    1C        C  575   3.113   4.465   2.645
    1C        C  576   2.928   4.361   2.769
    1C        C  577   2.991   4.403   2.888
    1C        C  578   2.822   4.276   3.015
    1C        C  579   2.931   4.365   3.011
    1C        C  580   2.775   4.225   3.138
    1C        C  581   2.828   4.276   3.259
    1C        C  582   2.693   4.114   3.384
    1C        C  583   2.777   4.228   3.382
    1C        C  584   2.660   4.056   3.509
    1C        C  585   2.698   4.119   3.630
    1C        C  586   2.600   3.932   3.754
    1C        C  587   2.665   4.058   3.753
    1C        C  588   2.571   3.870   3.877
    1C        C  589   2.600   3.934   4.000
    1C        C  590   2.530   3.739   4.126
    1C        C  591   2.572   3.874   4.125
    1C        C  592   2.519   3.671   4.249
    1C        C  593   2.533   3.741   4.371
    1C        C  594   2.512   3.534   4.496
    1C        C  595   2.518   3.675   4.496
    1C        C  596   2.519   3.464   4.619
    1C        C  597   2.513   3.539   4.739
    1C        C  598   2.530   3.329   4.863
    1C        C  599   2.517   3.469   4.862
    1C        C  600   2.532   3.248   4.978
    1C        C  601   3.190   4.448   2.044
    1C        C  602   2.976   4.401   2.164
    1C        C  603   3.111   4.446   2.160
    1C        C  604   2.922   4.360   2.289
    1C        C  605   2.989   4.393   2.409
    1C        C  606   2.814   4.268   2.529
    1C        C  607   2.923   4.358   2.529
    1C        C  608   2.765   4.220   2.652
    1C        C  609   2.817   4.273   2.772
    1C        C  610   2.684   4.111   2.894
    1C        C  611   2.772   4.221   2.895
    1C        C  612   2.651   4.052   3.019
    1C        C  613   2.692   4.110   3.141
    1C        C  614   2.598   3.922   3.265
    1C        C  615   2.655   4.051   3.263
    1C        C  616   2.572   3.860   3.389
    1C        C  617   2.600   3.929   3.510
    1C        C  618   2.529   3.730   3.638
    1C        C  619   2.577   3.863   3.633
    1C        C  620   2.517   3.662   3.761
    1C        C  621   2.531   3.734   3.881
    1C        C  622   2.506   3.526   4.008
    1C        C  623   2.517   3.667   4.005
    1C        C  624   2.513   3.457   4.131
    1C        C  625   2.510   3.530   4.252
    1C        C  626   2.538   3.321   4.376
    1C        C  627   2.516   3.461   4.376
    1C        C  628   2.554   3.253   4.499
    1C        C  629   2.536   3.324   4.620
    1C        C  630   2.593   3.121   4.744
    1C        C  631   2.546   3.256   4.744
    1C        C  632   2.611   3.048   4.864
    1C        C  633   2.558   3.110   4.982
    1C        C  634   2.784   4.302   2.054
    1C        C  635   2.889   4.394   2.051
    1C        C  636   2.751   4.226   2.167
    1C        C  637   2.809   4.274   2.287
    1C        C  638   2.670   4.111   2.409
    1C        C  639   2.760   4.219   2.408
    1C        C  640   2.637   4.047   2.531
    1C        C  641   2.680   4.106   2.651
    1C        C  642   2.584   3.920   2.775
    1C        C  643   2.644   4.048   2.775
    1C        C  644   2.560   3.857   2.899
    1C        C  645   2.583   3.928   3.020
    1C        C  646   2.527   3.724   3.150
    1C        C  647   2.565   3.860   3.142
    1C        C  648   2.511   3.653   3.271
    1C        C  649   2.528   3.726   3.391
    1C        C  650   2.510   3.519   3.519
    1C        C  651   2.514   3.661   3.516
    1C        C  652   2.516   3.451   3.643
    1C        C  653   2.501   3.521   3.765
    1C        C  654   2.519   3.312   3.891
    1C        C  655   2.504   3.452   3.888
    1C        C  656   2.533   3.242   4.014
    1C        C  657   2.529   3.317   4.134
    1C        C  658   2.586   3.112   4.257
    1C        C  659   2.548   3.248   4.256
    1C        C  660   2.624   3.053   4.380
    1C        C  661   2.599   3.119   4.502
    1C        C  662   2.713   2.942   4.624
    1C        C  663   2.628   3.055   4.625
    1C        C  664   2.753   2.882   4.745
    1C        C  665   2.696   2.933   4.865
    1C        C  666   2.742   2.870   4.982
    1C        C  667   2.682   4.019   2.055
    1C        C  668   2.686   4.101   2.169
    1C        C  669   2.587   3.911   2.290
    1C        C  670   2.640   4.043   2.289
    1C        C  671   2.560   3.846   2.412
    1C        C  672   2.587   3.915   2.533
    1C        C  673   2.513   3.716   2.657
    1C        C  674   2.557   3.850   2.655
    1C        C  675   2.508   3.650   2.782
    1C        C  676   2.525   3.720   2.903
    1C        C  677   2.499   3.514   3.030
    1C        C  678   2.512   3.654   3.027
    1C        C  679   2.501   3.441   3.152
    1C        C  680   2.495   3.513   3.273
    1C        C  681   2.532   3.308   3.401
    1C        C  682   2.507   3.447   3.398
    1C        C  683   2.555   3.242   3.524
    1C        C  684   2.539   3.312   3.646
    1C        C  685   2.597   3.112   3.772
    1C        C  686   2.552   3.246   3.770
    1C        C  687   2.628   3.050   3.895
    1C        C  688   2.590   3.113   4.015
    1C        C  689   2.703   2.933   4.139
    1C        C  690   2.618   3.046   4.136
    1C        C  691   2.756   2.885   4.260
    1C        C  692   2.708   2.940   4.382
    1C        C  693   2.759   2.886   4.502
    1C        C  694   2.633   3.888   2.056
    1C        C  695   2.526   3.701   2.172
    1C        C  696   2.584   3.830   2.174
    1C        C  697   2.503   3.638   2.296
    1C        C  698   2.516   3.712   2.415
    1C        C  699   2.484   3.502   2.543
    1C        C  700   2.498   3.643   2.537
    1C        C  701   2.494   3.435   2.667
    1C        C  702   2.500   3.509   2.787
    1C        C  703   2.526   3.300   2.909
    1C        C  704   2.501   3.440   2.910
    1C        C  705   2.544   3.234   3.033
    1C        C  706   2.528   3.303   3.155
    1C        C  707   2.598   3.105   3.280
    1C        C  708   2.554   3.239   3.279
    1C        C  709   2.628   3.044   3.403
    1C        C  710   2.603   3.109   3.526
    1C        C  711   2.712   2.932   3.649
    1C        C  712   2.631   3.048   3.650
    1C        C  713   2.757   2.881   3.772
    1C        C  714   2.710   2.935   3.894
    1C        C  715   2.750   2.877   4.018
    1C        C  716   2.448   3.493   2.062
    1C        C  717   2.484   3.628   2.060
    1C        C  718   2.465   3.420   2.184
    1C        C  719   2.485   3.497   2.302
    1C        C  720   2.508   3.288   2.425
    1C        C  721   2.482   3.426   2.424
    1C        C  722   2.531   3.221   2.548
    1C        C  723   2.517   3.296   2.667
    1C        C  724   2.588   3.095   2.790
    1C        C  725   2.541   3.228   2.789
    1C        C  726   2.624   3.040   2.915
    1C        C  727   2.593   3.102   3.038
    1C        C  728   2.702   2.918   3.159
    1C        C  729   2.624   3.036   3.159
    1C        C  730   2.749   2.867   3.282
    1C        C  731   2.712   2.930   3.402
    1C        C  732   2.755   2.877   3.526
    1C        C  733   2.483   3.194   2.075
    1C        C  734   2.486   3.278   2.187
    1C        C  735   2.579   3.081   2.306
    1C        C  736   2.524   3.212   2.307
    1C        C  737   2.610   3.020   2.429
    1C        C  738   2.585   3.091   2.549
    1C        C  739   2.696   2.908   2.669
    1C        C  740   2.623   3.029   2.670
    1C        C  741   2.742   2.860   2.794
    1C        C  742   2.701   2.921   2.914
    1C        C  743   2.746   2.865   3.035
    1C        C  744   2.550   3.073   2.068
    1C        C  745   2.684   2.898   2.186
    1C        C  746   2.608   3.017   2.183
    1C        C  747   2.725   2.837   2.307
    1C        C  748   2.684   2.899   2.427
    1C        C  749   2.739   2.851   2.547
    1C        C  750   2.730   2.837   2.068
    1C        C  751   3.661   2.316   1.979
    1C        O  752   3.626   2.196   1.997
    1C        O  753   3.662   2.362   1.847
    1C        C  754   4.609   3.053   1.966
    1C        O  755   4.567   3.052   1.847
    1C        O  756   4.749   3.054   1.971
    1C        C  757   4.457   4.221   1.968
    1C        O  758   4.557   4.292   1.999
    1C        O  759   4.411   4.249   1.838
    1C        C  760   3.578   4.648   1.930
    1C        O  761   3.534   4.757   1.975
    1C        O  762   3.535   4.620   1.800
    1C        C  763   2.882   4.512   1.962
    1C        O  764   2.890   4.508   1.836
    1C        O  765   2.841   4.640   2.004
    1C        C  766   2.351   3.451   1.958
    1C        O  767   2.397   3.440   1.841
    1C        O  768   2.217   3.487   1.974
    1C        C  769   4.669   3.583   5.077
    1C        O  770   4.619   3.566   5.192
    1C        O  771   4.798   3.638   5.087
    1C        C  772   4.270   4.453   5.044
    1C        O  773   4.262   4.423   5.166
    1C        O  774   4.317   4.584   5.030
    1C        C  775   4.141   2.520   5.069
    1C        O  776   4.230   2.437   5.036
    1C        O  777   4.166   2.583   5.192
    1C        C  778   2.892   4.541   5.047
    1C        O  779   2.833   4.648   5.015
    1C        O  780   2.935   4.532   5.180
    1C        C  781   2.481   3.035   5.084
    1C        O  782   2.359   3.021   5.053
    1C        O  783   2.518   3.042   5.217
    1C        C  784   2.414   4.005   5.052
    1C        O  785   2.306   4.036   4.994
    1C        O  786   2.405   3.922   5.164
    1C        C  787   2.950   2.432   1.992
    1C        O  788   2.936   2.459   1.869
    1C        O  789   2.844   2.354   2.036
    1C        C  790   3.190   2.375   5.071
    1C        O  791   3.133   2.272   5.028
    1C        O  792   3.217   2.385   5.208
    1C        H  793   4.249   3.048   5.025
    1C        H  794   4.185   2.818   5.076
    1C        H  795   4.544   3.122   5.041
    1C        H  796   4.487   3.363   5.064
    1C        H  797   4.599   3.826   5.022
    1C        H  798   4.441   3.986   5.056
    1C        H  799   4.323   4.186   5.051
    1C        H  800   4.039   4.548   5.020
    1C        H  801   3.814   4.626   5.029
    1C        H  802   3.593   4.644   5.033
    1C        H  803   3.389   4.547   5.050
    1C        H  804   3.168   4.471   5.056
    1C        H  805   3.910   2.455   5.049
    1C        H  806   3.676   2.464   5.077
    1C        H  807   3.006   2.559   5.069
    1C        H  808   3.445   2.469   5.075
    1C        H  809   2.832   2.701   5.063
    1C        H  810   2.722   2.909   5.080
    1C        H  811   2.562   3.298   5.067
    1C        H  812   2.548   3.498   5.072
    1C        H  813   2.514   3.740   5.069
    1C        H  814   2.554   4.197   5.013
    1C        H  815   2.714   4.369   5.021
    1C        H  816   2.669   2.833   1.981
    1C        H  817   2.872   2.705   1.978
    1C        H  818   3.220   2.460   1.986
    1C        H  819   3.429   2.438   1.978
    1C        H  820   3.842   2.537   1.971
    1C        H  821   4.040   2.667   1.980
    1C        H  822   4.280   2.705   1.982
    1C        H  823   4.352   2.938   1.976
    1C        H  824   4.611   3.296   1.980
    1C        H  825   4.502   3.507   1.963
    1C        H  826   4.470   3.740   1.955
    1C        H  827   3.806   4.508   1.955
    1C        H  828   3.999   4.412   1.958
    1C        H  829   4.163   4.265   1.946
    1C        H  830   4.480   3.956   1.965
    1C        H  831   2.647   3.829   1.967
    1C        H  832   2.740   4.043   1.969
    1C        H  833   2.713   4.302   1.974
    1C        H  834   3.371   4.469   1.946
    1C        H  835   3.146   4.402   1.958
    1C        H  836   2.536   3.010   1.984
    1C        H  837   2.396   3.211   2.015
    1C        H  838   2.443   3.690   1.983
    2V3OU   H29  839   2.806   3.546   3.713
    2V3OU   C27  840   2.789   3.506   3.816
    2V3OU   H27  841   2.737   3.576   3.888
    2V3OU   H28  842   2.739   3.406   3.806
    2V3OU   O11  843   2.917   3.471   3.868
    2V3OU   C15  844   2.925   3.395   3.983
    2V3OU   C13  845   3.057   3.369   4.026
    2V3OU   C14  846   3.082   3.263   4.115
    2V3OU   C16  847   2.981   3.188   4.174
    2V3OU    H6  848   2.994   3.104   4.245
    2V3OU   C12  849   3.217   3.228   4.163
    2V3OU    O2  850   3.241   3.121   4.224
    2V3OU   C10  851   3.328   3.306   4.107
    2V3OU    C8  852   3.460   3.266   4.124
    2V3OU   O10  853   3.488   3.153   4.193
    2V3OU   H26  854   3.401   3.111   4.209
    2V3OU    C6  855   3.568   3.347   4.077
    2V3OU    C5  856   3.540   3.466   4.010
    2V3OU    C4  857   3.705   3.291   4.091
    2V3OU    H4  858   3.717   3.226   4.183
    2V3OU    H5  859   3.712   3.221   4.002
    2V3OU    C2  860   3.814   3.398   4.081
    2V3OU    O6  861   3.807   3.474   4.202
    2V3OU   H21  862   3.768   3.562   4.184
    2V3OU    C3  863   3.782   3.497   3.968
    2V3OU    H2  864   3.863   3.573   3.958
    2V3OU    H3  865   3.788   3.439   3.873
    2V3OU   C25  866   3.946   3.325   4.055
    2V3OU    O7  867   3.998   3.296   3.947
    2V3OU   C26  868   4.031   3.288   4.175
    2V3OU   H22  869   4.061   3.385   4.222
    2V3OU   H23  870   4.123   3.233   4.140
    2V3OU    O8  871   3.961   3.209   4.267
    2V3OU   H24  872   3.920   3.267   4.333
    2V3OU    C1  873   3.647   3.566   3.976
    2V3OU    H1  874   3.630   3.622   3.880
    2V3OU    O3  875   3.656   3.652   4.090
    2V3OU   C19  876   3.621   3.789   4.067
    2V3OU    H9  877   3.517   3.801   4.024
    2V3OU    O4  878   3.717   3.846   3.981
    2V3OU   C20  879   3.849   3.871   4.030
    2V3OU   H10  880   3.886   3.764   4.040
    2V3OU   C24  881   3.611   3.855   4.205
    2V3OU   H16  882   3.543   3.793   4.270
    2V3OU   H17  883   3.566   3.956   4.188
    2V3OU   C23  884   3.751   3.872   4.263
    2V3OU   H15  885   3.793   3.770   4.292
    2V3OU    N1  886   3.732   3.951   4.383
    2V3OU   H19  887   3.804   3.924   4.446
    2V3OU   H20  888   3.646   3.929   4.428
    2V3OU   C21  889   3.844   3.947   4.162
    2V3OU   H11  890   3.948   3.921   4.201
    2V3OU    O5  891   3.831   4.088   4.169
    2V3OU   H18  892   3.783   4.111   4.250
    2V3OU   C22  893   3.917   3.948   3.918
    2V3OU   H12  894   3.868   4.049   3.907
    2V3OU   H13  895   3.910   3.893   3.821
    2V3OU   H14  896   4.027   3.954   3.940
    2V3OU   C11  897   3.160   3.474   4.029
    2V3OU    O1  898   3.126   3.590   3.999
    2V3OU    C9  899   3.300   3.428   4.041
    2V3OU    C7  900   3.404   3.505   3.990
    2V3OU    O9  901   3.385   3.625   3.925
    2V3OU   H25  902   3.290   3.643   3.924
    2V3OU   C17  903   2.828   3.323   4.055
    2V3OU    H7  904   2.729   3.355   4.022
    2V3OU   C18  905   2.849   3.221   4.148
    2V3OU    H8  906   2.791   3.170   4.226
    3SOL     OW  907   2.793   4.191   5.491
    3SOL    HW1  908   2.768   4.269   5.434
    3SOL    HW2  909   2.824   4.223   5.580
    4SOL     OW  910   6.689   0.103   6.748
    4SOL    HW1  911   6.600   0.060   6.764
    4SOL    HW2  912   6.707   0.107   6.650
    5SOL     OW  913   4.760   1.628   2.659
    5SOL    HW1  914   4.756   1.544   2.712
    5SOL    HW2  915   4.671   1.645   2.617
    6SOL     OW  916   4.925   2.318   3.041
    6SOL    HW1  917   4.848   2.256   3.057
    6SOL    HW2  918   4.971   2.292   2.956
    7SOL     OW  919   1.091   3.980   4.067
    7SOL    HW1  920   0.997   4.008   4.048
    7SOL    HW2  921   1.136   3.954   3.981
    8SOL     OW  922   3.002   2.176   5.724
    8SOL    HW1  923   3.092   2.190   5.683
    8SOL    HW2  924   2.949   2.113   5.668
    9SOL     OW  925   6.319   1.631   6.028
    9SOL    HW1  926   6.246   1.630   6.096
    9SOL    HW2  927   6.374   1.548   6.037
   10SOL     OW  928   3.552   5.004   3.993
   10SOL    HW1  929   3.577   4.925   4.049
   10SOL    HW2  930   3.513   4.972   3.906
   11SOL     OW  931   1.795   1.250   6.877
   11SOL    HW1  932   1.716   1.310   6.887
   11SOL    HW2  933   1.820   1.212   6.966
   12SOL     OW  934   2.536   4.516   4.194
   12SOL    HW1  935   2.501   4.539   4.103
   12SOL    HW2  936   2.590   4.432   4.188
   13SOL     OW  937   3.493   6.182   3.005
   13SOL    HW1  938   3.396   6.158   3.004
   13SOL    HW2  939   3.531   6.171   2.913
   14SOL     OW  940   4.350   4.062   6.407
   14SOL    HW1  941   4.279   4.072   6.337
   14SOL    HW2  942   4.434   4.027   6.365
   15SOL     OW  943   0.921   6.713   6.243
   15SOL    HW1  944   0.952   6.672   6.157
   15SOL    HW2  945   0.830   6.752   6.229
   16SOL     OW  946   6.079   2.376   6.143
   16SOL    HW1  947   6.105   2.472   6.128
   16SOL    HW2  948   5.992   2.373   6.192
   17SOL     OW  949   5.307   0.438   6.406
   17SOL    HW1  950   5.230   0.381   6.437
   17SOL    HW2  951   5.386   0.423   6.466
   18SOL     OW  952   4.006   1.285   5.080
   18SOL    HW1  953   4.063   1.340   5.020
   18SOL    HW2  954   4.031   1.303   5.175
   19SOL     OW  955   0.535   2.433   2.885
   19SOL    HW1  956   0.481   2.349   2.886
   19SOL    HW2  957   0.600   2.432   2.961
   20SOL     OW  958   5.525   2.053   5.258
   20SOL    HW1  959   5.510   2.152   5.257
   20SOL    HW2  960   5.437   2.005   5.251
   21SOL     OW  961   3.030   0.492   2.816
   21SOL    HW1  962   3.105   0.447   2.864
   21SOL    HW2  963   2.945   0.441   2.831
   22SOL     OW  964   1.083   6.251   6.222
   22SOL    HW1  965   1.054   6.242   6.317
   22SOL    HW2  966   1.181   6.274   6.219
   23SOL     OW  967   3.924   5.505   2.404
   23SOL    HW1  968   3.934   5.469   2.312
   23SOL    HW2  969   3.990   5.462   2.465
   24SOL     OW  970   3.667   0.060   2.269
   24SOL    HW1  971   3.658   0.112   2.184
   24SOL    HW2  972   3.729   7.006   2.256
   25SOL     OW  973   2.605   0.017   4.120
   25SOL    HW1  974   2.600   6.960   4.061
   25SOL    HW2  975   2.536   0.084   4.093
   26SOL     OW  976   0.528   2.017   0.017
   26SOL    HW1  977   0.570   1.996   0.105
   26SOL    HW2  978   0.599   2.026   6.971
   27SOL     OW  979   1.290   1.410   2.037
   27SOL    HW1  980   1.313   1.498   1.995
   27SOL    HW2  981   1.374   1.366   2.069
   28SOL     OW  982   0.638   0.958   4.713
   28SOL    HW1  983   0.566   0.958   4.644
   28SOL    HW2  984   0.629   0.877   4.771
   29SOL     OW  985   6.277   1.077   1.325
   29SOL    HW1  986   6.291   0.978   1.320
   29SOL    HW2  987   6.186   1.096   1.362
   30SOL     OW  988   3.602   0.333   5.284
   30SOL    HW1  989   3.618   0.345   5.186
   30SOL    HW2  990   3.576   0.420   5.325
   31SOL     OW  991   0.477   2.319   5.567
   31SOL    HW1  992   0.516   2.316   5.660
   31SOL    HW2  993   0.541   2.365   5.506
   32SOL     OW  994   1.516   1.706   2.392
   32SOL    HW1  995   1.502   1.801   2.365
   32SOL    HW2  996   1.541   1.702   2.489
   33SOL     OW  997   0.669   3.941   5.165
   33SOL    HW1  998   0.716   3.858   5.135
   33SOL    HW2  999   0.662   4.005   5.088
   34SOL     OW 1000   2.399   5.790   4.994
   34SOL    HW1 1001   2.445   5.861   5.048
   34SOL    HW2 1002   2.303   5.815   4.981
   35SOL     OW 1003   4.753   1.778   5.170
   35SOL    HW1 1004   4.704   1.704   5.124
   35SOL    HW2 1005   4.696   1.860   5.173
   36SOL     OW 1006   5.160   1.324   3.896
   36SOL    HW1 1007   5.168   1.389   3.820
   36SOL    HW2 1008   5.251   1.297   3.926
   37SOL     OW 1009   2.070   1.556   4.574
   37SOL    HW1 1010   2.167   1.566   4.598
   37SOL    HW2 1011   2.054   1.596   4.484
   38SOL     OW 1012   2.233   4.077   1.674
   38SOL    HW1 1013   2.304   4.143   1.696
   38SOL    HW2 1014   2.172   4.115   1.605
   39SOL     OW 1015   6.592   4.846   6.332
   39SOL    HW1 1016   6.617   4.796   6.415
   39SOL    HW2 1017   6.655   4.824   6.258
   40SOL     OW 1018   3.253   1.399   6.502
   40SOL    HW1 1019   3.241   1.365   6.595
   40SOL    HW2 1020   3.198   1.344   6.439
   41SOL     OW 1021   6.531   3.774   2.681
   41SOL    HW1 1022   6.440   3.816   2.685
   41SOL    HW2 1023   6.550   3.745   2.587
   42SOL     OW 1024   3.439   6.197   4.218
   42SOL    HW1 1025   3.497   6.141   4.277
   42SOL    HW2 1026   3.422   6.285   4.262
   43SOL     OW 1027   4.073   0.220   5.561
   43SOL    HW1 1028   4.085   0.275   5.644
   43SOL    HW2 1029   4.002   0.260   5.504
   44SOL     OW 1030   5.975   2.931   4.913
   44SOL    HW1 1031   5.987   2.931   5.012
   44SOL    HW2 1032   5.930   3.016   4.884
   45SOL     OW 1033   4.155   5.395   1.373
   45SOL    HW1 1034   4.111   5.484   1.384
   45SOL    HW2 1035   4.182   5.382   1.278
   46SOL     OW 1036   0.219   2.600   3.916
   46SOL    HW1 1037   0.283   2.545   3.970
   46SOL    HW2 1038   0.269   2.676   3.874
   47SOL     OW 1039   5.186   3.813   1.443
   47SOL    HW1 1040   5.165   3.765   1.358
   47SOL    HW2 1041   5.119   3.787   1.513
   48SOL     OW 1042   0.102   2.358   6.319
   48SOL    HW1 1043   0.037   2.411   6.264
   48SOL    HW2 1044   0.176   2.417   6.350
   49SOL     OW 1045   5.330   3.054   1.459
   49SOL    HW1 1046   5.398   3.061   1.532
   49SOL    HW2 1047   5.358   2.983   1.394
   50SOL     OW 1048   6.084   1.870   5.469
   50SOL    HW1 1049   6.039   1.810   5.535
   50SOL    HW2 1050   6.140   1.936   5.518
   51SOL     OW 1051   2.132   6.413   2.817
   51SOL    HW1 1052   2.130   6.398   2.718
   51SOL    HW2 1053   2.184   6.339   2.860
   52SOL     OW 1054   5.166   2.644   1.945
   52SOL    HW1 1055   5.159   2.592   2.030
   52SOL    HW2 1056   5.082   2.633   1.891
   53SOL     OW 1057   4.888   0.021   3.528
   53SOL    HW1 1058   4.950   0.022   3.450
   53SOL    HW2 1059   4.850   6.952   3.539
   54SOL     OW 1060   5.451   6.956   0.019
   54SOL    HW1 1061   5.508   6.891   0.070
   54SOL    HW2 1062   5.357   6.951   0.051
   55SOL     OW 1063   2.584   2.094   5.430
   55SOL    HW1 1064   2.596   2.191   5.410
   55SOL    HW2 1065   2.571   2.082   5.528
   56SOL     OW 1066   1.275   2.025   1.195
   56SOL    HW1 1067   1.199   1.979   1.239
   56SOL    HW2 1068   1.342   2.053   1.263
   57SOL     OW 1069   3.768   1.264   6.981
   57SOL    HW1 1070   3.852   1.276   0.010
   57SOL    HW2 1071   3.738   1.169   6.987
   58SOL     OW 1072   0.585   0.239   6.031
   58SOL    HW1 1073   0.500   0.288   6.050
   58SOL    HW2 1074   0.657   0.305   6.010
   59SOL     OW 1075   6.389   3.625   6.242
   59SOL    HW1 1076   6.358   3.551   6.301
   59SOL    HW2 1077   6.444   3.587   6.167
   60SOL     OW 1078   5.229   1.932   3.763
   60SOL    HW1 1079   5.275   1.843   3.758
   60SOL    HW2 1080   5.131   1.918   3.777
   61SOL     OW 1081   6.834   1.061   4.362
   61SOL    HW1 1082   6.761   1.016   4.413
   61SOL    HW2 1083   6.861   1.145   4.410
   62SOL     OW 1084   1.744   1.241   1.432
   62SOL    HW1 1085   1.756   1.254   1.334
   62SOL    HW2 1086   1.800   1.165   1.464
   63SOL     OW 1087   3.840   0.420   4.348
   63SOL    HW1 1088   3.880   0.408   4.257
   63SOL    HW2 1089   3.765   0.487   4.343
   64SOL     OW 1090   0.596   3.249   6.471
   64SOL    HW1 1091   0.682   3.297   6.452
   64SOL    HW2 1092   0.519   3.305   6.441
   65SOL     OW 1093   1.292   6.570   5.709
   65SOL    HW1 1094   1.243   6.533   5.788
   65SOL    HW2 1095   1.247   6.540   5.625
   66SOL     OW 1096   3.482   0.283   3.123
   66SOL    HW1 1097   3.486   0.217   3.198
   66SOL    HW2 1098   3.533   0.247   3.045
   67SOL     OW 1099   0.298   2.866   6.212
   67SOL    HW1 1100   0.310   2.891   6.308
   67SOL    HW2 1101   0.282   2.949   6.158
   68SOL     OW 1102   6.589   1.593   6.243
   68SOL    HW1 1103   6.494   1.575   6.270
   68SOL    HW2 1104   6.650   1.533   6.294
   69SOL     OW 1105   1.838   3.359   5.837
   69SOL    HW1 1106   1.883   3.407   5.912
   69SOL    HW2 1107   1.847   3.260   5.850
   70SOL     OW 1108   5.287   4.968   4.880
   70SOL    HW1 1109   5.340   4.899   4.929
   70SOL    HW2 1110   5.232   4.923   4.809
   71SOL     OW 1111   4.677   1.614   3.482
   71SOL    HW1 1112   4.657   1.698   3.533
   71SOL    HW2 1113   4.651   1.626   3.386
   72SOL     OW 1114   0.595   1.205   3.067
   72SOL    HW1 1115   0.512   1.254   3.041
   72SOL    HW2 1116   0.571   1.126   3.125
   73SOL     OW 1117   2.822   7.019   0.927
   73SOL    HW1 1118   2.846   0.092   0.932
   73SOL    HW2 1119   2.905   6.965   0.912
   74SOL     OW 1120   2.390   1.753   6.703
   74SOL    HW1 1121   2.407   1.655   6.705
   74SOL    HW2 1122   2.453   1.799   6.767
   75SOL     OW 1123   3.696   1.050   1.598
   75SOL    HW1 1124   3.737   1.045   1.507
   75SOL    HW2 1125   3.703   0.960   1.642
   76SOL     OW 1126   1.940   4.297   5.920
   76SOL    HW1 1127   1.935   4.263   6.013
   76SOL    HW2 1128   1.851   4.336   5.893
   77SOL     OW 1129   2.343   5.748   3.724
   77SOL    HW1 1130   2.421   5.761   3.784
   77SOL    HW2 1131   2.259   5.741   3.778
   78SOL     OW 1132   4.358   1.475   1.029
   78SOL    HW1 1133   4.418   1.417   0.973
   78SOL    HW2 1134   4.310   1.418   1.095
   79SOL     OW 1135   2.608   5.992   2.122
   79SOL    HW1 1136   2.651   6.062   2.178
   79SOL    HW2 1137   2.533   6.033   2.069
   80SOL     OW 1138   4.764   1.809   4.757
   80SOL    HW1 1139   4.727   1.879   4.818
   80SOL    HW2 1140   4.806   1.736   4.811
   81SOL     OW 1141   1.760   0.109   0.571
   81SOL    HW1 1142   1.778   0.016   0.537
   81SOL    HW2 1143   1.779   0.175   0.499
   82SOL     OW 1144   0.544   6.247   1.665
   82SOL    HW1 1145   0.569   6.238   1.568
   82SOL    HW2 1146   0.499   6.335   1.679
   83SOL     OW 1147   0.298   1.533   6.091
   83SOL    HW1 1148   0.308   1.485   6.179
   83SOL    HW2 1149   0.306   1.467   6.016
   84SOL     OW 1150   6.515   4.048   2.942
   84SOL    HW1 1151   6.479   4.084   2.856
   84SOL    HW2 1152   6.606   4.010   2.927
   85SOL     OW 1153   1.839   0.260   3.438
   85SOL    HW1 1154   1.779   0.334   3.408
   85SOL    HW2 1155   1.790   0.173   3.434
   86SOL     OW 1156   6.676   1.021   6.727
   86SOL    HW1 1157   6.583   1.031   6.691
   86SOL    HW2 1158   6.684   1.072   6.813
   87SOL     OW 1159   3.853   3.947   0.855
   87SOL    HW1 1160   3.948   3.966   0.831
   87SOL    HW2 1161   3.850   3.879   0.929
   88SOL     OW 1162   3.009   2.041   6.365
   88SOL    HW1 1163   3.007   2.042   6.465
   88SOL    HW2 1164   3.079   2.104   6.332
   89SOL     OW 1165   2.943   3.820   1.346
   89SOL    HW1 1166   2.889   3.804   1.263
   89SOL    HW2 1167   2.913   3.906   1.389
   90SOL     OW 1168   4.651   4.580   2.400
   90SOL    HW1 1169   4.579   4.535   2.452
   90SOL    HW2 1170   4.630   4.677   2.390
   91SOL     OW 1171   6.101   5.373   6.497
   91SOL    HW1 1172   6.121   5.400   6.403
   91SOL    HW2 1173   6.180   5.397   6.555
   92SOL     OW 1174   5.498   3.710   0.954
   92SOL    HW1 1175   5.458   3.800   0.937
   92SOL    HW2 1176   5.451   3.642   0.897
   93SOL     OW 1177   2.896   3.867   0.448
   93SOL    HW1 1178   2.811   3.815   0.435
   93SOL    HW2 1179   2.874   3.964   0.455
   94SOL     OW 1180   2.378   6.152   0.834
   94SOL    HW1 1181   2.314   6.215   0.789
   94SOL    HW2 1182   2.344   6.058   0.825
   95SOL     OW 1183   1.179   0.803   3.700
   95SOL    HW1 1184   1.106   0.833   3.638
   95SOL    HW2 1185   1.149   0.815   3.794
   96SOL     OW 1186   4.501   5.916   6.802
   96SOL    HW1 1187   4.515   5.903   6.900
   96SOL    HW2 1188   4.582   5.959   6.763
   97SOL     OW 1189   1.979   4.357   4.895
   97SOL    HW1 1190   1.953   4.431   4.833
   97SOL    HW2 1191   2.079   4.354   4.903
   98SOL     OW 1192   1.000   2.393   1.047
   98SOL    HW1 1193   1.003   2.465   1.117
   98SOL    HW2 1194   1.017   2.434   0.957
   99SOL     OW 1195   3.900   3.993   3.121
   99SOL    HW1 1196   3.880   4.058   3.194
   99SOL    HW2 1197   3.829   3.923   3.118
  100SOL     OW 1198   6.276   0.043   4.244
  100SOL    HW1 1199   6.211   7.000   4.205
  100SOL    HW2 1200   6.242   0.072   4.334
  101SOL     OW 1201   0.691   5.453   2.083
  101SOL    HW1 1202   0.745   5.484   2.161
  101SOL    HW2 1203   0.610   5.510   2.074
  102SOL     OW 1204   2.898   6.323   2.441
  102SOL    HW1 1205   2.930   6.416   2.425
  102SOL    HW2 1206   2.827   6.300   2.374
  103SOL     OW 1207   1.658   1.533   2.266
  103SOL    HW1 1208   1.601   1.606   2.303
  103SOL    HW2 1209   1.653   1.535   2.166
  104SOL     OW 1210   1.632   5.125   2.252
  104SOL    HW1 1211   1.689   5.207   2.245
  104SOL    HW2 1212   1.681   5.054   2.302
  105SOL     OW 1213   5.064   1.491   6.180
  105SOL    HW1 1214   5.079   1.508   6.277
  105SOL    HW2 1215   5.151   1.502   6.131
  106SOL     OW 1216   4.679   4.917   1.751
  106SOL    HW1 1217   4.590   4.879   1.728
  106SOL    HW2 1218   4.748   4.844   1.747
  107SOL     OW 1219   6.372   0.866   6.515
  107SOL    HW1 1220   6.407   0.944   6.567
  107SOL    HW2 1221   6.272   0.866   6.518
  108SOL     OW 1222   3.235   6.812   5.546
  108SOL    HW1 1223   3.319   6.864   5.526
  108SOL    HW2 1224   3.199   6.840   5.635
  109SOL     OW 1225   3.049   0.672   2.351
  109SOL    HW1 1226   3.119   0.714   2.410
  109SOL    HW2 1227   2.961   0.672   2.398
  110SOL     OW 1228   2.808   5.333   4.783
  110SOL    HW1 1229   2.744   5.375   4.718
  110SOL    HW2 1230   2.761   5.263   4.836
  111SOL     OW 1231   0.690   1.778   2.673
  111SOL    HW1 1232   0.747   1.827   2.607
  111SOL    HW2 1233   0.662   1.841   2.746
  112SOL     OW 1234   4.996   6.756   6.516
  112SOL    HW1 1235   4.963   6.846   6.487
  112SOL    HW2 1236   5.073   6.767   6.579
  113SOL     OW 1237   0.003   5.885   2.404
  113SOL    HW1 1238   6.995   5.795   2.433
  113SOL    HW2 1239   0.072   5.876   2.333
  114SOL     OW 1240   0.962   5.253   2.494
  114SOL    HW1 1241   0.943   5.295   2.583
  114SOL    HW2 1242   1.002   5.163   2.508
  115SOL     OW 1243   5.730   1.138   3.421
  115SOL    HW1 1244   5.787   1.057   3.407
  115SOL    HW2 1245   5.769   1.194   3.494
  116SOL     OW 1246   6.939   6.195   1.310
  116SOL    HW1 1247   6.876   6.156   1.377
  116SOL    HW2 1248   6.954   6.292   1.330
  117SOL     OW 1249   2.163   0.763   0.403
  117SOL    HW1 1250   2.193   0.856   0.383
  117SOL    HW2 1251   2.073   0.765   0.446
  118SOL     OW 1252   1.614   1.624   3.906
  118SOL    HW1 1253   1.658   1.646   3.993
  118SOL    HW2 1254   1.613   1.706   3.848
  119SOL     OW 1255   0.099   6.703   6.704
  119SOL    HW1 1256   0.130   6.686   6.610
  119SOL    HW2 1257   0.175   6.689   6.767
  120SOL     OW 1258   4.583   0.332   4.658
  120SOL    HW1 1259   4.599   0.430   4.665
  120SOL    HW2 1260   4.516   0.314   4.586
  121SOL     OW 1261   2.032   3.825   0.258
  121SOL    HW1 1262   1.973   3.759   0.306
  121SOL    HW2 1263   2.122   3.827   0.303
  122SOL     OW 1264   1.729   3.422   0.394
  122SOL    HW1 1265   1.756   3.327   0.381
  122SOL    HW2 1266   1.635   3.426   0.427
  123SOL     OW 1267   1.057   1.045   1.496
  123SOL    HW1 1268   1.119   1.005   1.564
  123SOL    HW2 1269   1.022   1.132   1.530
  124SOL     OW 1270   3.138   2.094   0.592
  124SOL    HW1 1271   3.050   2.140   0.596
  124SOL    HW2 1272   3.190   2.127   0.513
  125SOL     OW 1273   3.711   2.804   0.377
  125SOL    HW1 1274   3.744   2.874   0.440
  125SOL    HW2 1275   3.674   2.727   0.429
  126SOL     OW 1276   2.962   3.396   3.193
  126SOL    HW1 1277   2.950   3.453   3.111
  126SOL    HW2 1278   2.906   3.313   3.184
  127SOL     OW 1279   6.543   6.127   5.743
  127SOL    HW1 1280   6.625   6.087   5.783
  127SOL    HW2 1281   6.562   6.221   5.713
  128SOL     OW 1282   5.156   3.085   2.549
  128SOL    HW1 1283   5.181   3.073   2.453
  128SOL    HW2 1284   5.203   3.165   2.586
  129SOL     OW 1285   2.998   4.329   0.975
  129SOL    HW1 1286   3.088   4.370   0.960
  129SOL    HW2 1287   2.930   4.402   0.986
  130SOL     OW 1288   6.275   0.735   4.805
  130SOL    HW1 1289   6.189   0.780   4.828
  130SOL    HW2 1290   6.311   0.689   4.886
  131SOL     OW 1291   5.618   0.606   4.521
  131SOL    HW1 1292   5.556   0.618   4.599
  131SOL    HW2 1293   5.683   0.533   4.541
  132SOL     OW 1294   3.647   3.412   1.327
  132SOL    HW1 1295   3.563   3.454   1.361
  132SOL    HW2 1296   3.632   3.315   1.310
  133SOL     OW 1297   5.351   1.330   3.333
  133SOL    HW1 1298   5.281   1.294   3.395
  133SOL    HW2 1299   5.404   1.254   3.295
  134SOL     OW 1300   0.708   0.958   2.541
  134SOL    HW1 1301   0.739   1.015   2.466
  134SOL    HW2 1302   0.721   1.007   2.628
  135SOL     OW 1303   5.127   3.363   4.161
  135SOL    HW1 1304   5.175   3.279   4.187
  135SOL    HW2 1305   5.041   3.340   4.116
  136SOL     OW 1306   2.595   6.364   4.331
  136SOL    HW1 1307   2.636   6.312   4.256
  136SOL    HW2 1308   2.564   6.453   4.298
  137SOL     OW 1309   4.379   1.104   4.216
  137SOL    HW1 1310   4.415   1.164   4.288
  137SOL    HW2 1311   4.283   1.082   4.235
  138SOL     OW 1312   0.683   4.933   3.454
  138SOL    HW1 1313   0.633   4.994   3.515
  138SOL    HW2 1314   0.750   4.986   3.402
  139SOL     OW 1315   2.525   5.590   6.487
  139SOL    HW1 1316   2.471   5.672   6.507
  139SOL    HW2 1317   2.467   5.523   6.440
  140SOL     OW 1318   1.752   6.436   2.773
  140SOL    HW1 1319   1.667   6.420   2.723
  140SOL    HW2 1320   1.820   6.368   2.746
  141SOL     OW 1321   6.635   3.751   6.472
  141SOL    HW1 1322   6.571   3.674   6.480
  141SOL    HW2 1323   6.692   3.755   6.553
  142SOL     OW 1324   2.006   3.868   1.437
  142SOL    HW1 1325   2.093   3.844   1.479
  142SOL    HW2 1326   2.018   3.949   1.380
  143SOL     OW 1327   5.643   6.154   0.984
  143SOL    HW1 1328   5.583   6.118   1.055
  143SOL    HW2 1329   5.739   6.144   1.013
  144SOL     OW 1330   3.068   4.830   3.679
  144SOL    HW1 1331   3.128   4.852   3.756
  144SOL    HW2 1332   3.119   4.838   3.593
  145SOL     OW 1333   1.158   5.029   2.566
  145SOL    HW1 1334   1.252   5.042   2.535
  145SOL    HW2 1335   1.101   5.002   2.488
  146SOL     OW 1336   5.438   0.872   5.535
  146SOL    HW1 1337   5.381   0.861   5.617
  146SOL    HW2 1338   5.384   0.849   5.454
  147SOL     OW 1339   5.354   1.523   4.842
  147SOL    HW1 1340   5.382   1.593   4.776
  147SOL    HW2 1341   5.374   1.432   4.806
  148SOL     OW 1342   1.317   5.276   1.501
  148SOL    HW1 1343   1.285   5.203   1.441
  148SOL    HW2 1344   1.348   5.353   1.445
  149SOL     OW 1345   3.051   2.393   5.436
  149SOL    HW1 1346   3.095   2.397   5.346
  149SOL    HW2 1347   3.119   2.368   5.505
  150SOL     OW 1348   4.454   0.757   5.790
  150SOL    HW1 1349   4.362   0.746   5.754
  150SOL    HW2 1350   4.471   0.854   5.809
  151SOL     OW 1351   4.193   0.726   1.598
  151SOL    HW1 1352   4.156   0.802   1.544
  151SOL    HW2 1353   4.250   0.669   1.539
  152SOL     OW 1354   6.955   1.407   0.557
  152SOL    HW1 1355   7.019   1.400   0.481
  152SOL    HW2 1356   6.983   1.347   0.631
  153SOL     OW 1357   2.804   0.662   3.443
  153SOL    HW1 1358   2.743   0.650   3.365
  153SOL    HW2 1359   2.876   0.593   3.441
  154SOL     OW 1360   6.836   2.460   0.185
  154SOL    HW1 1361   6.934   2.446   0.197
  154SOL    HW2 1362   6.798   2.502   0.268
  155SOL     OW 1363   0.353   0.207   1.938
  155SOL    HW1 1364   0.447   0.218   1.971
  155SOL    HW2 1365   0.350   0.136   1.868
  156SOL     OW 1366   6.175   1.702   0.616
  156SOL    HW1 1367   6.118   1.662   0.689
  156SOL    HW2 1368   6.130   1.689   0.528
  157SOL     OW 1369   5.819   2.952   6.939
  157SOL    HW1 1370   5.855   2.912   7.023
  157SOL    HW2 1371   5.733   3.000   6.959
  158SOL     OW 1372   1.669   2.559   1.607
  158SOL    HW1 1373   1.698   2.475   1.654
  158SOL    HW2 1374   1.590   2.598   1.656
  159SOL     OW 1375   4.455   4.504   1.185
  159SOL    HW1 1376   4.500   4.415   1.187
  159SOL    HW2 1377   4.492   4.559   1.110
  160SOL     OW 1378   6.365   0.228   1.675
  160SOL    HW1 1379   6.434   0.257   1.609
  160SOL    HW2 1380   6.305   0.305   1.696
  161SOL     OW 1381   0.937   6.827   1.306
  161SOL    HW1 1382   0.864   6.811   1.239
  161SOL    HW2 1383   0.937   6.924   1.332
  162SOL     OW 1384   2.818   6.644   0.138
  162SOL    HW1 1385   2.724   6.623   0.166
  162SOL    HW2 1386   2.878   6.567   0.159
  163SOL     OW 1387   0.268   5.284   3.156
  163SOL    HW1 1388   0.266   5.367   3.100
  163SOL    HW2 1389   0.189   5.284   3.218
  164SOL     OW 1390   0.852   1.941   2.933
  164SOL    HW1 1391   0.760   1.912   2.908
  164SOL    HW2 1392   0.870   1.917   3.028
  165SOL     OW 1393   6.380   5.658   1.853
  165SOL    HW1 1394   6.365   5.655   1.952
  165SOL    HW2 1395   6.456   5.719   1.833
  166SOL     OW 1396   6.604   3.591   1.523
  166SOL    HW1 1397   6.647   3.549   1.603
  166SOL    HW2 1398   6.505   3.586   1.533
  167SOL     OW 1399   5.602   1.752   6.929
  167SOL    HW1 1400   5.518   1.704   6.956
  167SOL    HW2 1401   5.610   1.837   6.980
  168SOL     OW 1402   3.762   2.541   1.376
  168SOL    HW1 1403   3.676   2.528   1.425
  168SOL    HW2 1404   3.779   2.639   1.365
  169SOL     OW 1405   6.067   3.101   6.962
  169SOL    HW1 1406   6.059   3.081   6.865
  169SOL    HW2 1407   6.081   3.016   7.013
  170SOL     OW 1408   0.154   5.708   3.395
  170SOL    HW1 1409   0.106   5.657   3.466
  170SOL    HW2 1410   0.089   5.762   3.343
  171SOL     OW 1411   1.799   3.751   6.577
  171SOL    HW1 1412   1.714   3.723   6.533
  171SOL    HW2 1413   1.843   3.672   6.619
  172SOL     OW 1414   6.152   2.830   2.312
  172SOL    HW1 1415   6.078   2.875   2.262
  172SOL    HW2 1416   6.116   2.753   2.364
  173SOL     OW 1417   5.808   1.418   4.257
  173SOL    HW1 1418   5.884   1.432   4.320
  173SOL    HW2 1419   5.803   1.321   4.232
  174SOL     OW 1420   5.343   5.300   4.734
  174SOL    HW1 1421   5.412   5.239   4.772
  174SOL    HW2 1422   5.252   5.259   4.744
  175SOL     OW 1423   2.886   0.279   1.084
  175SOL    HW1 1424   2.979   0.266   1.116
  175SOL    HW2 1425   2.821   0.242   1.151
  176SOL     OW 1426   4.785   4.155   3.388
  176SOL    HW1 1427   4.864   4.178   3.445
  176SOL    HW2 1428   4.814   4.092   3.315
  177SOL     OW 1429   5.339   2.417   5.261
  177SOL    HW1 1430   5.317   2.406   5.358
  177SOL    HW2 1431   5.354   2.327   5.220
  178SOL     OW 1432   3.007   4.815   4.299
  178SOL    HW1 1433   3.094   4.866   4.296
  178SOL    HW2 1434   2.981   4.800   4.394
  179SOL     OW 1435   4.188   6.351   0.002
  179SOL    HW1 1436   4.260   6.347   0.072
  179SOL    HW2 1437   4.107   6.395   0.040
  180SOL     OW 1438   2.534   6.550   0.105
  180SOL    HW1 1439   2.529   6.538   0.204
  180SOL    HW2 1440   2.467   6.490   0.061
  181SOL     OW 1441   3.149   2.536   5.807
  181SOL    HW1 1442   3.222   2.604   5.815
  181SOL    HW2 1443   3.188   2.444   5.814
  182SOL     OW 1444   4.653   3.162   6.728
  182SOL    HW1 1445   4.600   3.146   6.812
  182SOL    HW2 1446   4.738   3.210   6.751
  183SOL     OW 1447   4.141   2.170   3.770
  183SOL    HW1 1448   4.073   2.145   3.840
  183SOL    HW2 1449   4.121   2.262   3.736
  184SOL     OW 1450   0.954   6.865   3.157
  184SOL    HW1 1451   0.967   6.767   3.169
  184SOL    HW2 1452   0.940   6.909   3.246
  185SOL     OW 1453   1.136   1.486   3.908
  185SOL    HW1 1454   1.226   1.444   3.906
  185SOL    HW2 1455   1.067   1.417   3.930
  186SOL     OW 1456   5.803   6.767   4.163
  186SOL    HW1 1457   5.856   6.740   4.082
  186SOL    HW2 1458   5.706   6.769   4.140
  187SOL     OW 1459   4.562   6.109   2.230
  187SOL    HW1 1460   4.491   6.039   2.241
  187SOL    HW2 1461   4.614   6.090   2.146
  188SOL     OW 1462   1.053   1.881   3.250
  188SOL    HW1 1463   1.036   1.967   3.201
  188SOL    HW2 1464   0.967   1.835   3.269
  189SOL     OW 1465   0.234   4.604   6.518
  189SOL    HW1 1466   0.166   4.602   6.591
  189SOL    HW2 1467   0.201   4.549   6.441
  190SOL     OW 1468   5.652   4.926   6.946
  190SOL    HW1 1469   5.680   4.905   6.852
  190SOL    HW2 1470   5.730   4.914   7.007
  191SOL     OW 1471   6.576   1.399   5.677
  191SOL    HW1 1472   6.628   1.386   5.593
  191SOL    HW2 1473   6.509   1.471   5.664
  192SOL     OW 1474   0.556   4.662   1.566
  192SOL    HW1 1475   0.648   4.693   1.593
  192SOL    HW2 1476   0.556   4.637   1.469
  193SOL     OW 1477   4.747   4.612   5.357
  193SOL    HW1 1478   4.838   4.583   5.388
  193SOL    HW2 1479   4.756   4.692   5.298
  194SOL     OW 1480   4.155   6.871   1.905
  194SOL    HW1 1481   4.194   6.868   1.813
  194SOL    HW2 1482   4.223   6.906   1.970
  195SOL     OW 1483   2.383   0.670   3.664
  195SOL    HW1 1484   2.355   0.766   3.654
  195SOL    HW2 1485   2.444   0.661   3.742
  196SOL     OW 1486   3.397   0.287   0.100
  196SOL    HW1 1487   3.494   0.269   0.084
  196SOL    HW2 1488   3.357   0.331   0.019
  197SOL     OW 1489   2.996   5.822   6.912
  197SOL    HW1 1490   2.932   5.867   6.975
  197SOL    HW2 1491   2.972   5.725   6.905
  198SOL     OW 1492   4.464   6.486   0.839
  198SOL    HW1 1493   4.407   6.443   0.769
  198SOL    HW2 1494   4.414   6.490   0.925
  199SOL     OW 1495   6.407   1.096   2.909
  199SOL    HW1 1496   6.415   1.068   2.813
  199SOL    HW2 1497   6.438   1.191   2.918
  200SOL     OW 1498   0.732   3.491   2.554
  200SOL    HW1 1499   0.659   3.427   2.576
  200SOL    HW2 1500   0.771   3.527   2.639
  201SOL     OW 1501   3.102   6.574   5.777
  201SOL    HW1 1502   3.198   6.545   5.776
  201SOL    HW2 1503   3.048   6.507   5.827
  202SOL     OW 1504   5.338   0.479   5.159
  202SOL    HW1 1505   5.363   0.576   5.157
  202SOL    HW2 1506   5.267   0.464   5.227
  203SOL     OW 1507   4.825   2.623   5.215
  203SOL    HW1 1508   4.821   2.719   5.188
  203SOL    HW2 1509   4.921   2.595   5.224
  204SOL     OW 1510   0.690   0.112   6.838
  204SOL    HW1 1511   0.683   0.212   6.839
  204SOL    HW2 1512   0.728   0.081   6.925
  205SOL     OW 1513   1.000   1.626   1.719
  205SOL    HW1 1514   0.928   1.557   1.714
  205SOL    HW2 1515   1.009   1.657   1.814
  206SOL     OW 1516   0.427   5.007   2.149
  206SOL    HW1 1517   0.466   4.971   2.065
  206SOL    HW2 1518   0.449   5.104   2.158
  207SOL     OW 1519   4.088   0.704   5.094
  207SOL    HW1 1520   4.061   0.799   5.076
  207SOL    HW2 1521   4.024   0.663   5.159
  208SOL     OW 1522   5.479   3.950   5.450
  208SOL    HW1 1523   5.547   3.961   5.523
  208SOL    HW2 1524   5.402   4.011   5.466
  209SOL     OW 1525   0.492   5.699   5.625
  209SOL    HW1 1526   0.541   5.724   5.709
  209SOL    HW2 1527   0.477   5.781   5.570
  210SOL     OW 1528   4.253   2.222   2.453
  210SOL    HW1 1529   4.165   2.202   2.498
  210SOL    HW2 1530   4.270   2.154   2.382
  211SOL     OW 1531   0.941   6.510   3.503
  211SOL    HW1 1532   0.959   6.562   3.419
  211SOL    HW2 1533   0.926   6.414   3.480
  212SOL     OW 1534   1.749   4.656   1.901
  212SOL    HW1 1535   1.763   4.733   1.963
  212SOL    HW2 1536   1.758   4.687   1.806
  213SOL     OW 1537   4.125   0.748   0.003
  213SOL    HW1 1538   4.153   0.656   0.030
  213SOL    HW2 1539   4.153   0.765   6.931
  214SOL     OW 1540   2.167   6.077   2.662
  214SOL    HW1 1541   2.198   6.136   2.588
  214SOL    HW2 1542   2.165   5.982   2.631
  215SOL     OW 1543   3.623   4.091   2.298
  215SOL    HW1 1544   3.647   4.139   2.382
  215SOL    HW2 1545   3.527   4.062   2.303
  216SOL     OW 1546   1.556   6.880   4.493
  216SOL    HW1 1547   1.522   6.801   4.441
  216SOL    HW2 1548   1.585   6.849   4.583
  217SOL     OW 1549   2.051   2.829   4.782
  217SOL    HW1 1550   2.048   2.738   4.740
  217SOL    HW2 1551   2.077   2.820   4.878
  218SOL     OW 1552   1.283   2.742   5.019
  218SOL    HW1 1553   1.296   2.643   5.010
  218SOL    HW2 1554   1.363   2.782   5.063
  219SOL     OW 1555   3.859   4.714   5.957
  219SOL    HW1 1556   3.889   4.622   5.932
  219SOL    HW2 1557   3.821   4.712   6.050
  220SOL     OW 1558   3.431   5.015   0.081
  220SOL    HW1 1559   3.500   5.054   0.021
  220SOL    HW2 1560   3.477   4.970   0.158
  221SOL     OW 1561   5.883   4.117   2.471
  221SOL    HW1 1562   5.906   4.211   2.493
  221SOL    HW2 1563   5.784   4.104   2.479
  222SOL     OW 1564   1.660   4.953   5.386
  222SOL    HW1 1565   1.742   4.896   5.388
  222SOL    HW2 1566   1.582   4.897   5.357
  223SOL     OW 1567   0.443   3.318   0.741
  223SOL    HW1 1568   0.522   3.380   0.736
  223SOL    HW2 1569   0.474   3.225   0.721
  224SOL     OW 1570   2.892   2.239   3.730
  224SOL    HW1 1571   2.834   2.320   3.723
  224SOL    HW2 1572   2.892   2.206   3.824
  225SOL     OW 1573   5.419   1.371   6.447
  225SOL    HW1 1574   5.358   1.440   6.407
  225SOL    HW2 1575   5.443   1.304   6.376
  226SOL     OW 1576   0.718   6.338   6.744
  226SOL    HW1 1577   0.775   6.411   6.781
  226SOL    HW2 1578   0.623   6.354   6.769
  227SOL     OW 1579   1.141   4.499   2.993
  227SOL    HW1 1580   1.072   4.565   3.025
  227SOL    HW2 1581   1.175   4.527   2.903
  228SOL     OW 1582   2.960   0.083   3.702
  228SOL    HW1 1583   2.958   0.037   3.791
  228SOL    HW2 1584   2.875   0.134   3.689
  229SOL     OW 1585   6.203   5.656   0.850
  229SOL    HW1 1586   6.182   5.753   0.856
  229SOL    HW2 1587   6.228   5.622   0.941
  230SOL     OW 1588   2.732   4.695   3.461
  230SOL    HW1 1589   2.666   4.710   3.535
  230SOL    HW2 1590   2.698   4.624   3.400
  231SOL     OW 1591   6.768   2.416   6.090
  231SOL    HW1 1592   6.675   2.452   6.092
  231SOL    HW2 1593   6.766   2.317   6.082
  232SOL     OW 1594   0.721   4.326   5.940
  232SOL    HW1 1595   0.754   4.400   5.881
  232SOL    HW2 1596   0.725   4.356   6.036
  233SOL     OW 1597   2.493   0.998   4.488
  233SOL    HW1 1598   2.433   1.068   4.525
  233SOL    HW2 1599   2.588   1.025   4.500
  234SOL     OW 1600   2.445   5.382   5.328
  234SOL    HW1 1601   2.517   5.434   5.282
  234SOL    HW2 1602   2.379   5.350   5.260
  235SOL     OW 1603   3.744   2.873   2.283
  235SOL    HW1 1604   3.669   2.823   2.326
  235SOL    HW2 1605   3.731   2.874   2.184
  236SOL     OW 1606   5.568   3.510   6.551
  236SOL    HW1 1607   5.618   3.496   6.465
  236SOL    HW2 1608   5.498   3.438   6.560
  237SOL     OW 1609   0.543   6.596   0.594
  237SOL    HW1 1610   0.492   6.580   0.678
  237SOL    HW2 1611   0.513   6.683   0.553
  238SOL     OW 1612   6.710   2.953   0.611
  238SOL    HW1 1613   6.750   3.007   0.684
  238SOL    HW2 1614   6.769   2.958   0.530
  239SOL     OW 1615   6.584   4.633   0.174
  239SOL    HW1 1616   6.538   4.638   0.085
  239SOL    HW2 1617   6.528   4.580   0.237
  240SOL     OW 1618   0.307   2.769   5.836
  240SOL    HW1 1619   0.346   2.699   5.777
  240SOL    HW2 1620   0.289   2.730   5.926
  241SOL     OW 1621   0.783   0.519   3.940
  241SOL    HW1 1622   0.836   0.575   4.003
  241SOL    HW2 1623   0.742   0.442   3.990
  242SOL     OW 1624   1.175   2.201   6.205
  242SOL    HW1 1625   1.180   2.252   6.119
  242SOL    HW2 1626   1.226   2.250   6.276
  243SOL     OW 1627   4.413   0.319   5.826
  243SOL    HW1 1628   4.331   0.342   5.879
  243SOL    HW2 1629   4.486   0.383   5.850
  244SOL     OW 1630   4.761   2.732   4.274
  244SOL    HW1 1631   4.692   2.729   4.346
  244SOL    HW2 1632   4.820   2.652   4.281
  245SOL     OW 1633   6.883   2.600   4.495
  245SOL    HW1 1634   6.939   2.662   4.439
  245SOL    HW2 1635   6.787   2.607   4.468
  246SOL     OW 1636   5.421   3.508   3.667
  246SOL    HW1 1637   5.453   3.567   3.592
  246SOL    HW2 1638   5.425   3.559   3.753
  247SOL     OW 1639   2.667   1.685   2.952
  247SOL    HW1 1640   2.674   1.641   2.863
  247SOL    HW2 1641   2.691   1.782   2.943
  248SOL     OW 1642   4.499   2.549   4.335
  248SOL    HW1 1643   4.540   2.567   4.246
  248SOL    HW2 1644   4.549   2.597   4.406
  249SOL     OW 1645   3.438   6.816   4.960
  249SOL    HW1 1646   3.360   6.774   5.006
  249SOL    HW2 1647   3.410   6.848   4.869
  250SOL     OW 1648   5.413   1.912   5.604
  250SOL    HW1 1649   5.314   1.902   5.601
  250SOL    HW2 1650   5.456   1.828   5.571
  251SOL     OW 1651   4.375   3.672   6.006
  251SOL    HW1 1652   4.408   3.624   6.088
  251SOL    HW2 1653   4.444   3.738   5.977
  252SOL     OW 1654   0.031   1.235   6.075
  252SOL    HW1 1655   0.016   1.333   6.067
  252SOL    HW2 1656   6.987   1.195   6.137
  253SOL     OW 1657   2.829   4.431   0.236
  253SOL    HW1 1658   2.918   4.472   0.257
  253SOL    HW2 1659   2.765   4.451   0.311
  254SOL     OW 1660   6.438   2.499   3.679
  254SOL    HW1 1661   6.388   2.578   3.716
  254SOL    HW2 1662   6.436   2.424   3.744
  255SOL     OW 1663   3.022   1.869   4.196
  255SOL    HW1 1664   3.087   1.801   4.165
  255SOL    HW2 1665   2.976   1.836   4.279
  256SOL     OW 1666   6.798   4.782   0.110
  256SOL    HW1 1667   6.846   4.828   0.184
  256SOL    HW2 1668   6.722   4.729   0.147
  257SOL     OW 1669   3.187   5.496   5.460
  257SOL    HW1 1670   3.227   5.405   5.446
  257SOL    HW2 1671   3.120   5.491   5.534
  258SOL     OW 1672   5.232   3.690   4.904
  258SOL    HW1 1673   5.296   3.632   4.855
  258SOL    HW2 1674   5.257   3.693   5.001
  259SOL     OW 1675   1.457   3.040   2.954
  259SOL    HW1 1676   1.428   2.944   2.954
  259SOL    HW2 1677   1.403   3.090   2.885
  260SOL     OW 1678   4.671   0.184   0.661
  260SOL    HW1 1679   4.651   0.151   0.753
  260SOL    HW2 1680   4.635   0.119   0.593
  261SOL     OW 1681   0.516   3.465   1.263
  261SOL    HW1 1682   0.546   3.440   1.171
  261SOL    HW2 1683   0.523   3.565   1.274
  262SOL     OW 1684   0.714   4.403   2.395
  262SOL    HW1 1685   0.647   4.408   2.469
  262SOL    HW2 1686   0.680   4.340   2.324
  263SOL     OW 1687   0.127   1.861   4.580
  263SOL    HW1 1688   0.095   1.918   4.656
  263SOL    HW2 1689   0.222   1.834   4.595
  264SOL     OW 1690   6.788   3.721   5.709
  264SOL    HW1 1691   6.688   3.722   5.716
  264SOL    HW2 1692   6.814   3.739   5.614
  265SOL     OW 1693   5.235   4.014   3.365
  265SOL    HW1 1694   5.157   3.962   3.400
  265SOL    HW2 1695   5.318   3.958   3.371
  266SOL     OW 1696   3.502   2.199   6.743
  266SOL    HW1 1697   3.470   2.189   6.648
  266SOL    HW2 1698   3.557   2.282   6.751
  267SOL     OW 1699   1.171   3.046   6.991
  267SOL    HW1 1700   1.078   3.065   6.959
  267SOL    HW2 1701   1.175   2.953   0.003
  268SOL     OW 1702   4.874   5.340   4.923
  268SOL    HW1 1703   4.835   5.394   4.849
  268SOL    HW2 1704   4.805   5.326   4.994
  269SOL     OW 1705   2.076   2.265   6.975
  269SOL    HW1 1706   2.139   2.306   0.018
  269SOL    HW2 1707   2.125   2.200   6.918
  270SOL     OW 1708   4.994   0.996   2.466
  270SOL    HW1 1709   4.941   0.912   2.464
  270SOL    HW2 1710   5.086   0.979   2.429
  271SOL     OW 1711   2.086   1.987   0.823
  271SOL    HW1 1712   2.159   2.052   0.799
  271SOL    HW2 1713   2.050   2.009   0.913
  272SOL     OW 1714   4.010   5.490   4.072
  272SOL    HW1 1715   4.006   5.585   4.103
  272SOL    HW2 1716   3.936   5.473   4.007
  273SOL     OW 1717   1.182   5.602   5.051
  273SOL    HW1 1718   1.209   5.683   5.104
  273SOL    HW2 1719   1.264   5.558   5.015
  274SOL     OW 1720   4.983   2.759   3.629
  274SOL    HW1 1721   4.958   2.740   3.534
  274SOL    HW2 1722   4.946   2.848   3.655
  275SOL     OW 1723   0.789   5.247   6.367
  275SOL    HW1 1724   0.783   5.155   6.329
  275SOL    HW2 1725   0.709   5.300   6.338
  276SOL     OW 1726   6.421   5.416   4.183
  276SOL    HW1 1727   6.396   5.472   4.262
  276SOL    HW2 1728   6.366   5.332   4.183
  277SOL     OW 1729   2.682   0.599   5.831
  277SOL    HW1 1730   2.706   0.560   5.743
  277SOL    HW2 1731   2.702   0.697   5.831
  278SOL     OW 1732   5.442   3.503   2.384
  278SOL    HW1 1733   5.491   3.482   2.299
  278SOL    HW2 1734   5.478   3.445   2.458
  279SOL     OW 1735   6.474   3.139   3.819
  279SOL    HW1 1736   6.519   3.212   3.767
  279SOL    HW2 1737   6.542   3.088   3.871
  280SOL     OW 1738   4.702   6.691   4.131
  280SOL    HW1 1739   4.634   6.704   4.204
  280SOL    HW2 1740   4.730   6.780   4.095
  281SOL     OW 1741   3.139   5.306   3.692
  281SOL    HW1 1742   3.209   5.377   3.680
  281SOL    HW2 1743   3.086   5.325   3.775
  282SOL     OW 1744   3.883   2.274   5.373
  282SOL    HW1 1745   3.832   2.359   5.389
  282SOL    HW2 1746   3.902   2.230   5.460
  283SOL     OW 1747   6.268   6.914   5.278
  283SOL    HW1 1748   6.212   6.844   5.235
  283SOL    HW2 1749   6.232   7.004   5.255
  284SOL     OW 1750   0.634   4.568   4.042
  284SOL    HW1 1751   0.605   4.535   4.132
  284SOL    HW2 1752   0.587   4.653   4.021
  285SOL     OW 1753   5.440   6.339   0.123
  285SOL    HW1 1754   5.527   6.294   0.144
  285SOL    HW2 1755   5.405   6.383   0.205
  286SOL     OW 1756   3.795   4.854   5.731
  286SOL    HW1 1757   3.801   4.787   5.805
  286SOL    HW2 1758   3.874   4.915   5.735
  287SOL     OW 1759   1.532   5.564   6.319
  287SOL    HW1 1760   1.547   5.468   6.297
  287SOL    HW2 1761   1.546   5.578   6.417
  288SOL     OW 1762   4.212   0.815   1.006
  288SOL    HW1 1763   4.145   0.887   1.024
  288SOL    HW2 1764   4.166   0.727   0.999
  289SOL     OW 1765   1.195   5.499   5.849
  289SOL    HW1 1766   1.283   5.451   5.858
  289SOL    HW2 1767   1.134   5.446   5.790
  290SOL     OW 1768   4.335   0.298   3.235
  290SOL    HW1 1769   4.342   0.393   3.265
  290SOL    HW2 1770   4.343   0.294   3.136
  291SOL     OW 1771   4.106   1.349   3.658
  291SOL    HW1 1772   4.027   1.307   3.612
  291SOL    HW2 1773   4.111   1.316   3.752
  292SOL     OW 1774   4.115   0.772   3.310
  292SOL    HW1 1775   4.093   0.864   3.278
  292SOL    HW2 1776   4.033   0.727   3.344
  293SOL     OW 1777   4.547   5.997   1.629
  293SOL    HW1 1778   4.501   5.984   1.541
  293SOL    HW2 1779   4.563   6.095   1.644
  294SOL     OW 1780   6.012   6.198   6.194
  294SOL    HW1 1781   5.967   6.154   6.271
  294SOL    HW2 1782   6.102   6.233   6.223
  295SOL     OW 1783   1.403   2.498   5.771
  295SOL    HW1 1784   1.314   2.491   5.727
  295SOL    HW2 1785   1.475   2.490   5.702
  296SOL     OW 1786   6.309   2.094   1.404
  296SOL    HW1 1787   6.246   2.081   1.327
  296SOL    HW2 1788   6.390   2.143   1.373
  297SOL     OW 1789   4.431   4.952   3.567
  297SOL    HW1 1790   4.390   4.861   3.577
  297SOL    HW2 1791   4.516   4.956   3.619
  298SOL     OW 1792   4.196   0.691   0.669
  298SOL    HW1 1793   4.236   0.602   0.693
  298SOL    HW2 1794   4.096   0.685   0.675
  299SOL     OW 1795   3.644   1.643   0.119
  299SOL    HW1 1796   3.666   1.632   0.022
  299SOL    HW2 1797   3.589   1.726   0.131
  300SOL     OW 1798   3.800   0.943   2.627
  300SOL    HW1 1799   3.822   1.008   2.555
  300SOL    HW2 1800   3.704   0.916   2.620
  301SOL     OW 1801   5.137   0.756   1.683
  301SOL    HW1 1802   5.224   0.797   1.710
  301SOL    HW2 1803   5.063   0.821   1.699
  302SOL     OW 1804   0.620   0.190   2.288
  302SOL    HW1 1805   0.593   0.264   2.350
  302SOL    HW2 1806   0.623   0.226   2.195
  303SOL     OW 1807   5.828   6.092   1.647
  303SOL    HW1 1808   5.766   6.168   1.664
  303SOL    HW2 1809   5.816   6.022   1.717
  304SOL     OW 1810   2.116   6.227   6.298
  304SOL    HW1 1811   2.111   6.151   6.233
  304SOL    HW2 1812   2.202   6.276   6.286
  305SOL     OW 1813   1.487   3.204   0.649
  305SOL    HW1 1814   1.445   3.114   0.636
  305SOL    HW2 1815   1.416   3.274   0.645
  306SOL     OW 1816   0.367   0.997   2.762
  306SOL    HW1 1817   0.385   1.088   2.725
  306SOL    HW2 1818   0.301   0.950   2.704
  307SOL     OW 1819   3.589   3.904   0.491
  307SOL    HW1 1820   3.592   3.918   0.590
  307SOL    HW2 1821   3.543   3.817   0.471
  308SOL     OW 1822   6.266   2.807   4.159
  308SOL    HW1 1823   6.316   2.858   4.229
  308SOL    HW2 1824   6.200   2.747   4.203
  309SOL     OW 1825   1.543   6.397   0.416
  309SOL    HW1 1826   1.579   6.447   0.336
  309SOL    HW2 1827   1.530   6.461   0.492
  310SOL     OW 1828   5.821   6.307   3.962
  310SOL    HW1 1829   5.791   6.402   3.953
  310SOL    HW2 1830   5.918   6.300   3.938
  311SOL     OW 1831   2.520   4.491   2.226
  311SOL    HW1 1832   2.539   4.524   2.319
  311SOL    HW2 1833   2.451   4.419   2.229
  312SOL     OW 1834   4.010   2.119   4.472
  312SOL    HW1 1835   4.010   2.214   4.502
  312SOL    HW2 1836   3.975   2.114   4.378
  313SOL     OW 1837   2.924   3.733   2.845
  313SOL    HW1 1838   2.960   3.826   2.854
  313SOL    HW2 1839   2.930   3.686   2.933
  314SOL     OW 1840   2.032   4.926   4.943
  314SOL    HW1 1841   1.934   4.911   4.958
  314SOL    HW2 1842   2.045   4.981   4.861
  315SOL     OW 1843   0.389   1.927   3.732
  315SOL    HW1 1844   0.403   1.865   3.809
  315SOL    HW2 1845   0.436   2.013   3.749
  316SOL     OW 1846   4.176   1.297   4.460
  316SOL    HW1 1847   4.164   1.292   4.559
  316SOL    HW2 1848   4.273   1.296   4.438
  317SOL     OW 1849   1.404   1.498   1.672
  317SOL    HW1 1850   1.357   1.558   1.607
  317SOL    HW2 1851   1.380   1.526   1.765
  318SOL     OW 1852   5.853   0.606   6.313
  318SOL    HW1 1853   5.825   0.700   6.295
  318SOL    HW2 1854   5.775   0.545   6.300
  319SOL     OW 1855   6.765   2.084   3.199
  319SOL    HW1 1856   6.682   2.121   3.157
  319SOL    HW2 1857   6.741   2.003   3.253
  320SOL     OW 1858   6.176   3.335   0.078
  320SOL    HW1 1859   6.221   3.288   0.154
  320SOL    HW2 1860   6.146   3.268   0.010
  321SOL     OW 1861   4.171   2.213   0.884
  321SOL    HW1 1862   4.215   2.219   0.973
  321SOL    HW2 1863   4.119   2.128   0.878
  322SOL     OW 1864   3.814   2.984   4.566
  322SOL    HW1 1865   3.828   2.885   4.563
  322SOL    HW2 1866   3.827   3.022   4.475
  323SOL     OW 1867   1.191   2.321   4.569
  323SOL    HW1 1868   1.279   2.304   4.614
  323SOL    HW2 1869   1.206   2.374   4.486
  324SOL     OW 1870   2.123   0.050   3.692
  324SOL    HW1 1871   2.081   0.140   3.697
  324SOL    HW2 1872   2.054   7.006   3.663
  325SOL     OW 1873   1.360   4.150   2.566
  325SOL    HW1 1874   1.401   4.073   2.615
  325SOL    HW2 1875   1.424   4.226   2.564
  326SOL     OW 1876   0.901   4.221   5.495
  326SOL    HW1 1877   0.949   4.290   5.440
  326SOL    HW2 1878   0.824   4.185   5.443
  327SOL     OW 1879   2.628   4.555   2.504
  327SOL    HW1 1880   2.544   4.572   2.556
  327SOL    HW2 1881   2.706   4.557   2.566
  328SOL     OW 1882   1.768   4.798   1.321
  328SOL    HW1 1883   1.775   4.870   1.389
  328SOL    HW2 1884   1.674   4.762   1.319
  329SOL     OW 1885   2.306   3.599   5.761
  329SOL    HW1 1886   2.399   3.563   5.752
  329SOL    HW2 1887   2.296   3.643   5.850
  330SOL     OW 1888   3.536   6.386   0.307
  330SOL    HW1 1889   3.570   6.379   0.400
  330SOL    HW2 1890   3.537   6.481   0.278
  331SOL     OW 1891   5.850   5.154   0.947
  331SOL    HW1 1892   5.802   5.229   0.992
  331SOL    HW2 1893   5.807   5.134   0.859
  332SOL     OW 1894   5.786   1.854   3.819
  332SOL    HW1 1895   5.786   1.842   3.720
  332SOL    HW2 1896   5.720   1.925   3.844
  333SOL     OW 1897   4.336   0.929   5.282
  333SOL    HW1 1898   4.264   0.978   5.332
  333SOL    HW2 1899   4.394   0.994   5.233
  334SOL     OW 1900   4.004   2.331   0.675
  334SOL    HW1 1901   3.929   2.267   0.656
  334SOL    HW2 1902   4.072   2.286   0.733
  335SOL     OW 1903   4.261   0.460   6.660
  335SOL    HW1 1904   4.359   0.481   6.662
  335SOL    HW2 1905   4.219   0.506   6.582
  336SOL     OW 1906   2.862   1.088   3.026
  336SOL    HW1 1907   2.851   0.990   3.008
  336SOL    HW2 1908   2.922   1.128   2.956
  337SOL     OW 1909   1.211   2.337   5.956
  337SOL    HW1 1910   1.215   2.436   5.938
  337SOL    HW2 1911   1.207   2.288   5.869
  338SOL     OW 1912   3.295   3.126   1.846
  338SOL    HW1 1913   3.236   3.046   1.837
  338SOL    HW2 1914   3.247   3.197   1.897
  339SOL     OW 1915   4.433   5.450   4.648
  339SOL    HW1 1916   4.379   5.403   4.579
  339SOL    HW2 1917   4.465   5.537   4.611
  340SOL     OW 1918   5.015   3.351   4.943
  340SOL    HW1 1919   4.965   3.349   5.030
  340SOL    HW2 1920   5.023   3.445   4.911
  341SOL     OW 1921   5.133   6.620   4.247
  341SOL    HW1 1922   5.225   6.635   4.284
  341SOL    HW2 1923   5.095   6.707   4.216
  342SOL     OW 1924   4.753   3.041   0.577
  342SOL    HW1 1925   4.834   3.066   0.523
  342SOL    HW2 1926   4.695   3.122   0.589
  343SOL     OW 1927   0.139   6.567   2.441
  343SOL    HW1 1928   0.142   6.667   2.454
  343SOL    HW2 1929   0.231   6.534   2.419
  344SOL     OW 1930   0.980   2.457   1.928
  344SOL    HW1 1931   0.932   2.481   1.844
  344SOL    HW2 1932   1.031   2.536   1.962
  345SOL     OW 1933   6.265   1.931   3.898
  345SOL    HW1 1934   6.179   1.890   3.930
  345SOL    HW2 1935   6.339   1.866   3.911
  346SOL     OW 1936   1.577   0.256   2.736
  346SOL    HW1 1937   1.548   0.167   2.702
  346SOL    HW2 1938   1.676   0.265   2.727
  347SOL     OW 1939   3.005   5.628   0.231
  347SOL    HW1 1940   2.942   5.706   0.234
  347SOL    HW2 1941   2.969   5.558   0.170
  348SOL     OW 1942   4.669   4.804   3.136
  348SOL    HW1 1943   4.607   4.869   3.091
  348SOL    HW2 1944   4.699   4.842   3.223
  349SOL     OW 1945   6.627   4.757   2.231
  349SOL    HW1 1946   6.589   4.665   2.228
  349SOL    HW2 1947   6.727   4.751   2.230
  350SOL     OW 1948   2.863   3.494   0.910
  350SOL    HW1 1949   2.811   3.412   0.889
  350SOL    HW2 1950   2.873   3.503   1.010
  351SOL     OW 1951   2.437   3.486   0.591
  351SOL    HW1 1952   2.369   3.559   0.601
  351SOL    HW2 1953   2.523   3.516   0.631
  352SOL     OW 1954   3.759   6.728   3.529
  352SOL    HW1 1955   3.729   6.659   3.594
  352SOL    HW2 1956   3.682   6.754   3.470
  353SOL     OW 1957   3.091   0.379   6.527
  353SOL    HW1 1958   3.189   0.383   6.546
  353SOL    HW2 1959   3.065   0.284   6.509
  354SOL     OW 1960   4.753   2.560   1.342
  354SOL    HW1 1961   4.823   2.566   1.413
  354SOL    HW2 1962   4.708   2.471   1.346
  355SOL     OW 1963   1.753   3.921   2.509
  355SOL    HW1 1964   1.670   3.956   2.466
  355SOL    HW2 1965   1.739   3.826   2.537
  356SOL     OW 1966   2.496   1.101   5.346
  356SOL    HW1 1967   2.558   1.150   5.285
  356SOL    HW2 1968   2.466   1.162   5.419
  357SOL     OW 1969   6.381   6.035   4.941
  357SOL    HW1 1970   6.324   6.089   5.003
  357SOL    HW2 1971   6.334   6.023   4.854
  358SOL     OW 1972   4.764   6.618   0.320
  358SOL    HW1 1973   4.800   6.574   0.402
  358SOL    HW2 1974   4.830   6.608   0.245
  359SOL     OW 1975   3.217   1.205   1.932
  359SOL    HW1 1976   3.152   1.147   1.981
  359SOL    HW2 1977   3.305   1.206   1.981
  360SOL     OW 1978   1.646   3.497   4.651
  360SOL    HW1 1979   1.681   3.573   4.705
  360SOL    HW2 1980   1.598   3.532   4.571
  361SOL     OW 1981   6.432   5.917   2.990
  361SOL    HW1 1982   6.468   6.008   3.013
  361SOL    HW2 1983   6.419   5.912   2.891
  362SOL     OW 1984   3.403   2.790   1.895
  362SOL    HW1 1985   3.361   2.843   1.821
  362SOL    HW2 1986   3.434   2.702   1.860
  363SOL     OW 1987   5.491   4.670   2.915
  363SOL    HW1 1988   5.506   4.754   2.965
  363SOL    HW2 1989   5.401   4.632   2.939
  364SOL     OW 1990   6.914   4.982   6.941
  364SOL    HW1 1991   6.989   4.985   7.008
  364SOL    HW2 1992   6.853   4.906   6.962
  365SOL     OW 1993   4.650   0.034   0.909
  365SOL    HW1 1994   4.588   6.980   0.916
  365SOL    HW2 1995   4.697   0.047   0.997
  366SOL     OW 1996   6.196   2.105   6.482
  366SOL    HW1 1997   6.224   2.198   6.459
  366SOL    HW2 1998   6.275   2.043   6.476
  367SOL     OW 1999   5.826   2.403   6.314
  367SOL    HW1 2000   5.834   2.477   6.380
  367SOL    HW2 2001   5.834   2.315   6.360
  368SOL     OW 2002   0.020   2.566   5.455
  368SOL    HW1 2003   0.083   2.501   5.498
  368SOL    HW2 2004   0.008   2.542   5.358
  369SOL     OW 2005   6.009   4.708   3.026
  369SOL    HW1 2006   6.017   4.694   3.125
  369SOL    HW2 2007   5.927   4.662   2.992
  370SOL     OW 2008   0.808   2.137   4.408
  370SOL    HW1 2009   0.856   2.222   4.386
  370SOL    HW2 2010   0.863   2.084   4.473
  371SOL     OW 2011   1.689   4.608   6.719
  371SOL    HW1 2012   1.664   4.514   6.698
  371SOL    HW2 2013   1.785   4.624   6.694
  372SOL     OW 2014   2.053   6.834   5.634
  372SOL    HW1 2015   2.087   6.741   5.646
  372SOL    HW2 2016   2.014   6.867   5.720
  373SOL     OW 2017   5.560   6.272   5.788
  373SOL    HW1 2018   5.574   6.351   5.729
  373SOL    HW2 2019   5.575   6.299   5.883
  374SOL     OW 2020   2.677   2.253   3.422
  374SOL    HW1 2021   2.684   2.329   3.486
  374SOL    HW2 2022   2.768   2.216   3.404
  375SOL     OW 2023   1.022   4.538   4.206
  375SOL    HW1 2024   0.950   4.607   4.205
  375SOL    HW2 2025   1.001   4.469   4.276
  376SOL     OW 2026   1.296   1.543   5.211
  376SOL    HW1 2027   1.312   1.634   5.172
  376SOL    HW2 2028   1.343   1.535   5.299
  377SOL     OW 2029   1.633   2.005   6.969
  377SOL    HW1 2030   1.557   1.955   6.928
  377SOL    HW2 2031   1.637   1.983   0.044
  378SOL     OW 2032   3.851   1.769   0.997
  378SOL    HW1 2033   3.782   1.735   0.933
  378SOL    HW2 2034   3.933   1.711   0.992
  379SOL     OW 2035   5.473   2.676   0.261
  379SOL    HW1 2036   5.373   2.682   0.268
  379SOL    HW2 2037   5.511   2.767   0.253
  380SOL     OW 2038   3.220   1.262   1.266
  380SOL    HW1 2039   3.198   1.327   1.338
  380SOL    HW2 2040   3.277   1.189   1.303
  381SOL     OW 2041   1.676   3.664   3.726
  381SOL    HW1 2042   1.692   3.600   3.651
  381SOL    HW2 2043   1.610   3.734   3.696
  382SOL     OW 2044   6.189   1.136   0.527
  382SOL    HW1 2045   6.094   1.167   0.516
  382SOL    HW2 2046   6.193   1.066   0.598
  383SOL     OW 2047   3.798   3.158   0.213
  383SOL    HW1 2048   3.794   3.065   0.176
  383SOL    HW2 2049   3.834   3.219   0.142
  384SOL     OW 2050   6.961   5.466   4.732
  384SOL    HW1 2051   6.984   5.373   4.758
  384SOL    HW2 2052   0.019   5.524   4.737
  385SOL     OW 2053   2.901   5.087   5.561
  385SOL    HW1 2054   2.948   5.041   5.636
  385SOL    HW2 2055   2.969   5.126   5.499
  386SOL     OW 2056   2.932   6.580   4.238
  386SOL    HW1 2057   2.982   6.666   4.235
  386SOL    HW2 2058   2.912   6.556   4.333
  387SOL     OW 2059   0.638   5.247   2.669
  387SOL    HW1 2060   0.726   5.227   2.713
  387SOL    HW2 2061   0.642   5.337   2.627
  388SOL     OW 2062   2.202   2.112   6.540
  388SOL    HW1 2063   2.123   2.118   6.480
  388SOL    HW2 2064   2.280   2.159   6.498
  389SOL     OW 2065   3.742   3.622   2.546
  389SOL    HW1 2066   3.798   3.576   2.614
  389SOL    HW2 2067   3.799   3.650   2.468
  390SOL     OW 2068   2.442   1.237   3.191
  390SOL    HW1 2069   2.376   1.272   3.258
  390SOL    HW2 2070   2.532   1.228   3.234
  391SOL     OW 2071   2.377   2.209   5.944
  391SOL    HW1 2072   2.330   2.254   5.869
  391SOL    HW2 2073   2.455   2.264   5.973
  392SOL     OW 2074   1.900   4.324   0.970
  392SOL    HW1 2075   1.913   4.416   1.007
  392SOL    HW2 2076   1.974   4.265   1.003
  393SOL     OW 2077   0.655   4.404   6.793
  393SOL    HW1 2078   0.739   4.350   6.783
  393SOL    HW2 2079   0.619   4.427   6.703
  394SOL     OW 2080   0.062   0.746   6.930
  394SOL    HW1 2081   0.012   0.755   6.845
  394SOL    HW2 2082   0.016   0.681   6.990
  395SOL     OW 2083   5.028   3.634   3.486
  395SOL    HW1 2084   4.988   3.592   3.568
  395SOL    HW2 2085   4.998   3.729   3.480
  396SOL     OW 2086   4.112   3.611   2.482
  396SOL    HW1 2087   4.083   3.696   2.526
  396SOL    HW2 2088   4.138   3.629   2.388
  397SOL     OW 2089   4.562   2.152   5.394
  397SOL    HW1 2090   4.621   2.233   5.387
  397SOL    HW2 2091   4.479   2.168   5.340
  398SOL     OW 2092   0.919   6.154   2.459
  398SOL    HW1 2093   0.949   6.061   2.480
  398SOL    HW2 2094   0.879   6.196   2.540
  399SOL     OW 2095   5.346   6.075   2.676
  399SOL    HW1 2096   5.309   6.152   2.624
  399SOL    HW2 2097   5.270   6.020   2.711
  400SOL     OW 2098   6.254   6.815   5.828
  400SOL    HW1 2099   6.264   6.908   5.795
  400SOL    HW2 2100   6.161   6.783   5.810
  401SOL     OW 2101   5.090   1.107   5.613
  401SOL    HW1 2102   5.039   1.169   5.672
  401SOL    HW2 2103   5.127   1.032   5.668
  402SOL     OW 2104   5.486   0.659   3.225
  402SOL    HW1 2105   5.483   0.592   3.151
  402SOL    HW2 2106   5.581   0.675   3.252
  403SOL     OW 2107   4.552   1.801   4.379
  403SOL    HW1 2108   4.469   1.845   4.412
  403SOL    HW2 2109   4.580   1.730   4.444
  404SOL     OW 2110   1.380   6.101   3.946
  404SOL    HW1 2111   1.283   6.078   3.942
  404SOL    HW2 2112   1.434   6.029   3.902
  405SOL     OW 2113   1.872   3.520   1.885
  405SOL    HW1 2114   1.933   3.486   1.813
  405SOL    HW2 2115   1.881   3.619   1.893
  406SOL     OW 2116   1.253   4.351   4.442
  406SOL    HW1 2117   1.274   4.385   4.351
  406SOL    HW2 2118   1.283   4.256   4.451
  407SOL     OW 2119   1.907   0.824   3.403
  407SOL    HW1 2120   1.846   0.858   3.474
  407SOL    HW2 2121   1.874   0.853   3.313
  408SOL     OW 2122   1.098   2.272   3.397
  408SOL    HW1 2123   1.089   2.176   3.424
  408SOL    HW2 2124   1.045   2.329   3.458
  409SOL     OW 2125   6.931   2.310   1.074
  409SOL    HW1 2126   6.932   2.407   1.050
  409SOL    HW2 2127   6.861   2.263   1.021
  410SOL     OW 2128   1.056   0.281   0.959
  410SOL    HW1 2129   0.984   0.344   0.930
  410SOL    HW2 2130   1.144   0.313   0.924
  411SOL     OW 2131   5.091   6.990   0.185
  411SOL    HW1 2132   4.999   0.001   0.206
  411SOL    HW2 2133   5.140   0.034   0.130
  412SOL     OW 2134   5.311   6.534   3.939
  412SOL    HW1 2135   5.304   6.570   4.033
  412SOL    HW2 2136   5.372   6.592   3.886
  413SOL     OW 2137   5.550   5.216   2.027
  413SOL    HW1 2138   5.455   5.218   1.997
  413SOL    HW2 2139   5.562   5.145   2.096
  414SOL     OW 2140   3.914   5.427   3.449
  414SOL    HW1 2141   3.983   5.461   3.513
  414SOL    HW2 2142   3.839   5.494   3.442
  415SOL     OW 2143   1.172   5.814   6.585
  415SOL    HW1 2144   1.176   5.855   6.494
  415SOL    HW2 2145   1.103   5.741   6.586
  416SOL     OW 2146   4.984   5.761   3.874
  416SOL    HW1 2147   5.044   5.786   3.950
  416SOL    HW2 2148   5.010   5.671   3.840
  417SOL     OW 2149   2.604   5.018   0.214
  417SOL    HW1 2150   2.521   5.057   0.253
  417SOL    HW2 2151   2.583   4.972   0.128
  418SOL     OW 2152   4.125   5.852   1.122
  418SOL    HW1 2153   4.134   5.932   1.182
  418SOL    HW2 2154   4.183   5.778   1.156
  419SOL     OW 2155   1.470   0.233   1.165
  419SOL    HW1 2156   1.568   0.254   1.164
  419SOL    HW2 2157   1.418   0.319   1.171
  420SOL     OW 2158   5.872   1.776   6.829
  420SOL    HW1 2159   5.936   1.714   6.873
  420SOL    HW2 2160   5.874   1.761   6.730
  421SOL     OW 2161   0.254   4.492   6.242
  421SOL    HW1 2162   0.293   4.438   6.167
  421SOL    HW2 2163   0.165   4.527   6.215
  422SOL     OW 2164   5.407   4.208   0.255
  422SOL    HW1 2165   5.482   4.173   0.311
  422SOL    HW2 2166   5.321   4.166   0.285
  423SOL     OW 2167   1.180   2.415   6.987
  423SOL    HW1 2168   1.271   2.393   7.022
  423SOL    HW2 2169   1.140   2.333   6.945
  424SOL     OW 2170   2.223   3.660   0.653
  424SOL    HW1 2171   2.132   3.628   0.625
  424SOL    HW2 2172   2.216   3.754   0.687
  425SOL     OW 2173   5.789   1.193   2.612
  425SOL    HW1 2174   5.784   1.098   2.580
  425SOL    HW2 2175   5.698   1.222   2.642
  426SOL     OW 2176   4.431   2.479   3.859
  426SOL    HW1 2177   4.375   2.431   3.926
  426SOL    HW2 2178   4.422   2.434   3.770
  427SOL     OW 2179   4.997   5.594   2.964
  427SOL    HW1 2180   5.091   5.600   2.929
  427SOL    HW2 2181   4.958   5.506   2.938
  428SOL     OW 2182   4.253   0.559   4.271
  428SOL    HW1 2183   4.190   0.637   4.269
  428SOL    HW2 2184   4.335   0.584   4.322
  429SOL     OW 2185   1.803   3.356   1.133
  429SOL    HW1 2186   1.898   3.326   1.145
  429SOL    HW2 2187   1.748   3.280   1.098
  430SOL     OW 2188   6.653   0.425   5.336
  430SOL    HW1 2189   6.731   0.363   5.347
  430SOL    HW2 2190   6.605   0.404   5.251
  431SOL     OW 2191   3.271   6.989   0.569
  431SOL    HW1 2192   3.184   6.981   0.520
  431SOL    HW2 2193   3.309   0.057   0.555
  432SOL     OW 2194   6.746   1.718   1.471
  432SOL    HW1 2195   6.659   1.759   1.444
  432SOL    HW2 2196   6.780   1.661   1.397
  433SOL     OW 2197   2.899   6.592   5.062
  433SOL    HW1 2198   2.912   6.498   5.031
  433SOL    HW2 2199   2.822   6.596   5.125
  434SOL     OW 2200   3.336   6.148   2.134
  434SOL    HW1 2201   3.268   6.150   2.061
  434SOL    HW2 2202   3.314   6.220   2.201
  435SOL     OW 2203   5.273   2.584   6.101
  435SOL    HW1 2204   5.181   2.600   6.136
  435SOL    HW2 2205   5.286   2.636   6.016
  436SOL     OW 2206   3.292   6.416   1.058
  436SOL    HW1 2207   3.304   6.343   0.990
  436SOL    HW2 2208   3.199   6.450   1.055
  437SOL     OW 2209   1.051   0.655   6.860
  437SOL    HW1 2210   1.019   0.713   6.785
  437SOL    HW2 2211   1.004   0.566   6.857
  438SOL     OW 2212   2.047   3.807   2.455
  438SOL    HW1 2213   2.027   3.755   2.537
  438SOL    HW2 2214   2.108   3.755   2.396
  439SOL     OW 2215   6.112   4.441   3.013
  439SOL    HW1 2216   6.120   4.382   3.094
  439SOL    HW2 2217   6.070   4.528   3.040
  440SOL     OW 2218   1.860   1.254   5.056
  440SOL    HW1 2219   1.946   1.292   5.023
  440SOL    HW2 2220   1.878   1.172   5.110
  441SOL     OW 2221   0.832   2.570   4.211
  441SOL    HW1 2222   0.815   2.609   4.121
  441SOL    HW2 2223   0.766   2.607   4.277
  442SOL     OW 2224   2.957   4.644   6.109
  442SOL    HW1 2225   2.999   4.730   6.079
  442SOL    HW2 2226   2.973   4.632   6.207
  443SOL     OW 2227   5.992   4.463   4.627
  443SOL    HW1 2228   5.956   4.479   4.719
  443SOL    HW2 2229   5.916   4.441   4.565
  444SOL     OW 2230   4.884   1.728   5.802
  444SOL    HW1 2231   4.925   1.647   5.760
  444SOL    HW2 2232   4.857   1.792   5.730
  445SOL     OW 2233   0.664   5.186   2.961
  445SOL    HW1 2234   0.692   5.093   2.985
  445SOL    HW2 2235   0.582   5.182   2.903
  446SOL     OW 2236   3.611   4.884   3.228
  446SOL    HW1 2237   3.634   4.816   3.158
  446SOL    HW2 2238   3.602   4.974   3.186
  447SOL     OW 2239   0.531   2.928   6.022
  447SOL    HW1 2240   0.546   3.018   6.063
  447SOL    HW2 2241   0.461   2.879   6.074
  448SOL     OW 2242   1.950   0.875   3.778
  448SOL    HW1 2243   2.038   0.921   3.791
  448SOL    HW2 2244   1.963   0.776   3.785
  449SOL     OW 2245   4.077   1.276   3.965
  449SOL    HW1 2246   4.114   1.324   4.044
  449SOL    HW2 2247   4.078   1.177   3.983
  450SOL     OW 2248   1.440   5.997   3.572
  450SOL    HW1 2249   1.433   5.943   3.656
  450SOL    HW2 2250   1.404   6.089   3.588
  451SOL     OW 2251   2.010   1.484   3.865
  451SOL    HW1 2252   1.954   1.454   3.788
  451SOL    HW2 2253   2.008   1.583   3.872
  452SOL     OW 2254   6.112   5.912   0.895
  452SOL    HW1 2255   6.193   5.961   0.928
  452SOL    HW2 2256   6.067   5.866   0.972
  453SOL     OW 2257   4.314   1.025   5.916
  453SOL    HW1 2258   4.264   0.944   5.946
  453SOL    HW2 2259   4.283   1.105   5.968
  454SOL     OW 2260   0.132   4.595   6.784
  454SOL    HW1 2261   0.043   4.562   6.815
  454SOL    HW2 2262   0.173   4.651   6.856
  455SOL     OW 2263   6.235   2.833   3.229
  455SOL    HW1 2264   6.212   2.757   3.291
  455SOL    HW2 2265   6.304   2.891   3.271
  456SOL     OW 2266   5.962   6.691   3.959
  456SOL    HW1 2267   5.903   6.624   3.914
  456SOL    HW2 2268   6.047   6.647   3.987
  457SOL     OW 2269   2.181   2.894   4.027
  457SOL    HW1 2270   2.096   2.895   3.974
  457SOL    HW2 2271   2.162   2.916   4.122
  458SOL     OW 2272   4.389   5.396   3.578
  458SOL    HW1 2273   4.387   5.438   3.669
  458SOL    HW2 2274   4.365   5.465   3.510
  459SOL     OW 2275   1.699   6.773   5.019
  459SOL    HW1 2276   1.794   6.804   5.029
  459SOL    HW2 2277   1.682   6.750   4.923
  460SOL     OW 2278   1.636   0.449   3.386
  460SOL    HW1 2279   1.654   0.475   3.291
  460SOL    HW2 2280   1.566   0.378   3.389
  461SOL     OW 2281   6.715   0.047   6.485
  461SOL    HW1 2282   6.749   6.981   6.455
  461SOL    HW2 2283   6.775   0.119   6.451
  462SOL     OW 2284   3.375   2.998   6.251
  462SOL    HW1 2285   3.325   3.010   6.166
  462SOL    HW2 2286   3.356   3.075   6.312
  463SOL     OW 2287   6.822   5.657   3.227
  463SOL    HW1 2288   6.772   5.743   3.233
  463SOL    HW2 2289   6.852   5.629   3.318
  464SOL     OW 2290   2.526   2.006   5.137
  464SOL    HW1 2291   2.456   2.037   5.072
  464SOL    HW2 2292   2.548   2.081   5.200
  465SOL     OW 2293   0.593   2.306   5.808
  465SOL    HW1 2294   0.538   2.300   5.892
  465SOL    HW2 2295   0.690   2.306   5.832
  466SOL     OW 2296   0.635   5.667   2.872
  466SOL    HW1 2297   0.713   5.721   2.841
  466SOL    HW2 2298   0.662   5.609   2.949
  467SOL     OW 2299   1.690   1.191   0.776
  467SOL    HW1 2300   1.761   1.148   0.719
  467SOL    HW2 2301   1.725   1.277   0.812
  468SOL     OW 2302   3.551   0.195   6.503
  468SOL    HW1 2303   3.629   0.133   6.495
  468SOL    HW2 2304   3.481   0.171   6.436
  469SOL     OW 2305   2.547   3.031   6.263
  469SOL    HW1 2306   2.548   3.013   6.164
  469SOL    HW2 2307   2.620   3.095   6.286
  470SOL     OW 2308   3.888   6.851   1.946
  470SOL    HW1 2309   3.981   6.818   1.931
  470SOL    HW2 2310   3.883   6.948   1.924
  471SOL     OW 2311   2.246   2.420   3.954
  471SOL    HW1 2312   2.283   2.500   4.003
  471SOL    HW2 2313   2.251   2.340   4.014
  472SOL     OW 2314   5.514   3.326   6.286
  472SOL    HW1 2315   5.519   3.266   6.206
  472SOL    HW2 2316   5.426   3.314   6.331
  473SOL     OW 2317   0.962   2.936   3.265
  473SOL    HW1 2318   1.016   2.856   3.292
  473SOL    HW2 2319   1.010   2.986   3.193
  474SOL     OW 2320   5.284   5.883   4.234
  474SOL    HW1 2321   5.335   5.845   4.311
  474SOL    HW2 2322   5.346   5.894   4.156
  475SOL     OW 2323   5.754   0.854   6.278
  475SOL    HW1 2324   5.660   0.881   6.256
  475SOL    HW2 2325   5.808   0.936   6.299
  476SOL     OW 2326   0.201   3.786   3.336
  476SOL    HW1 2327   0.232   3.825   3.423
  476SOL    HW2 2328   0.279   3.749   3.286
  477SOL     OW 2329   1.438   5.178   3.608
  477SOL    HW1 2330   1.391   5.124   3.538
  477SOL    HW2 2331   1.436   5.128   3.695
  478SOL     OW 2332   3.071   6.462   2.225
  478SOL    HW1 2333   2.975   6.455   2.197
  478SOL    HW2 2334   3.126   6.484   2.145
  479SOL     OW 2335   4.278   1.954   5.773
  479SOL    HW1 2336   4.266   1.976   5.869
  479SOL    HW2 2337   4.296   2.039   5.722
  480SOL     OW 2338   2.189   0.915   0.064
  480SOL    HW1 2339   2.159   0.939   6.995
  480SOL    HW2 2340   2.288   0.906   0.066
  481SOL     OW 2341   1.609   6.875   0.246
  481SOL    HW1 2342   1.668   6.856   0.325
  481SOL    HW2 2343   1.541   6.944   0.270
  482SOL     OW 2344   4.546   4.843   2.324
  482SOL    HW1 2345   4.446   4.852   2.318
  482SOL    HW2 2346   4.589   4.930   2.299
  483SOL     OW 2347   6.618   1.472   2.086
  483SOL    HW1 2348   6.589   1.543   2.023
  483SOL    HW2 2349   6.716   1.454   2.074
  484SOL     OW 2350   1.969   3.484   4.741
  484SOL    HW1 2351   2.055   3.444   4.710
  484SOL    HW2 2352   1.893   3.443   4.691
  485SOL     OW 2353   3.287   5.557   2.497
  485SOL    HW1 2354   3.208   5.552   2.559
  485SOL    HW2 2355   3.263   5.516   2.409
  486SOL     OW 2356   6.645   1.227   0.432
  486SOL    HW1 2357   6.635   1.305   0.493
  486SOL    HW2 2358   6.714   1.248   0.362
  487SOL     OW 2359   0.994   0.583   1.595
  487SOL    HW1 2360   0.902   0.613   1.570
  487SOL    HW2 2361   1.003   0.584   1.695
  488SOL     OW 2362   1.178   1.457   2.274
  488SOL    HW1 2363   1.180   1.439   2.176
  488SOL    HW2 2364   1.199   1.554   2.291
  489SOL     OW 2365   3.585   6.302   6.023
  489SOL    HW1 2366   3.620   6.248   5.947
  489SOL    HW2 2367   3.577   6.244   6.104
  490SOL     OW 2368   6.101   6.067   2.847
  490SOL    HW1 2369   6.014   6.031   2.815
  490SOL    HW2 2370   6.119   6.034   2.939
  491SOL     OW 2371   0.841   3.184   2.729
  491SOL    HW1 2372   0.903   3.244   2.781
  491SOL    HW2 2373   0.862   3.089   2.748
  492SOL     OW 2374   1.773   0.402   4.967
  492SOL    HW1 2375   1.683   0.360   4.950
  492SOL    HW2 2376   1.827   0.342   5.026
  493SOL     OW 2377   5.026   5.733   5.535
  493SOL    HW1 2378   5.053   5.723   5.439
  493SOL    HW2 2379   4.934   5.696   5.548
  494SOL     OW 2380   0.192   6.578   6.487
  494SOL    HW1 2381   0.280   6.530   6.495
  494SOL    HW2 2382   0.181   6.611   6.393
  495SOL     OW 2383   4.680   5.891   3.234
  495SOL    HW1 2384   4.640   5.808   3.274
  495SOL    HW2 2385   4.776   5.874   3.212
  496SOL     OW 2386   5.516   3.872   1.783
  496SOL    HW1 2387   5.557   3.947   1.835
  496SOL    HW2 2388   5.431   3.902   1.741
  497SOL     OW 2389   2.862   1.408   4.728
  497SOL    HW1 2390   2.779   1.402   4.785
  497SOL    HW2 2391   2.933   1.456   4.779
  498SOL     OW 2392   1.755   4.038   1.521
  498SOL    HW1 2393   1.683   4.004   1.460
  498SOL    HW2 2394   1.766   3.975   1.598
  499SOL     OW 2395   2.057   6.489   4.847
  499SOL    HW1 2396   2.051   6.567   4.785
  499SOL    HW2 2397   1.965   6.453   4.864
  500SOL     OW 2398   0.551   3.274   4.353
  500SOL    HW1 2399   0.497   3.282   4.268
  500SOL    HW2 2400   0.590   3.364   4.375
  501SOL     OW 2401   3.485   5.602   1.140
  501SOL    HW1 2402   3.425   5.615   1.219
  501SOL    HW2 2403   3.435   5.558   1.066
  502SOL     OW 2404   0.336   3.908   0.389
  502SOL    HW1 2405   0.434   3.898   0.406
  502SOL    HW2 2406   0.306   3.839   0.323
  503SOL     OW 2407   6.851   5.318   0.030
  503SOL    HW1 2408   6.830   5.249   6.984
  503SOL    HW2 2409   6.792   5.397   0.019
  504SOL     OW 2410   0.999   5.281   2.233
  504SOL    HW1 2411   1.092   5.299   2.199
  504SOL    HW2 2412   1.002   5.264   2.331
  505SOL     OW 2413   2.950   5.767   5.277
  505SOL    HW1 2414   2.919   5.828   5.204
  505SOL    HW2 2415   3.025   5.710   5.243
  506SOL     OW 2416   2.350   4.818   4.193
  506SOL    HW1 2417   2.390   4.728   4.211
  506SOL    HW2 2418   2.334   4.864   4.280
  507SOL     OW 2419   3.516   6.628   3.114
  507SOL    HW1 2420   3.571   6.674   3.045
  507SOL    HW2 2421   3.419   6.640   3.092
  508SOL     OW 2422   0.218   4.009   2.389
  508SOL    HW1 2423   0.311   3.996   2.423
  508SOL    HW2 2424   0.155   4.017   2.467
  509SOL     OW 2425   3.417   1.559   1.491
  509SOL    HW1 2426   3.446   1.625   1.421
  509SOL    HW2 2427   3.474   1.477   1.485
  510SOL     OW 2428   6.384   5.026   0.227
  510SOL    HW1 2429   6.334   5.006   0.143
  510SOL    HW2 2430   6.482   5.018   0.210
  511SOL     OW 2431   0.942   1.534   5.469
  511SOL    HW1 2432   1.000   1.614   5.454
  511SOL    HW2 2433   0.854   1.564   5.507
  512SOL     OW 2434   0.065   3.330   0.059
  512SOL    HW1 2435   0.114   3.266   7.023
  512SOL    HW2 2436   0.049   3.288   0.148
  513SOL     OW 2437   6.233   6.848   3.454
  513SOL    HW1 2438   6.209   6.893   3.540
  513SOL    HW2 2439   6.314   6.892   3.415
  514SOL     OW 2440   6.634   2.115   3.765
  514SOL    HW1 2441   6.611   2.040   3.826
  514SOL    HW2 2442   6.650   2.080   3.672
  515SOL     OW 2443   1.230   0.869   6.434
  515SOL    HW1 2444   1.131   0.872   6.449
  515SOL    HW2 2445   1.269   0.791   6.482
  516SOL     OW 2446   2.583   4.631   1.879
  516SOL    HW1 2447   2.566   4.533   1.889
  516SOL    HW2 2448   2.675   4.653   1.913
  517SOL     OW 2449   4.339   5.873   1.793
  517SOL    HW1 2450   4.269   5.823   1.742
  517SOL    HW2 2451   4.416   5.893   1.733
  518SOL     OW 2452   2.942   2.125   3.387
  518SOL    HW1 2453   3.027   2.120   3.333
  518SOL    HW2 2454   2.954   2.073   3.472
  519SOL     OW 2455   0.222   0.369   4.943
  519SOL    HW1 2456   0.279   0.300   4.899
  519SOL    HW2 2457   0.273   0.455   4.950
  520SOL     OW 2458   6.678   4.006   0.938
  520SOL    HW1 2459   6.603   4.060   0.976
  520SOL    HW2 2460   6.643   3.920   0.901
  521SOL     OW 2461   6.465   4.655   4.838
  521SOL    HW1 2462   6.445   4.738   4.890
  521SOL    HW2 2463   6.526   4.677   4.762
  522SOL     OW 2464   3.501   3.091   4.527
  522SOL    HW1 2465   3.478   3.025   4.456
  522SOL    HW2 2466   3.455   3.066   4.613
  523SOL     OW 2467   0.212   5.326   1.706
  523SOL    HW1 2468   0.228   5.242   1.758
  523SOL    HW2 2469   0.129   5.315   1.651
  524SOL     OW 2470   0.479   1.293   1.820
  524SOL    HW1 2471   0.391   1.313   1.864
  524SOL    HW2 2472   0.467   1.221   1.752
  525SOL     OW 2473   2.227   3.087   5.550
  525SOL    HW1 2474   2.264   3.140   5.473
  525SOL    HW2 2475   2.296   3.021   5.580
  526SOL     OW 2476   4.008   6.651   3.981
  526SOL    HW1 2477   4.100   6.616   3.999
  526SOL    HW2 2478   3.964   6.675   4.067
  527SOL     OW 2479   6.212   2.546   0.150
  527SOL    HW1 2480   6.189   2.544   0.053
  527SOL    HW2 2481   6.309   2.527   0.161
  528SOL     OW 2482   0.881   1.776   3.593
  528SOL    HW1 2483   0.965   1.789   3.541
  528SOL    HW2 2484   0.812   1.734   3.533
  529SOL     OW 2485   2.023   6.833   4.109
  529SOL    HW1 2486   1.945   6.846   4.048
  529SOL    HW2 2487   1.990   6.811   4.201
  530SOL     OW 2488   3.158   3.393   4.477
  530SOL    HW1 2489   3.081   3.334   4.504
  530SOL    HW2 2490   3.200   3.433   4.558
  531SOL     OW 2491   0.402   1.234   3.442
  531SOL    HW1 2492   0.469   1.160   3.434
  531SOL    HW2 2493   0.363   1.233   3.534
  532SOL     OW 2494   1.467   2.738   6.870
  532SOL    HW1 2495   1.550   2.692   6.839
  532SOL    HW2 2496   1.437   2.699   6.957
  533SOL     OW 2497   4.315   6.878   3.969
  533SOL    HW1 2498   4.399   6.919   4.004
  533SOL    HW2 2499   4.304   6.787   4.007
  534SOL     OW 2500   5.250   6.341   2.538
  534SOL    HW1 2501   5.338   6.388   2.550
  534SOL    HW2 2502   5.201   6.381   2.461
  535SOL     OW 2503   1.009   3.622   4.322
  535SOL    HW1 2504   1.021   3.636   4.224
  535SOL    HW2 2505   1.077   3.675   4.372
  536SOL     OW 2506   0.046   5.069   1.539
  536SOL    HW1 2507   0.071   5.000   1.470
  536SOL    HW2 2508   6.988   5.119   1.508
  537SOL     OW 2509   2.919   6.497   4.495
  537SOL    HW1 2510   2.820   6.499   4.509
  537SOL    HW2 2511   2.949   6.402   4.481
  538SOL     OW 2512   1.335   4.522   3.185
  538SOL    HW1 2513   1.355   4.618   3.164
  538SOL    HW2 2514   1.259   4.492   3.127
  539SOL     OW 2515   1.517   5.767   0.960
  539SOL    HW1 2516   1.611   5.759   0.929
  539SOL    HW2 2517   1.484   5.860   0.943
  540SOL     OW 2518   0.894   0.316   3.217
  540SOL    HW1 2519   0.876   0.356   3.128
  540SOL    HW2 2520   0.808   0.282   3.256
  541SOL     OW 2521   4.594   5.806   4.076
  541SOL    HW1 2522   4.685   5.835   4.046
  541SOL    HW2 2523   4.551   5.880   4.128
  542SOL     OW 2524   6.525   6.927   6.823
  542SOL    HW1 2525   6.603   6.864   6.819
  542SOL    HW2 2526   6.504   6.947   6.918
  543SOL     OW 2527   1.659   4.081   5.376
  543SOL    HW1 2528   1.671   4.082   5.475
  543SOL    HW2 2529   1.745   4.051   5.333
  544SOL     OW 2530   3.221   4.070   0.292
  544SOL    HW1 2531   3.151   4.142   0.291
  544SOL    HW2 2532   3.209   4.012   0.212
  545SOL     OW 2533   2.845   1.229   2.225
  545SOL    HW1 2534   2.777   1.300   2.245
  545SOL    HW2 2535   2.919   1.233   2.292
  546SOL     OW 2536   2.182   2.836   0.612
  546SOL    HW1 2537   2.114   2.893   0.658
  546SOL    HW2 2538   2.269   2.886   0.607
  547SOL     OW 2539   3.309   1.054   7.014
  547SOL    HW1 2540   3.216   1.056   0.029
  547SOL    HW2 2541   3.360   0.978   0.030
  548SOL     OW 2542   3.578   2.950   2.638
  548SOL    HW1 2543   3.494   2.960   2.691
  548SOL    HW2 2544   3.561   2.891   2.560
  549SOL     OW 2545   4.918   3.159   0.410
  549SOL    HW1 2546   4.953   3.113   0.329
  549SOL    HW2 2547   4.953   3.252   0.414
  550SOL     OW 2548   6.868   5.249   3.657
  550SOL    HW1 2549   6.838   5.210   3.744
  550SOL    HW2 2550   6.967   5.263   3.659
  551SOL     OW 2551   0.804   0.652   2.250
  551SOL    HW1 2552   0.878   0.706   2.210
  551SOL    HW2 2553   0.836   0.606   2.333
  552SOL     OW 2554   4.780   4.212   0.297
  552SOL    HW1 2555   4.686   4.212   0.263
  552SOL    HW2 2556   4.817   4.119   0.294
  553SOL     OW 2557   1.519   6.248   1.962
  553SOL    HW1 2558   1.584   6.312   1.922
  553SOL    HW2 2559   1.470   6.292   2.037
  554SOL     OW 2560   5.577   0.264   5.781
  554SOL    HW1 2561   5.533   0.180   5.813
  554SOL    HW2 2562   5.640   0.242   5.707
  555SOL     OW 2563   1.423   5.202   3.182
  555SOL    HW1 2564   1.355   5.224   3.253
  555SOL    HW2 2565   1.500   5.154   3.223
  556SOL     OW 2566   5.244   2.164   3.964
  556SOL    HW1 2567   5.254   2.105   3.884
  556SOL    HW2 2568   5.309   2.241   3.957
  557SOL     OW 2569   0.547   4.610   0.381
  557SOL    HW1 2570   0.543   4.537   0.312
  557SOL    HW2 2571   0.640   4.614   0.419
  558SOL     OW 2572   2.965   3.519   4.345
  558SOL    HW1 2573   2.892   3.456   4.370
  558SOL    HW2 2574   3.053   3.482   4.375
  559SOL     OW 2575   6.445   5.564   6.850
  559SOL    HW1 2576   6.542   5.576   6.828
  559SOL    HW2 2577   6.432   5.576   6.948
  560SOL     OW 2578   4.606   4.202   6.920
  560SOL    HW1 2579   4.516   4.161   6.908
  560SOL    HW2 2580   4.649   4.166   7.002
  561SOL     OW 2581   6.383   1.505   0.382
  561SOL    HW1 2582   6.370   1.406   0.369
  561SOL    HW2 2583   6.397   1.523   0.479
  562SOL     OW 2584   5.570   0.923   5.765
  562SOL    HW1 2585   5.553   0.834   5.809
  562SOL    HW2 2586   5.573   0.911   5.666
  563SOL     OW 2587   2.065   0.468   3.240
  563SOL    HW1 2588   2.158   0.450   3.208
  563SOL    HW2 2589   2.054   0.566   3.256
  564SOL     OW 2590   2.689   2.447   6.607
  564SOL    HW1 2591   2.606   2.392   6.619
  564SOL    HW2 2592   2.714   2.488   6.695
  565SOL     OW 2593   3.558   2.571   5.773
  565SOL    HW1 2594   3.613   2.650   5.802
  565SOL    HW2 2595   3.461   2.596   5.777
  566SOL     OW 2596   6.284   5.201   4.275
  566SOL    HW1 2597   6.355   5.146   4.321
  566SOL    HW2 2598   6.211   5.221   4.339
  567SOL     OW 2599   3.834   3.370   2.318
  567SOL    HW1 2600   3.775   3.332   2.388
  567SOL    HW2 2601   3.929   3.344   2.336
  568SOL     OW 2602   4.229   1.645   0.136
  568SOL    HW1 2603   4.169   1.578   0.094
  568SOL    HW2 2604   4.303   1.668   0.073
  569SOL     OW 2605   1.145   3.619   6.381
  569SOL    HW1 2606   1.190   3.574   6.304
  569SOL    HW2 2607   1.179   3.581   6.467
  570SOL     OW 2608   3.055   6.347   7.017
  570SOL    HW1 2609   3.151   6.331   6.997
  570SOL    HW2 2610   3.005   6.365   6.932
  571SOL     OW 2611   3.306   0.377   2.554
  571SOL    HW1 2612   3.284   0.371   2.651
  571SOL    HW2 2613   3.335   0.287   2.521
  572SOL     OW 2614   2.835   4.807   5.568
  572SOL    HW1 2615   2.855   4.711   5.551
  572SOL    HW2 2616   2.881   4.863   5.499
  573SOL     OW 2617   5.366   1.402   5.818
  573SOL    HW1 2618   5.406   1.312   5.835
  573SOL    HW2 2619   5.272   1.391   5.785
  574SOL     OW 2620   3.607   2.126   4.427
  574SOL    HW1 2621   3.606   2.026   4.433
  574SOL    HW2 2622   3.588   2.153   4.333
  575SOL     OW 2623   5.692   3.896   0.104
  575SOL    HW1 2624   5.774   3.915   0.050
  575SOL    HW2 2625   5.612   3.928   0.053
  576SOL     OW 2626   0.964   2.367   2.950
  576SOL    HW1 2627   0.905   2.328   2.880
  576SOL    HW2 2628   1.060   2.345   2.929
  577SOL     OW 2629   1.986   1.639   2.528
  577SOL    HW1 2630   1.920   1.700   2.486
  577SOL    HW2 2631   2.010   1.566   2.464
  578SOL     OW 2632   6.242   4.948   3.293
  578SOL    HW1 2633   6.275   4.931   3.200
  578SOL    HW2 2634   6.292   5.026   3.332
  579SOL     OW 2635   1.459   3.033   2.087
  579SOL    HW1 2636   1.510   3.069   2.165
  579SOL    HW2 2637   1.468   3.095   2.009
  580SOL     OW 2638   6.505   4.726   6.716
  580SOL    HW1 2639   6.488   4.710   6.814
  580SOL    HW2 2640   6.419   4.716   6.666
  581SOL     OW 2641   3.088   3.125   2.731
  581SOL    HW1 2642   3.044   3.110   2.643
  581SOL    HW2 2643   3.101   3.224   2.745
  582SOL     OW 2644   5.430   5.662   2.697
  582SOL    HW1 2645   5.477   5.575   2.713
  582SOL    HW2 2646   5.454   5.697   2.607
  583SOL     OW 2647   2.837   5.205   5.873
  583SOL    HW1 2648   2.758   5.232   5.927
  583SOL    HW2 2649   2.823   5.113   5.836
  584SOL     OW 2650   2.005   3.912   6.502
  584SOL    HW1 2651   1.925   3.861   6.534
  584SOL    HW2 2652   2.088   3.858   6.518
  585SOL     OW 2653   5.817   3.199   6.270
  585SOL    HW1 2654   5.838   3.171   6.364
  585SOL    HW2 2655   5.726   3.239   6.267
  586SOL     OW 2656   3.985   1.741   6.526
  586SOL    HW1 2657   4.085   1.738   6.534
  586SOL    HW2 2658   3.946   1.659   6.568
  587SOL     OW 2659   3.052   1.592   5.183
  587SOL    HW1 2660   3.032   1.494   5.177
  587SOL    HW2 2661   3.151   1.604   5.195
  588SOL     OW 2662   2.511   4.660   0.864
  588SOL    HW1 2663   2.553   4.578   0.903
  588SOL    HW2 2664   2.414   4.643   0.848
  589SOL     OW 2665   3.165   5.224   1.407
  589SOL    HW1 2666   3.102   5.302   1.397
  589SOL    HW2 2667   3.166   5.172   1.322
  590SOL     OW 2668   5.203   2.704   2.360
  590SOL    HW1 2669   5.118   2.723   2.312
  590SOL    HW2 2670   5.273   2.674   2.294
  591SOL     OW 2671   3.792   6.106   3.456
  591SOL    HW1 2672   3.799   6.188   3.513
  591SOL    HW2 2673   3.738   6.127   3.374
  592SOL     OW 2674   3.286   7.022   1.426
  592SOL    HW1 2675   3.204   0.054   1.440
  592SOL    HW2 2676   3.337   7.015   1.511
  593SOL     OW 2677   4.254   2.318   3.328
  593SOL    HW1 2678   4.301   2.230   3.322
  593SOL    HW2 2679   4.292   2.372   3.403
  594SOL     OW 2680   5.110   2.194   6.340
  594SOL    HW1 2681   5.057   2.135   6.279
  594SOL    HW2 2682   5.203   2.203   6.304
  595SOL     OW 2683   5.671   0.377   3.780
  595SOL    HW1 2684   5.706   0.451   3.837
  595SOL    HW2 2685   5.642   0.414   3.692
  596SOL     OW 2686   1.697   4.498   2.916
  596SOL    HW1 2687   1.665   4.438   2.989
  596SOL    HW2 2688   1.719   4.588   2.954
  597SOL     OW 2689   3.959   0.038   6.623
  597SOL    HW1 2690   4.057   0.049   6.605
  597SOL    HW2 2691   3.915   0.001   6.541
  598SOL     OW 2692   3.268   3.759   6.464
  598SOL    HW1 2693   3.220   3.728   6.546
  598SOL    HW2 2694   3.333   3.831   6.489
  599SOL     OW 2695   2.218   6.603   2.526
  599SOL    HW1 2696   2.297   6.601   2.587
  599SOL    HW2 2697   2.163   6.684   2.546
  600SOL     OW 2698   0.612   0.633   1.240
  600SOL    HW1 2699   0.597   0.587   1.327
  600SOL    HW2 2700   0.684   0.702   1.251
  601SOL     OW 2701   3.075   6.151   4.062
  601SOL    HW1 2702   3.155   6.098   4.036
  601SOL    HW2 2703   3.094   6.200   4.147
  602SOL     OW 2704   2.030   2.982   6.458
  602SOL    HW1 2705   2.114   2.992   6.404
  602SOL    HW2 2706   1.986   3.072   6.466
  603SOL     OW 2707   3.982   1.907   3.540
  603SOL    HW1 2708   4.077   1.885   3.562
  603SOL    HW2 2709   3.953   1.854   3.460
  604SOL     OW 2710   0.870   3.495   1.678
  604SOL    HW1 2711   0.796   3.512   1.743
  604SOL    HW2 2712   0.948   3.554   1.702
  605SOL     OW 2713   6.013   6.057   2.362
  605SOL    HW1 2714   6.091   6.012   2.320
  605SOL    HW2 2715   6.036   6.152   2.382
  606SOL     OW 2716   4.964   0.650   6.642
  606SOL    HW1 2717   5.025   0.571   6.652
  606SOL    HW2 2718   5.015   0.725   6.600
  607SOL     OW 2719   5.327   1.221   5.553
  607SOL    HW1 2720   5.414   1.175   5.571
  607SOL    HW2 2721   5.254   1.173   5.601
  608SOL     OW 2722   3.718   6.113   6.759
  608SOL    HW1 2723   3.677   6.100   6.669
  608SOL    HW2 2724   3.759   6.027   6.790
  609SOL     OW 2725   4.081   3.242   3.680
  609SOL    HW1 2726   4.074   3.277   3.773
  609SOL    HW2 2727   3.994   3.203   3.652
  610SOL     OW 2728   5.042   2.293   2.484
  610SOL    HW1 2729   4.994   2.380   2.493
  610SOL    HW2 2730   4.978   2.222   2.454
  611SOL     OW 2731   2.234   0.402   6.532
  611SOL    HW1 2732   2.166   0.466   6.497
  611SOL    HW2 2733   2.309   0.453   6.575
  612SOL     OW 2734   3.926   6.645   6.226
  612SOL    HW1 2735   4.020   6.655   6.193
  612SOL    HW2 2736   3.920   6.676   6.321
  613SOL     OW 2737   4.307   6.832   5.971
  613SOL    HW1 2738   4.384   6.884   6.006
  613SOL    HW2 2739   4.317   6.818   5.873
  614SOL     OW 2740   5.598   4.105   1.468
  614SOL    HW1 2741   5.615   4.051   1.386
  614SOL    HW2 2742   5.600   4.045   1.548
  615SOL     OW 2743   0.505   1.840   0.824
  615SOL    HW1 2744   0.463   1.835   0.915
  615SOL    HW2 2745   0.473   1.764   0.768
  616SOL     OW 2746   0.326   2.194   3.613
  616SOL    HW1 2747   0.342   2.290   3.592
  616SOL    HW2 2748   0.234   2.183   3.651
  617SOL     OW 2749   6.949   3.797   6.576
  617SOL    HW1 2750   6.939   3.705   6.614
  617SOL    HW2 2751   6.987   3.791   6.484
  618SOL     OW 2752   0.209   3.451   6.705
  618SOL    HW1 2753   0.264   3.532   6.726
  618SOL    HW2 2754   0.214   3.387   6.782
  619SOL     OW 2755   5.089   0.271   6.480
  619SOL    HW1 2756   5.066   0.193   6.538
  619SOL    HW2 2757   5.009   0.297   6.426
  620SOL     OW 2758   4.903   2.324   1.575
  620SOL    HW1 2759   4.841   2.253   1.607
  620SOL    HW2 2760   4.964   2.351   1.650
  621SOL     OW 2761   2.232   6.950   6.106
  621SOL    HW1 2762   2.324   6.962   6.144
  621SOL    HW2 2763   2.164   6.962   6.179
  622SOL     OW 2764   0.798   1.655   4.889
  622SOL    HW1 2765   0.794   1.555   4.889
  622SOL    HW2 2766   0.815   1.687   4.982
  623SOL     OW 2767   1.249   6.186   5.781
  623SOL    HW1 2768   1.297   6.225   5.703
  623SOL    HW2 2769   1.288   6.223   5.866
  624SOL     OW 2770   0.006   1.117   0.503
  624SOL    HW1 2771   6.932   1.104   0.484
  624SOL    HW2 2772   0.058   1.106   0.419
  625SOL     OW 2773   2.026   2.139   1.040
  625SOL    HW1 2774   2.061   2.210   0.980
  625SOL    HW2 2775   1.932   2.161   1.067
  626SOL     OW 2776   0.353   5.981   3.027
  626SOL    HW1 2777   0.385   6.056   2.971
  626SOL    HW2 2778   0.398   5.984   3.116
  627SOL     OW 2779   6.345   6.235   0.720
  627SOL    HW1 2780   6.342   6.136   0.702
  627SOL    HW2 2781   6.255   6.274   0.701
  628SOL     OW 2782   5.162   5.467   5.407
  628SOL    HW1 2783   5.083   5.431   5.357
  628SOL    HW2 2784   5.227   5.393   5.424
  629SOL     OW 2785   0.618   0.667   6.451
  629SOL    HW1 2786   0.663   0.715   6.375
  629SOL    HW2 2787   0.566   0.590   6.415
  630SOL     OW 2788   0.272   1.612   0.332
  630SOL    HW1 2789   0.369   1.614   0.309
  630SOL    HW2 2790   0.261   1.628   0.430
  631SOL     OW 2791   4.022   0.682   5.459
  631SOL    HW1 2792   4.016   0.773   5.418
  631SOL    HW2 2793   3.990   0.613   5.394
  632SOL     OW 2794   4.689   1.885   1.403
  632SOL    HW1 2795   4.702   1.938   1.319
  632SOL    HW2 2796   4.767   1.898   1.464
  633SOL     OW 2797   3.038   3.889   6.854
  633SOL    HW1 2798   3.080   3.900   6.763
  633SOL    HW2 2799   2.982   3.807   6.855
  634SOL     OW 2800   3.244   4.118   3.098
  634SOL    HW1 2801   3.283   4.206   3.070
  634SOL    HW2 2802   3.317   4.049   3.103
  635SOL     OW 2803   4.667   5.807   0.993
  635SOL    HW1 2804   4.637   5.818   0.898
  635SOL    HW2 2805   4.619   5.873   1.051
  636SOL     OW 2806   3.175   6.623   6.247
  636SOL    HW1 2807   3.172   6.645   6.150
  636SOL    HW2 2808   3.103   6.675   6.295
  637SOL     OW 2809   0.397   3.070   3.539
  637SOL    HW1 2810   0.370   2.989   3.487
  637SOL    HW2 2811   0.370   3.152   3.489
  638SOL     OW 2812   5.674   3.345   3.914
  638SOL    HW1 2813   5.727   3.264   3.943
  638SOL    HW2 2814   5.633   3.388   3.994
  639SOL     OW 2815   4.942   3.436   3.083
  639SOL    HW1 2816   4.903   3.410   3.172
  639SOL    HW2 2817   4.883   3.505   3.041
  640SOL     OW 2818   0.196   5.310   4.116
  640SOL    HW1 2819   0.172   5.407   4.112
  640SOL    HW2 2820   0.130   5.262   4.174
  641SOL     OW 2821   0.346   4.533   4.848
  641SOL    HW1 2822   0.255   4.570   4.830
  641SOL    HW2 2823   0.389   4.585   4.922
  642SOL     OW 2824   0.342   3.041   4.167
  642SOL    HW1 2825   0.423   2.981   4.164
  642SOL    HW2 2826   0.367   3.131   4.132
  643SOL     OW 2827   6.105   0.170   6.366
  643SOL    HW1 2828   6.190   0.223   6.373
  643SOL    HW2 2829   6.035   0.212   6.424
  644SOL     OW 2830   1.373   0.043   4.435
  644SOL    HW1 2831   1.442   7.001   4.468
  644SOL    HW2 2832   1.282   0.008   4.455
  645SOL     OW 2833   4.149   0.022   5.170
  645SOL    HW1 2834   4.173   0.108   5.125
  645SOL    HW2 2835   4.054   7.022   5.150
  646SOL     OW 2836   3.583   1.122   4.908
  646SOL    HW1 2837   3.653   1.190   4.888
  646SOL    HW2 2838   3.525   1.154   4.983
  647SOL     OW 2839   5.126   2.170   4.958
  647SOL    HW1 2840   5.136   2.264   4.923
  647SOL    HW2 2841   5.030   2.144   4.956
  648SOL     OW 2842   0.716   4.076   4.153
  648SOL    HW1 2843   0.725   4.131   4.236
  648SOL    HW2 2844   0.768   3.991   4.163
  649SOL     OW 2845   2.530   3.743   1.096
  649SOL    HW1 2846   2.475   3.810   1.147
  649SOL    HW2 2847   2.524   3.762   0.998
  650SOL     OW 2848   6.604   4.363   1.119
  650SOL    HW1 2849   6.577   4.270   1.098
  650SOL    HW2 2850   6.568   4.425   1.049
  651SOL     OW 2851   1.617   0.064   6.142
  651SOL    HW1 2852   1.557   0.135   6.105
  651SOL    HW2 2853   1.564   7.023   6.197
  652SOL     OW 2854   4.726   7.005   3.178
  652SOL    HW1 2855   4.701   6.923   3.128
  652SOL    HW2 2856   4.648   0.013   3.233
  653SOL     OW 2857   0.889   5.727   0.129
  653SOL    HW1 2858   0.892   5.661   0.204
  653SOL    HW2 2859   0.975   5.725   0.079
  654SOL     OW 2860   0.882   6.137   0.284
  654SOL    HW1 2861   0.971   6.093   0.295
  654SOL    HW2 2862   0.879   6.183   0.195
  655SOL     OW 2863   7.008   5.610   1.330
  655SOL    HW1 2864   6.970   5.547   1.397
  655SOL    HW2 2865   6.968   5.701   1.343
  656SOL     OW 2866   2.644   6.076   0.454
  656SOL    HW1 2867   2.672   6.089   0.550
  656SOL    HW2 2868   2.684   6.149   0.398
  657SOL     OW 2869   3.553   3.719   1.232
  657SOL    HW1 2870   3.603   3.634   1.250
  657SOL    HW2 2871   3.478   3.700   1.167
  658SOL     OW 2872   1.588   3.553   6.096
  658SOL    HW1 2873   1.574   3.550   5.997
  658SOL    HW2 2874   1.679   3.588   6.117
  659SOL     OW 2875   2.451   6.073   4.404
  659SOL    HW1 2876   2.414   6.165   4.414
  659SOL    HW2 2877   2.547   6.073   4.430
  660SOL     OW 2878   5.772   3.655   2.831
  660SOL    HW1 2879   5.842   3.610   2.776
  660SOL    HW2 2880   5.751   3.745   2.793
  661SOL     OW 2881   4.827   3.878   3.996
  661SOL    HW1 2882   4.809   3.857   3.900
  661SOL    HW2 2883   4.865   3.797   4.040
  662SOL     OW 2884   4.050   0.405   5.745
  662SOL    HW1 2885   4.114   0.472   5.707
  662SOL    HW2 2886   4.060   0.400   5.844
  663SOL     OW 2887   1.458   3.764   0.338
  663SOL    HW1 2888   1.545   3.791   0.298
  663SOL    HW2 2889   1.410   3.703   0.276
  664SOL     OW 2890   1.105   5.423   6.105
  664SOL    HW1 2891   1.141   5.340   6.147
  664SOL    HW2 2892   1.163   5.449   6.028
  665SOL     OW 2893   4.634   5.199   1.142
  665SOL    HW1 2894   4.683   5.117   1.111
  665SOL    HW2 2895   4.639   5.205   1.242
  666SOL     OW 2896   4.294   2.342   2.075
  666SOL    HW1 2897   4.225   2.377   2.139
  666SOL    HW2 2898   4.300   2.242   2.085
  667SOL     OW 2899   6.525   4.306   3.387
  667SOL    HW1 2900   6.459   4.379   3.369
  667SOL    HW2 2901   6.502   4.225   3.334
  668SOL     OW 2902   4.970   5.832   6.907
  668SOL    HW1 2903   4.916   5.887   6.844
  668SOL    HW2 2904   4.965   5.735   6.880
  669SOL     OW 2905   2.985   5.885   2.653
  669SOL    HW1 2906   3.025   5.890   2.561
  669SOL    HW2 2907   2.965   5.790   2.675
  670SOL     OW 2908   2.819   3.050   1.782
  670SOL    HW1 2909   2.892   3.059   1.850
  670SOL    HW2 2910   2.854   3.072   1.691
  671SOL     OW 2911   2.355   5.769   6.603
  671SOL    HW1 2912   2.270   5.731   6.641
  671SOL    HW2 2913   2.336   5.857   6.561
  672SOL     OW 2914   0.747   4.494   1.767
  672SOL    HW1 2915   0.653   4.460   1.766
  672SOL    HW2 2916   0.796   4.459   1.687
  673SOL     OW 2917   6.263   0.353   1.346
  673SOL    HW1 2918   6.171   0.372   1.381
  673SOL    HW2 2919   6.268   0.259   1.313
  674SOL     OW 2920   6.392   4.166   4.725
  674SOL    HW1 2921   6.401   4.072   4.691
  674SOL    HW2 2922   6.319   4.212   4.675
  675SOL     OW 2923   6.792   1.320   5.002
  675SOL    HW1 2924   6.823   1.272   4.920
  675SOL    HW2 2925   6.771   1.254   5.074
  676SOL     OW 2926   3.569   5.287   2.518
  676SOL    HW1 2927   3.509   5.361   2.550
  676SOL    HW2 2928   3.641   5.272   2.585
  677SOL     OW 2929   6.331   1.719   6.451
  677SOL    HW1 2930   6.380   1.806   6.454
  677SOL    HW2 2931   6.381   1.651   6.505
  678SOL     OW 2932   1.142   1.732   5.424
  678SOL    HW1 2933   1.202   1.788   5.367
  678SOL    HW2 2934   1.125   1.779   5.511
  679SOL     OW 2935   4.787   1.031   3.920
  679SOL    HW1 2936   4.800   1.103   3.851
  679SOL    HW2 2937   4.690   1.023   3.942
  680SOL     OW 2938   5.269   5.570   6.105
  680SOL    HW1 2939   5.197   5.615   6.052
  680SOL    HW2 2940   5.335   5.527   6.043
  681SOL     OW 2941   5.802   6.641   1.508
  681SOL    HW1 2942   5.718   6.604   1.549
  681SOL    HW2 2943   5.868   6.661   1.580
  682SOL     OW 2944   1.510   0.008   6.935
  682SOL    HW1 2945   1.602   7.020   6.897
  682SOL    HW2 2946   1.480   6.945   6.974
  683SOL     OW 2947   3.653   1.636   6.864
  683SOL    HW1 2948   3.578   1.668   6.805
  683SOL    HW2 2949   3.713   1.576   6.812
  684SOL     OW 2950   5.858   1.118   6.922
  684SOL    HW1 2951   5.802   1.197   6.897
  684SOL    HW2 2952   5.951   1.131   6.886
  685SOL     OW 2953   4.884   0.716   5.081
  685SOL    HW1 2954   4.815   0.775   5.038
  685SOL    HW2 2955   4.937   0.670   5.011
  686SOL     OW 2956   5.792   2.851   3.377
  686SOL    HW1 2957   5.826   2.928   3.324
  686SOL    HW2 2958   5.749   2.784   3.316
  687SOL     OW 2959   0.050   2.388   4.419
  687SOL    HW1 2960   0.137   2.410   4.462
  687SOL    HW2 2961   7.008   2.462   4.436
  688SOL     OW 2962   1.866   2.994   0.100
  688SOL    HW1 2963   1.954   3.005   0.052
  688SOL    HW2 2964   1.791   3.006   0.035
  689SOL     OW 2965   0.277   4.429   5.456
  689SOL    HW1 2966   0.322   4.477   5.531
  689SOL    HW2 2967   0.179   4.450   5.458
  690SOL     OW 2968   0.963   3.906   3.534
  690SOL    HW1 2969   1.035   3.865   3.591
  690SOL    HW2 2970   0.919   3.835   3.479
  691SOL     OW 2971   2.583   1.212   6.405
  691SOL    HW1 2972   2.559   1.149   6.479
  691SOL    HW2 2973   2.500   1.234   6.353
  692SOL     OW 2974   3.974   6.429   3.248
  692SOL    HW1 2975   3.877   6.449   3.234
  692SOL    HW2 2976   3.993   6.422   3.346
  693SOL     OW 2977   6.571   1.749   3.080
  693SOL    HW1 2978   6.555   1.820   3.012
  693SOL    HW2 2979   6.649   1.774   3.137
  694SOL     OW 2980   3.522   6.800   2.674
  694SOL    HW1 2981   3.598   6.860   2.652
  694SOL    HW2 2982   3.543   6.707   2.644
  695SOL     OW 2983   4.461   4.734   5.680
  695SOL    HW1 2984   4.431   4.812   5.625
  695SOL    HW2 2985   4.557   4.714   5.661
  696SOL     OW 2986   2.784   5.382   1.913
  696SOL    HW1 2987   2.786   5.372   2.013
  696SOL    HW2 2988   2.851   5.321   1.872
  697SOL     OW 2989   1.526   2.995   4.674
  697SOL    HW1 2990   1.624   2.972   4.676
  697SOL    HW2 2991   1.476   2.920   4.631
  698SOL     OW 2992   5.522   0.050   6.598
  698SOL    HW1 2993   5.546   0.010   6.687
  698SOL    HW2 2994   5.582   0.127   6.579
  699SOL     OW 2995   1.257   3.891   0.046
  699SOL    HW1 2996   1.211   3.854   0.127
  699SOL    HW2 2997   1.356   3.894   0.062
  700SOL     OW 2998   2.823   1.213   4.069
  700SOL    HW1 2999   2.777   1.133   4.108
  700SOL    HW2 3000   2.885   1.184   3.996
  701SOL     OW 3001   0.003   4.420   5.522
  701SOL    HW1 3002   0.014   4.320   5.515
  701SOL    HW2 3003   7.003   4.444   5.616
  702SOL     OW 3004   6.231   6.545   6.003
  702SOL    HW1 3005   6.285   6.502   5.930
  702SOL    HW2 3006   6.163   6.480   6.037
  703SOL     OW 3007   4.150   3.595   6.364
  703SOL    HW1 3008   4.093   3.523   6.325
  703SOL    HW2 3009   4.212   3.555   6.432
  704SOL     OW 3010   1.886   1.522   6.642
  704SOL    HW1 3011   1.952   1.450   6.619
  704SOL    HW2 3012   1.902   1.553   6.736
  705SOL     OW 3013   5.363   0.008   3.384
  705SOL    HW1 3014   5.317   6.945   3.404
  705SOL    HW2 3015   5.445   0.017   3.441
  706SOL     OW 3016   4.212   2.028   4.056
  706SOL    HW1 3017   4.122   2.055   4.090
  706SOL    HW2 3018   4.232   1.934   4.085
  707SOL     OW 3019   4.625   6.977   2.681
  707SOL    HW1 3020   4.701   7.007   2.624
  707SOL    HW2 3021   4.560   6.924   2.626
  708SOL     OW 3022   4.237   0.430   1.408
  708SOL    HW1 3023   4.211   0.496   1.337
  708SOL    HW2 3024   4.165   0.360   1.415
  709SOL     OW 3025   1.325   5.400   0.440
  709SOL    HW1 3026   1.377   5.475   0.400
  709SOL    HW2 3027   1.384   5.320   0.450
  710SOL     OW 3028   3.781   3.206   2.121
  710SOL    HW1 3029   3.778   3.287   2.179
  710SOL    HW2 3030   3.689   3.171   2.108
  711SOL     OW 3031   6.979   1.830   5.940
  711SOL    HW1 3032   7.007   1.925   5.927
  711SOL    HW2 3033   6.889   1.828   5.983
  712SOL     OW 3034   3.244   3.889   0.523
  712SOL    HW1 3035   3.209   3.957   0.458
  712SOL    HW2 3036   3.176   3.874   0.595
  713SOL     OW 3037   3.511   2.903   0.173
  713SOL    HW1 3038   3.606   2.905   0.203
  713SOL    HW2 3039   3.475   2.810   0.181
  714SOL     OW 3040   6.448   4.947   4.807
  714SOL    HW1 3041   6.430   5.045   4.803
  714SOL    HW2 3042   6.522   4.924   4.743
  715SOL     OW 3043   5.300   6.387   0.518
  715SOL    HW1 3044   5.261   6.471   0.482
  715SOL    HW2 3045   5.399   6.385   0.499
  716SOL     OW 3046   1.111   6.497   0.751
  716SOL    HW1 3047   1.033   6.436   0.737
  716SOL    HW2 3048   1.186   6.470   0.689
  717SOL     OW 3049   5.703   5.040   6.407
  717SOL    HW1 3050   5.751   5.117   6.450
  717SOL    HW2 3051   5.712   5.047   6.308
  718SOL     OW 3052   4.892   2.458   5.764
  718SOL    HW1 3053   4.951   2.534   5.792
  718SOL    HW2 3054   4.799   2.476   5.795
  719SOL     OW 3055   6.750   2.215   0.925
  719SOL    HW1 3056   6.681   2.288   0.931
  719SOL    HW2 3057   6.724   2.151   0.853
  720SOL     OW 3058   3.426   1.069   6.507
  720SOL    HW1 3059   3.422   1.043   6.411
  720SOL    HW2 3060   3.334   1.086   6.542
  721SOL     OW 3061   2.067   0.445   4.369
  721SOL    HW1 3062   2.026   0.378   4.307
  721SOL    HW2 3063   2.163   0.459   4.343
  722SOL     OW 3064   2.135   6.981   4.779
  722SOL    HW1 3065   2.173   0.045   4.810
  722SOL    HW2 3066   2.048   6.996   4.733
  723SOL     OW 3067   1.956   3.331   3.388
  723SOL    HW1 3068   1.917   3.377   3.468
  723SOL    HW2 3069   2.015   3.256   3.418
  724SOL     OW 3070   1.179   2.410   5.166
  724SOL    HW1 3071   1.237   2.365   5.098
  724SOL    HW2 3072   1.120   2.477   5.120
  725SOL     OW 3073   3.435   5.547   0.563
  725SOL    HW1 3074   3.448   5.541   0.464
  725SOL    HW2 3075   3.514   5.509   0.610
  726SOL     OW 3076   4.153   4.653   0.717
  726SOL    HW1 3077   4.078   4.684   0.660
  726SOL    HW2 3078   4.229   4.624   0.659
  727SOL     OW 3079   5.039   5.426   6.245
  727SOL    HW1 3080   5.009   5.343   6.198
  727SOL    HW2 3081   5.113   5.469   6.194
  728SOL     OW 3082   6.795   3.164   4.515
  728SOL    HW1 3083   6.859   3.170   4.438
  728SOL    HW2 3084   6.730   3.240   4.509
  729SOL     OW 3085   1.680   1.926   0.273
  729SOL    HW1 3086   1.773   1.961   0.267
  729SOL    HW2 3087   1.622   1.994   0.319
  730SOL     OW 3088   5.163   1.112   2.993
  730SOL    HW1 3089   5.234   1.064   2.942
  730SOL    HW2 3090   5.109   1.046   3.045
  731SOL     OW 3091   6.120   4.237   5.967
  731SOL    HW1 3092   6.032   4.274   5.996
  731SOL    HW2 3093   6.137   4.150   6.012
  732SOL     OW 3094   0.494   2.913   1.072
  732SOL    HW1 3095   0.471   2.818   1.091
  732SOL    HW2 3096   0.495   2.929   0.973
  733SOL     OW 3097   5.534   5.492   5.431
  733SOL    HW1 3098   5.496   5.498   5.338
  733SOL    HW2 3099   5.524   5.580   5.477
  734SOL     OW 3100   6.684   4.292   2.737
  734SOL    HW1 3101   6.682   4.349   2.655
  734SOL    HW2 3102   6.595   4.296   2.783
  735SOL     OW 3103   4.403   2.823   0.397
  735SOL    HW1 3104   4.459   2.802   0.317
  735SOL    HW2 3105   4.337   2.749   0.412
  736SOL     OW 3106   0.205   0.168   2.906
  736SOL    HW1 3107   0.302   0.192   2.908
  736SOL    HW2 3108   0.160   0.205   2.987
  737SOL     OW 3109   4.675   2.141   6.377
  737SOL    HW1 3110   4.738   2.218   6.368
  737SOL    HW2 3111   4.726   2.058   6.399
  738SOL     OW 3112   2.219   4.082   2.352
  738SOL    HW1 3113   2.215   4.003   2.291
  738SOL    HW2 3114   2.275   4.153   2.310
  739SOL     OW 3115   3.624   0.243   4.960
  739SOL    HW1 3116   3.562   0.168   4.938
  739SOL    HW2 3117   3.711   0.206   4.992
  740SOL     OW 3118   4.698   6.873   0.306
  740SOL    HW1 3119   4.741   6.789   0.338
  740SOL    HW2 3120   4.615   6.850   0.255
  741SOL     OW 3121   2.256   6.196   2.885
  741SOL    HW1 3122   2.239   6.131   2.811
  741SOL    HW2 3123   2.337   6.168   2.936
  742SOL     OW 3124   1.757   6.676   1.043
  742SOL    HW1 3125   1.672   6.631   1.014
  742SOL    HW2 3126   1.736   6.748   1.109
  743SOL     OW 3127   0.484   4.453   4.270
  743SOL    HW1 3128   0.387   4.478   4.262
  743SOL    HW2 3129   0.536   4.531   4.303
  744SOL     OW 3130   5.876   6.954   6.591
  744SOL    HW1 3131   5.854   0.018   6.635
  744SOL    HW2 3132   5.917   6.972   6.501
  745SOL     OW 3133   0.855   5.123   4.244
  745SOL    HW1 3134   0.870   5.211   4.288
  745SOL    HW2 3135   0.856   5.136   4.144
  746SOL     OW 3136   0.544   5.360   5.826
  746SOL    HW1 3137   0.576   5.450   5.796
  746SOL    HW2 3138   0.572   5.291   5.759
  747SOL     OW 3139   4.321   6.877   5.029
  747SOL    HW1 3140   4.285   6.794   5.073
  747SOL    HW2 3141   4.283   6.957   5.076
  748SOL     OW 3142   3.192   4.901   2.328
  748SOL    HW1 3143   3.110   4.860   2.290
  748SOL    HW2 3144   3.259   4.916   2.255
  749SOL     OW 3145   6.477   4.403   4.913
  749SOL    HW1 3146   6.492   4.491   4.869
  749SOL    HW2 3147   6.425   4.343   4.852
  750SOL     OW 3148   2.130   2.621   1.223
  750SOL    HW1 3149   2.043   2.573   1.211
  750SOL    HW2 3150   2.164   2.607   1.316
  751SOL     OW 3151   4.111   2.961   5.769
  751SOL    HW1 3152   4.051   2.959   5.689
  751SOL    HW2 3153   4.056   2.976   5.852
  752SOL     OW 3154   3.654   1.699   2.096
  752SOL    HW1 3155   3.555   1.716   2.095
  752SOL    HW2 3156   3.702   1.784   2.119
  753SOL     OW 3157   1.541   2.756   4.422
  753SOL    HW1 3158   1.513   2.664   4.451
  753SOL    HW2 3159   1.616   2.749   4.356
  754SOL     OW 3160   5.563   3.131   6.096
  754SOL    HW1 3161   5.492   3.062   6.105
  754SOL    HW2 3162   5.620   3.110   6.016
  755SOL     OW 3163   1.685   4.769   5.788
  755SOL    HW1 3164   1.658   4.701   5.719
  755SOL    HW2 3165   1.780   4.752   5.816
  756SOL     OW 3166   3.413   0.339   1.562
  756SOL    HW1 3167   3.330   0.389   1.587
  756SOL    HW2 3168   3.490   0.402   1.557
  757SOL     OW 3169   0.836   6.964   3.392
  757SOL    HW1 3170   0.928   6.980   3.428
  757SOL    HW2 3171   0.794   6.888   3.440
  758SOL     OW 3172   3.894   0.120   1.915
  758SOL    HW1 3173   3.952   0.100   1.837
  758SOL    HW2 3174   3.943   0.182   1.978
  759SOL     OW 3175   0.805   1.122   0.738
  759SOL    HW1 3176   0.742   1.051   0.707
  759SOL    HW2 3177   0.868   1.084   0.806
  760SOL     OW 3178   4.957   0.221   5.731
  760SOL    HW1 3179   4.864   0.235   5.695
  760SOL    HW2 3180   5.024   0.247   5.662
  761SOL     OW 3181   5.586   3.222   5.390
  761SOL    HW1 3182   5.529   3.299   5.418
  761SOL    HW2 3183   5.683   3.247   5.400
  762SOL     OW 3184   2.213   0.224   4.676
  762SOL    HW1 3185   2.234   0.175   4.591
  762SOL    HW2 3186   2.189   0.318   4.654
  763SOL     OW 3187   4.274   4.616   6.685
  763SOL    HW1 3188   4.178   4.587   6.692
  763SOL    HW2 3189   4.332   4.551   6.734
  764SOL     OW 3190   4.430   0.737   3.938
  764SOL    HW1 3191   4.382   0.789   3.867
  764SOL    HW2 3192   4.454   0.799   4.013
  765SOL     OW 3193   1.008   6.020   1.041
  765SOL    HW1 3194   0.956   6.092   0.994
  765SOL    HW2 3195   1.102   6.020   1.008
  766SOL     OW 3196   2.079   3.661   6.829
  766SOL    HW1 3197   2.030   3.744   6.857
  766SOL    HW2 3198   2.016   3.599   6.781
  767SOL     OW 3199   5.918   5.790   2.223
  767SOL    HW1 3200   5.973   5.763   2.302
  767SOL    HW2 3201   5.848   5.856   2.252
  768SOL     OW 3202   1.601   6.379   1.347
  768SOL    HW1 3203   1.554   6.335   1.424
  768SOL    HW2 3204   1.553   6.357   1.262
  769SOL     OW 3205   3.339   0.792   4.299
  769SOL    HW1 3206   3.376   0.725   4.364
  769SOL    HW2 3207   3.401   0.870   4.293
  770SOL     OW 3208   2.051   3.652   3.071
  770SOL    HW1 3209   2.084   3.563   3.103
  770SOL    HW2 3210   1.953   3.660   3.090
  771SOL     OW 3211   2.055   5.471   2.129
  771SOL    HW1 3212   2.150   5.499   2.116
  771SOL    HW2 3213   2.031   5.404   2.058
  772SOL     OW 3214   6.117   5.274   0.766
  772SOL    HW1 3215   6.216   5.271   0.784
  772SOL    HW2 3216   6.073   5.333   0.834
  773SOL     OW 3217   0.445   3.996   4.119
  773SOL    HW1 3218   0.541   4.023   4.130
  773SOL    HW2 3219   0.387   4.077   4.123
  774SOL     OW 3220   1.401   2.197   1.410
  774SOL    HW1 3221   1.468   2.271   1.418
  774SOL    HW2 3222   1.402   2.143   1.493
  775SOL     OW 3223   0.848   2.180   2.797
  775SOL    HW1 3224   0.881   2.093   2.832
  775SOL    HW2 3225   0.776   2.164   2.728
  776SOL     OW 3226   0.871   0.065   5.656
  776SOL    HW1 3227   0.853   0.055   5.754
  776SOL    HW2 3228   0.916   7.006   5.622
  777SOL     OW 3229   2.928   5.042   1.066
  777SOL    HW1 3230   2.939   5.095   0.981
  777SOL    HW2 3231   3.010   5.051   1.121
  778SOL     OW 3232   3.319   1.325   2.885
  778SOL    HW1 3233   3.352   1.344   2.792
  778SOL    HW2 3234   3.266   1.240   2.884
  779SOL     OW 3235   0.348   2.246   2.934
  779SOL    HW1 3236   0.274   2.287   2.880
  779SOL    HW2 3237   0.313   2.215   3.022
  780SOL     OW 3238   5.894   3.961   3.869
  780SOL    HW1 3239   5.936   3.921   3.788
  780SOL    HW2 3240   5.923   3.910   3.950
  781SOL     OW 3241   5.223   1.466   0.284
  781SOL    HW1 3242   5.157   1.533   0.248
  781SOL    HW2 3243   5.195   1.438   0.375
  782SOL     OW 3244   1.711   3.922   6.800
  782SOL    HW1 3245   1.740   3.999   6.743
  782SOL    HW2 3246   1.742   3.836   6.759
  783SOL     OW 3247   4.051   4.848   1.214
  783SOL    HW1 3248   3.952   4.860   1.204
  783SOL    HW2 3249   4.086   4.914   1.280
  784SOL     OW 3250   5.086   6.582   6.897
  784SOL    HW1 3251   5.023   6.540   6.832
  784SOL    HW2 3252   5.180   6.565   6.866
  785SOL     OW 3253   0.361   2.828   2.962
  785SOL    HW1 3254   0.433   2.849   2.896
  785SOL    HW2 3255   0.331   2.734   2.950
  786SOL     OW 3256   0.842   0.789   1.273
  786SOL    HW1 3257   0.886   0.842   1.201
  786SOL    HW2 3258   0.842   0.842   1.358
  787SOL     OW 3259   2.874   0.707   6.780
  787SOL    HW1 3260   2.792   0.763   6.792
  787SOL    HW2 3261   2.908   0.678   6.869
  788SOL     OW 3262   3.325   2.750   5.807
  788SOL    HW1 3263   3.243   2.803   5.784
  788SOL    HW2 3264   3.380   2.799   5.874
  789SOL     OW 3265   5.652   3.654   1.196
  789SOL    HW1 3266   5.668   3.634   1.099
  789SOL    HW2 3267   5.577   3.718   1.205
  790SOL     OW 3268   2.487   0.683   4.166
  790SOL    HW1 3269   2.459   0.746   4.093
  790SOL    HW2 3270   2.586   0.669   4.163
  791SOL     OW 3271   3.694   5.904   3.186
  791SOL    HW1 3272   3.699   5.984   3.245
  791SOL    HW2 3273   3.604   5.861   3.193
  792SOL     OW 3274   0.241   0.673   1.304
  792SOL    HW1 3275   0.294   0.632   1.231
  792SOL    HW2 3276   0.143   0.664   1.283
  793SOL     OW 3277   5.261   5.606   3.179
  793SOL    HW1 3278   5.242   5.692   3.226
  793SOL    HW2 3279   5.248   5.618   3.081
  794SOL     OW 3280   2.798   3.802   5.538
  794SOL    HW1 3281   2.802   3.765   5.445
  794SOL    HW2 3282   2.739   3.883   5.538
  795SOL     OW 3283   3.845   6.738   4.711
  795SOL    HW1 3284   3.911   6.789   4.655
  795SOL    HW2 3285   3.791   6.803   4.766
  796SOL     OW 3286   1.222   1.905   6.301
  796SOL    HW1 3287   1.301   1.950   6.259
  796SOL    HW2 3288   1.142   1.964   6.293
  797SOL     OW 3289   4.926   2.712   1.539
  797SOL    HW1 3290   4.917   2.788   1.473
  797SOL    HW2 3291   5.020   2.677   1.535
  798SOL     OW 3292   5.049   6.788   1.952
  798SOL    HW1 3293   5.007   6.877   1.940
  798SOL    HW2 3294   4.991   6.731   2.011
  799SOL     OW 3295   6.318   1.165   5.427
  799SOL    HW1 3296   6.365   1.212   5.503
  799SOL    HW2 3297   6.241   1.221   5.397
  800SOL     OW 3298   5.221   1.724   2.924
  800SOL    HW1 3299   5.125   1.737   2.898
  800SOL    HW2 3300   5.257   1.643   2.879
  801SOL     OW 3301   2.153   3.148   4.279
  801SOL    HW1 3302   2.199   3.231   4.313
  801SOL    HW2 3303   2.073   3.174   4.225
  802SOL     OW 3304   4.612   0.656   0.563
  802SOL    HW1 3305   4.620   0.557   0.557
  802SOL    HW2 3306   4.577   0.691   0.476
  803SOL     OW 3307   0.011   6.329   5.143
  803SOL    HW1 3308   0.024   6.381   5.228
  803SOL    HW2 3309   0.100   6.314   5.099
  804SOL     OW 3310   5.473   5.887   0.116
  804SOL    HW1 3311   5.550   5.898   0.179
  804SOL    HW2 3312   5.390   5.866   0.168
  805SOL     OW 3313   3.422   1.420   5.645
  805SOL    HW1 3314   3.471   1.484   5.586
  805SOL    HW2 3315   3.420   1.329   5.603
  806SOL     OW 3316   5.231   0.798   4.069
  806SOL    HW1 3317   5.215   0.704   4.097
  806SOL    HW2 3318   5.145   0.839   4.040
  807SOL     OW 3319   0.730   1.963   4.746
  807SOL    HW1 3320   0.759   1.877   4.703
  807SOL    HW2 3321   0.657   1.944   4.812
  808SOL     OW 3322   4.938   2.987   6.037
  808SOL    HW1 3323   4.860   2.943   5.992
  808SOL    HW2 3324   4.936   2.966   6.135
  809SOL     OW 3325   0.475   4.849   1.801
  809SOL    HW1 3326   0.559   4.904   1.801
  809SOL    HW2 3327   0.470   4.796   1.717
  810SOL     OW 3328   3.360   2.923   0.871
  810SOL    HW1 3329   3.293   2.905   0.799
  810SOL    HW2 3330   3.351   3.018   0.901
  811SOL     OW 3331   4.031   5.544   4.392
  811SOL    HW1 3332   4.010   5.626   4.338
  811SOL    HW2 3333   4.030   5.464   4.332
  812SOL     OW 3334   0.534   1.665   1.521
  812SOL    HW1 3335   0.482   1.747   1.543
  812SOL    HW2 3336   0.525   1.600   1.597
  813SOL     OW 3337   3.468   5.692   5.240
  813SOL    HW1 3338   3.458   5.691   5.140
  813SOL    HW2 3339   3.546   5.748   5.265
  814SOL     OW 3340   5.903   6.254   2.700
  814SOL    HW1 3341   5.822   6.292   2.655
  814SOL    HW2 3342   5.962   6.211   2.632
  815SOL     OW 3343   0.694   3.839   2.877
  815SOL    HW1 3344   0.661   3.759   2.928
  815SOL    HW2 3345   0.676   3.827   2.780
  816SOL     OW 3346   6.374   6.878   0.315
  816SOL    HW1 3347   6.415   6.926   0.393
  816SOL    HW2 3348   6.306   6.938   0.271
  817SOL     OW 3349   2.247   3.844   1.551
  817SOL    HW1 3350   2.223   3.933   1.590
  817SOL    HW2 3351   2.260   3.778   1.626
  818SOL     OW 3352   6.444   2.531   1.425
  818SOL    HW1 3353   6.511   2.529   1.499
  818SOL    HW2 3354   6.393   2.616   1.428
  819SOL     OW 3355   5.358   2.924   3.134
  819SOL    HW1 3356   5.440   2.959   3.089
  819SOL    HW2 3357   5.314   2.856   3.074
  820SOL     OW 3358   2.540   3.263   5.555
  820SOL    HW1 3359   2.579   3.333   5.495
  820SOL    HW2 3360   2.555   3.289   5.651
  821SOL     OW 3361   1.838   4.068   0.126
  821SOL    HW1 3362   1.797   4.151   0.087
  821SOL    HW2 3363   1.875   4.089   0.216
  822SOL     OW 3364   1.766   4.197   4.633
  822SOL    HW1 3365   1.820   4.146   4.700
  822SOL    HW2 3366   1.677   4.219   4.672
  823SOL     OW 3367   5.018   3.945   5.932
  823SOL    HW1 3368   5.060   4.021   5.881
  823SOL    HW2 3369   4.947   3.981   5.992
  824SOL     OW 3370   5.422   1.188   5.173
  824SOL    HW1 3371   5.489   1.179   5.246
  824SOL    HW2 3372   5.429   1.278   5.131
  825SOL     OW 3373   1.600   4.265   0.782
  825SOL    HW1 3374   1.614   4.310   0.870
  825SOL    HW2 3375   1.680   4.209   0.761
  826SOL     OW 3376   5.030   3.234   5.974
  826SOL    HW1 3377   5.128   3.229   5.996
  826SOL    HW2 3378   4.995   3.142   5.961
  827SOL     OW 3379   3.249   4.555   6.329
  827SOL    HW1 3380   3.150   4.550   6.331
  827SOL    HW2 3381   3.285   4.490   6.262
  828SOL     OW 3382   5.199   6.156   5.769
  828SOL    HW1 3383   5.186   6.255   5.760
  828SOL    HW2 3384   5.216   6.133   5.864
  829SOL     OW 3385   3.049   3.314   3.491
  829SOL    HW1 3386   3.023   3.302   3.587
  829SOL    HW2 3387   3.037   3.228   3.442
  830SOL     OW 3388   4.736   4.663   7.005
  830SOL    HW1 3389   4.661   4.602   0.009
  830SOL    HW2 3390   4.738   4.670   6.905
  831SOL     OW 3391   5.623   1.216   6.572
  831SOL    HW1 3392   5.541   1.273   6.578
  831SOL    HW2 3393   5.604   1.127   6.612
  832SOL     OW 3394   2.735   0.528   1.342
  832SOL    HW1 3395   2.781   0.565   1.261
  832SOL    HW2 3396   2.683   0.600   1.388
  833SOL     OW 3397   0.685   4.010   6.393
  833SOL    HW1 3398   0.650   3.964   6.311
  833SOL    HW2 3399   0.619   4.078   6.424
  834SOL     OW 3400   2.825   3.917   0.935
  834SOL    HW1 3401   2.907   3.916   0.878
  834SOL    HW2 3402   2.830   3.843   1.002
  835SOL     OW 3403   3.445   0.645   4.510
  835SOL    HW1 3404   3.390   0.563   4.497
  835SOL    HW2 3405   3.443   0.672   4.606
  836SOL     OW 3406   3.870   6.761   6.459
  836SOL    HW1 3407   3.811   6.815   6.399
  836SOL    HW2 3408   3.838   6.771   6.553
  837SOL     OW 3409   5.537   6.572   7.020
  837SOL    HW1 3410   5.485   6.598   6.939
  837SOL    HW2 3411   5.498   6.488   0.036
  838SOL     OW 3412   2.119   0.198   4.158
  838SOL    HW1 3413   2.133   0.121   4.096
  838SOL    HW2 3414   2.021   0.212   4.172
  839SOL     OW 3415   2.593   2.330   2.129
  839SOL    HW1 3416   2.566   2.236   2.147
  839SOL    HW2 3417   2.684   2.332   2.089
  840SOL     OW 3418   5.891   6.825   6.961
  840SOL    HW1 3419   5.970   6.876   6.995
  840SOL    HW2 3420   5.915   6.728   6.954
  841SOL     OW 3421   4.369   5.052   0.504
  841SOL    HW1 3422   4.452   5.099   0.475
  841SOL    HW2 3423   4.294   5.075   0.442
  842SOL     OW 3424   4.531   5.878   4.675
  842SOL    HW1 3425   4.437   5.846   4.687
  842SOL    HW2 3426   4.585   5.852   4.755
  843SOL     OW 3427   2.417   2.126   6.922
  843SOL    HW1 3428   2.337   2.080   6.884
  843SOL    HW2 3429   2.487   2.059   6.946
  844SOL     OW 3430   6.061   0.106   1.389
  844SOL    HW1 3431   6.019   0.159   1.315
  844SOL    HW2 3432   6.019   0.132   1.476
  845SOL     OW 3433   5.599   4.433   5.339
  845SOL    HW1 3434   5.601   4.339   5.304
  845SOL    HW2 3435   5.508   4.471   5.325
  846SOL     OW 3436   2.454   1.568   0.169
  846SOL    HW1 3437   2.443   1.479   0.213
  846SOL    HW2 3438   2.376   1.627   0.192
  847SOL     OW 3439   1.283   4.163   0.686
  847SOL    HW1 3440   1.299   4.108   0.604
  847SOL    HW2 3441   1.350   4.237   0.689
  848SOL     OW 3442   5.923   0.863   6.754
  848SOL    HW1 3443   5.824   0.872   6.754
  848SOL    HW2 3444   5.949   0.774   6.792
  849SOL     OW 3445   0.819   4.569   5.864
  849SOL    HW1 3446   0.754   4.639   5.893
  849SOL    HW2 3447   0.908   4.587   5.906
  850SOL     OW 3448   5.869   1.147   4.234
  850SOL    HW1 3449   5.917   1.098   4.306
  850SOL    HW2 3450   5.890   1.106   4.145
  851SOL     OW 3451   0.467   1.076   2.071
  851SOL    HW1 3452   0.433   1.141   2.140
  851SOL    HW2 3453   0.550   1.113   2.030
  852SOL     OW 3454   1.156   2.535   0.419
  852SOL    HW1 3455   1.250   2.503   0.436
  852SOL    HW2 3456   1.149   2.631   0.444
  853SOL     OW 3457   2.130   4.437   2.422
  853SOL    HW1 3458   2.206   4.425   2.486
  853SOL    HW2 3459   2.048   4.392   2.459
  854SOL     OW 3460   4.538   6.216   1.957
  854SOL    HW1 3461   4.468   6.147   1.978
  854SOL    HW2 3462   4.533   6.288   2.026
  855SOL     OW 3463   0.174   0.367   1.247
  855SOL    HW1 3464   0.102   0.436   1.235
  855SOL    HW2 3465   0.220   0.353   1.159
  856SOL     OW 3466   1.790   1.688   5.134
  856SOL    HW1 3467   1.775   1.734   5.222
  856SOL    HW2 3468   1.887   1.690   5.112
  857SOL     OW 3469   6.123   4.343   2.208
  857SOL    HW1 3470   6.061   4.320   2.284
  857SOL    HW2 3471   6.203   4.283   2.211
  858SOL     OW 3472   2.431   4.105   1.035
  858SOL    HW1 3473   2.517   4.156   1.032
  858SOL    HW2 3474   2.441   4.019   0.985
  859SOL     OW 3475   4.627   5.608   6.489
  859SOL    HW1 3476   4.711   5.564   6.520
  859SOL    HW2 3477   4.589   5.558   6.411
  860SOL     OW 3478   4.068   4.089   0.401
  860SOL    HW1 3479   4.075   4.091   0.301
  860SOL    HW2 3480   4.143   4.141   0.440
  861SOL     OW 3481   2.953   0.364   4.503
  861SOL    HW1 3482   2.948   0.364   4.603
  861SOL    HW2 3483   2.876   0.313   4.466
  862SOL     OW 3484   0.498   4.108   5.754
  862SOL    HW1 3485   0.552   4.030   5.788
  862SOL    HW2 3486   0.538   4.193   5.787
  863SOL     OW 3487   0.387   0.319   0.403
  863SOL    HW1 3488   0.341   0.362   0.325
  863SOL    HW2 3489   0.368   0.372   0.486
  864SOL     OW 3490   4.860   4.514   3.738
  864SOL    HW1 3491   4.762   4.495   3.748
  864SOL    HW2 3492   4.874   4.571   3.656
  865SOL     OW 3493   1.961   6.764   5.404
  865SOL    HW1 3494   1.983   6.799   5.495
  865SOL    HW2 3495   1.953   6.665   5.407
  866SOL     OW 3496   2.202   2.680   1.775
  866SOL    HW1 3497   2.153   2.653   1.858
  866SOL    HW2 3498   2.221   2.778   1.777
  867SOL     OW 3499   3.806   2.783   0.923
  867SOL    HW1 3500   3.729   2.784   0.859
  867SOL    HW2 3501   3.859   2.699   0.911
  868SOL     OW 3502   6.111   6.831   1.258
  868SOL    HW1 3503   6.115   6.786   1.347
  868SOL    HW2 3504   6.072   6.922   1.268
  869SOL     OW 3505   6.512   5.488   3.593
  869SOL    HW1 3506   6.557   5.399   3.602
  869SOL    HW2 3507   6.435   5.481   3.530
  870SOL     OW 3508   5.432   3.871   0.381
  870SOL    HW1 3509   5.353   3.929   0.360
  870SOL    HW2 3510   5.502   3.926   0.427
  871SOL     OW 3511   5.432   3.855   2.842
  871SOL    HW1 3512   5.526   3.847   2.809
  871SOL    HW2 3513   5.371   3.808   2.778
  872SOL     OW 3514   6.077   4.489   4.176
  872SOL    HW1 3515   6.006   4.553   4.205
  872SOL    HW2 3516   6.150   4.539   4.129
  873SOL     OW 3517   5.943   6.942   3.894
  873SOL    HW1 3518   5.958   6.992   3.979
  873SOL    HW2 3519   5.946   6.844   3.912
  874SOL     OW 3520   0.983   4.864   4.960
  874SOL    HW1 3521   0.891   4.905   4.960
  874SOL    HW2 3522   1.050   4.934   4.935
  875SOL     OW 3523   4.170   2.676   0.550
  875SOL    HW1 3524   4.085   2.644   0.590
  875SOL    HW2 3525   4.239   2.603   0.557
  876SOL     OW 3526   0.447   6.021   3.287
  876SOL    HW1 3527   0.460   5.958   3.364
  876SOL    HW2 3528   0.380   6.091   3.312
  877SOL     OW 3529   3.363   4.393   0.656
  877SOL    HW1 3530   3.414   4.311   0.631
  877SOL    HW2 3531   3.426   4.465   0.683
  878SOL     OW 3532   4.415   6.369   5.341
  878SOL    HW1 3533   4.368   6.286   5.314
  878SOL    HW2 3534   4.353   6.447   5.334
  879SOL     OW 3535   2.873   2.159   1.866
  879SOL    HW1 3536   2.964   2.143   1.827
  879SOL    HW2 3537   2.873   2.247   1.913
  880SOL     OW 3538   2.968   4.591   6.370
  880SOL    HW1 3539   2.919   4.663   6.418
  880SOL    HW2 3540   2.934   4.501   6.399
  881SOL     OW 3541   4.474   4.557   5.364
  881SOL    HW1 3542   4.451   4.502   5.444
  881SOL    HW2 3543   4.573   4.569   5.359
  882SOL     OW 3544   1.462   1.776   4.212
  882SOL    HW1 3545   1.392   1.721   4.166
  882SOL    HW2 3546   1.455   1.763   4.311
  883SOL     OW 3547   5.095   5.326   5.843
  883SOL    HW1 3548   5.137   5.409   5.807
  883SOL    HW2 3549   5.062   5.269   5.768
  884SOL     OW 3550   6.882   3.376   0.634
  884SOL    HW1 3551   6.861   3.402   0.539
  884SOL    HW2 3552   6.877   3.457   0.692
  885SOL     OW 3553   4.820   6.236   6.898
  885SOL    HW1 3554   4.725   6.206   6.902
  885SOL    HW2 3555   4.853   6.234   6.804
  886SOL     OW 3556   3.224   0.105   1.046
  886SOL    HW1 3557   3.251   0.182   0.988
  886SOL    HW2 3558   3.186   0.032   0.990
  887SOL     OW 3559   4.427   0.295   4.428
  887SOL    HW1 3560   4.505   0.280   4.368
  887SOL    HW2 3561   4.342   0.275   4.379
  888SOL     OW 3562   6.008   6.861   3.118
  888SOL    HW1 3563   5.978   6.779   3.167
  888SOL    HW2 3564   6.105   6.876   3.136
  889SOL     OW 3565   1.700   6.504   5.146
  889SOL    HW1 3566   1.640   6.475   5.071
  889SOL    HW2 3567   1.724   6.600   5.133
  890SOL     OW 3568   2.549   5.195   2.301
  890SOL    HW1 3569   2.528   5.105   2.263
  890SOL    HW2 3570   2.470   5.230   2.351
  891SOL     OW 3571   6.140   3.808   1.746
  891SOL    HW1 3572   6.085   3.853   1.816
  891SOL    HW2 3573   6.149   3.868   1.666
  892SOL     OW 3574   4.331   3.859   0.237
  892SOL    HW1 3575   4.293   3.824   0.323
  892SOL    HW2 3576   4.266   3.922   0.194
  893SOL     OW 3577   2.162   1.261   1.976
  893SOL    HW1 3578   2.070   1.298   1.961
  893SOL    HW2 3579   2.217   1.275   1.893
  894SOL     OW 3580   1.892   2.777   4.408
  894SOL    HW1 3581   1.834   2.816   4.336
  894SOL    HW2 3582   1.986   2.811   4.398
  895SOL     OW 3583   1.994   5.544   4.667
  895SOL    HW1 3584   2.020   5.488   4.588
  895SOL    HW2 3585   2.072   5.599   4.696
  896SOL     OW 3586   5.152   0.023   2.332
  896SOL    HW1 3587   5.199   6.993   2.262
  896SOL    HW2 3588   5.056   0.034   2.306
  897SOL     OW 3589   5.613   0.722   0.064
  897SOL    HW1 3590   5.592   0.673   7.003
  897SOL    HW2 3591   5.705   0.761   0.058
  898SOL     OW 3592   4.018   5.632   2.717
  898SOL    HW1 3593   3.923   5.600   2.727
  898SOL    HW2 3594   4.041   5.693   2.793
  899SOL     OW 3595   0.181   5.006   0.074
  899SOL    HW1 3596   0.245   5.081   0.055
  899SOL    HW2 3597   0.101   5.043   0.123
  900SOL     OW 3598   5.128   6.448   1.547
  900SOL    HW1 3599   5.068   6.370   1.567
  900SOL    HW2 3600   5.084   6.508   1.480
  901SOL     OW 3601   0.879   1.051   5.377
  901SOL    HW1 3602   0.915   0.997   5.301
  901SOL    HW2 3603   0.937   1.131   5.391
  902SOL     OW 3604   0.058   2.027   6.476
  902SOL    HW1 3605   0.115   1.951   6.507
  902SOL    HW2 3606   0.082   2.109   6.528
  903SOL     OW 3607   6.973   4.054   6.400
  903SOL    HW1 3608   6.937   3.962   6.381
  903SOL    HW2 3609   0.046   4.057   6.375
  904SOL     OW 3610   1.294   2.026   4.167
  904SOL    HW1 3611   1.232   2.032   4.245
  904SOL    HW2 3612   1.366   1.959   4.187
  905SOL     OW 3613   4.078   3.272   5.956
  905SOL    HW1 3614   3.999   3.218   5.985
  905SOL    HW2 3615   4.116   3.233   5.873
  906SOL     OW 3616   0.114   3.847   6.042
  906SOL    HW1 3617   0.140   3.908   5.967
  906SOL    HW2 3618   0.035   3.792   6.015
  907SOL     OW 3619   5.489   3.027   3.644
  907SOL    HW1 3620   5.491   3.115   3.595
  907SOL    HW2 3621   5.581   2.989   3.648
  908SOL     OW 3622   1.827   6.325   3.269
  908SOL    HW1 3623   1.774   6.327   3.353
  908SOL    HW2 3624   1.917   6.366   3.285
  909SOL     OW 3625   1.828   6.704   1.340
  909SOL    HW1 3626   1.812   6.659   1.252
  909SOL    HW2 3627   1.908   6.663   1.385
  910SOL     OW 3628   2.486   0.198   0.640
  910SOL    HW1 3629   2.584   0.218   0.641
  910SOL    HW2 3630   2.435   0.278   0.673
  911SOL     OW 3631   6.848   5.806   1.204
  911SOL    HW1 3632   6.751   5.828   1.207
  911SOL    HW2 3633   6.863   5.726   1.146
  912SOL     OW 3634   6.315   1.312   5.007
  912SOL    HW1 3635   6.287   1.256   4.929
  912SOL    HW2 3636   6.248   1.386   5.020
  913SOL     OW 3637   2.272   0.330   2.858
  913SOL    HW1 3638   2.258   0.423   2.891
  913SOL    HW2 3639   2.329   0.280   2.922
  914SOL     OW 3640   2.689   5.282   5.117
  914SOL    HW1 3641   2.767   5.230   5.152
  914SOL    HW2 3642   2.710   5.380   5.121
  915SOL     OW 3643   1.268   3.201   0.163
  915SOL    HW1 3644   1.366   3.200   0.183
  915SOL    HW2 3645   1.249   3.148   0.081
  916SOL     OW 3646   1.396   2.631   2.322
  916SOL    HW1 3647   1.347   2.559   2.371
  916SOL    HW2 3648   1.413   2.708   2.382
  917SOL     OW 3649   5.274   0.566   1.528
  917SOL    HW1 3650   5.226   0.482   1.502
  917SOL    HW2 3651   5.214   0.622   1.587
  918SOL     OW 3652   2.615   5.967   6.904
  918SOL    HW1 3653   2.637   6.056   6.943
  918SOL    HW2 3654   2.680   5.944   6.833
  919SOL     OW 3655   6.898   5.688   2.529
  919SOL    HW1 3656   6.952   5.612   2.567
  919SOL    HW2 3657   6.859   5.742   2.604
  920SOL     OW 3658   1.515   6.883   3.264
  920SOL    HW1 3659   1.602   6.930   3.250
  920SOL    HW2 3660   1.443   6.931   3.214
  921SOL     OW 3661   5.199   4.702   4.294
  921SOL    HW1 3662   5.186   4.603   4.290
  921SOL    HW2 3663   5.142   4.747   4.225
  922SOL     OW 3664   3.378   3.062   6.890
  922SOL    HW1 3665   3.330   3.045   6.976
  922SOL    HW2 3666   3.444   3.136   6.903
  923SOL     OW 3667   3.214   4.859   6.585
  923SOL    HW1 3668   3.120   4.885   6.607
  923SOL    HW2 3669   3.229   4.764   6.612
  924SOL     OW 3670   6.111   2.800   1.859
  924SOL    HW1 3671   6.013   2.784   1.866
  924SOL    HW2 3672   6.160   2.715   1.877
  925SOL     OW 3673   6.402   1.584   5.618
  925SOL    HW1 3674   6.327   1.607   5.680
  925SOL    HW2 3675   6.428   1.665   5.565
  926SOL     OW 3676   6.057   1.145   0.105
  926SOL    HW1 3677   5.958   1.132   0.110
  926SOL    HW2 3678   6.092   1.178   0.193
  927SOL     OW 3679   5.168   4.458   3.778
  927SOL    HW1 3680   5.207   4.434   3.689
  927SOL    HW2 3681   5.232   4.433   3.851
  928SOL     OW 3682   1.959   0.483   0.313
  928SOL    HW1 3683   1.956   0.478   0.413
  928SOL    HW2 3684   2.053   0.472   0.281
  929SOL     OW 3685   0.225   1.561   0.621
  929SOL    HW1 3686   0.307   1.566   0.678
  929SOL    HW2 3687   0.186   1.469   0.626
  930SOL     OW 3688   5.599   5.835   4.797
  930SOL    HW1 3689   5.678   5.891   4.771
  930SOL    HW2 3690   5.587   5.761   4.731
  931SOL     OW 3691   6.410   3.522   3.420
  931SOL    HW1 3692   6.336   3.536   3.354
  931SOL    HW2 3693   6.459   3.608   3.434
  932SOL     OW 3694   2.104   0.200   1.550
  932SOL    HW1 3695   2.009   0.225   1.570
  932SOL    HW2 3696   2.128   0.117   1.600
  933SOL     OW 3697   0.276   5.689   2.648
  933SOL    HW1 3698   0.277   5.730   2.739
  933SOL    HW2 3699   0.283   5.761   2.579
  934SOL     OW 3700   1.945   0.699   4.474
  934SOL    HW1 3701   1.971   0.619   4.420
  934SOL    HW2 3702   1.847   0.698   4.491
  935SOL     OW 3703   5.335   3.713   5.146
  935SOL    HW1 3704   5.269   3.786   5.161
  935SOL    HW2 3705   5.352   3.666   5.233
  936SOL     OW 3706   1.497   0.902   6.340
  936SOL    HW1 3707   1.549   0.818   6.348
  936SOL    HW2 3708   1.403   0.886   6.370
  937SOL     OW 3709   4.905   2.043   5.011
  937SOL    HW1 3710   4.953   1.963   4.975
  937SOL    HW2 3711   4.930   2.057   5.107
  938SOL     OW 3712   0.220   4.991   6.407
  938SOL    HW1 3713   0.278   4.987   6.488
  938SOL    HW2 3714   0.276   5.015   6.327
  939SOL     OW 3715   5.091   1.823   4.989
  939SOL    HW1 3716   5.033   1.825   5.070
  939SOL    HW2 3717   5.109   1.728   4.963
  940SOL     OW 3718   0.479   2.942   2.742
  940SOL    HW1 3719   0.401   2.936   2.679
  940SOL    HW2 3720   0.562   2.911   2.695
  941SOL     OW 3721   6.469   0.496   4.426
  941SOL    HW1 3722   6.451   0.422   4.362
  941SOL    HW2 3723   6.412   0.484   4.508
  942SOL     OW 3724   5.081   1.085   4.314
  942SOL    HW1 3725   5.126   1.173   4.327
  942SOL    HW2 3726   5.148   1.011   4.324
  943SOL     OW 3727   1.306   2.931   3.589
  943SOL    HW1 3728   1.390   2.926   3.644
  943SOL    HW2 3729   1.325   2.980   3.504
  944SOL     OW 3730   6.096   3.147   6.098
  944SOL    HW1 3731   6.019   3.088   6.121
  944SOL    HW2 3732   6.069   3.243   6.108
  945SOL     OW 3733   6.913   4.173   5.902
  945SOL    HW1 3734   6.918   4.185   6.001
  945SOL    HW2 3735   6.992   4.120   5.871
  946SOL     OW 3736   5.094   2.746   6.410
  946SOL    HW1 3737   5.049   2.665   6.448
  946SOL    HW2 3738   5.192   2.729   6.402
  947SOL     OW 3739   2.966   3.181   4.824
  947SOL    HW1 3740   3.023   3.237   4.884
  947SOL    HW2 3741   2.951   3.092   4.866
  948SOL     OW 3742   4.572   0.786   0.823
  948SOL    HW1 3743   4.550   0.710   0.884
  948SOL    HW2 3744   4.593   0.750   0.732
  949SOL     OW 3745   0.072   6.336   6.513
  949SOL    HW1 3746   0.102   6.242   6.495
  949SOL    HW2 3747   0.148   6.388   6.553
  950SOL     OW 3748   4.150   5.285   2.029
  950SOL    HW1 3749   4.097   5.215   1.981
  950SOL    HW2 3750   4.248   5.269   2.013
  951SOL     OW 3751   1.512   0.626   2.262
  951SOL    HW1 3752   1.469   0.697   2.318
  951SOL    HW2 3753   1.590   0.589   2.310
  952SOL     OW 3754   5.700   1.803   2.021
  952SOL    HW1 3755   5.671   1.898   2.033
  952SOL    HW2 3756   5.781   1.785   2.077
  953SOL     OW 3757   5.270   5.896   5.320
  953SOL    HW1 3758   5.200   5.825   5.306
  953SOL    HW2 3759   5.237   5.962   5.387
  954SOL     OW 3760   5.036   5.823   0.465
  954SOL    HW1 3761   4.968   5.764   0.423
  954SOL    HW2 3762   4.999   5.916   0.475
  955SOL     OW 3763   7.021   4.932   3.340
  955SOL    HW1 3764   6.985   4.966   3.253
  955SOL    HW2 3765   0.045   5.007   3.387
  956SOL     OW 3766   0.750   2.252   2.469
  956SOL    HW1 3767   0.734   2.267   2.371
  956SOL    HW2 3768   0.810   2.325   2.504
  957SOL     OW 3769   1.065   4.926   4.624
  957SOL    HW1 3770   1.139   4.878   4.670
  957SOL    HW2 3771   0.989   4.863   4.607
  958SOL     OW 3772   4.672   2.590   1.881
  958SOL    HW1 3773   4.585   2.541   1.892
  958SOL    HW2 3774   4.663   2.659   1.809
  959SOL     OW 3775   2.655   4.760   2.923
  959SOL    HW1 3776   2.618   4.680   2.876
  959SOL    HW2 3777   2.739   4.790   2.878
  960SOL     OW 3778   0.105   5.857   3.932
  960SOL    HW1 3779   0.014   5.838   3.896
  960SOL    HW2 3780   0.100   5.933   3.997
  961SOL     OW 3781   4.983   0.008   3.265
  961SOL    HW1 3782   5.001   0.103   3.239
  961SOL    HW2 3783   4.887   7.009   3.245
  962SOL     OW 3784   1.604   1.297   4.535
  962SOL    HW1 3785   1.508   1.326   4.540
  962SOL    HW2 3786   1.664   1.374   4.553
  963SOL     OW 3787   6.360   1.414   6.322
  963SOL    HW1 3788   6.273   1.393   6.276
  963SOL    HW2 3789   6.432   1.357   6.283
  964SOL     OW 3790   6.552   3.630   0.613
  964SOL    HW1 3791   6.493   3.701   0.572
  964SOL    HW2 3792   6.501   3.545   0.620
  965SOL     OW 3793   5.579   1.933   1.328
  965SOL    HW1 3794   5.670   1.945   1.369
  965SOL    HW2 3795   5.538   2.023   1.314
  966SOL     OW 3796   5.456   1.629   2.654
  966SOL    HW1 3797   5.378   1.599   2.598
  966SOL    HW2 3798   5.467   1.565   2.730
  967SOL     OW 3799   2.357   5.096   1.313
  967SOL    HW1 3800   2.359   5.084   1.412
  967SOL    HW2 3801   2.276   5.050   1.275
  968SOL     OW 3802   4.654   2.629   2.263
  968SOL    HW1 3803   4.655   2.673   2.174
  968SOL    HW2 3804   4.698   2.689   2.330
  969SOL     OW 3805   4.261   5.944   6.726
  969SOL    HW1 3806   4.208   6.004   6.786
  969SOL    HW2 3807   4.353   5.931   6.764
  970SOL     OW 3808   4.736   1.306   4.898
  970SOL    HW1 3809   4.753   1.404   4.903
  970SOL    HW2 3810   4.805   1.257   4.952
  971SOL     OW 3811   0.537   1.869   3.177
  971SOL    HW1 3812   0.524   1.860   3.276
  971SOL    HW2 3813   0.529   1.965   3.151
  972SOL     OW 3814   5.922   4.018   1.232
  972SOL    HW1 3815   5.926   3.922   1.258
  972SOL    HW2 3816   5.931   4.075   1.314
  973SOL     OW 3817   6.792   4.162   0.132
  973SOL    HW1 3818   6.755   4.178   0.041
  973SOL    HW2 3819   6.861   4.090   0.128
  974SOL     OW 3820   4.517   0.267   2.490
  974SOL    HW1 3821   4.426   0.267   2.532
  974SOL    HW2 3822   4.580   0.216   2.548
  975SOL     OW 3823   2.075   5.993   6.133
  975SOL    HW1 3824   2.014   6.055   6.084
  975SOL    HW2 3825   2.023   5.915   6.167
  976SOL     OW 3826   6.281   3.093   2.456
  976SOL    HW1 3827   6.191   3.071   2.418
  976SOL    HW2 3828   6.316   3.015   2.506
  977SOL     OW 3829   2.163   1.015   3.885
  977SOL    HW1 3830   2.155   1.107   3.922
  977SOL    HW2 3831   2.257   0.983   3.894
  978SOL     OW 3832   4.410   4.375   5.552
  978SOL    HW1 3833   4.429   4.321   5.634
  978SOL    HW2 3834   4.337   4.332   5.499
  979SOL     OW 3835   0.037   1.622   1.622
  979SOL    HW1 3836   0.055   1.632   1.524
  979SOL    HW2 3837   0.047   1.526   1.648
  980SOL     OW 3838   4.555   2.194   3.978
  980SOL    HW1 3839   4.629   2.155   4.033
  980SOL    HW2 3840   4.582   2.197   3.882
  981SOL     OW 3841   1.585   1.317   5.012
  981SOL    HW1 3842   1.578   1.402   4.959
  981SOL    HW2 3843   1.681   1.299   5.034
  982SOL     OW 3844   2.654   2.009   3.215
  982SOL    HW1 3845   2.650   2.081   3.284
  982SOL    HW2 3846   2.743   1.964   3.219
  983SOL     OW 3847   5.689   2.218   3.726
  983SOL    HW1 3848   5.685   2.318   3.724
  983SOL    HW2 3849   5.597   2.181   3.718
  984SOL     OW 3850   2.918   1.421   3.665
  984SOL    HW1 3851   2.961   1.508   3.688
  984SOL    HW2 3852   2.989   1.350   3.656
  985SOL     OW 3853   4.840   4.805   6.318
  985SOL    HW1 3854   4.814   4.822   6.223
  985SOL    HW2 3855   4.775   4.742   6.360
  986SOL     OW 3856   5.325   4.530   0.252
  986SOL    HW1 3857   5.293   4.599   0.187
  986SOL    HW2 3858   5.422   4.545   0.272
  987SOL     OW 3859   4.497   6.364   1.274
  987SOL    HW1 3860   4.448   6.334   1.355
  987SOL    HW2 3861   4.579   6.415   1.302
  988SOL     OW 3862   3.365   2.867   2.157
  988SOL    HW1 3863   3.286   2.819   2.196
  988SOL    HW2 3864   3.392   2.825   2.071
  989SOL     OW 3865   6.392   1.218   5.767
  989SOL    HW1 3866   6.456   1.285   5.729
  989SOL    HW2 3867   6.442   1.136   5.794
  990SOL     OW 3868   4.364   1.119   1.976
  990SOL    HW1 3869   4.327   1.146   1.888
  990SOL    HW2 3870   4.374   1.200   2.035
  991SOL     OW 3871   1.904   2.641   5.166
  991SOL    HW1 3872   1.961   2.578   5.114
  991SOL    HW2 3873   1.947   2.731   5.170
  992SOL     OW 3874   1.027   3.801   1.401
  992SOL    HW1 3875   1.117   3.767   1.426
  992SOL    HW2 3876   0.958   3.732   1.422
  993SOL     OW 3877   1.197   4.686   1.927
  993SOL    HW1 3878   1.162   4.738   1.849
  993SOL    HW2 3879   1.177   4.589   1.914
  994SOL     OW 3880   3.258   3.802   2.769
  994SOL    HW1 3881   3.348   3.822   2.807
  994SOL    HW2 3882   3.253   3.705   2.745
  995SOL     OW 3883   3.381   2.731   6.235
  995SOL    HW1 3884   3.424   2.761   6.150
  995SOL    HW2 3885   3.363   2.810   6.293
  996SOL     OW 3886   1.958   4.547   4.673
  996SOL    HW1 3887   2.002   4.484   4.609
  996SOL    HW2 3888   2.029   4.597   4.724
  997SOL     OW 3889   6.904   0.706   2.374
  997SOL    HW1 3890   6.822   0.764   2.368
  997SOL    HW2 3891   6.986   0.763   2.369
  998SOL     OW 3892   4.790   6.332   4.076
  998SOL    HW1 3893   4.736   6.300   3.998
  998SOL    HW2 3894   4.867   6.386   4.043
  999SOL     OW 3895   5.285   5.137   1.592
  999SOL    HW1 3896   5.264   5.193   1.672
  999SOL    HW2 3897   5.253   5.183   1.509
 1000SOL     OW 3898   1.343   1.091   2.345
 1000SOL    HW1 3899   1.373   1.172   2.396
 1000SOL    HW2 3900   1.380   1.094   2.253
 1001SOL     OW 3901   5.779   6.793   0.785
 1001SOL    HW1 3902   5.839   6.795   0.865
 1001SOL    HW2 3903   5.792   6.706   0.736
 1002SOL     OW 3904   6.083   2.338   6.914
 1002SOL    HW1 3905   6.144   2.313   6.839
 1002SOL    HW2 3906   6.029   2.258   6.941
 1003SOL     OW 3907   2.060   6.325   1.544
 1003SOL    HW1 3908   2.001   6.272   1.482
 1003SOL    HW2 3909   2.012   6.340   1.630
 1004SOL     OW 3910   0.181   0.378   1.561
 1004SOL    HW1 3911   0.172   0.381   1.461
 1004SOL    HW2 3912   0.164   0.469   1.598
 1005SOL     OW 3913   0.646   1.580   2.871
 1005SOL    HW1 3914   0.549   1.558   2.883
 1005SOL    HW2 3915   0.655   1.648   2.798
 1006SOL     OW 3916   1.674   5.503   1.337
 1006SOL    HW1 3917   1.638   5.578   1.393
 1006SOL    HW2 3918   1.625   5.501   1.250
 1007SOL     OW 3919   5.265   0.315   4.318
 1007SOL    HW1 3920   5.337   0.328   4.386
 1007SOL    HW2 3921   5.181   0.287   4.363
 1008SOL     OW 3922   2.301   3.250   5.272
 1008SOL    HW1 3923   2.238   3.296   5.208
 1008SOL    HW2 3924   2.333   3.165   5.230
 1009SOL     OW 3925   0.181   6.505   4.640
 1009SOL    HW1 3926   0.187   6.604   4.631
 1009SOL    HW2 3927   0.212   6.462   4.555
 1010SOL     OW 3928   3.571   2.216   6.214
 1010SOL    HW1 3929   3.562   2.136   6.153
 1010SOL    HW2 3930   3.540   2.298   6.166
 1011SOL     OW 3931   2.382   5.483   2.586
 1011SOL    HW1 3932   2.437   5.546   2.531
 1011SOL    HW2 3933   2.336   5.418   2.525
 1012SOL     OW 3934   6.607   6.961   0.501
 1012SOL    HW1 3935   6.577   6.866   0.505
 1012SOL    HW2 3936   6.600   7.003   0.591
 1013SOL     OW 3937   0.775   1.207   6.245
 1013SOL    HW1 3938   0.716   1.273   6.198
 1013SOL    HW2 3939   0.838   1.256   6.305
 1014SOL     OW 3940   4.938   5.985   6.654
 1014SOL    HW1 3941   5.020   6.032   6.620
 1014SOL    HW2 3942   4.861   6.003   6.593
 1015SOL     OW 3943   2.235   6.562   5.563
 1015SOL    HW1 3944   2.168   6.513   5.508
 1015SOL    HW2 3945   2.295   6.497   5.609
 1016SOL     OW 3946   3.343   3.383   0.345
 1016SOL    HW1 3947   3.357   3.388   0.444
 1016SOL    HW2 3948   3.432   3.386   0.299
 1017SOL     OW 3949   4.439   2.803   1.160
 1017SOL    HW1 3950   4.473   2.743   1.088
 1017SOL    HW2 3951   4.339   2.794   1.166
 1018SOL     OW 3952   1.606   3.287   4.188
 1018SOL    HW1 3953   1.636   3.382   4.183
 1018SOL    HW2 3954   1.630   3.249   4.277
 1019SOL     OW 3955   0.711   0.409   6.823
 1019SOL    HW1 3956   0.773   0.458   6.761
 1019SOL    HW2 3957   0.622   0.455   6.825
 1020SOL     OW 3958   1.128   6.651   1.208
 1020SOL    HW1 3959   1.066   6.709   1.261
 1020SOL    HW2 3960   1.123   6.677   1.111
 1021SOL     OW 3961   5.831   1.264   1.623
 1021SOL    HW1 3962   5.866   1.351   1.657
 1021SOL    HW2 3963   5.903   1.194   1.630
 1022SOL     OW 3964   3.898   4.348   6.125
 1022SOL    HW1 3965   3.808   4.318   6.097
 1022SOL    HW2 3966   3.968   4.295   6.076
 1023SOL     OW 3967   0.326   6.880   1.899
 1023SOL    HW1 3968   0.322   6.828   1.984
 1023SOL    HW2 3969   0.299   6.820   1.823
 1024SOL     OW 3970   5.744   3.728   4.077
 1024SOL    HW1 3971   5.739   3.731   3.977
 1024SOL    HW2 3972   5.824   3.780   4.107
 1025SOL     OW 3973   3.429   3.689   0.601
 1025SOL    HW1 3974   3.362   3.754   0.565
 1025SOL    HW2 3975   3.394   3.596   0.593
 1026SOL     OW 3976   1.811   2.366   1.766
 1026SOL    HW1 3977   1.856   2.424   1.834
 1026SOL    HW2 3978   1.877   2.302   1.727
 1027SOL     OW 3979   2.903   6.114   0.832
 1027SOL    HW1 3980   2.917   6.164   0.918
 1027SOL    HW2 3981   2.968   6.038   0.826
 1028SOL     OW 3982   3.837   5.659   0.365
 1028SOL    HW1 3983   3.747   5.617   0.355
 1028SOL    HW2 3984   3.825   5.755   0.391
 1029SOL     OW 3985   1.339   0.429   6.791
 1029SOL    HW1 3986   1.251   0.454   6.832
 1029SOL    HW2 3987   1.353   0.331   6.801
 1030SOL     OW 3988   3.656   4.046   1.573
 1030SOL    HW1 3989   3.602   4.111   1.626
 1030SOL    HW2 3990   3.603   4.013   1.495
 1031SOL     OW 3991   5.297   5.411   0.845
 1031SOL    HW1 3992   5.390   5.408   0.808
 1031SOL    HW2 3993   5.241   5.343   0.800
 1032SOL     OW 3994   1.712   1.707   4.419
 1032SOL    HW1 3995   1.768   1.787   4.445
 1032SOL    HW2 3996   1.770   1.626   4.418
 1033SOL     OW 3997   1.503   6.568   0.991
 1033SOL    HW1 3998   1.446   6.647   1.015
 1033SOL    HW2 3999   1.495   6.550   0.893
 1034SOL     OW 4000   0.807   5.943   5.179
 1034SOL    HW1 4001   0.882   5.929   5.244
 1034SOL    HW2 4002   0.731   5.882   5.203
 1035SOL     OW 4003   1.474   0.646   3.710
 1035SOL    HW1 4004   1.566   0.607   3.704
 1035SOL    HW2 4005   1.415   0.601   3.643
 1036SOL     OW 4006   2.862   0.641   1.954
 1036SOL    HW1 4007   2.852   0.565   1.889
 1036SOL    HW2 4008   2.836   0.727   1.909
 1037SOL     OW 4009   1.797   0.621   1.145
 1037SOL    HW1 4010   1.863   0.661   1.082
 1037SOL    HW2 4011   1.838   0.615   1.236
 1038SOL     OW 4012   1.136   0.925   5.486
 1038SOL    HW1 4013   1.039   0.910   5.508
 1038SOL    HW2 4014   1.178   0.839   5.459
 1039SOL     OW 4015   3.104   3.117   5.685
 1039SOL    HW1 4016   3.149   3.198   5.721
 1039SOL    HW2 4017   3.035   3.144   5.618
 1040SOL     OW 4018   4.824   2.801   2.432
 1040SOL    HW1 4019   4.875   2.810   2.346
 1040SOL    HW2 4020   4.823   2.888   2.480
 1041SOL     OW 4021   6.437   6.822   4.288
 1041SOL    HW1 4022   6.376   6.871   4.226
 1041SOL    HW2 4023   6.397   6.821   4.380
 1042SOL     OW 4024   3.706   4.885   2.183
 1042SOL    HW1 4025   3.646   4.913   2.257
 1042SOL    HW2 4026   3.655   4.828   2.118
 1043SOL     OW 4027   4.538   1.533   5.032
 1043SOL    HW1 4028   4.462   1.520   5.096
 1043SOL    HW2 4029   4.621   1.496   5.072
 1044SOL     OW 4030   4.835   4.263   1.908
 1044SOL    HW1 4031   4.899   4.311   1.968
 1044SOL    HW2 4032   4.743   4.270   1.946
 1045SOL     OW 4033   2.965   6.433   2.847
 1045SOL    HW1 4034   2.955   6.376   2.766
 1045SOL    HW2 4035   2.961   6.375   2.929
 1046SOL     OW 4036   1.463   6.644   0.562
 1046SOL    HW1 4037   1.466   6.719   0.629
 1046SOL    HW2 4038   1.435   6.680   0.473
 1047SOL     OW 4039   0.954   6.139   2.175
 1047SOL    HW1 4040   0.935   6.230   2.137
 1047SOL    HW2 4041   0.961   6.146   2.275
 1048SOL     OW 4042   4.923   5.879   5.897
 1048SOL    HW1 4043   4.900   5.973   5.922
 1048SOL    HW2 4044   4.847   5.837   5.849
 1049SOL     OW 4045   6.595   4.730   4.174
 1049SOL    HW1 4046   6.679   4.784   4.164
 1049SOL    HW2 4047   6.544   4.761   4.254
 1050SOL     OW 4048   3.202   5.432   0.347
 1050SOL    HW1 4049   3.120   5.376   0.360
 1050SOL    HW2 4050   3.194   5.483   0.261
 1051SOL     OW 4051   2.880   5.441   0.943
 1051SOL    HW1 4052   2.966   5.492   0.938
 1051SOL    HW2 4053   2.809   5.491   0.893
 1052SOL     OW 4054   4.050   0.115   4.454
 1052SOL    HW1 4055   4.076   0.176   4.378
 1052SOL    HW2 4056   3.994   0.166   4.519
 1053SOL     OW 4057   5.159   5.068   3.292
 1053SOL    HW1 4058   5.242   5.114   3.324
 1053SOL    HW2 4059   5.113   5.126   3.225
 1054SOL     OW 4060   2.492   4.010   5.840
 1054SOL    HW1 4061   2.429   4.002   5.763
 1054SOL    HW2 4062   2.546   3.926   5.847
 1055SOL     OW 4063   6.185   6.655   4.308
 1055SOL    HW1 4064   6.125   6.686   4.382
 1055SOL    HW2 4065   6.132   6.601   4.243
 1056SOL     OW 4066   1.412   5.328   5.888
 1056SOL    HW1 4067   1.375   5.236   5.878
 1056SOL    HW2 4068   1.496   5.336   5.833
 1057SOL     OW 4069   3.751   3.193   2.862
 1057SOL    HW1 4070   3.831   3.249   2.884
 1057SOL    HW2 4071   3.781   3.106   2.823
 1058SOL     OW 4072   5.088   1.280   2.179
 1058SOL    HW1 4073   5.178   1.261   2.139
 1058SOL    HW2 4074   5.033   1.330   2.113
 1059SOL     OW 4075   2.232   6.921   1.227
 1059SOL    HW1 4076   2.234   6.890   1.132
 1059SOL    HW2 4077   2.302   6.990   1.241
 1060SOL     OW 4078   0.211   3.366   4.207
 1060SOL    HW1 4079   0.151   3.294   4.241
 1060SOL    HW2 4080   0.203   3.371   4.107
 1061SOL     OW 4081   5.089   4.042   1.986
 1061SOL    HW1 4082   5.149   4.081   1.916
 1061SOL    HW2 4083   5.123   4.066   2.077
 1062SOL     OW 4084   6.004   5.124   5.291
 1062SOL    HW1 4085   5.990   5.171   5.378
 1062SOL    HW2 4086   6.037   5.031   5.308
 1063SOL     OW 4087   1.229   4.368   1.650
 1063SOL    HW1 4088   1.185   4.292   1.602
 1063SOL    HW2 4089   1.292   4.416   1.589
 1064SOL     OW 4090   1.747   4.122   2.117
 1064SOL    HW1 4091   1.648   4.111   2.124
 1064SOL    HW2 4092   1.775   4.110   2.022
 1065SOL     OW 4093   4.491   0.634   4.402
 1065SOL    HW1 4094   4.474   0.722   4.446
 1065SOL    HW2 4095   4.590   0.619   4.396
 1066SOL     OW 4096   5.152   0.652   4.401
 1066SOL    HW1 4097   5.148   0.749   4.378
 1066SOL    HW2 4098   5.188   0.601   4.322
 1067SOL     OW 4099   1.356   2.978   6.756
 1067SOL    HW1 4100   1.297   3.016   6.827
 1067SOL    HW2 4101   1.378   2.883   6.777
 1068SOL     OW 4102   4.877   4.512   2.539
 1068SOL    HW1 4103   4.847   4.508   2.635
 1068SOL    HW2 4104   4.805   4.555   2.485
 1069SOL     OW 4105   4.992   4.769   1.116
 1069SOL    HW1 4106   4.917   4.702   1.116
 1069SOL    HW2 4107   5.045   4.759   1.200
 1070SOL     OW 4108   1.429   1.039   1.394
 1070SOL    HW1 4109   1.374   0.968   1.437
 1070SOL    HW2 4110   1.439   1.116   1.456
 1071SOL     OW 4111   3.060   6.589   3.759
 1071SOL    HW1 4112   3.074   6.497   3.722
 1071SOL    HW2 4113   2.972   6.592   3.807
 1072SOL     OW 4114   1.736   6.213   0.982
 1072SOL    HW1 4115   1.691   6.146   1.041
 1072SOL    HW2 4116   1.694   6.302   0.996
 1073SOL     OW 4117   3.415   6.489   2.869
 1073SOL    HW1 4118   3.433   6.410   2.928
 1073SOL    HW2 4119   3.451   6.471   2.778
 1074SOL     OW 4120   2.598   5.177   0.495
 1074SOL    HW1 4121   2.661   5.099   0.504
 1074SOL    HW2 4122   2.601   5.212   0.402
 1075SOL     OW 4123   4.392   6.042   4.048
 1075SOL    HW1 4124   4.306   6.094   4.054
 1075SOL    HW2 4125   4.430   6.031   4.140
 1076SOL     OW 4126   0.098   4.802   5.300
 1076SOL    HW1 4127   0.034   4.766   5.367
 1076SOL    HW2 4128   0.186   4.755   5.310
 1077SOL     OW 4129   5.696   0.486   0.621
 1077SOL    HW1 4130   5.620   0.471   0.685
 1077SOL    HW2 4131   5.660   0.513   0.532
 1078SOL     OW 4132   1.112   1.024   2.709
 1078SOL    HW1 4133   1.023   1.032   2.755
 1078SOL    HW2 4134   1.121   1.097   2.642
 1079SOL     OW 4135   1.658   6.105   2.212
 1079SOL    HW1 4136   1.621   6.140   2.126
 1079SOL    HW2 4137   1.719   6.028   2.194
 1080SOL     OW 4138   1.841   4.967   3.639
 1080SOL    HW1 4139   1.900   4.903   3.688
 1080SOL    HW2 4140   1.842   5.056   3.684
 1081SOL     OW 4141   0.315   6.511   5.940
 1081SOL    HW1 4142   0.396   6.567   5.919
 1081SOL    HW2 4143   0.234   6.551   5.897
 1082SOL     OW 4144   3.106   1.145   5.933
 1082SOL    HW1 4145   3.024   1.185   5.974
 1082SOL    HW2 4146   3.086   1.116   5.840
 1083SOL     OW 4147   4.020   4.120   1.342
 1083SOL    HW1 4148   3.955   4.142   1.416
 1083SOL    HW2 4149   3.969   4.108   1.257
 1084SOL     OW 4150   6.655   6.268   0.423
 1084SOL    HW1 4151   6.659   6.263   0.323
 1084SOL    HW2 4152   6.577   6.323   0.450
 1085SOL     OW 4153   1.358   4.345   3.433
 1085SOL    HW1 4154   1.316   4.370   3.345
 1085SOL    HW2 4155   1.314   4.395   3.507
 1086SOL     OW 4156   7.006   5.567   2.305
 1086SOL    HW1 4157   0.069   5.539   2.349
 1086SOL    HW2 4158   6.937   5.581   2.375
 1087SOL     OW 4159   6.260   3.049   5.879
 1087SOL    HW1 4160   6.197   3.086   5.947
 1087SOL    HW2 4161   6.236   2.953   5.860
 1088SOL     OW 4162   6.129   4.803   3.509
 1088SOL    HW1 4163   6.167   4.874   3.450
 1088SOL    HW2 4164   6.054   4.842   3.563
 1089SOL     OW 4165   1.157   0.532   4.553
 1089SOL    HW1 4166   1.168   0.593   4.474
 1089SOL    HW2 4167   1.221   0.456   4.545
 1090SOL     OW 4168   2.499   1.777   3.151
 1090SOL    HW1 4169   2.578   1.735   3.105
 1090SOL    HW2 4170   2.521   1.872   3.172
 1091SOL     OW 4171   1.795   3.250   4.968
 1091SOL    HW1 4172   1.711   3.274   4.919
 1091SOL    HW2 4173   1.866   3.226   4.902
 1092SOL     OW 4174   1.973   3.356   0.773
 1092SOL    HW1 4175   1.993   3.453   0.787
 1092SOL    HW2 4176   1.875   3.340   0.790
 1093SOL     OW 4177   2.135   2.062   2.492
 1093SOL    HW1 4178   2.045   2.085   2.454
 1093SOL    HW2 4179   2.122   2.002   2.571
 1094SOL     OW 4180   1.121   6.125   3.376
 1094SOL    HW1 4181   1.134   6.032   3.410
 1094SOL    HW2 4182   1.148   6.129   3.279
 1095SOL     OW 4183   0.237   2.479   5.625
 1095SOL    HW1 4184   0.234   2.494   5.724
 1095SOL    HW2 4185   0.327   2.445   5.599
 1096SOL     OW 4186   3.353   4.500   1.645
 1096SOL    HW1 4187   3.414   4.549   1.708
 1096SOL    HW2 4188   3.403   4.423   1.604
 1097SOL     OW 4189   1.438   4.357   3.926
 1097SOL    HW1 4190   1.466   4.277   3.874
 1097SOL    HW2 4191   1.440   4.438   3.867
 1098SOL     OW 4192   5.603   3.267   0.700
 1098SOL    HW1 4193   5.663   3.189   0.720
 1098SOL    HW2 4194   5.636   3.312   0.617
 1099SOL     OW 4195   3.820   1.561   4.919
 1099SOL    HW1 4196   3.791   1.652   4.889
 1099SOL    HW2 4197   3.901   1.533   4.867
 1100SOL     OW 4198   2.974   1.834   6.939
 1100SOL    HW1 4199   2.963   1.894   7.018
 1100SOL    HW2 4200   2.968   1.739   6.968
 1101SOL     OW 4201   6.077   2.488   0.527
 1101SOL    HW1 4202   6.142   2.444   0.466
 1101SOL    HW2 4203   5.984   2.472   0.494
 1102SOL     OW 4204   1.025   5.671   3.710
 1102SOL    HW1 4205   1.070   5.732   3.776
 1102SOL    HW2 4206   1.046   5.576   3.733
 1103SOL     OW 4207   2.912   1.513   0.751
 1103SOL    HW1 4208   3.004   1.548   0.737
 1103SOL    HW2 4209   2.915   1.413   0.758
 1104SOL     OW 4210   2.243   3.318   5.720
 1104SOL    HW1 4211   2.233   3.417   5.706
 1104SOL    HW2 4212   2.263   3.275   5.632
 1105SOL     OW 4213   5.634   3.684   4.849
 1105SOL    HW1 4214   5.629   3.770   4.799
 1105SOL    HW2 4215   5.679   3.614   4.793
 1106SOL     OW 4216   0.649   1.986   0.285
 1106SOL    HW1 4217   0.683   2.036   0.365
 1106SOL    HW2 4218   0.555   1.956   0.302
 1107SOL     OW 4219   0.993   0.569   6.316
 1107SOL    HW1 4220   0.924   0.499   6.299
 1107SOL    HW2 4221   1.066   0.531   6.372
 1108SOL     OW 4222   2.526   0.385   5.969
 1108SOL    HW1 4223   2.503   0.392   6.066
 1108SOL    HW2 4224   2.594   0.455   5.946
 1109SOL     OW 4225   4.297   6.362   4.909
 1109SOL    HW1 4226   4.382   6.415   4.904
 1109SOL    HW2 4227   4.314   6.279   4.961
 1110SOL     OW 4228   2.928   1.446   2.711
 1110SOL    HW1 4229   2.938   1.361   2.658
 1110SOL    HW2 4230   2.917   1.423   2.807
 1111SOL     OW 4231   5.302   5.596   0.050
 1111SOL    HW1 4232   5.364   5.633   0.118
 1111SOL    HW2 4233   5.338   5.615   6.982
 1112SOL     OW 4234   6.046   1.356   2.613
 1112SOL    HW1 4235   6.004   1.446   2.606
 1112SOL    HW2 4236   5.982   1.293   2.659
 1113SOL     OW 4237   6.795   3.559   2.777
 1113SOL    HW1 4238   6.856   3.555   2.856
 1113SOL    HW2 4239   6.781   3.654   2.751
 1114SOL     OW 4240   4.145   1.023   6.669
 1114SOL    HW1 4241   4.204   1.008   6.748
 1114SOL    HW2 4242   4.139   0.939   6.616
 1115SOL     OW 4243   4.360   2.913   0.055
 1115SOL    HW1 4244   4.436   2.870   0.105
 1115SOL    HW2 4245   4.282   2.923   0.117
 1116SOL     OW 4246   5.584   5.739   5.060
 1116SOL    HW1 4247   5.510   5.789   5.103
 1116SOL    HW2 4248   5.614   5.788   4.978
 1117SOL     OW 4249   2.164   3.106   1.357
 1117SOL    HW1 4250   2.260   3.089   1.376
 1117SOL    HW2 4251   2.147   3.205   1.358
 1118SOL     OW 4252   2.144   4.519   1.569
 1118SOL    HW1 4253   2.199   4.475   1.498
 1118SOL    HW2 4254   2.047   4.517   1.542
 1119SOL     OW 4255   4.270   4.219   1.442
 1119SOL    HW1 4256   4.242   4.201   1.536
 1119SOL    HW2 4257   4.201   4.182   1.379
 1120SOL     OW 4258   5.489   6.649   5.415
 1120SOL    HW1 4259   5.559   6.707   5.373
 1120SOL    HW2 4260   5.408   6.648   5.356
 1121SOL     OW 4261   5.119   4.291   2.325
 1121SOL    HW1 4262   5.139   4.207   2.275
 1121SOL    HW2 4263   5.153   4.283   2.418
 1122SOL     OW 4264   4.705   3.304   6.259
 1122SOL    HW1 4265   4.716   3.237   6.333
 1122SOL    HW2 4266   4.635   3.272   6.196
 1123SOL     OW 4267   5.504   1.442   2.856
 1123SOL    HW1 4268   5.407   1.462   2.870
 1123SOL    HW2 4269   5.529   1.360   2.907
 1124SOL     OW 4270   6.045   4.462   5.437
 1124SOL    HW1 4271   5.991   4.378   5.439
 1124SOL    HW2 4272   6.033   4.511   5.524
 1125SOL     OW 4273   2.806   1.638   4.935
 1125SOL    HW1 4274   2.881   1.652   5.000
 1125SOL    HW2 4275   2.816   1.702   4.859
 1126SOL     OW 4276   5.656   6.575   0.599
 1126SOL    HW1 4277   5.635   6.485   0.561
 1126SOL    HW2 4278   5.590   6.642   0.566
 1127SOL     OW 4279   4.577   5.571   5.180
 1127SOL    HW1 4280   4.675   5.587   5.195
 1127SOL    HW2 4281   4.565   5.485   5.130
 1128SOL     OW 4282   5.450   2.239   5.026
 1128SOL    HW1 4283   5.492   2.316   4.978
 1128SOL    HW2 4284   5.445   2.160   4.965
 1129SOL     OW 4285   3.633   0.458   6.796
 1129SOL    HW1 4286   3.721   0.504   6.780
 1129SOL    HW2 4287   3.646   0.384   6.862
 1130SOL     OW 4288   1.575   4.352   1.034
 1130SOL    HW1 4289   1.619   4.441   1.042
 1130SOL    HW2 4290   1.499   4.347   1.099
 1131SOL     OW 4291   0.456   6.441   6.176
 1131SOL    HW1 4292   0.518   6.507   6.218
 1131SOL    HW2 4293   0.442   6.464   6.080
 1132SOL     OW 4294   5.356   0.278   0.226
 1132SOL    HW1 4295   5.357   0.370   0.186
 1132SOL    HW2 4296   5.363   0.286   0.326
 1133SOL     OW 4297   0.542   1.325   0.652
 1133SOL    HW1 4298   0.625   1.278   0.680
 1133SOL    HW2 4299   0.516   1.296   0.560
 1134SOL     OW 4300   4.935   1.781   1.230
 1134SOL    HW1 4301   4.928   1.689   1.190
 1134SOL    HW2 4302   4.889   1.782   1.319
 1135SOL     OW 4303   2.884   1.372   1.946
 1135SOL    HW1 4304   2.784   1.378   1.954
 1135SOL    HW2 4305   2.915   1.285   1.985
 1136SOL     OW 4306   3.437   5.084   4.836
 1136SOL    HW1 4307   3.425   5.174   4.796
 1136SOL    HW2 4308   3.450   5.093   4.935
 1137SOL     OW 4309   1.425   2.073   6.593
 1137SOL    HW1 4310   1.382   2.109   6.676
 1137SOL    HW2 4311   1.488   2.000   6.619
 1138SOL     OW 4312   0.615   1.096   6.426
 1138SOL    HW1 4313   0.687   1.128   6.364
 1138SOL    HW2 4314   0.584   1.173   6.483
 1139SOL     OW 4315   2.968   5.959   1.167
 1139SOL    HW1 4316   3.021   5.916   1.241
 1139SOL    HW2 4317   2.908   5.891   1.125
 1140SOL     OW 4318   3.339   0.786   2.172
 1140SOL    HW1 4319   3.244   0.810   2.152
 1140SOL    HW2 4320   3.364   0.703   2.122
 1141SOL     OW 4321   6.403   6.417   6.503
 1141SOL    HW1 4322   6.491   6.430   6.548
 1141SOL    HW2 4323   6.334   6.476   6.546
 1142SOL     OW 4324   4.078   0.754   4.364
 1142SOL    HW1 4325   3.991   0.714   4.393
 1142SOL    HW2 4326   4.086   0.846   4.402
 1143SOL     OW 4327   2.213   3.067   2.503
 1143SOL    HW1 4328   2.290   3.027   2.553
 1143SOL    HW2 4329   2.139   3.088   2.568
 1144SOL     OW 4330   6.281   4.574   5.397
 1144SOL    HW1 4331   6.299   4.566   5.299
 1144SOL    HW2 4332   6.184   4.560   5.415
 1145SOL     OW 4333   0.367   4.897   2.387
 1145SOL    HW1 4334   0.363   4.927   2.291
 1145SOL    HW2 4335   0.406   4.971   2.443
 1146SOL     OW 4336   5.398   0.794   1.460
 1146SOL    HW1 4337   5.364   0.699   1.461
 1146SOL    HW2 4338   5.321   0.857   1.471
 1147SOL     OW 4339   1.942   4.677   0.925
 1147SOL    HW1 4340   1.990   4.761   0.949
 1147SOL    HW2 4341   1.937   4.669   0.826
 1148SOL     OW 4342   4.407   6.833   6.699
 1148SOL    HW1 4343   4.462   6.888   6.636
 1148SOL    HW2 4344   4.466   6.793   6.769
 1149SOL     OW 4345   6.176   3.797   3.457
 1149SOL    HW1 4346   6.246   3.838   3.399
 1149SOL    HW2 4347   6.219   3.756   3.538
 1150SOL     OW 4348   2.261   4.311   0.963
 1150SOL    HW1 4349   2.274   4.245   1.037
 1150SOL    HW2 4350   2.208   4.270   0.889
 1151SOL     OW 4351   4.662   5.344   0.077
 1151SOL    HW1 4352   4.610   5.265   0.110
 1151SOL    HW2 4353   4.604   5.425   0.076
 1152SOL     OW 4354   0.659   5.781   5.877
 1152SOL    HW1 4355   0.752   5.753   5.902
 1152SOL    HW2 4356   0.663   5.865   5.824
 1153SOL     OW 4357   2.021   0.223   1.961
 1153SOL    HW1 4358   1.956   0.287   2.004
 1153SOL    HW2 4359   2.004   0.220   1.863
 1154SOL     OW 4360   0.836   3.949   2.019
 1154SOL    HW1 4361   0.852   3.906   1.930
 1154SOL    HW2 4362   0.745   3.923   2.053
 1155SOL     OW 4363   2.842   4.874   6.978
 1155SOL    HW1 4364   2.850   4.781   7.016
 1155SOL    HW2 4365   2.901   4.936   0.006
 1156SOL     OW 4366   1.751   0.696   4.701
 1156SOL    HW1 4367   1.659   0.658   4.691
 1156SOL    HW2 4368   1.745   0.793   4.726
 1157SOL     OW 4369   6.084   0.920   4.849
 1157SOL    HW1 4370   6.086   1.015   4.817
 1157SOL    HW2 4371   6.058   0.918   4.945
 1158SOL     OW 4372   0.313   5.464   5.943
 1158SOL    HW1 4373   0.390   5.405   5.922
 1158SOL    HW2 4374   0.274   5.500   5.859
 1159SOL     OW 4375   5.242   0.146   3.193
 1159SOL    HW1 4376   5.264   0.087   3.115
 1159SOL    HW2 4377   5.284   0.108   3.276
 1160SOL     OW 4378   3.810   3.794   1.637
 1160SOL    HW1 4379   3.902   3.799   1.600
 1160SOL    HW2 4380   3.760   3.879   1.616
 1161SOL     OW 4381   5.036   0.362   6.043
 1161SOL    HW1 4382   5.089   0.294   6.095
 1161SOL    HW2 4383   5.095   0.410   5.979
 1162SOL     OW 4384   3.587   2.436   0.370
 1162SOL    HW1 4385   3.595   2.451   0.272
 1162SOL    HW2 4386   3.669   2.392   0.405
 1163SOL     OW 4387   6.318   3.268   1.829
 1163SOL    HW1 4388   6.413   3.249   1.854
 1163SOL    HW2 4389   6.259   3.199   1.870
 1164SOL     OW 4390   5.576   2.568   4.453
 1164SOL    HW1 4391   5.489   2.615   4.439
 1164SOL    HW2 4392   5.611   2.535   4.365
 1165SOL     OW 4393   1.837   4.347   4.367
 1165SOL    HW1 4394   1.892   4.341   4.450
 1165SOL    HW2 4395   1.897   4.354   4.287
 1166SOL     OW 4396   3.818   0.974   0.300
 1166SOL    HW1 4397   3.802   1.034   0.379
 1166SOL    HW2 4398   3.896   0.914   0.320
 1167SOL     OW 4399   3.681   6.973   6.546
 1167SOL    HW1 4400   3.593   6.952   6.587
 1167SOL    HW2 4401   3.683   6.937   6.452
 1168SOL     OW 4402   7.022   1.152   3.363
 1168SOL    HW1 4403   6.948   1.176   3.426
 1168SOL    HW2 4404   7.023   1.053   3.349
 1169SOL     OW 4405   6.023   3.245   6.622
 1169SOL    HW1 4406   6.019   3.321   6.687
 1169SOL    HW2 4407   6.115   3.208   6.619
 1170SOL     OW 4408   4.861   0.912   1.974
 1170SOL    HW1 4409   4.836   0.826   2.018
 1170SOL    HW2 4410   4.911   0.969   2.039
 1171SOL     OW 4411   2.531   6.550   6.777
 1171SOL    HW1 4412   2.437   6.548   6.743
 1171SOL    HW2 4413   2.583   6.619   6.726
 1172SOL     OW 4414   3.916   3.957   2.823
 1172SOL    HW1 4415   3.934   3.961   2.922
 1172SOL    HW2 4416   3.819   3.936   2.808
 1173SOL     OW 4417   3.204   6.973   5.788
 1173SOL    HW1 4418   3.141   6.921   5.847
 1173SOL    HW2 4419   3.177   0.046   5.786
 1174SOL     OW 4420   3.316   4.495   0.387
 1174SOL    HW1 4421   3.351   4.436   0.314
 1174SOL    HW2 4422   3.294   4.440   0.468
 1175SOL     OW 4423   4.387   3.426   6.468
 1175SOL    HW1 4424   4.350   3.359   6.404
 1175SOL    HW2 4425   4.373   3.393   6.562
 1176SOL     OW 4426   5.784   4.470   0.839
 1176SOL    HW1 4427   5.812   4.516   0.923
 1176SOL    HW2 4428   5.813   4.375   0.842
 1177SOL     OW 4429   0.277   1.386   5.828
 1177SOL    HW1 4430   0.352   1.391   5.761
 1177SOL    HW2 4431   0.216   1.463   5.815
 1178SOL     OW 4432   3.593   3.131   1.313
 1178SOL    HW1 4433   3.644   3.085   1.385
 1178SOL    HW2 4434   3.599   3.077   1.229
 1179SOL     OW 4435   2.845   5.381   6.982
 1179SOL    HW1 4436   2.760   5.430   6.968
 1179SOL    HW2 4437   2.835   5.316   0.034
 1180SOL     OW 4438   2.823   6.652   3.873
 1180SOL    HW1 4439   2.761   6.668   3.795
 1180SOL    HW2 4440   2.777   6.593   3.940
 1181SOL     OW 4441   6.958   2.816   4.678
 1181SOL    HW1 4442   6.869   2.862   4.668
 1181SOL    HW2 4443   6.973   2.756   4.599
 1182SOL     OW 4444   1.967   5.688   3.475
 1182SOL    HW1 4445   2.050   5.676   3.421
 1182SOL    HW2 4446   1.891   5.710   3.415
 1183SOL     OW 4447   3.622   6.005   1.496
 1183SOL    HW1 4448   3.608   5.909   1.474
 1183SOL    HW2 4449   3.594   6.023   1.590
 1184SOL     OW 4450   4.220   1.143   5.440
 1184SOL    HW1 4451   4.262   1.114   5.527
 1184SOL    HW2 4452   4.124   1.116   5.439
 1185SOL     OW 4453   1.823   0.236   0.338
 1185SOL    HW1 4454   1.856   0.327   0.314
 1185SOL    HW2 4455   1.875   0.167   0.288
 1186SOL     OW 4456   6.011   6.509   6.321
 1186SOL    HW1 4457   5.936   6.466   6.370
 1186SOL    HW2 4458   6.070   6.558   6.386
 1187SOL     OW 4459   5.139   6.120   5.463
 1187SOL    HW1 4460   5.152   6.114   5.562
 1187SOL    HW2 4461   5.043   6.104   5.441
 1188SOL     OW 4462   3.246   5.868   6.654
 1188SOL    HW1 4463   3.336   5.833   6.682
 1188SOL    HW2 4464   3.207   5.921   6.729
 1189SOL     OW 4465   5.475   0.348   2.044
 1189SOL    HW1 4466   5.555   0.308   1.998
 1189SOL    HW2 4467   5.422   0.402   1.977
 1190SOL     OW 4468   4.008   4.903   4.240
 1190SOL    HW1 4469   3.960   4.923   4.155
 1190SOL    HW2 4470   3.941   4.890   4.313
 1191SOL     OW 4471   4.245   6.160   5.225
 1191SOL    HW1 4472   4.169   6.189   5.167
 1191SOL    HW2 4473   4.217   6.162   5.321
 1192SOL     OW 4474   5.259   5.245   2.768
 1192SOL    HW1 4475   5.244   5.297   2.852
 1192SOL    HW2 4476   5.202   5.284   2.695
 1193SOL     OW 4477   0.019   0.209   5.137
 1193SOL    HW1 4478   6.946   0.232   5.124
 1193SOL    HW2 4479   0.073   0.246   5.061
 1194SOL     OW 4480   7.023   1.345   0.980
 1194SOL    HW1 4481   0.072   1.377   1.042
 1194SOL    HW2 4482   0.040   1.320   0.892
 1195SOL     OW 4483   6.134   3.096   1.584
 1195SOL    HW1 4484   6.065   3.023   1.585
 1195SOL    HW2 4485   6.214   3.067   1.636
 1196SOL     OW 4486   0.094   4.226   1.536
 1196SOL    HW1 4487   0.038   4.308   1.524
 1196SOL    HW2 4488   0.053   4.149   1.488
 1197SOL     OW 4489   4.288   6.729   4.680
 1197SOL    HW1 4490   4.350   6.742   4.758
 1197SOL    HW2 4491   4.292   6.634   4.650
 1198SOL     OW 4492   1.926   3.026   3.214
 1198SOL    HW1 4493   1.893   2.950   3.158
 1198SOL    HW2 4494   2.019   3.050   3.185
 1199SOL     OW 4495   3.490   3.218   3.359
 1199SOL    HW1 4496   3.548   3.210   3.278
 1199SOL    HW2 4497   3.539   3.184   3.439
 1200SOL     OW 4498   3.554   4.149   4.546
 1200SOL    HW1 4499   3.649   4.120   4.557
 1200SOL    HW2 4500   3.498   4.072   4.517
 1201SOL     OW 4501   0.272   1.326   4.204
 1201SOL    HW1 4502   0.244   1.251   4.265
 1201SOL    HW2 4503   0.372   1.334   4.205
 1202SOL     OW 4504   5.728   1.303   6.293
 1202SOL    HW1 4505   5.650   1.333   6.239
 1202SOL    HW2 4506   5.696   1.243   6.367
 1203SOL     OW 4507   6.540   6.467   1.548
 1203SOL    HW1 4508   6.456   6.518   1.566
 1203SOL    HW2 4509   6.613   6.531   1.524
 1204SOL     OW 4510   4.071   1.491   1.409
 1204SOL    HW1 4511   4.102   1.563   1.472
 1204SOL    HW2 4512   4.148   1.459   1.355
 1205SOL     OW 4513   4.345   3.299   6.226
 1205SOL    HW1 4514   4.401   3.266   6.150
 1205SOL    HW2 4515   4.263   3.343   6.190
 1206SOL     OW 4516   0.935   2.324   4.668
 1206SOL    HW1 4517   1.019   2.319   4.614
 1206SOL    HW2 4518   0.957   2.307   4.764
 1207SOL     OW 4519   0.375   6.630   6.956
 1207SOL    HW1 4520   0.281   6.649   6.983
 1207SOL    HW2 4521   0.438   6.682   7.014
 1208SOL     OW 4522   3.532   4.104   2.607
 1208SOL    HW1 4523   3.435   4.082   2.593
 1208SOL    HW2 4524   3.547   4.125   2.704
 1209SOL     OW 4525   5.420   6.932   4.821
 1209SOL    HW1 4526   5.383   6.864   4.758
 1209SOL    HW2 4527   5.506   6.899   4.861
 1210SOL     OW 4528   4.606   6.731   3.719
 1210SOL    HW1 4529   4.509   6.725   3.700
 1210SOL    HW2 4530   4.620   6.744   3.817
 1211SOL     OW 4531   1.353   2.914   3.273
 1211SOL    HW1 4532   1.443   2.954   3.287
 1211SOL    HW2 4533   1.295   2.977   3.222
 1212SOL     OW 4534   6.725   1.107   5.608
 1212SOL    HW1 4535   6.681   1.181   5.558
 1212SOL    HW2 4536   6.665   1.077   5.682
 1213SOL     OW 4537   5.503   3.003   4.139
 1213SOL    HW1 4538   5.550   2.965   4.059
 1213SOL    HW2 4539   5.559   2.988   4.220
 1214SOL     OW 4540   1.176   2.790   5.501
 1214SOL    HW1 4541   1.132   2.833   5.581
 1214SOL    HW2 4542   1.259   2.840   5.478
 1215SOL     OW 4543   1.792   5.346   2.234
 1215SOL    HW1 4544   1.886   5.379   2.247
 1215SOL    HW2 4545   1.738   5.368   2.315
 1216SOL     OW 4546   0.065   0.617   0.513
 1216SOL    HW1 4547   0.103   0.708   0.494
 1216SOL    HW2 4548   7.005   0.604   0.459
 1217SOL     OW 4549   3.148   5.561   1.571
 1217SOL    HW1 4550   3.232   5.506   1.576
 1217SOL    HW2 4551   3.082   5.516   1.510
 1218SOL     OW 4552   0.547   3.697   5.403
 1218SOL    HW1 4553   0.572   3.772   5.464
 1218SOL    HW2 4554   0.453   3.668   5.423
 1219SOL     OW 4555   4.806   5.159   2.061
 1219SOL    HW1 4556   4.874   5.085   2.064
 1219SOL    HW2 4557   4.851   5.245   2.039
 1220SOL     OW 4558   6.163   3.814   2.933
 1220SOL    HW1 4559   6.079   3.817   2.987
 1220SOL    HW2 4560   6.242   3.816   2.993
 1221SOL     OW 4561   6.097   4.054   6.159
 1221SOL    HW1 4562   6.063   4.110   6.234
 1221SOL    HW2 4563   6.097   3.958   6.187
 1222SOL     OW 4564   0.310   0.659   0.009
 1222SOL    HW1 4565   0.250   0.695   6.960
 1222SOL    HW2 4566   0.272   0.573   0.044
 1223SOL     OW 4567   4.575   1.042   0.694
 1223SOL    HW1 4568   4.626   1.021   0.611
 1223SOL    HW2 4569   4.531   0.959   0.728
 1224SOL     OW 4570   3.024   5.522   6.871
 1224SOL    HW1 4571   3.020   5.520   6.771
 1224SOL    HW2 4572   2.965   5.451   6.909
 1225SOL     OW 4573   3.866   2.436   1.117
 1225SOL    HW1 4574   3.835   2.341   1.116
 1225SOL    HW2 4575   3.840   2.478   1.203
 1226SOL     OW 4576   4.783   6.360   0.688
 1226SOL    HW1 4577   4.799   6.369   0.589
 1226SOL    HW2 4578   4.756   6.266   0.709
 1227SOL     OW 4579   5.432   5.059   6.496
 1227SOL    HW1 4580   5.520   5.067   6.450
 1227SOL    HW2 4581   5.445   5.038   6.592
 1228SOL     OW 4582   3.889   2.530   0.872
 1228SOL    HW1 4583   3.867   2.485   0.959
 1228SOL    HW2 4584   3.953   2.474   0.821
 1229SOL     OW 4585   1.780   6.021   1.358
 1229SOL    HW1 4586   1.684   5.994   1.372
 1229SOL    HW2 4587   1.813   5.982   1.272
 1230SOL     OW 4588   5.267   5.309   2.258
 1230SOL    HW1 4589   5.296   5.398   2.291
 1230SOL    HW2 4590   5.331   5.239   2.289
 1231SOL     OW 4591   1.376   1.961   5.809
 1231SOL    HW1 4592   1.334   1.982   5.721
 1231SOL    HW2 4593   1.359   2.035   5.873
 1232SOL     OW 4594   5.624   1.255   5.643
 1232SOL    HW1 4595   5.685   1.267   5.720
 1232SOL    HW2 4596   5.626   1.159   5.613
 1233SOL     OW 4597   0.888   5.958   3.807
 1233SOL    HW1 4598   0.905   5.928   3.713
 1233SOL    HW2 4599   0.791   5.979   3.819
 1234SOL     OW 4600   6.185   2.558   5.715
 1234SOL    HW1 4601   6.253   2.487   5.697
 1234SOL    HW2 4602   6.197   2.592   5.808
 1235SOL     OW 4603   6.214   4.476   1.264
 1235SOL    HW1 4604   6.247   4.510   1.176
 1235SOL    HW2 4605   6.290   4.471   1.329
 1236SOL     OW 4606   4.273   1.431   2.002
 1236SOL    HW1 4607   4.247   1.506   2.062
 1236SOL    HW2 4608   4.362   1.451   1.961
 1237SOL     OW 4609   1.439   5.581   4.725
 1237SOL    HW1 4610   1.440   5.679   4.708
 1237SOL    HW2 4611   1.356   5.541   4.685
 1238SOL     OW 4612   0.655   0.242   4.909
 1238SOL    HW1 4613   0.677   0.339   4.924
 1238SOL    HW2 4614   0.715   0.205   4.839
 1239SOL     OW 4615   6.624   6.378   5.694
 1239SOL    HW1 4616   6.678   6.418   5.620
 1239SOL    HW2 4617   6.630   6.437   5.775
 1240SOL     OW 4618   5.957   5.268   2.051
 1240SOL    HW1 4619   5.878   5.307   2.003
 1240SOL    HW2 4620   6.014   5.341   2.088
 1241SOL     OW 4621   6.389   4.905   5.055
 1241SOL    HW1 4622   6.385   4.991   5.106
 1241SOL    HW2 4623   6.410   4.924   4.959
 1242SOL     OW 4624   1.970   3.248   0.520
 1242SOL    HW1 4625   1.993   3.299   0.602
 1242SOL    HW2 4626   2.037   3.267   0.448
 1243SOL     OW 4627   0.141   1.142   4.387
 1243SOL    HW1 4628   0.067   1.197   4.348
 1243SOL    HW2 4629   0.143   1.052   4.342
 1244SOL     OW 4630   5.314   6.712   5.214
 1244SOL    HW1 4631   5.224   6.715   5.257
 1244SOL    HW2 4632   5.340   6.804   5.183
 1245SOL     OW 4633   6.035   5.208   0.238
 1245SOL    HW1 4634   5.963   5.142   0.259
 1245SOL    HW2 4635   6.059   5.260   0.320
 1246SOL     OW 4636   3.338   1.029   2.280
 1246SOL    HW1 4637   3.368   0.944   2.238
 1246SOL    HW2 4638   3.360   1.106   2.220
 1247SOL     OW 4639   5.828   0.205   5.335
 1247SOL    HW1 4640   5.851   0.181   5.430
 1247SOL    HW2 4641   5.756   0.275   5.335
 1248SOL     OW 4642   1.167   6.487   3.630
 1248SOL    HW1 4643   1.197   6.545   3.554
 1248SOL    HW2 4644   1.068   6.477   3.628
 1249SOL     OW 4645   0.420   3.659   1.893
 1249SOL    HW1 4646   0.325   3.675   1.920
 1249SOL    HW2 4647   0.425   3.641   1.795
 1250SOL     OW 4648   6.186   4.182   4.041
 1250SOL    HW1 4649   6.118   4.179   4.114
 1250SOL    HW2 4650   6.186   4.095   3.992
 1251SOL     OW 4651   2.419   0.975   2.396
 1251SOL    HW1 4652   2.473   1.057   2.411
 1251SOL    HW2 4653   2.334   0.980   2.449
 1252SOL     OW 4654   3.993   4.613   6.729
 1252SOL    HW1 4655   3.906   4.597   6.776
 1252SOL    HW2 4656   4.015   4.710   6.733
 1253SOL     OW 4657   2.716   0.226   1.875
 1253SOL    HW1 4658   2.754   0.177   1.797
 1253SOL    HW2 4659   2.619   0.245   1.859
 1254SOL     OW 4660   6.923   3.062   3.379
 1254SOL    HW1 4661   6.839   3.102   3.342
 1254SOL    HW2 4662   6.990   3.051   3.305
 1255SOL     OW 4663   6.340   2.756   6.023
 1255SOL    HW1 4664   6.382   2.666   6.025
 1255SOL    HW2 4665   6.254   2.754   6.073
 1256SOL     OW 4666   0.205   6.301   3.863
 1256SOL    HW1 4667   0.132   6.369   3.862
 1256SOL    HW2 4668   0.179   6.224   3.804
 1257SOL     OW 4669   0.077   5.142   4.304
 1257SOL    HW1 4670   0.136   5.142   4.384
 1257SOL    HW2 4671   7.004   5.145   4.334
 1258SOL     OW 4672   2.319   4.954   2.943
 1258SOL    HW1 4673   2.364   5.031   2.988
 1258SOL    HW2 4674   2.237   4.986   2.895
 1259SOL     OW 4675   3.636   6.322   5.286
 1259SOL    HW1 4676   3.664   6.266   5.364
 1259SOL    HW2 4677   3.602   6.263   5.213
 1260SOL     OW 4678   2.971   1.200   1.170
 1260SOL    HW1 4679   2.915   1.280   1.153
 1260SOL    HW2 4680   3.062   1.229   1.202
 1261SOL     OW 4681   0.255   4.207   0.153
 1261SOL    HW1 4682   0.310   4.178   0.075
 1261SOL    HW2 4683   0.254   4.307   0.157
 1262SOL     OW 4684   5.015   5.742   1.551
 1262SOL    HW1 4685   4.925   5.771   1.584
 1262SOL    HW2 4686   5.008   5.649   1.513
 1263SOL     OW 4687   6.301   1.252   1.530
 1263SOL    HW1 4688   6.292   1.206   1.441
 1263SOL    HW2 4689   6.370   1.205   1.585
 1264SOL     OW 4690   0.496   3.906   1.495
 1264SOL    HW1 4691   0.537   3.860   1.573
 1264SOL    HW2 4692   0.539   3.996   1.482
 1265SOL     OW 4693   6.611   5.202   3.794
 1265SOL    HW1 4694   6.604   5.192   3.695
 1265SOL    HW2 4695   6.580   5.118   3.839
 1266SOL     OW 4696   1.586   1.026   3.945
 1266SOL    HW1 4697   1.493   1.043   3.976
 1266SOL    HW2 4698   1.586   1.012   3.846
 1267SOL     OW 4699   5.694   6.448   1.014
 1267SOL    HW1 4700   5.666   6.352   1.027
 1267SOL    HW2 4701   5.627   6.508   1.057
 1268SOL     OW 4702   4.638   2.282   0.126
 1268SOL    HW1 4703   4.669   2.207   0.184
 1268SOL    HW2 4704   4.660   2.369   0.170
 1269SOL     OW 4705   6.271   6.330   5.820
 1269SOL    HW1 4706   6.360   6.295   5.791
 1269SOL    HW2 4707   6.208   6.254   5.833
 1270SOL     OW 4708   2.209   3.027   4.644
 1270SOL    HW1 4709   2.135   2.972   4.683
 1270SOL    HW2 4710   2.290   2.970   4.633
 1271SOL     OW 4711   3.349   2.140   3.558
 1271SOL    HW1 4712   3.403   2.143   3.643
 1271SOL    HW2 4713   3.267   2.085   3.573
 1272SOL     OW 4714   6.024   5.589   0.447
 1272SOL    HW1 4715   6.116   5.573   0.483
 1272SOL    HW2 4716   6.019   5.559   0.352
 1273SOL     OW 4717   0.982   4.435   0.325
 1273SOL    HW1 4718   0.991   4.365   0.254
 1273SOL    HW2 4719   1.028   4.518   0.295
 1274SOL     OW 4720   6.259   3.005   1.319
 1274SOL    HW1 4721   6.357   3.019   1.334
 1274SOL    HW2 4722   6.207   3.060   1.383
 1275SOL     OW 4723   3.879   0.037   4.283
 1275SOL    HW1 4724   3.931   0.038   4.197
 1275SOL    HW2 4725   3.940   0.059   4.359
 1276SOL     OW 4726   0.158   0.535   4.502
 1276SOL    HW1 4727   0.178   0.474   4.426
 1276SOL    HW2 4728   0.073   0.586   4.484
 1277SOL     OW 4729   1.276   6.983   5.551
 1277SOL    HW1 4730   1.318   6.993   5.642
 1277SOL    HW2 4731   1.347   6.990   5.481
 1278SOL     OW 4732   1.222   0.658   5.076
 1278SOL    HW1 4733   1.195   0.660   5.172
 1278SOL    HW2 4734   1.303   0.716   5.063
 1279SOL     OW 4735   3.588   5.139   6.926
 1279SOL    HW1 4736   3.682   5.172   6.923
 1279SOL    HW2 4737   3.581   5.053   6.874
 1280SOL     OW 4738   3.511   5.563   3.918
 1280SOL    HW1 4739   3.416   5.571   3.949
 1280SOL    HW2 4740   3.519   5.602   3.826
 1281SOL     OW 4741   0.894   5.712   2.752
 1281SOL    HW1 4742   0.941   5.660   2.681
 1281SOL    HW2 4743   0.961   5.742   2.821
 1282SOL     OW 4744   0.148   1.021   6.298
 1282SOL    HW1 4745   0.077   0.960   6.261
 1282SOL    HW2 4746   0.205   1.055   6.223
 1283SOL     OW 4747   5.376   3.145   5.221
 1283SOL    HW1 4748   5.439   3.184   5.287
 1283SOL    HW2 4749   5.343   3.216   5.158
 1284SOL     OW 4750   4.539   2.384   2.194
 1284SOL    HW1 4751   4.568   2.461   2.251
 1284SOL    HW2 4752   4.442   2.395   2.171
 1285SOL     OW 4753   4.894   3.430   6.095
 1285SOL    HW1 4754   4.835   3.372   6.152
 1285SOL    HW2 4755   4.953   3.372   6.040
 1286SOL     OW 4756   5.182   3.986   2.572
 1286SOL    HW1 4757   5.247   3.912   2.552
 1286SOL    HW2 4758   5.091   3.947   2.585
 1287SOL     OW 4759   4.475   3.872   5.539
 1287SOL    HW1 4760   4.543   3.807   5.507
 1287SOL    HW2 4761   4.401   3.879   5.472
 1288SOL     OW 4762   5.961   3.462   0.247
 1288SOL    HW1 4763   5.874   3.421   0.222
 1288SOL    HW2 4764   6.034   3.420   0.193
 1289SOL     OW 4765   0.049   5.970   1.260
 1289SOL    HW1 4766   7.000   5.901   1.253
 1289SOL    HW2 4767   0.009   6.057   1.290
 1290SOL     OW 4768   1.050   0.352   6.883
 1290SOL    HW1 4769   0.968   0.360   6.941
 1290SOL    HW2 4770   1.108   0.278   6.918
 1291SOL     OW 4771   6.971   3.548   5.792
 1291SOL    HW1 4772   6.926   3.482   5.851
 1291SOL    HW2 4773   6.903   3.608   5.751
 1292SOL     OW 4774   6.022   5.860   2.554
 1292SOL    HW1 4775   6.104   5.802   2.562
 1292SOL    HW2 4776   6.043   5.941   2.500
 1293SOL     OW 4777   1.301   1.484   6.660
 1293SOL    HW1 4778   1.344   1.563   6.616
 1293SOL    HW2 4779   1.318   1.402   6.605
 1294SOL     OW 4780   1.777   3.623   6.962
 1294SOL    HW1 4781   1.694   3.670   6.933
 1294SOL    HW2 4782   1.847   3.690   6.985
 1295SOL     OW 4783   0.085   3.794   2.771
 1295SOL    HW1 4784   0.040   3.743   2.844
 1295SOL    HW2 4785   0.028   3.791   2.689
 1296SOL     OW 4786   3.488   0.310   5.943
 1296SOL    HW1 4787   3.577   0.353   5.959
 1296SOL    HW2 4788   3.428   0.329   6.021
 1297SOL     OW 4789   5.886   0.565   6.770
 1297SOL    HW1 4790   5.906   0.518   6.684
 1297SOL    HW2 4791   5.788   0.564   6.786
 1298SOL     OW 4792   6.489   4.720   3.273
 1298SOL    HW1 4793   6.566   4.782   3.284
 1298SOL    HW2 4794   6.413   4.768   3.229
 1299SOL     OW 4795   0.229   4.262   3.015
 1299SOL    HW1 4796   0.226   4.328   3.091
 1299SOL    HW2 4797   0.324   4.254   2.983
 1300SOL     OW 4798   3.705   4.138   2.043
 1300SOL    HW1 4799   3.660   4.130   2.132
 1300SOL    HW2 4800   3.748   4.228   2.036
 1301SOL     OW 4801   0.471   5.562   1.895
 1301SOL    HW1 4802   0.455   5.646   1.844
 1301SOL    HW2 4803   0.529   5.501   1.841
 1302SOL     OW 4804   3.417   6.977   5.419
 1302SOL    HW1 4805   3.397   0.046   5.451
 1302SOL    HW2 4806   3.429   6.977   5.320
 1303SOL     OW 4807   4.560   1.669   1.322
 1303SOL    HW1 4808   4.565   1.603   1.396
 1303SOL    HW2 4809   4.603   1.755   1.351
 1304SOL     OW 4810   1.217   1.160   6.737
 1304SOL    HW1 4811   1.188   1.234   6.798
 1304SOL    HW2 4812   1.291   1.192   6.678
 1305SOL     OW 4813   4.879   3.518   6.882
 1305SOL    HW1 4814   4.915   3.604   6.919
 1305SOL    HW2 4815   4.781   3.514   6.896
 1306SOL     OW 4816   0.968   3.906   5.814
 1306SOL    HW1 4817   0.988   3.933   5.720
 1306SOL    HW2 4818   0.966   3.806   5.820
 1307SOL     OW 4819   1.512   2.980   4.958
 1307SOL    HW1 4820   1.481   2.952   4.867
 1307SOL    HW2 4821   1.541   3.076   4.955
 1308SOL     OW 4822   4.075   5.325   5.178
 1308SOL    HW1 4823   4.012   5.375   5.237
 1308SOL    HW2 4824   4.024   5.274   5.109
 1309SOL     OW 4825   5.259   3.082   5.656
 1309SOL    HW1 4826   5.228   3.148   5.587
 1309SOL    HW2 4827   5.348   3.046   5.630
 1310SOL     OW 4828   0.225   4.075   5.126
 1310SOL    HW1 4829   0.279   4.158   5.140
 1310SOL    HW2 4830   0.235   4.046   5.031
 1311SOL     OW 4831   0.014   0.661   4.043
 1311SOL    HW1 4832   0.098   0.712   4.064
 1311SOL    HW2 4833   0.023   0.617   3.954
 1312SOL     OW 4834   0.999   0.228   6.338
 1312SOL    HW1 4835   0.920   0.283   6.313
 1312SOL    HW2 4836   1.012   0.230   6.437
 1313SOL     OW 4837   1.501   4.647   4.351
 1313SOL    HW1 4838   1.427   4.618   4.291
 1313SOL    HW2 4839   1.485   4.741   4.381
 1314SOL     OW 4840   3.792   1.630   5.640
 1314SOL    HW1 4841   3.820   1.538   5.611
 1314SOL    HW2 4842   3.783   1.631   5.740
 1315SOL     OW 4843   0.445   1.027   0.454
 1315SOL    HW1 4844   0.534   1.045   0.412
 1315SOL    HW2 4845   0.405   0.946   0.413
 1316SOL     OW 4846   2.633   6.404   4.622
 1316SOL    HW1 4847   2.589   6.494   4.628
 1316SOL    HW2 4848   2.640   6.376   4.527
 1317SOL     OW 4849   1.319   4.032   4.217
 1317SOL    HW1 4850   1.241   4.028   4.156
 1317SOL    HW2 4851   1.363   3.943   4.221
 1318SOL     OW 4852   0.414   1.286   0.425
 1318SOL    HW1 4853   0.394   1.305   0.329
 1318SOL    HW2 4854   0.398   1.189   0.444
 1319SOL     OW 4855   6.971   0.793   0.260
 1319SOL    HW1 4856   6.959   0.696   0.239
 1319SOL    HW2 4857   6.888   0.843   0.236
 1320SOL     OW 4858   5.671   4.336   0.400
 1320SOL    HW1 4859   5.642   4.419   0.448
 1320SOL    HW2 4860   5.756   4.354   0.351
 1321SOL     OW 4861   4.489   2.182   6.151
 1321SOL    HW1 4862   4.538   2.173   6.065
 1321SOL    HW2 4863   4.538   2.132   6.223
 1322SOL     OW 4864   4.308   0.432   3.568
 1322SOL    HW1 4865   4.406   0.419   3.557
 1322SOL    HW2 4866   4.282   0.415   3.663
 1323SOL     OW 4867   5.350   2.219   4.515
 1323SOL    HW1 4868   5.394   2.262   4.436
 1323SOL    HW2 4869   5.395   2.250   4.599
 1324SOL     OW 4870   0.990   2.795   0.547
 1324SOL    HW1 4871   0.936   2.743   0.614
 1324SOL    HW2 4872   0.997   2.890   0.577
 1325SOL     OW 4873   1.692   6.846   2.044
 1325SOL    HW1 4874   1.749   6.872   2.122
 1325SOL    HW2 4875   1.745   6.788   1.982
 1326SOL     OW 4876   4.935   2.994   4.938
 1326SOL    HW1 4877   4.890   3.078   4.907
 1326SOL    HW2 4878   4.907   2.918   4.879
 1327SOL     OW 4879   2.315   4.741   1.951
 1327SOL    HW1 4880   2.408   4.707   1.940
 1327SOL    HW2 4881   2.250   4.668   1.926
 1328SOL     OW 4882   1.540   2.642   0.917
 1328SOL    HW1 4883   1.569   2.565   0.860
 1328SOL    HW2 4884   1.536   2.725   0.861
 1329SOL     OW 4885   0.991   2.449   0.780
 1329SOL    HW1 4886   0.896   2.478   0.768
 1329SOL    HW2 4887   1.026   2.412   0.694
 1330SOL     OW 4888   6.676   1.209   1.761
 1330SOL    HW1 4889   6.599   1.161   1.719
 1330SOL    HW2 4890   6.700   1.289   1.706
 1331SOL     OW 4891   5.013   2.446   3.263
 1331SOL    HW1 4892   5.091   2.386   3.280
 1331SOL    HW2 4893   4.962   2.412   3.184
 1332SOL     OW 4894   3.171   0.180   0.222
 1332SOL    HW1 4895   3.130   0.118   0.155
 1332SOL    HW2 4896   3.263   0.205   0.193
 1333SOL     OW 4897   3.038   3.450   6.237
 1333SOL    HW1 4898   3.128   3.491   6.250
 1333SOL    HW2 4899   3.036   3.399   6.152
 1334SOL     OW 4900   6.790   2.388   4.971
 1334SOL    HW1 4901   6.759   2.464   4.914
 1334SOL    HW2 4902   6.771   2.409   5.067
 1335SOL     OW 4903   2.646   0.631   3.238
 1335SOL    HW1 4904   2.688   0.564   3.176
 1335SOL    HW2 4905   2.637   0.718   3.191
 1336SOL     OW 4906   1.931   0.805   6.713
 1336SOL    HW1 4907   1.890   0.725   6.758
 1336SOL    HW2 4908   1.859   0.866   6.680
 1337SOL     OW 4909   1.466   1.194   5.290
 1337SOL    HW1 4910   1.480   1.261   5.217
 1337SOL    HW2 4911   1.535   1.208   5.361
 1338SOL     OW 4912   5.348   2.763   6.315
 1338SOL    HW1 4913   5.385   2.699   6.383
 1338SOL    HW2 4914   5.362   2.725   6.223
 1339SOL     OW 4915   0.200   0.323   6.997
 1339SOL    HW1 4916   0.209   0.239   6.943
 1339SOL    HW2 4917   0.134   0.384   6.954
 1340SOL     OW 4918   0.333   1.884   1.983
 1340SOL    HW1 4919   0.328   1.962   2.045
 1340SOL    HW2 4920   0.242   1.865   1.946
 1341SOL     OW 4921   4.792   0.937   5.672
 1341SOL    HW1 4922   4.726   0.934   5.598
 1341SOL    HW2 4923   4.846   0.853   5.673
 1342SOL     OW 4924   1.524   4.770   6.201
 1342SOL    HW1 4925   1.429   4.799   6.214
 1342SOL    HW2 4926   1.529   4.670   6.207
 1343SOL     OW 4927   4.409   5.967   2.409
 1343SOL    HW1 4928   4.346   5.892   2.426
 1343SOL    HW2 4929   4.503   5.933   2.405
 1344SOL     OW 4930   6.900   4.419   3.879
 1344SOL    HW1 4931   6.901   4.337   3.936
 1344SOL    HW2 4932   6.906   4.393   3.783
 1345SOL     OW 4933   2.027   1.736   3.376
 1345SOL    HW1 4934   2.094   1.768   3.309
 1345SOL    HW2 4935   2.065   1.658   3.426
 1346SOL     OW 4936   1.290   6.943   3.438
 1346SOL    HW1 4937   1.380   6.939   3.395
 1346SOL    HW2 4938   1.230   7.004   3.385
 1347SOL     OW 4939   6.223   6.267   4.501
 1347SOL    HW1 4940   6.318   6.281   4.527
 1347SOL    HW2 4941   6.166   6.339   4.541
 1348SOL     OW 4942   5.270   4.853   3.182
 1348SOL    HW1 4943   5.240   4.939   3.223
 1348SOL    HW2 4944   5.366   4.860   3.156
 1349SOL     OW 4945   4.944   2.181   6.585
 1349SOL    HW1 4946   4.997   2.186   6.501
 1349SOL    HW2 4947   5.006   2.173   6.663
 1350SOL     OW 4948   4.828   4.109   6.031
 1350SOL    HW1 4949   4.861   4.180   6.093
 1350SOL    HW2 4950   4.776   4.151   5.957
 1351SOL     OW 4951   6.858   2.245   2.891
 1351SOL    HW1 4952   6.838   2.211   2.983
 1351SOL    HW2 4953   6.814   2.334   2.878
 1352SOL     OW 4954   6.881   0.255   3.412
 1352SOL    HW1 4955   6.794   0.293   3.443
 1352SOL    HW2 4956   6.866   0.201   3.329
 1353SOL     OW 4957   6.254   4.427   5.826
 1353SOL    HW1 4958   6.264   4.500   5.893
 1353SOL    HW2 4959   6.197   4.354   5.864
 1354SOL     OW 4960   0.917   1.747   0.330
 1354SOL    HW1 4961   0.918   1.844   0.356
 1354SOL    HW2 4962   0.833   1.705   0.363
 1355SOL     OW 4963   6.219   2.172   5.285
 1355SOL    HW1 4964   6.208   2.271   5.284
 1355SOL    HW2 4965   6.304   2.148   5.238
 1356SOL     OW 4966   2.947   3.194   3.716
 1356SOL    HW1 4967   3.038   3.153   3.708
 1356SOL    HW2 4968   2.877   3.123   3.701
 1357SOL     OW 4969   2.053   4.544   5.523
 1357SOL    HW1 4970   2.077   4.467   5.464
 1357SOL    HW2 4971   2.109   4.623   5.498
 1358SOL     OW 4972   4.330   1.481   5.809
 1358SOL    HW1 4973   4.351   1.502   5.904
 1358SOL    HW2 4974   4.234   1.504   5.790
 1359SOL     OW 4975   0.215   4.834   1.405
 1359SOL    HW1 4976   0.212   4.831   1.305
 1359SOL    HW2 4977   0.282   4.903   1.434
 1360SOL     OW 4978   4.057   3.814   1.829
 1360SOL    HW1 4979   3.984   3.869   1.787
 1360SOL    HW2 4980   4.061   3.833   1.927
 1361SOL     OW 4981   0.288   5.943   5.700
 1361SOL    HW1 4982   0.262   5.989   5.784
 1361SOL    HW2 4983   0.221   5.872   5.678
 1362SOL     OW 4984   3.125   3.901   3.866
 1362SOL    HW1 4985   3.195   3.956   3.913
 1362SOL    HW2 4986   3.056   3.870   3.932
 1363SOL     OW 4987   6.041   5.981   3.590
 1363SOL    HW1 4988   6.092   5.931   3.521
 1363SOL    HW2 4989   6.033   5.925   3.673
 1364SOL     OW 4990   0.396   2.296   0.064
 1364SOL    HW1 4991   0.439   2.210   0.037
 1364SOL    HW2 4992   0.307   2.277   0.105
 1365SOL     OW 4993   1.079   2.951   5.705
 1365SOL    HW1 4994   0.994   2.938   5.653
 1365SOL    HW2 4995   1.087   3.047   5.732
 1366SOL     OW 4996   1.267   4.244   0.235
 1366SOL    HW1 4997   1.174   4.220   0.205
 1366SOL    HW2 4998   1.265   4.333   0.281
 1367SOL     OW 4999   1.290   5.484   2.518
 1367SOL    HW1 5000   1.342   5.562   2.554
 1367SOL    HW2 5001   1.343   5.400   2.533
 1368SOL     OW 5002   6.690   6.883   3.221
 1368SOL    HW1 5003   6.682   6.788   3.251
 1368SOL    HW2 5004   6.782   6.900   3.187
 1369SOL     OW 5005   1.743   0.507   2.356
 1369SOL    HW1 5006   1.837   0.517   2.390
 1369SOL    HW2 5007   1.718   0.410   2.352
 1370SOL     OW 5008   4.882   1.624   3.915
 1370SOL    HW1 5009   4.895   1.566   3.995
 1370SOL    HW2 5010   4.791   1.607   3.876
 1371SOL     OW 5011   5.687   1.522   4.560
 1371SOL    HW1 5012   5.707   1.536   4.463
 1371SOL    HW2 5013   5.616   1.452   4.569
 1372SOL     OW 5014   1.189   2.049   0.629
 1372SOL    HW1 5015   1.214   1.992   0.551
 1372SOL    HW2 5016   1.191   1.994   0.713
 1373SOL     OW 5017   4.378   2.205   0.440
 1373SOL    HW1 5018   4.355   2.108   0.452
 1373SOL    HW2 5019   4.416   2.219   0.349
 1374SOL     OW 5020   4.268   2.232   1.148
 1374SOL    HW1 5021   4.247   2.146   1.194
 1374SOL    HW2 5022   4.263   2.307   1.214
 1375SOL     OW 5023   7.009   6.817   6.114
 1375SOL    HW1 5024   6.993   6.734   6.062
 1375SOL    HW2 5025   7.015   6.895   6.052
 1376SOL     OW 5026   4.238   4.784   4.832
 1376SOL    HW1 5027   4.227   4.865   4.890
 1376SOL    HW2 5028   4.234   4.702   4.888
 1377SOL     OW 5029   1.149   3.683   3.845
 1377SOL    HW1 5030   1.210   3.762   3.844
 1377SOL    HW2 5031   1.054   3.714   3.849
 1378SOL     OW 5032   6.136   2.343   4.474
 1378SOL    HW1 5033   6.079   2.279   4.527
 1378SOL    HW2 5034   6.196   2.291   4.414
 1379SOL     OW 5035   4.564   6.090   3.428
 1379SOL    HW1 5036   4.563   6.002   3.381
 1379SOL    HW2 5037   4.490   6.093   3.496
 1380SOL     OW 5038   0.488   6.579   3.455
 1380SOL    HW1 5039   0.406   6.626   3.423
 1380SOL    HW2 5040   0.530   6.530   3.378
 1381SOL     OW 5041   5.843   1.815   0.473
 1381SOL    HW1 5042   5.743   1.823   0.473
 1381SOL    HW2 5043   5.883   1.901   0.503
 1382SOL     OW 5044   5.997   3.245   1.187
 1382SOL    HW1 5045   6.042   3.307   1.250
 1382SOL    HW2 5046   5.928   3.295   1.135
 1383SOL     OW 5047   0.926   0.610   1.878
 1383SOL    HW1 5048   0.850   0.583   1.936
 1383SOL    HW2 5049   0.935   0.709   1.877
 1384SOL     OW 5050   4.418   0.879   1.914
 1384SOL    HW1 5051   4.506   0.881   1.866
 1384SOL    HW2 5052   4.400   0.969   1.954
 1385SOL     OW 5053   2.501   5.116   3.522
 1385SOL    HW1 5054   2.481   5.076   3.611
 1385SOL    HW2 5055   2.592   5.087   3.492
 1386SOL     OW 5056   3.113   1.215   4.367
 1386SOL    HW1 5057   3.179   1.166   4.425
 1386SOL    HW2 5058   3.123   1.184   4.273
 1387SOL     OW 5059   3.820   5.250   2.708
 1387SOL    HW1 5060   3.914   5.280   2.694
 1387SOL    HW2 5061   3.816   5.150   2.699
 1388SOL     OW 5062   6.576   0.309   3.132
 1388SOL    HW1 5063   6.561   0.407   3.129
 1388SOL    HW2 5064   6.548   0.268   3.045
 1389SOL     OW 5065   6.349   0.709   4.110
 1389SOL    HW1 5066   6.443   0.739   4.124
 1389SOL    HW2 5067   6.300   0.712   4.197
 1390SOL     OW 5068   6.774   3.059   6.512
 1390SOL    HW1 5069   6.743   3.051   6.417
 1390SOL    HW2 5070   6.723   2.995   6.569
 1391SOL     OW 5071   5.884   6.594   4.916
 1391SOL    HW1 5072   5.973   6.551   4.902
 1391SOL    HW2 5073   5.895   6.693   4.918
 1392SOL     OW 5074   6.123   6.439   5.604
 1392SOL    HW1 5075   6.164   6.417   5.693
 1392SOL    HW2 5076   6.036   6.486   5.618
 1393SOL     OW 5077   0.060   4.263   6.153
 1393SOL    HW1 5078   0.136   4.222   6.203
 1393SOL    HW2 5079   7.019   4.304   6.218
 1394SOL     OW 5080   3.643   5.399   5.662
 1394SOL    HW1 5081   3.672   5.345   5.741
 1394SOL    HW2 5082   3.692   5.367   5.580
 1395SOL     OW 5083   2.194   4.626   4.855
 1395SOL    HW1 5084   2.223   4.715   4.819
 1395SOL    HW2 5085   2.200   4.626   4.954
 1396SOL     OW 5086   0.497   1.745   5.212
 1396SOL    HW1 5087   0.441   1.720   5.291
 1396SOL    HW2 5088   0.468   1.692   5.133
 1397SOL     OW 5089   0.351   6.972   4.620
 1397SOL    HW1 5090   0.403   6.988   4.535
 1397SOL    HW2 5091   0.296   6.890   4.609
 1398SOL     OW 5092   3.022   1.165   6.813
 1398SOL    HW1 5093   2.999   1.171   6.910
 1398SOL    HW2 5094   3.072   1.248   6.786
 1399SOL     OW 5095   4.018   5.239   1.001
 1399SOL    HW1 5096   4.102   5.269   1.046
 1399SOL    HW2 5097   4.037   5.162   0.941
 1400SOL     OW 5098   0.039   1.852   4.096
 1400SOL    HW1 5099   0.118   1.792   4.103
 1400SOL    HW2 5100   0.014   1.885   4.187
 1401SOL     OW 5101   6.341   0.483   4.673
 1401SOL    HW1 5102   6.403   0.420   4.719
 1401SOL    HW2 5103   6.310   0.553   4.739
 1402SOL     OW 5104   5.969   3.906   6.441
 1402SOL    HW1 5105   6.064   3.873   6.437
 1402SOL    HW2 5106   5.913   3.852   6.379
 1403SOL     OW 5107   2.217   1.969   1.202
 1403SOL    HW1 5108   2.146   2.023   1.157
 1403SOL    HW2 5109   2.176   1.916   1.276
 1404SOL     OW 5110   6.680   0.182   6.993
 1404SOL    HW1 5111   6.626   0.266   6.986
 1404SOL    HW2 5112   6.703   0.149   6.902
 1405SOL     OW 5113   2.309   3.587   0.908
 1405SOL    HW1 5114   2.281   3.610   0.814
 1405SOL    HW2 5115   2.363   3.503   0.907
 1406SOL     OW 5116   0.744   5.489   0.647
 1406SOL    HW1 5117   0.788   5.541   0.721
 1406SOL    HW2 5118   0.715   5.552   0.575
 1407SOL     OW 5119   0.327   3.812   2.867
 1407SOL    HW1 5120   0.237   3.821   2.824
 1407SOL    HW2 5121   0.372   3.902   2.870
 1408SOL     OW 5122   5.508   1.492   5.600
 1408SOL    HW1 5123   5.559   1.408   5.612
 1408SOL    HW2 5124   5.421   1.487   5.650
 1409SOL     OW 5125   0.246   0.482   5.230
 1409SOL    HW1 5126   0.222   0.579   5.221
 1409SOL    HW2 5127   0.247   0.439   5.139
 1410SOL     OW 5128   1.661   4.193   5.955
 1410SOL    HW1 5129   1.706   4.165   5.871
 1410SOL    HW2 5130   1.662   4.117   6.021
 1411SOL     OW 5131   3.808   6.939   0.544
 1411SOL    HW1 5132   3.892   6.913   0.591
 1411SOL    HW2 5133   3.765   6.858   0.504
 1412SOL     OW 5134   1.288   2.399   0.855
 1412SOL    HW1 5135   1.233   2.399   0.771
 1412SOL    HW2 5136   1.312   2.305   0.880
 1413SOL     OW 5137   2.045   1.666   5.099
 1413SOL    HW1 5138   2.098   1.752   5.098
 1413SOL    HW2 5139   2.039   1.632   5.192
 1414SOL     OW 5140   2.783   1.666   1.563
 1414SOL    HW1 5141   2.813   1.748   1.514
 1414SOL    HW2 5142   2.839   1.588   1.534
 1415SOL     OW 5143   2.050   1.013   4.625
 1415SOL    HW1 5144   1.955   1.013   4.655
 1415SOL    HW2 5145   2.086   1.106   4.630
 1416SOL     OW 5146   4.346   5.076   4.238
 1416SOL    HW1 5147   4.443   5.056   4.228
 1416SOL    HW2 5148   4.318   5.058   4.333
 1417SOL     OW 5149   3.377   2.239   0.463
 1417SOL    HW1 5150   3.316   2.284   0.529
 1417SOL    HW2 5151   3.450   2.303   0.437
 1418SOL     OW 5152   3.551   4.135   2.907
 1418SOL    HW1 5153   3.534   4.037   2.893
 1418SOL    HW2 5154   3.582   4.151   3.000
 1419SOL     OW 5155   2.949   5.554   3.001
 1419SOL    HW1 5156   2.977   5.514   3.088
 1419SOL    HW2 5157   3.024   5.547   2.935
 1420SOL     OW 5158   1.710   6.396   1.793
 1420SOL    HW1 5159   1.686   6.443   1.708
 1420SOL    HW2 5160   1.805   6.367   1.789
 1421SOL     OW 5161   2.583   4.915   3.153
 1421SOL    HW1 5162   2.588   4.823   3.113
 1421SOL    HW2 5163   2.512   4.917   3.223
 1422SOL     OW 5164   1.148   4.113   6.872
 1422SOL    HW1 5165   1.176   4.127   6.777
 1422SOL    HW2 5166   1.187   4.028   6.906
 1423SOL     OW 5167   5.037   6.871   4.173
 1423SOL    HW1 5168   5.025   6.821   4.088
 1423SOL    HW2 5169   5.049   6.969   4.153
 1424SOL     OW 5170   6.649   4.306   6.944
 1424SOL    HW1 5171   6.568   4.327   6.999
 1424SOL    HW2 5172   6.623   4.297   6.848
 1425SOL     OW 5173   2.083   5.568   5.270
 1425SOL    HW1 5174   2.082   5.608   5.179
 1425SOL    HW2 5175   2.090   5.468   5.262
 1426SOL     OW 5176   2.415   3.361   6.452
 1426SOL    HW1 5177   2.450   3.437   6.508
 1426SOL    HW2 5178   2.398   3.282   6.511
 1427SOL     OW 5179   6.915   0.264   3.885
 1427SOL    HW1 5180   6.964   0.277   3.798
 1427SOL    HW2 5181   6.929   0.171   3.918
 1428SOL     OW 5182   0.790   2.356   6.867
 1428SOL    HW1 5183   0.813   2.422   6.796
 1428SOL    HW2 5184   0.874   2.322   6.909
 1429SOL     OW 5185   4.651   1.504   0.136
 1429SOL    HW1 5186   4.642   1.459   0.225
 1429SOL    HW2 5187   4.630   1.601   0.146
 1430SOL     OW 5188   1.584   5.332   4.210
 1430SOL    HW1 5189   1.648   5.361   4.139
 1430SOL    HW2 5190   1.635   5.313   4.294
 1431SOL     OW 5191   3.237   2.072   6.879
 1431SOL    HW1 5192   3.307   2.110   6.818
 1431SOL    HW2 5193   3.180   2.146   6.915
 1432SOL     OW 5194   2.553   1.829   1.530
 1432SOL    HW1 5195   2.641   1.857   1.494
 1432SOL    HW2 5196   2.482   1.845   1.462
 1433SOL     OW 5197   4.722   0.172   5.508
 1433SOL    HW1 5198   4.771   0.139   5.428
 1433SOL    HW2 5199   4.624   0.176   5.488
 1434SOL     OW 5200   1.148   0.444   5.877
 1434SOL    HW1 5201   1.215   0.509   5.841
 1434SOL    HW2 5202   1.056   0.481   5.865
 1435SOL     OW 5203   6.937   6.820   3.134
 1435SOL    HW1 5204   0.002   6.817   3.182
 1435SOL    HW2 5205   6.945   6.881   3.055
 1436SOL     OW 5206   5.309   4.018   6.214
 1436SOL    HW1 5207   5.219   4.010   6.257
 1436SOL    HW2 5208   5.368   4.074   6.271
 1437SOL     OW 5209   3.041   2.153   5.255
 1437SOL    HW1 5210   3.076   2.192   5.170
 1437SOL    HW2 5211   3.049   2.220   5.328
 1438SOL     OW 5212   2.309   6.721   1.781
 1438SOL    HW1 5213   2.335   6.677   1.695
 1438SOL    HW2 5214   2.212   6.705   1.799
 1439SOL     OW 5215   6.656   5.334   1.027
 1439SOL    HW1 5216   6.658   5.387   1.113
 1439SOL    HW2 5217   6.724   5.262   1.031
 1440SOL     OW 5218   3.281   3.238   6.389
 1440SOL    HW1 5219   3.366   3.284   6.415
 1440SOL    HW2 5220   3.208   3.265   6.453
 1441SOL     OW 5221   6.515   1.084   3.469
 1441SOL    HW1 5222   6.477   1.066   3.559
 1441SOL    HW2 5223   6.493   1.009   3.407
 1442SOL     OW 5224   6.715   5.877   6.755
 1442SOL    HW1 5225   6.632   5.922   6.721
 1442SOL    HW2 5226   6.774   5.944   6.800
 1443SOL     OW 5227   0.754   2.716   3.991
 1443SOL    HW1 5228   0.796   2.722   3.900
 1443SOL    HW2 5229   0.693   2.793   4.004
 1444SOL     OW 5230   5.089   5.183   1.037
 1444SOL    HW1 5231   5.157   5.213   1.103
 1444SOL    HW2 5232   5.117   5.095   0.997
 1445SOL     OW 5233   0.604   3.248   2.603
 1445SOL    HW1 5234   0.547   3.167   2.616
 1445SOL    HW2 5235   0.695   3.232   2.640
 1446SOL     OW 5236   5.292   2.279   0.161
 1446SOL    HW1 5237   5.358   2.343   0.200
 1446SOL    HW2 5238   5.212   2.271   0.221
 1447SOL     OW 5239   6.052   6.884   4.944
 1447SOL    HW1 5240   6.089   6.799   4.982
 1447SOL    HW2 5241   6.020   6.943   5.018
 1448SOL     OW 5242   0.147   2.293   5.376
 1448SOL    HW1 5243   0.141   2.306   5.277
 1448SOL    HW2 5244   0.078   2.226   5.404
 1449SOL     OW 5245   1.122   1.315   6.961
 1449SOL    HW1 5246   1.030   1.353   6.950
 1449SOL    HW2 5247   1.125   1.260   0.021
 1450SOL     OW 5248   0.869   2.568   1.319
 1450SOL    HW1 5249   0.875   2.632   1.243
 1450SOL    HW2 5250   0.933   2.597   1.391
 1451SOL     OW 5251   1.490   7.006   1.989
 1451SOL    HW1 5252   1.554   6.954   2.045
 1451SOL    HW2 5253   1.444   6.944   1.926
 1452SOL     OW 5254   4.500   1.238   4.754
 1452SOL    HW1 5255   4.431   1.309   4.764
 1452SOL    HW2 5256   4.591   1.279   4.755
 1453SOL     OW 5257   6.982   3.595   5.183
 1453SOL    HW1 5258   0.028   3.535   5.144
 1453SOL    HW2 5259   6.985   3.684   5.139
 1454SOL     OW 5260   0.106   3.194   2.143
 1454SOL    HW1 5261   0.152   3.262   2.200
 1454SOL    HW2 5262   0.151   3.189   2.053
 1455SOL     OW 5263   1.265   0.804   1.426
 1455SOL    HW1 5264   1.217   0.720   1.401
 1455SOL    HW2 5265   1.209   0.857   1.490
 1456SOL     OW 5266   6.732   6.247   5.401
 1456SOL    HW1 5267   6.782   6.330   5.425
 1456SOL    HW2 5268   6.742   6.230   5.303
 1457SOL     OW 5269   0.992   6.709   1.686
 1457SOL    HW1 5270   0.999   6.793   1.631
 1457SOL    HW2 5271   0.936   6.642   1.637
 1458SOL     OW 5272   5.482   5.557   3.507
 1458SOL    HW1 5273   5.441   5.519   3.425
 1458SOL    HW2 5274   5.534   5.486   3.554
 1459SOL     OW 5275   2.995   5.938   5.729
 1459SOL    HW1 5276   2.988   5.865   5.662
 1459SOL    HW2 5277   2.936   5.918   5.807
 1460SOL     OW 5278   0.609   6.266   5.194
 1460SOL    HW1 5279   0.622   6.181   5.143
 1460SOL    HW2 5280   0.599   6.245   5.292
 1461SOL     OW 5281   6.380   4.892   3.031
 1461SOL    HW1 5282   6.344   4.967   2.977
 1461SOL    HW2 5283   6.410   4.818   2.970
 1462SOL     OW 5284   1.300   0.169   6.806
 1462SOL    HW1 5285   1.245   0.105   6.751
 1462SOL    HW2 5286   1.357   0.117   6.869
 1463SOL     OW 5287   6.929   5.500   6.656
 1463SOL    HW1 5288   6.871   5.421   6.637
 1463SOL    HW2 5289   0.001   5.470   6.667
 1464SOL     OW 5290   6.995   6.465   1.335
 1464SOL    HW1 5291   6.903   6.484   1.369
 1464SOL    HW2 5292   0.032   6.542   1.356
 1465SOL     OW 5293   1.303   0.991   3.303
 1465SOL    HW1 5294   1.396   1.015   3.332
 1465SOL    HW2 5295   1.296   1.002   3.203
 1466SOL     OW 5296   1.698   2.327   2.205
 1466SOL    HW1 5297   1.737   2.419   2.195
 1466SOL    HW2 5298   1.713   2.275   2.121
 1467SOL     OW 5299   1.855   1.437   2.673
 1467SOL    HW1 5300   1.918   1.361   2.654
 1467SOL    HW2 5301   1.892   1.521   2.632
 1468SOL     OW 5302   3.591   6.056   2.185
 1468SOL    HW1 5303   3.502   6.102   2.183
 1468SOL    HW2 5304   3.664   6.125   2.191
 1469SOL     OW 5305   0.462   1.676   1.870
 1469SOL    HW1 5306   0.417   1.587   1.856
 1469SOL    HW2 5307   0.395   1.743   1.898
 1470SOL     OW 5308   1.337   2.164   2.832
 1470SOL    HW1 5309   1.270   2.108   2.882
 1470SOL    HW2 5310   1.385   2.107   2.765
 1471SOL     OW 5311   0.399   0.068   0.956
 1471SOL    HW1 5312   0.441   0.018   0.881
 1471SOL    HW2 5313   0.469   0.089   1.025
 1472SOL     OW 5314   3.479   5.062   5.677
 1472SOL    HW1 5315   3.453   4.966   5.664
 1472SOL    HW2 5316   3.551   5.068   5.746
 1473SOL     OW 5317   3.980   5.880   5.349
 1473SOL    HW1 5318   3.960   5.841   5.259
 1473SOL    HW2 5319   4.078   5.903   5.354
 1474SOL     OW 5320   5.611   5.496   2.479
 1474SOL    HW1 5321   5.551   5.459   2.550
 1474SOL    HW2 5322   5.657   5.421   2.432
 1475SOL     OW 5323   5.985   0.341   1.867
 1475SOL    HW1 5324   5.960   0.413   1.932
 1475SOL    HW2 5325   5.986   0.253   1.915
 1476SOL     OW 5326   3.039   0.866   0.817
 1476SOL    HW1 5327   2.947   0.849   0.853
 1476SOL    HW2 5328   3.090   0.923   0.882
 1477SOL     OW 5329   3.051   7.005   6.217
 1477SOL    HW1 5330   2.959   6.971   6.239
 1477SOL    HW2 5331   3.076   6.976   6.125
 1478SOL     OW 5332   5.826   5.691   6.039
 1478SOL    HW1 5333   5.875   5.607   6.015
 1478SOL    HW2 5334   5.829   5.704   6.138
 1479SOL     OW 5335   1.096   2.291   0.589
 1479SOL    HW1 5336   1.124   2.354   0.516
 1479SOL    HW2 5337   1.134   2.200   0.571
 1480SOL     OW 5338   3.191   1.151   4.976
 1480SOL    HW1 5339   3.230   1.228   4.925
 1480SOL    HW2 5340   3.197   1.068   4.920
 1481SOL     OW 5341   6.404   3.259   6.070
 1481SOL    HW1 5342   6.454   3.190   6.019
 1481SOL    HW2 5343   6.306   3.236   6.071
 1482SOL     OW 5344   4.822   1.369   1.477
 1482SOL    HW1 5345   4.785   1.278   1.457
 1482SOL    HW2 5346   4.749   1.430   1.506
 1483SOL     OW 5347   5.133   2.170   6.784
 1483SOL    HW1 5348   5.177   2.258   6.766
 1483SOL    HW2 5349   5.093   2.170   6.876
 1484SOL     OW 5350   5.569   4.204   5.217
 1484SOL    HW1 5351   5.470   4.198   5.216
 1484SOL    HW2 5352   5.608   4.112   5.208
 1485SOL     OW 5353   3.562   1.603   3.376
 1485SOL    HW1 5354   3.573   1.568   3.283
 1485SOL    HW2 5355   3.507   1.687   3.374
 1486SOL     OW 5356   4.829   1.567   2.282
 1486SOL    HW1 5357   4.828   1.648   2.342
 1486SOL    HW2 5358   4.905   1.507   2.308
 1487SOL     OW 5359   6.891   2.137   6.331
 1487SOL    HW1 5360   6.885   2.233   6.358
 1487SOL    HW2 5361   6.964   2.093   6.383
 1488SOL     OW 5362   5.140   0.892   3.368
 1488SOL    HW1 5363   5.196   0.876   3.449
 1488SOL    HW2 5364   5.073   0.963   3.388
 1489SOL     OW 5365   4.404   4.845   5.170
 1489SOL    HW1 5366   4.386   4.937   5.134
 1489SOL    HW2 5367   4.501   4.823   5.160
 1490SOL     OW 5368   0.813   3.196   2.268
 1490SOL    HW1 5369   0.865   3.115   2.295
 1490SOL    HW2 5370   0.849   3.276   2.316
 1491SOL     OW 5371   6.652   4.172   2.415
 1491SOL    HW1 5372   6.701   4.251   2.453
 1491SOL    HW2 5373   6.716   4.095   2.405
 1492SOL     OW 5374   5.885   0.991   2.427
 1492SOL    HW1 5375   5.868   0.912   2.368
 1492SOL    HW2 5376   5.887   1.074   2.371
 1493SOL     OW 5377   3.668   6.867   5.527
 1493SOL    HW1 5378   3.600   6.929   5.488
 1493SOL    HW2 5379   3.734   6.841   5.456
 1494SOL     OW 5380   4.819   1.887   0.031
 1494SOL    HW1 5381   4.865   1.823   6.993
 1494SOL    HW2 5382   4.838   1.981   0.002
 1495SOL     OW 5383   6.426   3.374   5.472
 1495SOL    HW1 5384   6.366   3.305   5.513
 1495SOL    HW2 5385   6.511   3.379   5.524
 1496SOL     OW 5386   0.161   1.797   1.787
 1496SOL    HW1 5387   0.143   1.870   1.721
 1496SOL    HW2 5388   0.128   1.710   1.750
 1497SOL     OW 5389   6.078   3.546   2.943
 1497SOL    HW1 5390   6.157   3.497   2.906
 1497SOL    HW2 5391   6.094   3.644   2.940
 1498SOL     OW 5392   2.597   4.993   6.960
 1498SOL    HW1 5393   2.579   5.091   6.949
 1498SOL    HW2 5394   2.695   4.976   6.951
 1499SOL     OW 5395   0.538   2.605   6.147
 1499SOL    HW1 5396   0.524   2.695   6.105
 1499SOL    HW2 5397   0.454   2.551   6.139
 1500SOL     OW 5398   0.054   6.893   6.945
 1500SOL    HW1 5399   0.011   6.961   7.005
 1500SOL    HW2 5400   0.127   6.937   6.892
 1501SOL     OW 5401   5.555   2.434   6.610
 1501SOL    HW1 5402   5.515   2.423   6.519
 1501SOL    HW2 5403   5.486   2.413   6.679
 1502SOL     OW 5404   4.339   0.078   0.348
 1502SOL    HW1 5405   4.354   0.079   0.249
 1502SOL    HW2 5406   4.242   0.059   0.366
 1503SOL     OW 5407   0.665   3.756   1.689
 1503SOL    HW1 5408   0.744   3.815   1.703
 1503SOL    HW2 5409   0.658   3.691   1.764
 1504SOL     OW 5410   0.557   0.081   5.110
 1504SOL    HW1 5411   0.589   0.138   5.034
 1504SOL    HW2 5412   0.574   0.129   5.196
 1505SOL     OW 5413   5.084   0.141   4.985
 1505SOL    HW1 5414   5.006   0.198   4.958
 1505SOL    HW2 5415   5.159   0.200   5.015
 1506SOL     OW 5416   0.526   6.102   0.609
 1506SOL    HW1 5417   0.596   6.144   0.550
 1506SOL    HW2 5418   0.546   6.125   0.704
 1507SOL     OW 5419   1.070   2.005   5.910
 1507SOL    HW1 5420   1.088   1.944   5.987
 1507SOL    HW2 5421   0.987   2.059   5.929
 1508SOL     OW 5422   6.642   1.562   2.336
 1508SOL    HW1 5423   6.637   1.534   2.240
 1508SOL    HW2 5424   6.565   1.621   2.358
 1509SOL     OW 5425   4.069   1.586   5.779
 1509SOL    HW1 5426   3.973   1.594   5.807
 1509SOL    HW2 5427   4.081   1.502   5.727
 1510SOL     OW 5428   5.302   1.998   4.875
 1510SOL    HW1 5429   5.257   1.911   4.895
 1510SOL    HW2 5430   5.252   2.073   4.919
 1511SOL     OW 5431   3.868   2.978   3.059
 1511SOL    HW1 5432   3.913   3.056   3.015
 1511SOL    HW2 5433   3.921   2.951   3.140
 1512SOL     OW 5434   0.461   5.035   1.119
 1512SOL    HW1 5435   0.411   4.992   1.044
 1512SOL    HW2 5436   0.557   5.042   1.096
 1513SOL     OW 5437   3.841   0.909   4.592
 1513SOL    HW1 5438   3.843   0.827   4.649
 1513SOL    HW2 5439   3.754   0.913   4.542
 1514SOL     OW 5440   3.980   2.195   5.630
 1514SOL    HW1 5441   3.975   2.274   5.690
 1514SOL    HW2 5442   4.075   2.164   5.623
 1515SOL     OW 5443   6.112   2.041   2.935
 1515SOL    HW1 5444   6.150   1.949   2.925
 1515SOL    HW2 5445   6.087   2.077   2.845
 1516SOL     OW 5446   6.676   6.574   7.013
 1516SOL    HW1 5447   6.605   6.569   0.061
 1516SOL    HW2 5448   6.700   6.669   6.997
 1517SOL     OW 5449   4.710   6.127   3.085
 1517SOL    HW1 5450   4.680   6.047   3.138
 1517SOL    HW2 5451   4.634   6.160   3.028
 1518SOL     OW 5452   1.678   2.584   6.802
 1518SOL    HW1 5453   1.746   2.578   6.729
 1518SOL    HW2 5454   1.722   2.570   6.891
 1519SOL     OW 5455   6.915   5.298   1.299
 1519SOL    HW1 5456   6.917   5.360   1.220
 1519SOL    HW2 5457   6.899   5.351   1.382
 1520SOL     OW 5458   0.446   4.085   1.930
 1520SOL    HW1 5459   0.540   4.051   1.938
 1520SOL    HW2 5460   0.389   4.042   2.000
 1521SOL     OW 5461   1.649   4.014   6.160
 1521SOL    HW1 5462   1.714   3.953   6.115
 1521SOL    HW2 5463   1.654   4.001   6.259
 1522SOL     OW 5464   5.755   6.310   5.515
 1522SOL    HW1 5465   5.680   6.244   5.506
 1522SOL    HW2 5466   5.799   6.323   5.426
 1523SOL     OW 5467   5.099   6.226   0.951
 1523SOL    HW1 5468   5.148   6.247   0.867
 1523SOL    HW2 5469   5.031   6.154   0.933
 1524SOL     OW 5470   2.307   2.165   2.080
 1524SOL    HW1 5471   2.364   2.180   2.000
 1524SOL    HW2 5472   2.354   2.199   2.162
 1525SOL     OW 5473   0.134   2.605   0.554
 1525SOL    HW1 5474   0.059   2.547   0.587
 1525SOL    HW2 5475   0.185   2.556   0.484
 1526SOL     OW 5476   6.410   0.048   6.522
 1526SOL    HW1 5477   6.509   0.033   6.524
 1526SOL    HW2 5478   6.391   0.145   6.539
 1527SOL     OW 5479   4.332   0.673   5.219
 1527SOL    HW1 5480   4.346   0.765   5.257
 1527SOL    HW2 5481   4.243   0.669   5.174
 1528SOL     OW 5482   4.655   5.325   2.422
 1528SOL    HW1 5483   4.668   5.339   2.520
 1528SOL    HW2 5484   4.690   5.404   2.372
 1529SOL     OW 5485   3.852   0.835   6.972
 1529SOL    HW1 5486   3.941   0.796   6.996
 1529SOL    HW2 5487   3.829   0.907   0.014
 1530SOL     OW 5488   3.207   2.148   1.767
 1530SOL    HW1 5489   3.277   2.141   1.839
 1530SOL    HW2 5490   3.177   2.056   1.741
 1531SOL     OW 5491   4.492   0.658   5.525
 1531SOL    HW1 5492   4.549   0.636   5.604
 1531SOL    HW2 5493   4.532   0.616   5.443
 1532SOL     OW 5494   3.285   3.209   6.701
 1532SOL    HW1 5495   3.325   3.152   6.773
 1532SOL    HW2 5496   3.282   3.304   6.731
 1533SOL     OW 5497   5.320   4.356   6.665
 1533SOL    HW1 5498   5.411   4.315   6.666
 1533SOL    HW2 5499   5.251   4.286   6.684
 1534SOL     OW 5500   2.306   4.732   6.339
 1534SOL    HW1 5501   2.253   4.812   6.367
 1534SOL    HW2 5502   2.271   4.650   6.384
 1535SOL     OW 5503   4.736   6.465   4.320
 1535SOL    HW1 5504   4.763   6.432   4.230
 1535SOL    HW2 5505   4.817   6.473   4.378
 1536SOL     OW 5506   3.782   4.780   5.451
 1536SOL    HW1 5507   3.791   4.809   5.546
 1536SOL    HW2 5508   3.766   4.681   5.447
 1537SOL     OW 5509   4.877   6.334   3.185
 1537SOL    HW1 5510   4.816   6.263   3.151
 1537SOL    HW2 5511   4.850   6.359   3.278
 1538SOL     OW 5512   4.024   5.706   6.348
 1538SOL    HW1 5513   4.089   5.630   6.355
 1538SOL    HW2 5514   4.047   5.775   6.416
 1539SOL     OW 5515   4.707   3.887   1.348
 1539SOL    HW1 5516   4.681   3.801   1.392
 1539SOL    HW2 5517   4.755   3.868   1.263
 1540SOL     OW 5518   1.375   6.148   6.152
 1540SOL    HW1 5519   1.381   6.052   6.122
 1540SOL    HW2 5520   1.441   6.203   6.100
 1541SOL     OW 5521   3.747   3.009   3.405
 1541SOL    HW1 5522   3.838   3.037   3.374
 1541SOL    HW2 5523   3.699   2.964   3.329
 1542SOL     OW 5524   5.354   6.123   2.325
 1542SOL    HW1 5525   5.305   6.136   2.411
 1542SOL    HW2 5526   5.319   6.186   2.257
 1543SOL     OW 5527   3.539   4.873   5.334
 1543SOL    HW1 5528   3.615   4.829   5.381
 1543SOL    HW2 5529   3.545   4.972   5.348
 1544SOL     OW 5530   3.242   3.294   2.984
 1544SOL    HW1 5531   3.207   3.367   2.925
 1544SOL    HW2 5532   3.332   3.266   2.951
 1545SOL     OW 5533   5.036   0.878   3.859
 1545SOL    HW1 5534   4.946   0.906   3.893
 1545SOL    HW2 5535   5.029   0.788   3.816
 1546SOL     OW 5536   4.119   6.463   5.905
 1546SOL    HW1 5537   4.180   6.506   5.972
 1546SOL    HW2 5538   4.033   6.514   5.901
 1547SOL     OW 5539   1.780   3.277   2.708
 1547SOL    HW1 5540   1.683   3.298   2.713
 1547SOL    HW2 5541   1.797   3.187   2.748
 1548SOL     OW 5542   5.399   3.730   5.630
 1548SOL    HW1 5543   5.434   3.738   5.723
 1548SOL    HW2 5544   5.443   3.799   5.572
 1549SOL     OW 5545   4.572   1.294   2.410
 1549SOL    HW1 5546   4.653   1.314   2.464
 1549SOL    HW2 5547   4.494   1.278   2.470
 1550SOL     OW 5548   3.321   3.731   6.889
 1550SOL    HW1 5549   3.318   3.810   6.829
 1550SOL    HW2 5550   3.320   3.761   6.985
 1551SOL     OW 5551   1.772   4.806   6.302
 1551SOL    HW1 5552   1.690   4.790   6.247
 1551SOL    HW2 5553   1.848   4.831   6.241
 1552SOL     OW 5554   0.417   5.472   6.977
 1552SOL    HW1 5555   0.327   5.492   7.016
 1552SOL    HW2 5556   0.455   5.554   6.935
 1553SOL     OW 5557   0.256   1.574   5.387
 1553SOL    HW1 5558   0.175   1.518   5.401
 1553SOL    HW2 5559   0.338   1.518   5.399
 1554SOL     OW 5560   3.972   2.037   3.106
 1554SOL    HW1 5561   3.912   1.959   3.089
 1554SOL    HW2 5562   4.067   2.011   3.090
 1555SOL     OW 5563   5.007   2.571   0.119
 1555SOL    HW1 5564   5.066   2.550   0.198
 1555SOL    HW2 5565   5.061   2.617   0.049
 1556SOL     OW 5566   3.567   0.904   0.773
 1556SOL    HW1 5567   3.542   0.858   0.688
 1556SOL    HW2 5568   3.547   1.002   0.765
 1557SOL     OW 5569   2.349   1.259   6.278
 1557SOL    HW1 5570   2.379   1.304   6.194
 1557SOL    HW2 5571   2.254   1.231   6.270
 1558SOL     OW 5572   4.922   0.573   4.566
 1558SOL    HW1 5573   5.005   0.601   4.517
 1558SOL    HW2 5574   4.936   0.482   4.605
 1559SOL     OW 5575   0.538   2.700   0.036
 1559SOL    HW1 5576   0.528   2.666   6.966
 1559SOL    HW2 5577   0.581   2.629   0.092
 1560SOL     OW 5578   1.643   1.282   5.904
 1560SOL    HW1 5579   1.685   1.371   5.920
 1560SOL    HW2 5580   1.573   1.291   5.834
 1561SOL     OW 5581   6.038   6.474   4.167
 1561SOL    HW1 5582   5.948   6.464   4.209
 1561SOL    HW2 5583   6.060   6.391   4.115
 1562SOL     OW 5584   3.773   6.187   2.909
 1562SOL    HW1 5585   3.847   6.152   2.966
 1562SOL    HW2 5586   3.796   6.173   2.812
 1563SOL     OW 5587   1.977   0.737   6.253
 1563SOL    HW1 5588   1.952   0.832   6.232
 1563SOL    HW2 5589   2.067   0.717   6.213
 1564SOL     OW 5590   1.176   3.070   3.133
 1564SOL    HW1 5591   1.228   3.113   3.059
 1564SOL    HW2 5592   1.138   3.141   3.193
 1565SOL     OW 5593   4.527   4.894   4.781
 1565SOL    HW1 5594   4.553   4.902   4.685
 1565SOL    HW2 5595   4.427   4.897   4.789
 1566SOL     OW 5596   4.940   4.679   3.492
 1566SOL    HW1 5597   4.924   4.665   3.394
 1566SOL    HW2 5598   4.898   4.765   3.520
 1567SOL     OW 5599   5.667   5.210   0.075
 1567SOL    HW1 5600   5.697   5.119   0.049
 1567SOL    HW2 5601   5.722   5.243   0.153
 1568SOL     OW 5602   1.514   5.969   1.343
 1568SOL    HW1 5603   1.460   5.885   1.342
 1568SOL    HW2 5604   1.483   6.030   1.270
 1569SOL     OW 5605   4.169   6.547   3.719
 1569SOL    HW1 5606   4.228   6.510   3.791
 1569SOL    HW2 5607   4.074   6.525   3.739
 1570SOL     OW 5608   1.785   6.852   0.471
 1570SOL    HW1 5609   1.764   6.793   0.548
 1570SOL    HW2 5610   1.872   6.825   0.430
 1571SOL     OW 5611   5.596   1.629   1.838
 1571SOL    HW1 5612   5.625   1.534   1.841
 1571SOL    HW2 5613   5.639   1.680   1.912
 1572SOL     OW 5614   0.445   6.816   0.469
 1572SOL    HW1 5615   0.364   6.869   0.443
 1572SOL    HW2 5616   0.522   6.843   0.412
 1573SOL     OW 5617   5.878   3.916   1.893
 1573SOL    HW1 5618   5.871   3.816   1.896
 1573SOL    HW2 5619   5.870   3.953   1.985
 1574SOL     OW 5620   0.175   0.909   2.605
 1574SOL    HW1 5621   0.111   0.833   2.602
 1574SOL    HW2 5622   0.129   0.993   2.576
 1575SOL     OW 5623   3.162   1.596   0.676
 1575SOL    HW1 5624   3.201   1.605   0.584
 1575SOL    HW2 5625   3.191   1.674   0.732
 1576SOL     OW 5626   1.399   0.450   3.110
 1576SOL    HW1 5627   1.307   0.422   3.135
 1576SOL    HW2 5628   1.455   0.461   3.193
 1577SOL     OW 5629   2.737   0.930   5.093
 1577SOL    HW1 5630   2.691   0.940   5.004
 1577SOL    HW2 5631   2.801   0.854   5.089
 1578SOL     OW 5632   6.049   2.798   5.634
 1578SOL    HW1 5633   6.085   2.709   5.660
 1578SOL    HW2 5634   6.040   2.802   5.535
 1579SOL     OW 5635   0.697   1.794   2.329
 1579SOL    HW1 5636   0.606   1.774   2.293
 1579SOL    HW2 5637   0.741   1.709   2.357
 1580SOL     OW 5638   3.063   3.720   4.564
 1580SOL    HW1 5639   3.008   3.753   4.487
 1580SOL    HW2 5640   3.008   3.661   4.622
 1581SOL     OW 5641   0.497   3.884   4.502
 1581SOL    HW1 5642   0.593   3.871   4.527
 1581SOL    HW2 5643   0.456   3.795   4.482
 1582SOL     OW 5644   1.818   0.180   3.889
 1582SOL    HW1 5645   1.874   0.216   3.814
 1582SOL    HW2 5646   1.762   0.253   3.927
 1583SOL     OW 5647   1.022   4.624   3.337
 1583SOL    HW1 5648   1.120   4.610   3.323
 1583SOL    HW2 5649   0.972   4.591   3.257
 1584SOL     OW 5650   1.542   6.432   5.708
 1584SOL    HW1 5651   1.592   6.439   5.622
 1584SOL    HW2 5652   1.470   6.501   5.710
 1585SOL     OW 5653   5.731   1.311   3.632
 1585SOL    HW1 5654   5.636   1.341   3.623
 1585SOL    HW2 5655   5.774   1.357   3.709
 1586SOL     OW 5656   3.388   4.941   2.124
 1586SOL    HW1 5657   3.441   5.022   2.100
 1586SOL    HW2 5658   3.432   4.860   2.087
 1587SOL     OW 5659   3.438   5.424   6.124
 1587SOL    HW1 5660   3.498   5.442   6.201
 1587SOL    HW2 5661   3.435   5.326   6.106
 1588SOL     OW 5662   4.335   1.512   3.125
 1588SOL    HW1 5663   4.368   1.420   3.143
 1588SOL    HW2 5664   4.287   1.514   3.038
 1589SOL     OW 5665   5.864   3.469   1.482
 1589SOL    HW1 5666   5.798   3.433   1.416
 1589SOL    HW2 5667   5.956   3.437   1.459
 1590SOL     OW 5668   3.470   5.891   6.182
 1590SOL    HW1 5669   3.445   5.827   6.109
 1590SOL    HW2 5670   3.416   5.872   6.263
 1591SOL     OW 5671   6.344   5.002   2.621
 1591SOL    HW1 5672   6.351   4.987   2.523
 1591SOL    HW2 5673   6.434   4.991   2.663
 1592SOL     OW 5674   2.075   4.573   6.958
 1592SOL    HW1 5675   2.113   4.663   6.938
 1592SOL    HW2 5676   2.064   4.521   6.874
 1593SOL     OW 5677   1.458   6.319   4.509
 1593SOL    HW1 5678   1.408   6.371   4.440
 1593SOL    HW2 5679   1.473   6.226   4.475
 1594SOL     OW 5680   0.295   5.989   2.226
 1594SOL    HW1 5681   0.331   5.961   2.137
 1594SOL    HW2 5682   0.338   6.075   2.253
 1595SOL     OW 5683   1.529   5.611   0.673
 1595SOL    HW1 5684   1.576   5.531   0.710
 1595SOL    HW2 5685   1.439   5.584   0.638
 1596SOL     OW 5686   0.410   2.469   3.578
 1596SOL    HW1 5687   0.507   2.492   3.576
 1596SOL    HW2 5688   0.361   2.540   3.629
 1597SOL     OW 5689   1.765   6.880   6.852
 1597SOL    HW1 5690   1.796   6.879   6.757
 1597SOL    HW2 5691   1.682   6.824   6.860
 1598SOL     OW 5692   1.160   4.105   6.584
 1598SOL    HW1 5693   1.244   4.112   6.530
 1598SOL    HW2 5694   1.088   4.065   6.528
 1599SOL     OW 5695   4.741   4.648   5.648
 1599SOL    HW1 5696   4.784   4.598   5.573
 1599SOL    HW2 5697   4.721   4.584   5.723
 1600SOL     OW 5698   4.663   1.703   4.146
 1600SOL    HW1 5699   4.644   1.605   4.144
 1600SOL    HW2 5700   4.622   1.744   4.227
 1601SOL     OW 5701   0.414   4.225   4.877
 1601SOL    HW1 5702   0.351   4.186   4.809
 1601SOL    HW2 5703   0.404   4.324   4.879
 1602SOL     OW 5704   2.756   5.105   3.435
 1602SOL    HW1 5705   2.807   5.023   3.409
 1602SOL    HW2 5706   2.819   5.175   3.468
 1603SOL     OW 5707   0.329   5.905   2.478
 1603SOL    HW1 5708   0.296   5.967   2.549
 1603SOL    HW2 5709   0.317   5.947   2.388
 1604SOL     OW 5710   6.037   5.157   1.621
 1604SOL    HW1 5711   5.985   5.087   1.572
 1604SOL    HW2 5712   6.093   5.113   1.692
 1605SOL     OW 5713   6.756   6.127   1.498
 1605SOL    HW1 5714   6.661   6.097   1.509
 1605SOL    HW2 5715   6.812   6.087   1.570
 1606SOL     OW 5716   3.291   1.127   5.256
 1606SOL    HW1 5717   3.387   1.154   5.255
 1606SOL    HW2 5718   3.259   1.115   5.162
 1607SOL     OW 5719   4.250   1.345   1.295
 1607SOL    HW1 5720   4.312   1.336   1.372
 1607SOL    HW2 5721   4.199   1.259   1.283
 1608SOL     OW 5722   1.038   0.456   3.906
 1608SOL    HW1 5723   1.039   0.531   3.972
 1608SOL    HW2 5724   0.945   0.421   3.896
 1609SOL     OW 5725   3.528   0.260   0.884
 1609SOL    HW1 5726   3.510   0.163   0.865
 1609SOL    HW2 5727   3.441   0.309   0.891
 1610SOL     OW 5728   5.589   4.518   6.904
 1610SOL    HW1 5729   5.524   4.446   6.930
 1610SOL    HW2 5730   5.586   4.532   6.805
 1611SOL     OW 5731   2.440   3.866   1.350
 1611SOL    HW1 5732   2.365   3.854   1.414
 1611SOL    HW2 5733   2.519   3.813   1.381
 1612SOL     OW 5734   2.793   0.727   5.366
 1612SOL    HW1 5735   2.717   0.792   5.358
 1612SOL    HW2 5736   2.848   0.729   5.282
 1613SOL     OW 5737   1.919   5.261   1.986
 1613SOL    HW1 5738   1.885   5.318   1.910
 1613SOL    HW2 5739   1.861   5.276   2.066
 1614SOL     OW 5740   5.985   3.471   6.824
 1614SOL    HW1 5741   6.042   3.447   6.903
 1614SOL    HW2 5742   5.955   3.566   6.833
 1615SOL     OW 5743   6.379   4.841   1.092
 1615SOL    HW1 5744   6.366   4.896   1.009
 1615SOL    HW2 5745   6.325   4.880   1.167
 1616SOL     OW 5746   3.441   1.700   4.778
 1616SOL    HW1 5747   3.468   1.795   4.791
 1616SOL    HW2 5748   3.341   1.693   4.781
 1617SOL     OW 5749   5.969   0.662   2.636
 1617SOL    HW1 5750   6.000   0.571   2.612
 1617SOL    HW2 5751   5.927   0.661   2.727
 1618SOL     OW 5752   1.909   4.145   1.875
 1618SOL    HW1 5753   1.904   4.221   1.810
 1618SOL    HW2 5754   1.839   4.077   1.851
 1619SOL     OW 5755   0.981   2.996   2.360
 1619SOL    HW1 5756   1.025   3.038   2.438
 1619SOL    HW2 5757   1.045   2.936   2.313
 1620SOL     OW 5758   2.665   5.096   1.751
 1620SOL    HW1 5759   2.616   5.088   1.838
 1620SOL    HW2 5760   2.606   5.066   1.676
 1621SOL     OW 5761   0.644   1.073   0.021
 1621SOL    HW1 5762   0.706   0.999   7.020
 1621SOL    HW2 5763   0.596   1.049   0.106
 1622SOL     OW 5764   0.622   2.670   4.771
 1622SOL    HW1 5765   0.649   2.717   4.854
 1622SOL    HW2 5766   0.584   2.580   4.795
 1623SOL     OW 5767   2.052   3.445   5.455
 1623SOL    HW1 5768   2.005   3.378   5.397
 1623SOL    HW2 5769   2.124   3.489   5.402
 1624SOL     OW 5770   2.797   0.723   4.858
 1624SOL    HW1 5771   2.738   0.794   4.820
 1624SOL    HW2 5772   2.881   0.717   4.804
 1625SOL     OW 5773   1.073   5.471   1.647
 1625SOL    HW1 5774   1.047   5.419   1.729
 1625SOL    HW2 5775   1.058   5.415   1.566
 1626SOL     OW 5776   3.867   1.798   6.279
 1626SOL    HW1 5777   3.901   1.771   6.369
 1626SOL    HW2 5778   3.792   1.863   6.290
 1627SOL     OW 5779   6.885   2.903   4.101
 1627SOL    HW1 5780   6.951   2.978   4.099
 1627SOL    HW2 5781   6.933   2.816   4.088
 1628SOL     OW 5782   4.481   4.889   0.699
 1628SOL    HW1 5783   4.431   4.951   0.638
 1628SOL    HW2 5784   4.438   4.799   0.698
 1629SOL     OW 5785   2.976   1.080   3.881
 1629SOL    HW1 5786   3.021   1.134   3.810
 1629SOL    HW2 5787   2.987   0.983   3.861
 1630SOL     OW 5788   1.634   5.871   5.958
 1630SOL    HW1 5789   1.660   5.811   6.033
 1630SOL    HW2 5790   1.547   5.840   5.919
 1631SOL     OW 5791   0.293   2.530   6.410
 1631SOL    HW1 5792   0.244   2.560   6.491
 1631SOL    HW2 5793   0.391   2.544   6.423
 1632SOL     OW 5794   6.816   1.850   6.915
 1632SOL    HW1 5795   6.848   1.930   6.863
 1632SOL    HW2 5796   6.725   1.868   6.952
 1633SOL     OW 5797   5.138   2.876   4.594
 1633SOL    HW1 5798   5.217   2.816   4.606
 1633SOL    HW2 5799   5.168   2.971   4.603
 1634SOL     OW 5800   4.220   5.005   6.278
 1634SOL    HW1 5801   4.155   5.071   6.317
 1634SOL    HW2 5802   4.173   4.950   6.209
 1635SOL     OW 5803   6.995   5.879   5.939
 1635SOL    HW1 5804   0.017   5.949   5.995
 1635SOL    HW2 5805   6.919   5.839   5.991
 1636SOL     OW 5806   2.933   4.269   1.681
 1636SOL    HW1 5807   2.947   4.349   1.739
 1636SOL    HW2 5808   2.858   4.287   1.617
 1637SOL     OW 5809   0.729   0.079   2.920
 1637SOL    HW1 5810   0.740   0.084   2.821
 1637SOL    HW2 5811   0.693   0.166   2.954
 1638SOL     OW 5812   0.186   4.313   3.661
 1638SOL    HW1 5813   0.100   4.365   3.656
 1638SOL    HW2 5814   0.199   4.262   3.577
 1639SOL     OW 5815   4.968   6.539   2.913
 1639SOL    HW1 5816   4.985   6.459   2.854
 1639SOL    HW2 5817   5.035   6.539   2.987
 1640SOL     OW 5818   6.245   1.424   0.760
 1640SOL    HW1 5819   6.318   1.489   0.741
 1640SOL    HW2 5820   6.163   1.473   0.788
 1641SOL     OW 5821   4.920   2.490   4.328
 1641SOL    HW1 5822   4.978   2.430   4.384
 1641SOL    HW2 5823   4.894   2.441   4.244
 1642SOL     OW 5824   5.912   3.748   6.850
 1642SOL    HW1 5825   5.883   3.837   6.815
 1642SOL    HW2 5826   5.958   3.759   6.937
 1643SOL     OW 5827   2.674   5.251   4.149
 1643SOL    HW1 5828   2.660   5.350   4.144
 1643SOL    HW2 5829   2.638   5.217   4.236
 1644SOL     OW 5830   0.075   2.838   1.161
 1644SOL    HW1 5831   0.095   2.768   1.093
 1644SOL    HW2 5832   0.091   2.801   1.253
 1645SOL     OW 5833   3.255   5.892   5.966
 1645SOL    HW1 5834   3.209   5.878   5.878
 1645SOL    HW2 5835   3.255   5.806   6.018
 1646SOL     OW 5836   2.975   6.051   0.500
 1646SOL    HW1 5837   2.881   6.024   0.523
 1646SOL    HW2 5838   2.990   6.146   0.527
 1647SOL     OW 5839   6.357   2.833   5.048
 1647SOL    HW1 5840   6.287   2.796   4.986
 1647SOL    HW2 5841   6.386   2.922   5.015
 1648SOL     OW 5842   6.001   5.484   0.908
 1648SOL    HW1 5843   6.015   5.474   1.006
 1648SOL    HW2 5844   6.070   5.547   0.871
 1649SOL     OW 5845   3.519   0.043   4.785
 1649SOL    HW1 5846   3.430   0.002   4.803
 1649SOL    HW2 5847   3.519   0.085   4.694
 1650SOL     OW 5848   2.099   5.966   5.443
 1650SOL    HW1 5849   2.063   5.949   5.534
 1650SOL    HW2 5850   2.119   5.878   5.398
 1651SOL     OW 5851   0.508   1.512   1.030
 1651SOL    HW1 5852   0.591   1.475   0.988
 1651SOL    HW2 5853   0.525   1.531   1.127
 1652SOL     OW 5854   0.922   3.403   2.386
 1652SOL    HW1 5855   1.005   3.399   2.442
 1652SOL    HW2 5856   0.844   3.427   2.444
 1653SOL     OW 5857   0.964   0.082   1.279
 1653SOL    HW1 5858   0.951   0.047   1.187
 1653SOL    HW2 5859   0.889   0.145   1.302
 1654SOL     OW 5860   6.487   3.285   1.612
 1654SOL    HW1 5861   6.547   3.279   1.692
 1654SOL    HW2 5862   6.406   3.338   1.636
 1655SOL     OW 5863   6.696   2.437   5.237
 1655SOL    HW1 5864   6.708   2.491   5.320
 1655SOL    HW2 5865   6.629   2.481   5.177
 1656SOL     OW 5866   2.422   4.994   1.947
 1656SOL    HW1 5867   2.337   5.047   1.956
 1656SOL    HW2 5868   2.400   4.900   1.921
 1657SOL     OW 5869   6.717   0.619   3.857
 1657SOL    HW1 5870   6.640   0.667   3.815
 1657SOL    HW2 5871   6.683   0.545   3.915
 1658SOL     OW 5872   0.867   0.065   0.983
 1658SOL    HW1 5873   0.875   7.012   0.919
 1658SOL    HW2 5874   0.953   0.116   0.984
 1659SOL     OW 5875   3.555   0.796   6.254
 1659SOL    HW1 5876   3.533   0.699   6.261
 1659SOL    HW2 5877   3.627   0.819   6.319
 1660SOL     OW 5878   0.885   5.155   3.878
 1660SOL    HW1 5879   0.894   5.246   3.919
 1660SOL    HW2 5880   0.975   5.122   3.848
 1661SOL     OW 5881   3.101   1.358   1.752
 1661SOL    HW1 5882   3.154   1.290   1.803
 1661SOL    HW2 5883   3.011   1.367   1.793
 1662SOL     OW 5884   6.537   6.814   3.733
 1662SOL    HW1 5885   6.530   6.906   3.771
 1662SOL    HW2 5886   6.632   6.796   3.706
 1663SOL     OW 5887   4.319   6.801   2.914
 1663SOL    HW1 5888   4.308   6.842   3.005
 1663SOL    HW2 5889   4.238   6.748   2.891
 1664SOL     OW 5890   2.140   6.275   4.666
 1664SOL    HW1 5891   2.114   6.331   4.744
 1664SOL    HW2 5892   2.214   6.320   4.615
 1665SOL     OW 5893   0.469   1.454   3.281
 1665SOL    HW1 5894   0.561   1.479   3.252
 1665SOL    HW2 5895   0.463   1.355   3.290
 1666SOL     OW 5896   5.427   3.273   0.169
 1666SOL    HW1 5897   5.454   3.337   0.241
 1666SOL    HW2 5898   5.373   3.322   0.100
 1667SOL     OW 5899   6.711   6.624   1.430
 1667SOL    HW1 5900   6.764   6.696   1.475
 1667SOL    HW2 5901   6.652   6.664   1.360
 1668SOL     OW 5902   5.301   6.323   5.446
 1668SOL    HW1 5903   5.317   6.345   5.542
 1668SOL    HW2 5904   5.222   6.263   5.437
 1669SOL     OW 5905   0.085   5.625   6.259
 1669SOL    HW1 5906   0.169   5.588   6.300
 1669SOL    HW2 5907   0.109   5.688   6.185
 1670SOL     OW 5908   0.423   4.217   6.159
 1670SOL    HW1 5909   0.440   4.132   6.108
 1670SOL    HW2 5910   0.374   4.281   6.100
 1671SOL     OW 5911   4.913   2.265   0.947
 1671SOL    HW1 5912   4.840   2.303   0.891
 1671SOL    HW2 5913   4.951   2.337   1.005
 1672SOL     OW 5914   1.620   2.919   1.165
 1672SOL    HW1 5915   1.679   2.844   1.197
 1672SOL    HW2 5916   1.529   2.884   1.146
 1673SOL     OW 5917   0.029   2.429   3.796
 1673SOL    HW1 5918   0.115   2.479   3.801
 1673SOL    HW2 5919   6.995   2.468   3.723
 1674SOL     OW 5920   0.449   4.265   2.432
 1674SOL    HW1 5921   0.470   4.183   2.378
 1674SOL    HW2 5922   0.375   4.315   2.388
 1675SOL     OW 5923   4.247   0.824   6.118
 1675SOL    HW1 5924   4.346   0.839   6.111
 1675SOL    HW2 5925   4.216   0.771   6.040
 1676SOL     OW 5926   1.790   1.789   2.111
 1676SOL    HW1 5927   1.830   1.777   2.020
 1676SOL    HW2 5928   1.750   1.703   2.142
 1677SOL     OW 5929   3.671   2.950   5.172
 1677SOL    HW1 5930   3.723   2.920   5.091
 1677SOL    HW2 5931   3.730   2.943   5.253
 1678SOL     OW 5932   4.713   5.004   4.954
 1678SOL    HW1 5933   4.644   4.967   4.892
 1678SOL    HW2 5934   4.702   5.103   4.962
 1679SOL     OW 5935   2.150   2.841   5.039
 1679SOL    HW1 5936   2.210   2.920   5.026
 1679SOL    HW2 5937   2.093   2.856   5.120
 1680SOL     OW 5938   0.734   3.048   4.596
 1680SOL    HW1 5939   0.792   3.130   4.604
 1680SOL    HW2 5940   0.788   2.967   4.616
 1681SOL     OW 5941   6.430   5.542   0.122
 1681SOL    HW1 5942   6.388   5.532   0.212
 1681SOL    HW2 5943   6.497   5.617   0.125
 1682SOL     OW 5944   0.198   1.660   4.913
 1682SOL    HW1 5945   0.127   1.590   4.917
 1682SOL    HW2 5946   0.288   1.616   4.916
 1683SOL     OW 5947   4.407   5.492   0.902
 1683SOL    HW1 5948   4.436   5.513   0.809
 1683SOL    HW2 5949   4.340   5.418   0.900
 1684SOL     OW 5950   1.487   6.392   2.645
 1684SOL    HW1 5951   1.396   6.426   2.622
 1684SOL    HW2 5952   1.546   6.398   2.565
 1685SOL     OW 5953   2.272   1.333   5.816
 1685SOL    HW1 5954   2.249   1.355   5.911
 1685SOL    HW2 5955   2.355   1.384   5.790
 1686SOL     OW 5956   2.648   5.124   4.895
 1686SOL    HW1 5957   2.691   5.035   4.910
 1686SOL    HW2 5958   2.646   5.175   4.980
 1687SOL     OW 5959   2.470   3.359   0.972
 1687SOL    HW1 5960   2.510   3.376   1.062
 1687SOL    HW2 5961   2.436   3.265   0.968
 1688SOL     OW 5962   1.886   2.341   4.345
 1688SOL    HW1 5963   1.960   2.274   4.345
 1688SOL    HW2 5964   1.824   2.323   4.268
 1689SOL     OW 5965   5.213   0.705   2.046
 1689SOL    HW1 5966   5.244   0.799   2.037
 1689SOL    HW2 5967   5.116   0.699   2.023
 1690SOL     OW 5968   1.339   2.459   3.688
 1690SOL    HW1 5969   1.383   2.445   3.600
 1690SOL    HW2 5970   1.321   2.370   3.731
 1691SOL     OW 5971   5.856   4.130   3.189
 1691SOL    HW1 5972   5.875   4.152   3.285
 1691SOL    HW2 5973   5.800   4.202   3.149
 1692SOL     OW 5974   5.722   0.579   1.721
 1692SOL    HW1 5975   5.719   0.605   1.818
 1692SOL    HW2 5976   5.765   0.652   1.668
 1693SOL     OW 5977   0.393   2.463   2.083
 1693SOL    HW1 5978   0.342   2.540   2.044
 1693SOL    HW2 5979   0.432   2.490   2.171
 1694SOL     OW 5980   5.324   0.569   3.632
 1694SOL    HW1 5981   5.318   0.551   3.731
 1694SOL    HW2 5982   5.414   0.542   3.598
 1695SOL     OW 5983   3.078   1.536   6.255
 1695SOL    HW1 5984   3.029   1.457   6.218
 1695SOL    HW2 5985   3.155   1.505   6.311
 1696SOL     OW 5986   5.144   4.437   0.551
 1696SOL    HW1 5987   5.085   4.362   0.521
 1696SOL    HW2 5988   5.089   4.519   0.568
 1697SOL     OW 5989   5.317   6.623   1.694
 1697SOL    HW1 5990   5.404   6.623   1.645
 1697SOL    HW2 5991   5.247   6.580   1.636
 1698SOL     OW 5992   4.564   0.845   0.117
 1698SOL    HW1 5993   4.519   0.823   0.030
 1698SOL    HW2 5994   4.613   0.765   0.150
 1699SOL     OW 5995   2.728   1.304   0.710
 1699SOL    HW1 5996   2.734   1.226   0.647
 1699SOL    HW2 5997   2.722   1.389   0.657
 1700SOL     OW 5998   5.422   2.046   3.337
 1700SOL    HW1 5999   5.503   2.101   3.318
 1700SOL    HW2 6000   5.415   1.972   3.269
 1701SOL     OW 6001   5.598   4.793   5.448
 1701SOL    HW1 6002   5.619   4.708   5.400
 1701SOL    HW2 6003   5.673   4.858   5.436
 1702SOL     OW 6004   6.828   2.840   0.314
 1702SOL    HW1 6005   6.826   2.805   0.221
 1702SOL    HW2 6006   6.923   2.844   0.346
 1703SOL     OW 6007   3.483   3.113   2.224
 1703SOL    HW1 6008   3.405   3.137   2.282
 1703SOL    HW2 6009   3.457   3.037   2.164
 1704SOL     OW 6010   0.824   2.210   1.811
 1704SOL    HW1 6011   0.853   2.271   1.737
 1704SOL    HW2 6012   0.847   2.115   1.788
 1705SOL     OW 6013   3.666   2.088   1.370
 1705SOL    HW1 6014   3.620   2.064   1.456
 1705SOL    HW2 6015   3.745   2.029   1.357
 1706SOL     OW 6016   4.928   0.974   1.422
 1706SOL    HW1 6017   4.985   0.987   1.503
 1706SOL    HW2 6018   4.976   0.916   1.356
 1707SOL     OW 6019   4.863   1.780   2.452
 1707SOL    HW1 6020   4.886   1.701   2.510
 1707SOL    HW2 6021   4.808   1.844   2.505
 1708SOL     OW 6022   4.823   5.063   2.443
 1708SOL    HW1 6023   4.872   5.137   2.396
 1708SOL    HW2 6024   4.738   5.043   2.394
 1709SOL     OW 6025   2.649   5.636   1.261
 1709SOL    HW1 6026   2.573   5.675   1.314
 1709SOL    HW2 6027   2.722   5.609   1.324
 1710SOL     OW 6028   5.779   4.848   3.922
 1710SOL    HW1 6029   5.860   4.796   3.893
 1710SOL    HW2 6030   5.697   4.809   3.879
 1711SOL     OW 6031   1.194   4.927   4.304
 1711SOL    HW1 6032   1.146   4.873   4.374
 1711SOL    HW2 6033   1.128   4.962   4.238
 1712SOL     OW 6034   0.265   3.102   6.058
 1712SOL    HW1 6035   0.282   3.082   5.961
 1712SOL    HW2 6036   0.212   3.187   6.065
 1713SOL     OW 6037   3.987   2.143   1.642
 1713SOL    HW1 6038   3.944   2.233   1.632
 1713SOL    HW2 6039   3.941   2.093   1.715
 1714SOL     OW 6040   4.321   1.716   5.387
 1714SOL    HW1 6041   4.251   1.736   5.455
 1714SOL    HW2 6042   4.411   1.727   5.429
 1715SOL     OW 6043   7.000   4.478   2.539
 1715SOL    HW1 6044   0.066   4.482   2.494
 1715SOL    HW2 6045   6.999   4.540   2.618
 1716SOL     OW 6046   4.616   6.857   2.936
 1716SOL    HW1 6047   4.527   6.811   2.938
 1716SOL    HW2 6048   4.621   6.918   2.857
 1717SOL     OW 6049   2.448   6.019   6.219
 1717SOL    HW1 6050   2.383   5.972   6.160
 1717SOL    HW2 6051   2.532   6.038   6.169
 1718SOL     OW 6052   2.043   2.181   2.088
 1718SOL    HW1 6053   2.018   2.135   2.173
 1718SOL    HW2 6054   2.141   2.168   2.071
 1719SOL     OW 6055   1.867   4.126   0.772
 1719SOL    HW1 6056   1.917   4.195   0.824
 1719SOL    HW2 6057   1.892   4.035   0.805
 1720SOL     OW 6058   0.775   2.551   0.278
 1720SOL    HW1 6059   0.703   2.531   0.212
 1720SOL    HW2 6060   0.863   2.518   0.243
 1721SOL     OW 6061   1.388   6.845   1.764
 1721SOL    HW1 6062   1.339   6.765   1.798
 1721SOL    HW2 6063   1.376   6.851   1.665
 1722SOL     OW 6064   4.651   2.041   4.598
 1722SOL    HW1 6065   4.672   1.983   4.677
 1722SOL    HW2 6066   4.576   2.000   4.546
 1723SOL     OW 6067   0.172   2.928   2.275
 1723SOL    HW1 6068   0.139   3.016   2.242
 1723SOL    HW2 6069   0.094   2.870   2.297
 1724SOL     OW 6070   6.349   2.351   0.755
 1724SOL    HW1 6071   6.270   2.407   0.783
 1724SOL    HW2 6072   6.431   2.384   0.803
 1725SOL     OW 6073   2.411   4.899   6.774
 1725SOL    HW1 6074   2.482   4.942   6.830
 1725SOL    HW2 6075   2.351   4.845   6.833
 1726SOL     OW 6076   4.893   4.879   5.759
 1726SOL    HW1 6077   4.984   4.894   5.722
 1726SOL    HW2 6078   4.846   4.810   5.704
 1727SOL     OW 6079   3.738   3.230   4.433
 1727SOL    HW1 6080   3.701   3.319   4.406
 1727SOL    HW2 6081   3.664   3.172   4.468
 1728SOL     OW 6082   5.041   5.227   5.574
 1728SOL    HW1 6083   5.044   5.154   5.505
 1728SOL    HW2 6084   5.132   5.266   5.584
 1729SOL     OW 6085   1.891   3.644   3.433
 1729SOL    HW1 6086   1.866   3.583   3.508
 1729SOL    HW2 6087   1.836   3.622   3.352
 1730SOL     OW 6088   0.325   0.268   5.738
 1730SOL    HW1 6089   0.418   0.304   5.729
 1730SOL    HW2 6090   0.298   0.224   5.652
 1731SOL     OW 6091   6.900   4.743   2.191
 1731SOL    HW1 6092   6.927   4.663   2.245
 1731SOL    HW2 6093   6.971   4.813   2.199
 1732SOL     OW 6094   2.458   4.592   5.470
 1732SOL    HW1 6095   2.449   4.688   5.495
 1732SOL    HW2 6096   2.536   4.552   5.519
 1733SOL     OW 6097   1.482   4.116   2.082
 1733SOL    HW1 6098   1.476   4.156   1.990
 1733SOL    HW2 6099   1.390   4.113   2.122
 1734SOL     OW 6100   4.707   3.233   1.704
 1734SOL    HW1 6101   4.796   3.187   1.702
 1734SOL    HW2 6102   4.649   3.190   1.773
 1735SOL     OW 6103   5.380   5.978   1.453
 1735SOL    HW1 6104   5.403   5.985   1.550
 1735SOL    HW2 6105   5.387   6.068   1.411
 1736SOL     OW 6106   3.706   2.981   1.103
 1736SOL    HW1 6107   3.739   2.904   1.049
 1736SOL    HW2 6108   3.700   3.062   1.044
 1737SOL     OW 6109   2.422   1.327   4.325
 1737SOL    HW1 6110   2.519   1.351   4.318
 1737SOL    HW2 6111   2.406   1.276   4.410
 1738SOL     OW 6112   2.534   1.854   4.073
 1738SOL    HW1 6113   2.485   1.874   3.988
 1738SOL    HW2 6114   2.537   1.755   4.086
 1739SOL     OW 6115   5.784   2.250   5.307
 1739SOL    HW1 6116   5.849   2.178   5.283
 1739SOL    HW2 6117   5.789   2.324   5.240
 1740SOL     OW 6118   6.753   1.842   6.106
 1740SOL    HW1 6119   6.654   1.847   6.120
 1740SOL    HW2 6120   6.795   1.793   6.183
 1741SOL     OW 6121   1.732   0.778   4.047
 1741SOL    HW1 6122   1.754   0.850   3.981
 1741SOL    HW2 6123   1.639   0.744   4.028
 1742SOL     OW 6124   5.070   0.089   5.965
 1742SOL    HW1 6125   5.044   0.144   5.886
 1742SOL    HW2 6126   5.152   0.127   6.006
 1743SOL     OW 6127   1.380   2.635   2.046
 1743SOL    HW1 6128   1.373   2.636   2.146
 1743SOL    HW2 6129   1.289   2.626   2.006
 1744SOL     OW 6130   0.655   0.561   2.005
 1744SOL    HW1 6131   0.704   0.606   2.079
 1744SOL    HW2 6132   0.571   0.611   1.985
 1745SOL     OW 6133   5.888   0.518   3.556
 1745SOL    HW1 6134   5.906   0.420   3.570
 1745SOL    HW2 6135   5.929   0.547   3.469
 1746SOL     OW 6136   2.456   4.835   5.155
 1746SOL    HW1 6137   2.479   4.771   5.081
 1746SOL    HW2 6138   2.390   4.902   5.121
 1747SOL     OW 6139   5.971   1.632   2.888
 1747SOL    HW1 6140   5.990   1.582   2.803
 1747SOL    HW2 6141   5.889   1.688   2.876
 1748SOL     OW 6142   0.773   0.740   4.299
 1748SOL    HW1 6143   0.800   0.781   4.386
 1748SOL    HW2 6144   0.677   0.711   4.304
 1749SOL     OW 6145   2.712   6.832   4.742
 1749SOL    HW1 6146   2.702   6.898   4.668
 1749SOL    HW2 6147   2.666   6.867   4.824
 1750SOL     OW 6148   6.588   0.032   4.302
 1750SOL    HW1 6149   6.522   0.098   4.266
 1750SOL    HW2 6150   6.542   6.967   4.317
 1751SOL     OW 6151   4.092   6.014   4.847
 1751SOL    HW1 6152   4.066   6.087   4.910
 1751SOL    HW2 6153   4.187   5.988   4.864
 1752SOL     OW 6154   0.135   2.394   1.800
 1752SOL    HW1 6155   0.189   2.399   1.716
 1752SOL    HW2 6156   0.185   2.340   1.868
 1753SOL     OW 6157   0.616   2.100   0.689
 1753SOL    HW1 6158   0.527   2.056   0.703
 1753SOL    HW2 6159   0.677   2.077   0.765
 1754SOL     OW 6160   2.673   3.550   0.704
 1754SOL    HW1 6161   2.673   3.650   0.699
 1754SOL    HW2 6162   2.749   3.520   0.761
 1755SOL     OW 6163   6.255   6.085   2.096
 1755SOL    HW1 6164   6.294   6.152   2.158
 1755SOL    HW2 6165   6.316   6.071   2.018
 1756SOL     OW 6166   3.911   4.471   5.844
 1756SOL    HW1 6167   3.977   4.426   5.783
 1756SOL    HW2 6168   3.837   4.407   5.865
 1757SOL     OW 6169   2.293   4.897   4.711
 1757SOL    HW1 6170   2.322   4.984   4.752
 1757SOL    HW2 6171   2.373   4.839   4.696
 1758SOL     OW 6172   2.057   0.466   4.018
 1758SOL    HW1 6173   2.085   0.373   4.038
 1758SOL    HW2 6174   1.996   0.499   4.091
 1759SOL     OW 6175   2.400   5.327   6.387
 1759SOL    HW1 6176   2.327   5.371   6.439
 1759SOL    HW2 6177   2.441   5.255   6.442
 1760SOL     OW 6178   5.663   1.668   2.463
 1760SOL    HW1 6179   5.598   1.686   2.390
 1760SOL    HW2 6180   5.615   1.669   2.551
 1761SOL     OW 6181   0.162   0.137   0.176
 1761SOL    HW1 6182   0.066   0.112   0.166
 1761SOL    HW2 6183   0.186   0.205   0.107
 1762SOL     OW 6184   0.095   2.039   4.797
 1762SOL    HW1 6185   0.156   2.113   4.767
 1762SOL    HW2 6186   0.018   2.078   4.847
 1763SOL     OW 6187   1.534   3.673   3.463
 1763SOL    HW1 6188   1.564   3.658   3.369
 1763SOL    HW2 6189   1.551   3.769   3.488
 1764SOL     OW 6190   2.087   3.633   2.135
 1764SOL    HW1 6191   2.142   3.714   2.158
 1764SOL    HW2 6192   2.142   3.570   2.080
 1765SOL     OW 6193   4.032   1.562   0.879
 1765SOL    HW1 6194   3.935   1.576   0.857
 1765SOL    HW2 6195   4.056   1.466   0.861
 1766SOL     OW 6196   4.869   2.928   2.801
 1766SOL    HW1 6197   4.837   2.994   2.734
 1766SOL    HW2 6198   4.842   2.836   2.773
 1767SOL     OW 6199   6.951   3.687   2.977
 1767SOL    HW1 6200   6.906   3.775   2.991
 1767SOL    HW2 6201   6.935   3.629   3.056
 1768SOL     OW 6202   4.314   1.491   5.201
 1768SOL    HW1 6203   4.351   1.410   5.246
 1768SOL    HW2 6204   4.314   1.568   5.265
 1769SOL     OW 6205   4.340   2.751   5.710
 1769SOL    HW1 6206   4.337   2.688   5.788
 1769SOL    HW2 6207   4.248   2.785   5.691
 1770SOL     OW 6208   6.912   5.047   4.814
 1770SOL    HW1 6209   6.919   5.009   4.722
 1770SOL    HW2 6210   6.987   5.110   4.830
 1771SOL     OW 6211   2.538   5.242   6.914
 1771SOL    HW1 6212   2.557   5.270   6.820
 1771SOL    HW2 6213   2.553   5.320   6.975
 1772SOL     OW 6214   3.750   6.414   3.091
 1772SOL    HW1 6215   3.778   6.348   3.021
 1772SOL    HW2 6216   3.674   6.468   3.057
 1773SOL     OW 6217   3.230   4.074   6.587
 1773SOL    HW1 6218   3.137   4.073   6.549
 1773SOL    HW2 6219   3.293   4.113   6.520
 1774SOL     OW 6220   4.330   6.899   1.692
 1774SOL    HW1 6221   4.408   6.962   1.696
 1774SOL    HW2 6222   4.351   6.826   1.627
 1775SOL     OW 6223   1.310   5.433   4.205
 1775SOL    HW1 6224   1.266   5.383   4.280
 1775SOL    HW2 6225   1.409   5.414   4.207
 1776SOL     OW 6226   3.455   0.863   5.978
 1776SOL    HW1 6227   3.506   0.860   6.064
 1776SOL    HW2 6228   3.362   0.896   5.995
 1777SOL     OW 6229   3.241   5.176   5.771
 1777SOL    HW1 6230   3.330   5.143   5.740
 1777SOL    HW2 6231   3.242   5.276   5.773
 1778SOL     OW 6232   4.564   2.259   4.920
 1778SOL    HW1 6233   4.613   2.176   4.891
 1778SOL    HW2 6234   4.467   2.250   4.898
 1779SOL     OW 6235   5.374   1.702   4.639
 1779SOL    HW1 6236   5.454   1.756   4.667
 1779SOL    HW2 6237   5.385   1.673   4.544
 1780SOL     OW 6238   2.241   4.804   6.064
 1780SOL    HW1 6239   2.259   4.785   5.967
 1780SOL    HW2 6240   2.268   4.726   6.120
 1781SOL     OW 6241   4.047   5.244   3.784
 1781SOL    HW1 6242   4.036   5.190   3.868
 1781SOL    HW2 6243   4.093   5.188   3.715
 1782SOL     OW 6244   2.990   1.655   2.881
 1782SOL    HW1 6245   2.917   1.615   2.936
 1782SOL    HW2 6246   2.994   1.611   2.792
 1783SOL     OW 6247   1.907   3.276   6.432
 1783SOL    HW1 6248   1.923   3.348   6.365
 1783SOL    HW2 6249   1.810   3.270   6.454
 1784SOL     OW 6250   3.163   0.621   3.913
 1784SOL    HW1 6251   3.112   0.703   3.888
 1784SOL    HW2 6252   3.114   0.540   3.881
 1785SOL     OW 6253   5.261   6.298   3.803
 1785SOL    HW1 6254   5.194   6.274   3.733
 1785SOL    HW2 6255   5.260   6.397   3.818
 1786SOL     OW 6256   1.156   3.117   0.897
 1786SOL    HW1 6257   1.241   3.099   0.848
 1786SOL    HW2 6258   1.137   3.216   0.897
 1787SOL     OW 6259   2.158   1.078   4.359
 1787SOL    HW1 6260   2.082   1.125   4.314
 1787SOL    HW2 6261   2.242   1.129   4.342
 1788SOL     OW 6262   3.420   3.100   0.352
 1788SOL    HW1 6263   3.413   3.198   0.330
 1788SOL    HW2 6264   3.428   3.048   0.267
 1789SOL     OW 6265   6.579   2.466   2.151
 1789SOL    HW1 6266   6.524   2.384   2.134
 1789SOL    HW2 6267   6.527   2.547   2.122
 1790SOL     OW 6268   4.120   6.411   4.401
 1790SOL    HW1 6269   4.194   6.420   4.469
 1790SOL    HW2 6270   4.047   6.475   4.424
 1791SOL     OW 6271   0.367   1.845   4.360
 1791SOL    HW1 6272   0.467   1.846   4.353
 1791SOL    HW2 6273   0.332   1.938   4.355
 1792SOL     OW 6274   0.565   2.551   3.877
 1792SOL    HW1 6275   0.556   2.607   3.794
 1792SOL    HW2 6276   0.650   2.574   3.924
 1793SOL     OW 6277   6.544   0.139   3.606
 1793SOL    HW1 6278   6.578   0.230   3.581
 1793SOL    HW2 6279   6.450   0.129   3.574
 1794SOL     OW 6280   5.184   6.033   6.582
 1794SOL    HW1 6281   5.212   6.022   6.677
 1794SOL    HW2 6282   5.265   6.052   6.526
 1795SOL     OW 6283   0.539   3.725   2.299
 1795SOL    HW1 6284   0.578   3.782   2.371
 1795SOL    HW2 6285   0.502   3.641   2.338
 1796SOL     OW 6286   2.144   1.263   4.675
 1796SOL    HW1 6287   2.084   1.337   4.644
 1796SOL    HW2 6288   2.179   1.284   4.766
 1797SOL     OW 6289   1.201   1.116   6.330
 1797SOL    HW1 6290   1.208   1.026   6.372
 1797SOL    HW2 6291   1.209   1.107   6.231
 1798SOL     OW 6292   4.921   2.781   5.543
 1798SOL    HW1 6293   4.854   2.709   5.562
 1798SOL    HW2 6294   4.910   2.855   5.610
 1799SOL     OW 6295   6.737   1.782   6.612
 1799SOL    HW1 6296   6.774   1.854   6.671
 1799SOL    HW2 6297   6.707   1.822   6.525
 1800SOL     OW 6298   4.735   5.291   3.578
 1800SOL    HW1 6299   4.683   5.248   3.504
 1800SOL    HW2 6300   4.832   5.287   3.557
 1801SOL     OW 6301   1.043   1.055   2.311
 1801SOL    HW1 6302   1.129   1.082   2.355
 1801SOL    HW2 6303   0.967   1.066   2.375
 1802SOL     OW 6304   5.472   5.142   2.341
 1802SOL    HW1 6305   5.514   5.075   2.280
 1802SOL    HW2 6306   5.420   5.094   2.412
 1803SOL     OW 6307   6.679   5.808   0.731
 1803SOL    HW1 6308   6.692   5.726   0.675
 1803SOL    HW2 6309   6.672   5.888   0.671
 1804SOL     OW 6310   1.989   3.442   6.051
 1804SOL    HW1 6311   1.997   3.357   6.103
 1804SOL    HW2 6312   2.078   3.466   6.012
 1805SOL     OW 6313   0.202   3.912   5.371
 1805SOL    HW1 6314   0.233   3.981   5.436
 1805SOL    HW2 6315   0.201   3.951   5.279
 1806SOL     OW 6316   1.232   1.289   1.331
 1806SOL    HW1 6317   1.295   1.247   1.265
 1806SOL    HW2 6318   1.268   1.276   1.423
 1807SOL     OW 6319   5.196   2.194   5.967
 1807SOL    HW1 6320   5.260   2.170   5.894
 1807SOL    HW2 6321   5.247   2.221   6.049
 1808SOL     OW 6322   6.229   3.597   5.440
 1808SOL    HW1 6323   6.320   3.558   5.456
 1808SOL    HW2 6324   6.239   3.690   5.406
 1809SOL     OW 6325   2.138   2.887   4.304
 1809SOL    HW1 6326   2.194   2.838   4.371
 1809SOL    HW2 6327   2.155   2.985   4.312
 1810SOL     OW 6328   2.708   0.539   5.573
 1810SOL    HW1 6329   2.726   0.603   5.498
 1810SOL    HW2 6330   2.675   0.453   5.536
 1811SOL     OW 6331   4.094   4.790   3.213
 1811SOL    HW1 6332   4.108   4.761   3.119
 1811SOL    HW2 6333   3.998   4.779   3.237
 1812SOL     OW 6334   4.443   0.199   6.225
 1812SOL    HW1 6335   4.391   0.159   6.301
 1812SOL    HW2 6336   4.499   0.274   6.259
 1813SOL     OW 6337   4.097   4.600   1.405
 1813SOL    HW1 6338   4.098   4.657   1.323
 1813SOL    HW2 6339   4.186   4.604   1.449
 1814SOL     OW 6340   6.565   0.645   0.113
 1814SOL    HW1 6341   6.607   0.606   0.194
 1814SOL    HW2 6342   6.630   0.703   0.065
 1815SOL     OW 6343   6.587   1.911   1.681
 1815SOL    HW1 6344   6.644   1.846   1.733
 1815SOL    HW2 6345   6.572   1.875   1.589
 1816SOL     OW 6346   1.728   4.030   1.067
 1816SOL    HW1 6347   1.721   3.984   0.978
 1816SOL    HW2 6348   1.717   4.128   1.055
 1817SOL     OW 6349   3.274   6.396   3.179
 1817SOL    HW1 6350   3.284   6.486   3.221
 1817SOL    HW2 6351   3.215   6.339   3.236
 1818SOL     OW 6352   2.330   6.210   2.460
 1818SOL    HW1 6353   2.335   6.295   2.408
 1818SOL    HW2 6354   2.358   6.134   2.401
 1819SOL     OW 6355   0.695   5.635   1.311
 1819SOL    HW1 6356   0.708   5.579   1.393
 1819SOL    HW2 6357   0.647   5.719   1.335
 1820SOL     OW 6358   2.987   0.906   2.635
 1820SOL    HW1 6359   3.031   0.875   2.719
 1820SOL    HW2 6360   3.050   0.897   2.559
 1821SOL     OW 6361   2.767   0.477   1.756
 1821SOL    HW1 6362   2.691   0.530   1.719
 1821SOL    HW2 6363   2.731   0.398   1.807
 1822SOL     OW 6364   2.052   3.214   1.105
 1822SOL    HW1 6365   2.114   3.171   1.170
 1822SOL    HW2 6366   2.060   3.168   1.016
 1823SOL     OW 6367   2.645   5.887   2.674
 1823SOL    HW1 6368   2.701   5.843   2.745
 1823SOL    HW2 6369   2.645   5.986   2.689
 1824SOL     OW 6370   3.503   4.150   1.827
 1824SOL    HW1 6371   3.525   4.245   1.804
 1824SOL    HW2 6372   3.566   4.117   1.896
 1825SOL     OW 6373   1.145   2.677   3.997
 1825SOL    HW1 6374   1.142   2.583   4.031
 1825SOL    HW2 6375   1.095   2.737   4.059
 1826SOL     OW 6376   3.127   0.674   1.086
 1826SOL    HW1 6377   3.208   0.728   1.064
 1826SOL    HW2 6378   3.103   0.616   1.007
 1827SOL     OW 6379   0.297   5.666   1.583
 1827SOL    HW1 6380   0.382   5.698   1.624
 1827SOL    HW2 6381   0.309   5.658   1.484
 1828SOL     OW 6382   1.215   2.769   0.694
 1828SOL    HW1 6383   1.129   2.749   0.646
 1828SOL    HW2 6384   1.222   2.711   0.775
 1829SOL     OW 6385   2.856   0.819   2.980
 1829SOL    HW1 6386   2.948   0.791   2.953
 1829SOL    HW2 6387   2.790   0.781   2.915
 1830SOL     OW 6388   6.295   6.448   3.763
 1830SOL    HW1 6389   6.229   6.375   3.745
 1830SOL    HW2 6390   6.362   6.451   3.689
 1831SOL     OW 6391   6.103   0.406   2.565
 1831SOL    HW1 6392   6.086   0.319   2.612
 1831SOL    HW2 6393   6.199   0.430   2.576
 1832SOL     OW 6394   4.577   1.147   1.238
 1832SOL    HW1 6395   4.558   1.071   1.175
 1832SOL    HW2 6396   4.494   1.171   1.288
 1833SOL     OW 6397   5.568   0.773   0.497
 1833SOL    HW1 6398   5.665   0.797   0.506
 1833SOL    HW2 6399   5.556   0.714   0.417
 1834SOL     OW 6400   3.136   3.708   0.847
 1834SOL    HW1 6401   3.080   3.754   0.779
 1834SOL    HW2 6402   3.136   3.610   0.830
 1835SOL     OW 6403   0.241   4.505   2.374
 1835SOL    HW1 6404   0.311   4.571   2.348
 1835SOL    HW2 6405   0.240   4.430   2.308
 1836SOL     OW 6406   4.945   1.892   1.545
 1836SOL    HW1 6407   4.933   1.920   1.640
 1836SOL    HW2 6408   5.017   1.822   1.540
 1837SOL     OW 6409   0.940   0.169   4.995
 1837SOL    HW1 6410   0.928   0.239   5.065
 1837SOL    HW2 6411   0.899   0.201   4.909
 1838SOL     OW 6412   6.890   1.242   4.758
 1838SOL    HW1 6413   6.839   1.291   4.687
 1838SOL    HW2 6414   6.978   1.286   4.773
 1839SOL     OW 6415   6.038   2.507   4.983
 1839SOL    HW1 6416   6.046   2.556   5.070
 1839SOL    HW2 6417   5.963   2.441   4.989
 1840SOL     OW 6418   3.818   6.953   1.356
 1840SOL    HW1 6419   3.888   7.017   1.388
 1840SOL    HW2 6420   3.727   6.994   1.371
 1841SOL     OW 6421   2.525   0.835   3.091
 1841SOL    HW1 6422   2.427   0.850   3.106
 1841SOL    HW2 6423   2.543   0.830   2.993
 1842SOL     OW 6424   1.992   5.778   0.414
 1842SOL    HW1 6425   1.911   5.801   0.360
 1842SOL    HW2 6426   2.066   5.842   0.391
 1843SOL     OW 6427   6.207   2.261   3.304
 1843SOL    HW1 6428   6.176   2.348   3.343
 1843SOL    HW2 6429   6.143   2.188   3.329
 1844SOL     OW 6430   3.311   6.503   5.496
 1844SOL    HW1 6431   3.259   6.587   5.513
 1844SOL    HW2 6432   3.362   6.512   5.410
 1845SOL     OW 6433   2.715   6.980   4.524
 1845SOL    HW1 6434   2.740   0.037   4.469
 1845SOL    HW2 6435   2.765   6.900   4.490
 1846SOL     OW 6436   3.620   1.792   1.463
 1846SOL    HW1 6437   3.656   1.708   1.423
 1846SOL    HW2 6438   3.544   1.826   1.408
 1847SOL     OW 6439   1.313   0.907   6.874
 1847SOL    HW1 6440   1.365   0.934   6.955
 1847SOL    HW2 6441   1.278   0.989   6.828
 1848SOL     OW 6442   1.465   5.940   3.141
 1848SOL    HW1 6443   1.485   5.945   3.239
 1848SOL    HW2 6444   1.420   5.853   3.121
 1849SOL     OW 6445   3.924   2.895   1.306
 1849SOL    HW1 6446   3.828   2.874   1.288
 1849SOL    HW2 6447   3.951   2.855   1.393
 1850SOL     OW 6448   0.671   2.844   1.487
 1850SOL    HW1 6449   0.643   2.757   1.528
 1850SOL    HW2 6450   0.759   2.833   1.441
 1851SOL     OW 6451   0.319   2.453   0.395
 1851SOL    HW1 6452   0.303   2.357   0.419
 1851SOL    HW2 6453   0.267   2.476   0.313
 1852SOL     OW 6454   6.311   4.390   2.509
 1852SOL    HW1 6455   6.329   4.431   2.419
 1852SOL    HW2 6456   6.330   4.457   2.581
 1853SOL     OW 6457   0.093   2.320   2.846
 1853SOL    HW1 6458   0.012   2.268   2.874
 1853SOL    HW2 6459   0.071   2.418   2.846
 1854SOL     OW 6460   2.339   5.920   3.019
 1854SOL    HW1 6461   2.385   5.943   3.105
 1854SOL    HW2 6462   2.240   5.933   3.031
 1855SOL     OW 6463   5.154   2.718   5.379
 1855SOL    HW1 6464   5.064   2.732   5.421
 1855SOL    HW2 6465   5.173   2.793   5.315
 1856SOL     OW 6466   6.628   3.939   5.907
 1856SOL    HW1 6467   6.664   3.964   5.818
 1856SOL    HW2 6468   6.668   3.998   5.977
 1857SOL     OW 6469   4.643   2.207   5.914
 1857SOL    HW1 6470   4.610   2.153   5.837
 1857SOL    HW2 6471   4.740   2.187   5.930
 1858SOL     OW 6472   5.710   4.137   3.979
 1858SOL    HW1 6473   5.788   4.094   3.933
 1858SOL    HW2 6474   5.744   4.205   4.044
 1859SOL     OW 6475   5.632   2.473   3.201
 1859SOL    HW1 6476   5.672   2.386   3.232
 1859SOL    HW2 6477   5.609   2.467   3.104
 1860SOL     OW 6478   6.652   0.708   5.775
 1860SOL    HW1 6479   6.560   0.703   5.736
 1860SOL    HW2 6480   6.716   0.664   5.713
 1861SOL     OW 6481   6.392   6.625   2.344
 1861SOL    HW1 6482   6.304   6.622   2.298
 1861SOL    HW2 6483   6.399   6.550   2.409
 1862SOL     OW 6484   2.770   6.924   6.134
 1862SOL    HW1 6485   2.810   6.993   6.074
 1862SOL    HW2 6486   2.775   6.835   6.090
 1863SOL     OW 6487   0.659   2.789   3.450
 1863SOL    HW1 6488   0.736   2.730   3.424
 1863SOL    HW2 6489   0.680   2.883   3.426
 1864SOL     OW 6490   1.905   6.693   4.710
 1864SOL    HW1 6491   1.897   6.792   4.702
 1864SOL    HW2 6492   1.817   6.655   4.740
 1865SOL     OW 6493   3.521   6.558   6.588
 1865SOL    HW1 6494   3.456   6.605   6.528
 1865SOL    HW2 6495   3.528   6.608   6.675
 1866SOL     OW 6496   4.861   4.731   2.925
 1866SOL    HW1 6497   4.787   4.780   2.971
 1866SOL    HW2 6498   4.949   4.767   2.957
 1867SOL     OW 6499   0.587   3.902   0.486
 1867SOL    HW1 6500   0.547   3.863   0.569
 1867SOL    HW2 6501   0.658   3.968   0.511
 1868SOL     OW 6502   5.240   3.193   6.399
 1868SOL    HW1 6503   5.150   3.223   6.366
 1868SOL    HW2 6504   5.232   3.104   6.442
 1869SOL     OW 6505   5.915   3.648   5.624
 1869SOL    HW1 6506   5.948   3.741   5.611
 1869SOL    HW2 6507   5.989   3.583   5.605
 1870SOL     OW 6508   1.147   3.001   5.027
 1870SOL    HW1 6509   1.187   2.910   5.020
 1870SOL    HW2 6510   1.142   3.029   5.123
 1871SOL     OW 6511   0.984   0.254   6.627
 1871SOL    HW1 6512   0.974   0.229   6.723
 1871SOL    HW2 6513   1.020   0.347   6.620
 1872SOL     OW 6514   4.205   1.537   6.767
 1872SOL    HW1 6515   4.229   1.576   6.679
 1872SOL    HW2 6516   4.214   1.438   6.764
 1873SOL     OW 6517   5.072   0.895   6.576
 1873SOL    HW1 6518   5.121   0.912   6.662
 1873SOL    HW2 6519   5.028   0.980   6.546
 1874SOL     OW 6520   2.991   0.983   0.573
 1874SOL    HW1 6521   3.028   1.076   0.582
 1874SOL    HW2 6522   3.012   0.931   0.655
 1875SOL     OW 6523   6.976   0.534   0.039
 1875SOL    HW1 6524   6.901   0.550   6.998
 1875SOL    HW2 6525   6.939   0.509   0.128
 1876SOL     OW 6526   3.602   6.049   6.519
 1876SOL    HW1 6527   3.624   5.962   6.475
 1876SOL    HW2 6528   3.507   6.048   6.550
 1877SOL     OW 6529   0.951   1.407   3.521
 1877SOL    HW1 6530   1.021   1.337   3.540
 1877SOL    HW2 6531   0.861   1.364   3.523
 1878SOL     OW 6532   6.934   3.471   4.146
 1878SOL    HW1 6533   7.014   3.529   4.130
 1878SOL    HW2 6534   6.897   3.490   4.237
 1879SOL     OW 6535   1.892   5.546   3.704
 1879SOL    HW1 6536   1.936   5.588   3.625
 1879SOL    HW2 6537   1.938   5.460   3.726
 1880SOL     OW 6538   6.757   0.340   4.181
 1880SOL    HW1 6539   6.705   0.348   4.096
 1880SOL    HW2 6540   6.841   0.289   4.164
 1881SOL     OW 6541   6.778   3.280   3.061
 1881SOL    HW1 6542   6.743   3.252   2.972
 1881SOL    HW2 6543   6.743   3.218   3.131
 1882SOL     OW 6544   1.177   3.692   6.882
 1882SOL    HW1 6545   1.199   3.762   6.950
 1882SOL    HW2 6546   1.078   3.691   6.866
 1883SOL     OW 6547   1.304   2.207   3.840
 1883SOL    HW1 6548   1.360   2.179   3.762
 1883SOL    HW2 6549   1.241   2.132   3.863
 1884SOL     OW 6550   6.310   3.118   0.247
 1884SOL    HW1 6551   6.343   3.188   0.311
 1884SOL    HW2 6552   6.278   3.039   0.298
 1885SOL     OW 6553   1.081   1.762   6.041
 1885SOL    HW1 6554   1.100   1.766   6.139
 1885SOL    HW2 6555   1.142   1.695   5.998
 1886SOL     OW 6556   2.740   0.112   1.284
 1886SOL    HW1 6557   2.754   0.027   1.233
 1886SOL    HW2 6558   2.676   0.095   1.359
 1887SOL     OW 6559   1.431   5.926   5.440
 1887SOL    HW1 6560   1.426   6.020   5.472
 1887SOL    HW2 6561   1.504   5.877   5.489
 1888SOL     OW 6562   3.450   2.615   6.864
 1888SOL    HW1 6563   3.498   2.703   6.865
 1888SOL    HW2 6564   3.508   2.545   6.824
 1889SOL     OW 6565   6.730   3.065   6.218
 1889SOL    HW1 6566   6.767   3.144   6.168
 1889SOL    HW2 6567   6.763   2.981   6.175
 1890SOL     OW 6568   1.858   6.426   4.250
 1890SOL    HW1 6569   1.921   6.382   4.185
 1890SOL    HW2 6570   1.788   6.360   4.277
 1891SOL     OW 6571   5.957   2.382   2.697
 1891SOL    HW1 6572   5.971   2.449   2.770
 1891SOL    HW2 6573   5.871   2.401   2.650
 1892SOL     OW 6574   2.596   1.173   0.925
 1892SOL    HW1 6575   2.636   1.223   0.848
 1892SOL    HW2 6576   2.529   1.231   0.971
 1893SOL     OW 6577   3.984   2.746   6.982
 1893SOL    HW1 6578   4.003   2.814   6.911
 1893SOL    HW2 6579   4.069   2.701   7.009
 1894SOL     OW 6580   4.075   3.656   3.680
 1894SOL    HW1 6581   3.988   3.646   3.727
 1894SOL    HW2 6582   4.069   3.732   3.615
 1895SOL     OW 6583   5.531   0.844   1.950
 1895SOL    HW1 6584   5.568   0.886   2.033
 1895SOL    HW2 6585   5.561   0.748   1.946
 1896SOL     OW 6586   6.164   0.515   1.776
 1896SOL    HW1 6587   6.088   0.453   1.795
 1896SOL    HW2 6588   6.180   0.574   1.855
 1897SOL     OW 6589   1.324   4.471   2.209
 1897SOL    HW1 6590   1.398   4.515   2.158
 1897SOL    HW2 6591   1.308   4.379   2.172
 1898SOL     OW 6592   2.602   4.951   2.466
 1898SOL    HW1 6593   2.527   4.936   2.530
 1898SOL    HW2 6594   2.566   4.952   2.373
 1899SOL     OW 6595   0.908   1.452   2.460
 1899SOL    HW1 6596   0.997   1.481   2.426
 1899SOL    HW2 6597   0.839   1.469   2.389
 1900SOL     OW 6598   1.348   0.654   6.208
 1900SOL    HW1 6599   1.385   0.636   6.117
 1900SOL    HW2 6600   1.250   0.674   6.201
 1901SOL     OW 6601   1.895   2.582   0.725
 1901SOL    HW1 6602   1.953   2.632   0.790
 1901SOL    HW2 6603   1.951   2.517   0.674
 1902SOL     OW 6604   2.695   1.969   4.932
 1902SOL    HW1 6605   2.622   1.979   4.999
 1902SOL    HW2 6606   2.783   1.967   4.978
 1903SOL     OW 6607   6.717   3.010   2.874
 1903SOL    HW1 6608   6.640   2.949   2.892
 1903SOL    HW2 6609   6.694   3.074   2.801
 1904SOL     OW 6610   6.078   6.246   3.979
 1904SOL    HW1 6611   6.055   6.152   4.003
 1904SOL    HW2 6612   6.170   6.267   4.014
 1905SOL     OW 6613   1.902   0.627   4.189
 1905SOL    HW1 6614   1.992   0.672   4.188
 1905SOL    HW2 6615   1.837   0.682   4.136
 1906SOL     OW 6616   2.130   0.316   4.991
 1906SOL    HW1 6617   2.192   0.393   5.001
 1906SOL    HW2 6618   2.137   0.278   4.899
 1907SOL     OW 6619   3.319   6.883   2.469
 1907SOL    HW1 6620   3.375   6.841   2.541
 1907SOL    HW2 6621   3.223   6.874   2.493
 1908SOL     OW 6622   3.781   7.017   5.155
 1908SOL    HW1 6623   3.685   0.023   5.159
 1908SOL    HW2 6624   3.797   6.945   5.222
 1909SOL     OW 6625   0.593   3.919   2.497
 1909SOL    HW1 6626   0.521   3.936   2.564
 1909SOL    HW2 6627   0.678   3.961   2.528
 1910SOL     OW 6628   7.001   2.892   6.523
 1910SOL    HW1 6629   6.962   2.802   6.506
 1910SOL    HW2 6630   6.930   2.962   6.515
 1911SOL     OW 6631   5.605   3.394   5.125
 1911SOL    HW1 6632   5.513   3.414   5.093
 1911SOL    HW2 6633   5.603   3.312   5.182
 1912SOL     OW 6634   3.657   5.986   0.507
 1912SOL    HW1 6635   3.568   5.942   0.518
 1912SOL    HW2 6636   3.654   6.051   0.432
 1913SOL     OW 6637   1.860   6.221   4.621
 1913SOL    HW1 6638   1.843   6.207   4.523
 1913SOL    HW2 6639   1.959   6.232   4.636
 1914SOL     OW 6640   3.888   2.795   6.222
 1914SOL    HW1 6641   3.980   2.756   6.230
 1914SOL    HW2 6642   3.826   2.748   6.285
 1915SOL     OW 6643   4.287   2.239   5.353
 1915SOL    HW1 6644   4.260   2.197   5.266
 1915SOL    HW2 6645   4.303   2.337   5.340
 1916SOL     OW 6646   4.014   5.610   1.454
 1916SOL    HW1 6647   4.007   5.705   1.425
 1916SOL    HW2 6648   3.943   5.556   1.409
 1917SOL     OW 6649   3.101   3.120   5.371
 1917SOL    HW1 6650   3.098   3.042   5.308
 1917SOL    HW2 6651   3.157   3.096   5.450
 1918SOL     OW 6652   0.823   1.135   5.083
 1918SOL    HW1 6653   0.914   1.096   5.068
 1918SOL    HW2 6654   0.833   1.223   5.131
 1919SOL     OW 6655   2.000   0.549   1.692
 1919SOL    HW1 6656   1.901   0.543   1.676
 1919SOL    HW2 6657   2.022   0.639   1.730
 1920SOL     OW 6658   1.398   4.539   2.454
 1920SOL    HW1 6659   1.490   4.571   2.431
 1920SOL    HW2 6660   1.345   4.526   2.370
 1921SOL     OW 6661   1.427   4.371   6.372
 1921SOL    HW1 6662   1.357   4.419   6.320
 1921SOL    HW2 6663   1.498   4.436   6.401
 1922SOL     OW 6664   1.937   3.863   0.869
 1922SOL    HW1 6665   1.876   3.795   0.830
 1922SOL    HW2 6666   1.950   3.845   0.967
 1923SOL     OW 6667   3.258   0.521   5.390
 1923SOL    HW1 6668   3.353   0.523   5.360
 1923SOL    HW2 6669   3.253   0.490   5.485
 1924SOL     OW 6670   4.763   5.553   1.184
 1924SOL    HW1 6671   4.787   5.496   1.262
 1924SOL    HW2 6672   4.766   5.498   1.100
 1925SOL     OW 6673   1.963   5.161   0.636
 1925SOL    HW1 6674   1.950   5.131   0.731
 1925SOL    HW2 6675   1.916   5.248   0.622
 1926SOL     OW 6676   2.461   6.611   3.350
 1926SOL    HW1 6677   2.407   6.565   3.421
 1926SOL    HW2 6678   2.445   6.566   3.262
 1927SOL     OW 6679   2.690   4.490   6.865
 1927SOL    HW1 6680   2.643   4.507   6.779
 1927SOL    HW2 6681   2.733   4.399   6.862
 1928SOL     OW 6682   6.930   4.455   5.841
 1928SOL    HW1 6683   6.919   4.357   5.859
 1928SOL    HW2 6684   6.842   4.495   5.816
 1929SOL     OW 6685   1.580   5.690   1.494
 1929SOL    HW1 6686   1.482   5.698   1.513
 1929SOL    HW2 6687   1.631   5.743   1.562
 1930SOL     OW 6688   3.606   4.084   6.208
 1930SOL    HW1 6689   3.706   4.088   6.198
 1930SOL    HW2 6690   3.564   4.077   6.117
 1931SOL     OW 6691   0.981   3.397   2.065
 1931SOL    HW1 6692   1.053   3.333   2.038
 1931SOL    HW2 6693   0.895   3.348   2.075
 1932SOL     OW 6694   4.844   2.834   3.202
 1932SOL    HW1 6695   4.863   2.917   3.149
 1932SOL    HW2 6696   4.773   2.854   3.270
 1933SOL     OW 6697   2.138   3.131   0.840
 1933SOL    HW1 6698   2.109   3.220   0.807
 1933SOL    HW2 6699   2.073   3.061   0.809
 1934SOL     OW 6700   0.449   6.877   5.218
 1934SOL    HW1 6701   0.461   6.964   5.171
 1934SOL    HW2 6702   0.532   6.855   5.270
 1935SOL     OW 6703   4.353   6.402   3.856
 1935SOL    HW1 6704   4.295   6.322   3.838
 1935SOL    HW2 6705   4.440   6.371   3.895
 1936SOL     OW 6706   5.647   3.833   3.431
 1936SOL    HW1 6707   5.704   3.754   3.453
 1936SOL    HW2 6708   5.658   3.856   3.334
 1937SOL     OW 6709   4.227   6.172   1.397
 1937SOL    HW1 6710   4.218   6.168   1.297
 1937SOL    HW2 6711   4.183   6.255   1.431
 1938SOL     OW 6712   2.161   1.731   1.391
 1938SOL    HW1 6713   2.105   1.813   1.406
 1938SOL    HW2 6714   2.105   1.649   1.402
 1939SOL     OW 6715   6.569   6.670   4.534
 1939SOL    HW1 6716   6.508   6.749   4.538
 1939SOL    HW2 6717   6.639   6.685   4.465
 1940SOL     OW 6718   5.953   5.152   0.595
 1940SOL    HW1 6719   5.860   5.189   0.591
 1940SOL    HW2 6720   6.006   5.201   0.664
 1941SOL     OW 6721   1.340   3.547   4.276
 1941SOL    HW1 6722   1.320   3.467   4.220
 1941SOL    HW2 6723   1.269   3.557   4.347
 1942SOL     OW 6724   5.145   1.973   1.252
 1942SOL    HW1 6725   5.197   2.004   1.173
 1942SOL    HW2 6726   5.103   1.884   1.232
 1943SOL     OW 6727   2.596   6.199   3.884
 1943SOL    HW1 6728   2.507   6.161   3.860
 1943SOL    HW2 6729   2.585   6.295   3.912
 1944SOL     OW 6730   6.514   2.708   0.063
 1944SOL    HW1 6731   6.483   2.803   0.057
 1944SOL    HW2 6732   6.612   2.704   0.044
 1945SOL     OW 6733   3.222   5.290   0.779
 1945SOL    HW1 6734   3.182   5.221   0.718
 1945SOL    HW2 6735   3.185   5.380   0.756
 1946SOL     OW 6736   6.141   6.554   0.944
 1946SOL    HW1 6737   6.214   6.604   0.897
 1946SOL    HW2 6738   6.120   6.470   0.894
 1947SOL     OW 6739   5.327   6.244   4.386
 1947SOL    HW1 6740   5.246   6.274   4.335
 1947SOL    HW2 6741   5.300   6.181   4.458
 1948SOL     OW 6742   6.096   5.139   3.570
 1948SOL    HW1 6743   6.161   5.190   3.626
 1948SOL    HW2 6744   6.129   5.137   3.475
 1949SOL     OW 6745   3.637   3.486   5.945
 1949SOL    HW1 6746   3.686   3.526   5.867
 1949SOL    HW2 6747   3.586   3.558   5.992
 1950SOL     OW 6748   4.394   3.096   0.425
 1950SOL    HW1 6749   4.428   3.137   0.340
 1950SOL    HW2 6750   4.400   2.996   0.418
 1951SOL     OW 6751   6.073   4.557   7.009
 1951SOL    HW1 6752   6.089   4.460   0.004
 1951SOL    HW2 6753   5.985   4.568   6.962
 1952SOL     OW 6754   4.689   3.369   1.342
 1952SOL    HW1 6755   4.709   3.396   1.248
 1952SOL    HW2 6756   4.751   3.296   1.370
 1953SOL     OW 6757   6.177   1.622   5.791
 1953SOL    HW1 6758   6.214   1.632   5.883
 1953SOL    HW2 6759   6.095   1.678   5.782
 1954SOL     OW 6760   6.700   0.888   2.309
 1954SOL    HW1 6761   6.605   0.906   2.335
 1954SOL    HW2 6762   6.716   0.923   2.217
 1955SOL     OW 6763   0.907   0.672   3.237
 1955SOL    HW1 6764   0.826   0.709   3.282
 1955SOL    HW2 6765   0.987   0.728   3.260
 1956SOL     OW 6766   4.690   0.049   1.923
 1956SOL    HW1 6767   4.659   6.987   1.882
 1956SOL    HW2 6768   4.619   0.119   1.911
 1957SOL     OW 6769   5.831   4.327   4.123
 1957SOL    HW1 6770   5.772   4.408   4.127
 1957SOL    HW2 6771   5.898   4.331   4.197
 1958SOL     OW 6772   4.985   1.445   1.667
 1958SOL    HW1 6773   5.011   1.542   1.664
 1958SOL    HW2 6774   4.951   1.417   1.577
 1959SOL     OW 6775   1.492   0.198   4.183
 1959SOL    HW1 6776   1.482   0.127   4.253
 1959SOL    HW2 6777   1.427   0.272   4.201
 1960SOL     OW 6778   0.355   4.487   1.642
 1960SOL    HW1 6779   0.296   4.540   1.703
 1960SOL    HW2 6780   0.432   4.544   1.613
 1961SOL     OW 6781   6.107   5.025   4.721
 1961SOL    HW1 6782   6.112   5.084   4.801
 1961SOL    HW2 6783   6.129   4.931   4.746
 1962SOL     OW 6784   1.240   6.481   2.630
 1962SOL    HW1 6785   1.208   6.423   2.704
 1962SOL    HW2 6786   1.179   6.471   2.551
 1963SOL     OW 6787   1.065   1.928   1.361
 1963SOL    HW1 6788   0.984   1.870   1.355
 1963SOL    HW2 6789   1.058   1.987   1.441
 1964SOL     OW 6790   4.434   4.612   1.432
 1964SOL    HW1 6791   4.436   4.525   1.481
 1964SOL    HW2 6792   4.429   4.594   1.334
 1965SOL     OW 6793   1.363   2.957   4.384
 1965SOL    HW1 6794   1.445   2.901   4.374
 1965SOL    HW2 6795   1.386   3.042   4.432
 1966SOL     OW 6796   0.429   6.212   0.305
 1966SOL    HW1 6797   0.344   6.249   0.343
 1966SOL    HW2 6798   0.481   6.166   0.377
 1967SOL     OW 6799   5.753   2.752   5.082
 1967SOL    HW1 6800   5.775   2.738   4.985
 1967SOL    HW2 6801   5.706   2.840   5.093
 1968SOL     OW 6802   1.475   6.643   5.286
 1968SOL    HW1 6803   1.552   6.581   5.293
 1968SOL    HW2 6804   1.508   6.737   5.279
 1969SOL     OW 6805   2.230   1.821   0.612
 1969SOL    HW1 6806   2.187   1.898   0.658
 1969SOL    HW2 6807   2.323   1.809   0.646
 1970SOL     OW 6808   2.993   6.104   6.279
 1970SOL    HW1 6809   3.010   6.006   6.273
 1970SOL    HW2 6810   3.021   6.148   6.193
 1971SOL     OW 6811   0.431   0.329   5.372
 1971SOL    HW1 6812   0.350   0.281   5.406
 1971SOL    HW2 6813   0.403   0.398   5.305
 1972SOL     OW 6814   4.868   2.036   1.818
 1972SOL    HW1 6815   4.788   2.067   1.766
 1972SOL    HW2 6816   4.840   1.965   1.883
 1973SOL     OW 6817   3.596   3.091   0.598
 1973SOL    HW1 6818   3.584   3.149   0.678
 1973SOL    HW2 6819   3.510   3.087   0.546
 1974SOL     OW 6820   5.679   6.964   4.637
 1974SOL    HW1 6821   5.684   0.006   4.561
 1974SOL    HW2 6822   5.636   6.879   4.606
 1975SOL     OW 6823   2.166   1.832   4.473
 1975SOL    HW1 6824   2.068   1.841   4.455
 1975SOL    HW2 6825   2.180   1.784   4.559
 1976SOL     OW 6826   6.072   0.234   0.662
 1976SOL    HW1 6827   6.072   0.145   0.616
 1976SOL    HW2 6828   6.032   0.225   0.753
 1977SOL     OW 6829   2.184   3.152   4.907
 1977SOL    HW1 6830   2.195   3.116   4.814
 1977SOL    HW2 6831   2.255   3.114   4.966
 1978SOL     OW 6832   2.234   6.377   3.204
 1978SOL    HW1 6833   2.315   6.411   3.155
 1978SOL    HW2 6834   2.262   6.336   3.291
 1979SOL     OW 6835   5.830   4.371   0.001
 1979SOL    HW1 6836   5.876   4.312   6.958
 1979SOL    HW2 6837   5.738   4.393   6.990
 1980SOL     OW 6838   3.206   6.916   4.140
 1980SOL    HW1 6839   3.203   6.943   4.044
 1980SOL    HW2 6840   3.152   6.980   4.195
 1981SOL     OW 6841   6.852   3.276   1.932
 1981SOL    HW1 6842   6.876   3.259   2.028
 1981SOL    HW2 6843   6.897   3.209   1.874
 1982SOL     OW 6844   0.838   3.992   4.457
 1982SOL    HW1 6845   0.855   4.070   4.397
 1982SOL    HW2 6846   0.789   4.023   4.539
 1983SOL     OW 6847   1.293   0.656   1.925
 1983SOL    HW1 6848   1.298   0.607   2.012
 1983SOL    HW2 6849   1.206   0.705   1.919
 1984SOL     OW 6850   5.353   2.739   4.694
 1984SOL    HW1 6851   5.277   2.693   4.742
 1984SOL    HW2 6852   5.426   2.759   4.759
 1985SOL     OW 6853   0.716   6.412   2.409
 1985SOL    HW1 6854   0.674   6.494   2.449
 1985SOL    HW2 6855   0.707   6.336   2.473
 1986SOL     OW 6856   2.785   1.023   0.037
 1986SOL    HW1 6857   2.712   1.082   0.073
 1986SOL    HW2 6858   2.768   1.003   6.964
 1987SOL     OW 6859   2.148   1.610   2.981
 1987SOL    HW1 6860   2.230   1.629   2.927
 1987SOL    HW2 6861   2.155   1.656   3.069
 1988SOL     OW 6862   6.330   3.813   0.532
 1988SOL    HW1 6863   6.273   3.895   0.526
 1988SOL    HW2 6864   6.275   3.735   0.561
 1989SOL     OW 6865   2.101   5.656   5.000
 1989SOL    HW1 6866   2.177   5.614   4.951
 1989SOL    HW2 6867   2.108   5.756   4.993
 1990SOL     OW 6868   3.640   5.479   0.741
 1990SOL    HW1 6869   3.635   5.570   0.782
 1990SOL    HW2 6870   3.733   5.443   0.750
 1991SOL     OW 6871   3.236   4.598   6.631
 1991SOL    HW1 6872   3.144   4.581   6.665
 1991SOL    HW2 6873   3.246   4.558   6.539
 1992SOL     OW 6874   0.368   0.636   0.346
 1992SOL    HW1 6875   0.428   0.701   0.298
 1992SOL    HW2 6876   0.307   0.592   0.280
 1993SOL     OW 6877   3.815   2.420   6.043
 1993SOL    HW1 6878   3.743   2.487   6.058
 1993SOL    HW2 6879   3.864   2.403   6.129
 1994SOL     OW 6880   0.521   1.581   0.204
 1994SOL    HW1 6881   0.570   1.639   0.139
 1994SOL    HW2 6882   0.552   1.486   0.195
 1995SOL     OW 6883   5.296   2.400   3.645
 1995SOL    HW1 6884   5.236   2.467   3.690
 1995SOL    HW2 6885   5.380   2.446   3.616
 1996SOL     OW 6886   2.567   2.640   0.446
 1996SOL    HW1 6887   2.603   2.664   0.356
 1996SOL    HW2 6888   2.472   2.610   0.437
 1997SOL     OW 6889   3.263   2.115   4.829
 1997SOL    HW1 6890   3.219   2.199   4.860
 1997SOL    HW2 6891   3.300   2.128   4.738
 1998SOL     OW 6892   2.704   3.717   0.350
 1998SOL    HW1 6893   2.751   3.697   0.264
 1998SOL    HW2 6894   2.719   3.642   0.414
 1999SOL     OW 6895   2.170   6.557   6.152
 1999SOL    HW1 6896   2.211   6.602   6.073
 1999SOL    HW2 6897   2.071   6.567   6.149
 2000SOL     OW 6898   4.026   2.809   5.311
 2000SOL    HW1 6899   4.078   2.743   5.258
 2000SOL    HW2 6900   4.088   2.876   5.352
 2001SOL     OW 6901   2.375   0.115   1.471
 2001SOL    HW1 6902   2.289   0.144   1.513
 2001SOL    HW2 6903   2.406   0.186   1.407
 2002SOL     OW 6904   0.571   4.399   0.231
 2002SOL    HW1 6905   0.654   4.345   0.217
 2002SOL    HW2 6906   0.510   4.351   0.294
 2003SOL     OW 6907   6.397   5.266   2.265
 2003SOL    HW1 6908   6.382   5.248   2.168
 2003SOL    HW2 6909   6.481   5.220   2.295
 2004SOL     OW 6910   5.200   1.330   4.391
 2004SOL    HW1 6911   5.205   1.402   4.321
 2004SOL    HW2 6912   5.161   1.368   4.475
 2005SOL     OW 6913   0.152   4.445   0.526
 2005SOL    HW1 6914   0.116   4.445   0.433
 2005SOL    HW2 6915   0.180   4.537   0.552
 2006SOL     OW 6916   5.731   0.115   2.592
 2006SOL    HW1 6917   5.669   0.183   2.553
 2006SOL    HW2 6918   5.684   0.064   2.664
 2007SOL     OW 6919   4.703   4.366   0.593
 2007SOL    HW1 6920   4.693   4.426   0.513
 2007SOL    HW2 6921   4.698   4.421   0.676
 2008SOL     OW 6922   1.764   4.325   3.932
 2008SOL    HW1 6923   1.682   4.339   3.988
 2008SOL    HW2 6924   1.793   4.230   3.939
 2009SOL     OW 6925   5.265   0.461   2.849
 2009SOL    HW1 6926   5.233   0.410   2.929
 2009SOL    HW2 6927   5.357   0.495   2.866
 2010SOL     OW 6928   3.038   1.895   1.993
 2010SOL    HW1 6929   2.951   1.847   1.978
 2010SOL    HW2 6930   3.077   1.923   1.905
 2011SOL     OW 6931   0.003   0.729   4.769
 2011SOL    HW1 6932   6.982   0.755   4.683
 2011SOL    HW2 6933   7.011   0.631   4.785
 2012SOL     OW 6934   1.092   4.210   2.589
 2012SOL    HW1 6935   1.084   4.133   2.653
 2012SOL    HW2 6936   1.188   4.220   2.562
 2013SOL     OW 6937   6.279   2.739   2.914
 2013SOL    HW1 6938   6.332   2.654   2.917
 2013SOL    HW2 6939   6.248   2.762   3.006
 2014SOL     OW 6940   3.017   6.511   3.440
 2014SOL    HW1 6941   2.960   6.474   3.366
 2014SOL    HW2 6942   3.001   6.459   3.524
 2015SOL     OW 6943   2.212   0.416   0.196
 2015SOL    HW1 6944   2.223   0.377   0.105
 2015SOL    HW2 6945   2.237   0.513   0.194
 2016SOL     OW 6946   1.937   6.471   5.476
 2016SOL    HW1 6947   1.891   6.417   5.546
 2016SOL    HW2 6948   1.951   6.414   5.394
 2017SOL     OW 6949   3.997   0.311   3.735
 2017SOL    HW1 6950   4.008   0.404   3.701
 2017SOL    HW2 6951   4.024   0.246   3.663
 2018SOL     OW 6952   5.486   2.537   4.162
 2018SOL    HW1 6953   5.421   2.590   4.108
 2018SOL    HW2 6954   5.575   2.536   4.115
 2019SOL     OW 6955   5.254   3.719   5.966
 2019SOL    HW1 6956   5.311   3.800   5.953
 2019SOL    HW2 6957   5.200   3.729   6.050
 2020SOL     OW 6958   2.311   0.194   5.212
 2020SOL    HW1 6959   2.278   0.100   5.219
 2020SOL    HW2 6960   2.297   0.227   5.119
 2021SOL     OW 6961   6.799   6.949   5.104
 2021SOL    HW1 6962   6.865   6.959   5.029
 2021SOL    HW2 6963   6.731   6.881   5.080
 2022SOL     OW 6964   1.218   5.077   3.462
 2022SOL    HW1 6965   1.181   5.080   3.555
 2022SOL    HW2 6966   1.218   5.170   3.424
 2023SOL     OW 6967   0.178   0.421   6.421
 2023SOL    HW1 6968   0.238   0.342   6.436
 2023SOL    HW2 6969   0.232   0.505   6.419
 2024SOL     OW 6970   7.003   5.898   3.311
 2024SOL    HW1 6971   6.909   5.899   3.348
 2024SOL    HW2 6972   7.020   5.983   3.262
 2025SOL     OW 6973   3.636   1.045   3.713
 2025SOL    HW1 6974   3.624   0.954   3.673
 2025SOL    HW2 6975   3.605   1.115   3.648
 2026SOL     OW 6976   6.212   3.187   5.615
 2026SOL    HW1 6977   6.170   3.118   5.557
 2026SOL    HW2 6978   6.241   3.144   5.701
 2027SOL     OW 6979   1.106   0.011   0.008
 2027SOL    HW1 6980   1.096   6.942   0.046
 2027SOL    HW2 6981   1.156   0.068   0.073
 2028SOL     OW 6982   2.796   5.484   4.441
 2028SOL    HW1 6983   2.863   5.411   4.443
 2028SOL    HW2 6984   2.704   5.446   4.431
 2029SOL     OW 6985   6.219   1.814   0.162
 2029SOL    HW1 6986   6.291   1.773   0.219
 2029SOL    HW2 6987   6.240   1.911   0.147
 2030SOL     OW 6988   3.194   0.708   3.610
 2030SOL    HW1 6989   3.239   0.785   3.655
 2030SOL    HW2 6990   3.189   0.631   3.673
 2031SOL     OW 6991   6.803   5.819   1.612
 2031SOL    HW1 6992   6.852   5.899   1.645
 2031SOL    HW2 6993   6.864   5.740   1.610
 2032SOL     OW 6994   4.189   0.731   1.890
 2032SOL    HW1 6995   4.165   0.719   1.794
 2032SOL    HW2 6996   4.254   0.806   1.900
 2033SOL     OW 6997   2.939   2.672   0.070
 2033SOL    HW1 6998   3.034   2.685   0.041
 2033SOL    HW2 6999   2.889   2.757   0.060
 2034SOL     OW 7000   2.260   5.025   5.060
 2034SOL    HW1 7001   2.196   4.985   4.995
 2034SOL    HW2 7002   2.212   5.096   5.114
 2035SOL     OW 7003   6.030   6.443   3.552
 2035SOL    HW1 7004   6.039   6.542   3.535
 2035SOL    HW2 7005   6.022   6.395   3.465
 2036SOL     OW 7006   0.886   3.559   2.788
 2036SOL    HW1 7007   0.832   3.565   2.872
 2036SOL    HW2 7008   0.969   3.505   2.805
 2037SOL     OW 7009   6.573   3.097   5.939
 2037SOL    HW1 7010   6.637   3.128   5.868
 2037SOL    HW2 7011   6.560   2.998   5.931
 2038SOL     OW 7012   1.868   1.411   0.485
 2038SOL    HW1 7013   1.939   1.341   0.490
 2038SOL    HW2 7014   1.778   1.370   0.503
 2039SOL     OW 7015   6.855   5.564   3.491
 2039SOL    HW1 7016   6.804   5.565   3.576
 2039SOL    HW2 7017   6.937   5.506   3.501
 2040SOL     OW 7018   1.692   2.888   6.463
 2040SOL    HW1 7019   1.789   2.898   6.487
 2040SOL    HW2 7020   1.669   2.791   6.456
 2041SOL     OW 7021   0.816   6.366   5.524
 2041SOL    HW1 7022   0.743   6.298   5.514
 2041SOL    HW2 7023   0.809   6.433   5.450
 2042SOL     OW 7024   4.456   6.273   6.982
 2042SOL    HW1 7025   4.450   6.279   6.882
 2042SOL    HW2 7026   4.397   6.200   7.015
 2043SOL     OW 7027   6.428   3.895   3.400
 2043SOL    HW1 7028   6.468   3.920   3.488
 2043SOL    HW2 7029   6.471   3.950   3.327
 2044SOL     OW 7030   6.763   0.804   1.676
 2044SOL    HW1 7031   6.856   0.812   1.711
 2044SOL    HW2 7032   6.748   0.872   1.604
 2045SOL     OW 7033   1.657   5.483   4.597
 2045SOL    HW1 7034   1.698   5.559   4.546
 2045SOL    HW2 7035   1.598   5.519   4.670
 2046SOL     OW 7036   6.930   1.988   3.916
 2046SOL    HW1 7037   7.009   1.945   3.961
 2046SOL    HW2 7038   6.859   1.919   3.902
 2047SOL     OW 7039   6.778   3.133   0.350
 2047SOL    HW1 7040   6.690   3.148   0.305
 2047SOL    HW2 7041   6.809   3.040   0.330
 2048SOL     OW 7042   0.914   6.766   5.704
 2048SOL    HW1 7043   0.958   6.787   5.792
 2048SOL    HW2 7044   0.964   6.811   5.630
 2049SOL     OW 7045   6.096   1.396   4.077
 2049SOL    HW1 7046   6.002   1.365   4.061
 2049SOL    HW2 7047   6.097   1.460   4.154
 2050SOL     OW 7048   5.968   2.792   3.748
 2050SOL    HW1 7049   6.042   2.831   3.693
 2050SOL    HW2 7050   6.006   2.728   3.815
 2051SOL     OW 7051   1.613   5.891   6.611
 2051SOL    HW1 7052   1.623   5.876   6.710
 2051SOL    HW2 7053   1.703   5.889   6.567
 2052SOL     OW 7054   1.916   2.994   1.316
 2052SOL    HW1 7055   1.990   3.057   1.337
 2052SOL    HW2 7056   1.944   2.933   1.242
 2053SOL     OW 7057   6.566   6.020   4.563
 2053SOL    HW1 7058   6.518   5.957   4.502
 2053SOL    HW2 7059   6.520   6.021   4.652
 2054SOL     OW 7060   3.624   4.085   3.234
 2054SOL    HW1 7061   3.564   4.007   3.217
 2054SOL    HW2 7062   3.593   4.133   3.316
 2055SOL     OW 7063   5.713   3.599   4.322
 2055SOL    HW1 7064   5.685   3.645   4.237
 2055SOL    HW2 7065   5.713   3.665   4.397
 2056SOL     OW 7066   4.396   5.188   0.987
 2056SOL    HW1 7067   4.487   5.196   1.026
 2056SOL    HW2 7068   4.355   5.101   1.015
 2057SOL     OW 7069   5.216   4.214   5.844
 2057SOL    HW1 7070   5.226   4.125   5.890
 2057SOL    HW2 7071   5.169   4.277   5.905
 2058SOL     OW 7072   0.410   6.773   2.739
 2058SOL    HW1 7073   0.421   6.741   2.833
 2058SOL    HW2 7074   0.334   6.838   2.735
 2059SOL     OW 7075   1.898   6.209   6.045
 2059SOL    HW1 7076   1.828   6.185   5.978
 2059SOL    HW2 7077   1.987   6.216   6.000
 2060SOL     OW 7078   0.533   3.727   1.253
 2060SOL    HW1 7079   0.464   3.751   1.184
 2060SOL    HW2 7080   0.539   3.800   1.321
 2061SOL     OW 7081   1.625   2.013   2.106
 2061SOL    HW1 7082   1.678   1.930   2.120
 2061SOL    HW2 7083   1.676   2.076   2.048
 2062SOL     OW 7084   0.095   5.315   5.693
 2062SOL    HW1 7085   0.068   5.308   5.597
 2062SOL    HW2 7086   0.026   5.270   5.750
 2063SOL     OW 7087   1.366   6.564   5.055
 2063SOL    HW1 7088   1.269   6.575   5.078
 2063SOL    HW2 7089   1.420   6.565   5.139
 2064SOL     OW 7090   0.042   2.375   4.856
 2064SOL    HW1 7091   6.972   2.359   4.885
 2064SOL    HW2 7092   0.062   2.473   4.860
 2065SOL     OW 7093   6.074   2.642   6.132
 2065SOL    HW1 7094   6.093   2.696   6.214
 2065SOL    HW2 7095   5.976   2.645   6.112
 2066SOL     OW 7096   6.995   4.092   5.223
 2066SOL    HW1 7097   0.054   4.112   5.170
 2066SOL    HW2 7098   7.007   4.125   5.317
 2067SOL     OW 7099   0.062   5.006   0.656
 2067SOL    HW1 7100   0.106   5.056   0.582
 2067SOL    HW2 7101   0.077   4.907   0.644
 2068SOL     OW 7102   2.439   0.216   4.010
 2068SOL    HW1 7103   2.377   0.164   3.950
 2068SOL    HW2 7104   2.385   0.274   4.071
 2069SOL     OW 7105   6.122   2.608   3.936
 2069SOL    HW1 7106   6.149   2.554   4.016
 2069SOL    HW2 7107   6.192   2.676   3.917
 2070SOL     OW 7108   1.298   1.770   1.067
 2070SOL    HW1 7109   1.381   1.749   1.015
 2070SOL    HW2 7110   1.317   1.844   1.131
 2071SOL     OW 7111   5.885   0.631   5.841
 2071SOL    HW1 7112   5.851   0.713   5.886
 2071SOL    HW2 7113   5.931   0.657   5.756
 2072SOL     OW 7114   4.572   5.238   4.305
 2072SOL    HW1 7115   4.613   5.320   4.268
 2072SOL    HW2 7116   4.472   5.244   4.298
 2073SOL     OW 7117   4.533   6.737   4.874
 2073SOL    HW1 7118   4.468   6.764   4.945
 2073SOL    HW2 7119   4.588   6.817   4.848
 2074SOL     OW 7120   2.248   2.733   6.151
 2074SOL    HW1 7121   2.347   2.728   6.137
 2074SOL    HW2 7122   2.225   2.816   6.202
 2075SOL     OW 7123   6.711   2.394   3.107
 2075SOL    HW1 7124   6.673   2.302   3.096
 2075SOL    HW2 7125   6.680   2.453   3.032
 2076SOL     OW 7126   5.168   6.619   6.351
 2076SOL    HW1 7127   5.089   6.651   6.404
 2076SOL    HW2 7128   5.201   6.533   6.391
 2077SOL     OW 7129   6.750   1.955   2.181
 2077SOL    HW1 7130   6.794   2.044   2.169
 2077SOL    HW2 7131   6.773   1.897   2.103
 2078SOL     OW 7132   2.161   5.470   6.468
 2078SOL    HW1 7133   2.141   5.507   6.558
 2078SOL    HW2 7134   2.114   5.525   6.398
 2079SOL     OW 7135   0.134   1.553   2.773
 2079SOL    HW1 7136   0.133   1.574   2.871
 2079SOL    HW2 7137   0.062   1.486   2.753
 2080SOL     OW 7138   2.470   0.681   5.166
 2080SOL    HW1 7139   2.532   0.630   5.107
 2080SOL    HW2 7140   2.521   0.720   5.243
 2081SOL     OW 7141   1.008   6.604   4.536
 2081SOL    HW1 7142   0.998   6.685   4.478
 2081SOL    HW2 7143   0.932   6.542   4.519
 2082SOL     OW 7144   0.634   6.463   3.240
 2082SOL    HW1 7145   0.676   6.372   3.246
 2082SOL    HW2 7146   0.693   6.524   3.188
 2083SOL     OW 7147   1.325   5.848   5.204
 2083SOL    HW1 7148   1.400   5.798   5.160
 2083SOL    HW2 7149   1.350   5.868   5.299
 2084SOL     OW 7150   0.522   3.666   2.718
 2084SOL    HW1 7151   0.443   3.700   2.769
 2084SOL    HW2 7152   0.490   3.622   2.634
 2085SOL     OW 7153   5.092   0.250   1.135
 2085SOL    HW1 7154   5.140   0.296   1.210
 2085SOL    HW2 7155   5.149   0.176   1.099
 2086SOL     OW 7156   3.544   6.311   6.810
 2086SOL    HW1 7157   3.552   6.369   6.729
 2086SOL    HW2 7158   3.611   6.237   6.805
 2087SOL     OW 7159   5.002   1.457   1.959
 2087SOL    HW1 7160   5.072   1.527   1.946
 2087SOL    HW2 7161   4.959   1.436   1.871
 2088SOL     OW 7162   1.242   6.046   6.725
 2088SOL    HW1 7163   1.217   5.957   6.688
 2088SOL    HW2 7164   1.336   6.068   6.699
 2089SOL     OW 7165   4.747   2.792   5.955
 2089SOL    HW1 7166   4.824   2.737   5.923
 2089SOL    HW2 7167   4.726   2.767   6.049
 2090SOL     OW 7168   4.554   3.204   5.725
 2090SOL    HW1 7169   4.599   3.287   5.759
 2090SOL    HW2 7170   4.624   3.134   5.708
 2091SOL     OW 7171   0.053   5.058   0.918
 2091SOL    HW1 7172   0.070   4.969   0.960
 2091SOL    HW2 7173   0.076   5.053   0.820
 2092SOL     OW 7174   5.209   3.680   0.622
 2092SOL    HW1 7175   5.309   3.686   0.628
 2092SOL    HW2 7176   5.177   3.608   0.684
 2093SOL     OW 7177   3.045   2.307   1.640
 2093SOL    HW1 7178   3.107   2.251   1.695
 2093SOL    HW2 7179   2.980   2.355   1.700
 2094SOL     OW 7180   5.281   1.376   1.510
 2094SOL    HW1 7181   5.371   1.409   1.483
 2094SOL    HW2 7182   5.285   1.341   1.604
 2095SOL     OW 7183   5.988   6.444   4.551
 2095SOL    HW1 7184   6.017   6.540   4.547
 2095SOL    HW2 7185   5.943   6.419   4.465
 2096SOL     OW 7186   4.903   5.472   3.370
 2096SOL    HW1 7187   4.895   5.520   3.458
 2096SOL    HW2 7188   4.997   5.437   3.360
 2097SOL     OW 7189   2.929   3.063   0.069
 2097SOL    HW1 7190   3.006   3.005   0.094
 2097SOL    HW2 7191   2.963   3.153   0.040
 2098SOL     OW 7192   4.358   6.253   2.371
 2098SOL    HW1 7193   4.386   6.158   2.385
 2098SOL    HW2 7194   4.414   6.294   2.299
 2099SOL     OW 7195   3.863   1.725   0.323
 2099SOL    HW1 7196   3.801   1.791   0.366
 2099SOL    HW2 7197   3.815   1.678   0.249
 2100SOL     OW 7198   5.767   1.390   0.812
 2100SOL    HW1 7199   5.762   1.293   0.835
 2100SOL    HW2 7200   5.811   1.401   0.723
 2101SOL     OW 7201   0.117   6.460   1.010
 2101SOL    HW1 7202   0.051   6.528   1.045
 2101SOL    HW2 7203   0.070   6.374   0.991
 2102SOL     OW 7204   5.164   3.626   1.955
 2102SOL    HW1 7205   5.222   3.602   1.877
 2102SOL    HW2 7206   5.090   3.686   1.923
 2103SOL     OW 7207   3.568   3.245   6.959
 2103SOL    HW1 7208   3.563   3.323   6.897
 2103SOL    HW2 7209   3.578   3.278   0.030
 2104SOL     OW 7210   1.749   4.551   2.494
 2104SOL    HW1 7211   1.736   4.477   2.428
 2104SOL    HW2 7212   1.759   4.638   2.446
 2105SOL     OW 7213   4.714   5.191   6.430
 2105SOL    HW1 7214   4.669   5.140   6.502
 2105SOL    HW2 7215   4.797   5.142   6.401
 2106SOL     OW 7216   4.972   3.775   1.858
 2106SOL    HW1 7217   5.020   3.850   1.903
 2106SOL    HW2 7218   4.884   3.808   1.824
 2107SOL     OW 7219   5.997   2.325   5.472
 2107SOL    HW1 7220   5.914   2.310   5.418
 2107SOL    HW2 7221   6.072   2.351   5.412
 2108SOL     OW 7222   6.437   5.387   5.202
 2108SOL    HW1 7223   6.339   5.405   5.195
 2108SOL    HW2 7224   6.487   5.472   5.183
 2109SOL     OW 7225   3.717   5.969   2.423
 2109SOL    HW1 7226   3.644   6.006   2.365
 2109SOL    HW2 7227   3.763   5.894   2.375
 2110SOL     OW 7228   3.231   0.719   0.149
 2110SOL    HW1 7229   3.186   0.631   0.139
 2110SOL    HW2 7230   3.175   0.779   0.207
 2111SOL     OW 7231   2.118   3.648   6.273
 2111SOL    HW1 7232   2.144   3.552   6.263
 2111SOL    HW2 7233   2.150   3.683   6.360
 2112SOL     OW 7234   4.941   1.901   0.668
 2112SOL    HW1 7235   4.927   1.805   0.648
 2112SOL    HW2 7236   4.907   1.957   0.592
 2113SOL     OW 7237   2.396   0.856   4.919
 2113SOL    HW1 7238   2.307   0.900   4.934
 2113SOL    HW2 7239   2.424   0.807   5.001
 2114SOL     OW 7240   2.844   2.218   6.611
 2114SOL    HW1 7241   2.777   2.158   6.654
 2114SOL    HW2 7242   2.796   2.292   6.563
 2115SOL     OW 7243   0.936   4.209   2.010
 2115SOL    HW1 7244   0.875   4.276   2.054
 2115SOL    HW2 7245   0.895   4.118   2.017
 2116SOL     OW 7246   1.246   3.230   2.332
 2116SOL    HW1 7247   1.319   3.166   2.310
 2116SOL    HW2 7248   1.178   3.229   2.259
 2117SOL     OW 7249   5.904   3.750   1.304
 2117SOL    HW1 7250   5.880   3.790   1.392
 2117SOL    HW2 7251   5.825   3.702   1.266
 2118SOL     OW 7252   6.808   3.405   3.524
 2118SOL    HW1 7253   6.725   3.360   3.556
 2118SOL    HW2 7254   6.886   3.343   3.535
 2119SOL     OW 7255   1.833   0.934   0.691
 2119SOL    HW1 7256   1.892   0.916   0.612
 2119SOL    HW2 7257   1.781   0.852   0.713
 2120SOL     OW 7258   0.417   3.516   2.490
 2120SOL    HW1 7259   0.461   3.429   2.511
 2120SOL    HW2 7260   0.319   3.508   2.505
 2121SOL     OW 7261   1.737   2.682   5.899
 2121SOL    HW1 7262   1.696   2.768   5.871
 2121SOL    HW2 7263   1.767   2.631   5.818
 2122SOL     OW 7264   5.332   6.097   6.800
 2122SOL    HW1 7265   5.262   6.102   6.871
 2122SOL    HW2 7266   5.402   6.031   6.827
 2123SOL     OW 7267   6.526   5.934   1.307
 2123SOL    HW1 7268   6.594   5.991   1.262
 2123SOL    HW2 7269   6.480   5.877   1.239
 2124SOL     OW 7270   2.605   1.637   6.956
 2124SOL    HW1 7271   2.543   1.588   7.017
 2124SOL    HW2 7272   2.678   1.576   6.926
 2125SOL     OW 7273   0.886   5.803   1.959
 2125SOL    HW1 7274   0.928   5.732   2.016
 2125SOL    HW2 7275   0.943   5.884   1.958
 2126SOL     OW 7276   3.315   2.799   6.634
 2126SOL    HW1 7277   3.319   2.788   6.734
 2126SOL    HW2 7278   3.327   2.895   6.610
 2127SOL     OW 7279   0.689   1.592   5.582
 2127SOL    HW1 7280   0.627   1.541   5.523
 2127SOL    HW2 7281   0.695   1.547   5.671
 2128SOL     OW 7282   6.239   2.136   2.216
 2128SOL    HW1 7283   6.284   2.132   2.306
 2128SOL    HW2 7284   6.148   2.096   2.223
 2129SOL     OW 7285   4.555   4.681   4.984
 2129SOL    HW1 7286   4.467   4.647   5.016
 2129SOL    HW2 7287   4.540   4.752   4.915
 2130SOL     OW 7288   2.742   0.785   2.200
 2130SOL    HW1 7289   2.759   0.727   2.120
 2130SOL    HW2 7290   2.765   0.734   2.283
 2131SOL     OW 7291   5.247   0.697   0.897
 2131SOL    HW1 7292   5.344   0.678   0.885
 2131SOL    HW2 7293   5.215   0.758   0.824
 2132SOL     OW 7294   3.201   1.700   6.762
 2132SOL    HW1 7295   3.217   1.789   6.720
 2132SOL    HW2 7296   3.108   1.669   6.740
 2133SOL     OW 7297   3.410   2.536   1.200
 2133SOL    HW1 7298   3.466   2.472   1.252
 2133SOL    HW2 7299   3.468   2.606   1.159
 2134SOL     OW 7300   0.969   0.846   4.925
 2134SOL    HW1 7301   0.988   0.938   4.890
 2134SOL    HW2 7302   1.039   0.783   4.891
 2135SOL     OW 7303   0.665   1.496   4.449
 2135SOL    HW1 7304   0.609   1.562   4.498
 2135SOL    HW2 7305   0.753   1.538   4.425
 2136SOL     OW 7306   1.408   4.072   4.912
 2136SOL    HW1 7307   1.352   4.045   4.990
 2136SOL    HW2 7308   1.398   4.170   4.896
 2137SOL     OW 7309   0.058   6.797   4.043
 2137SOL    HW1 7310   7.008   6.840   4.096
 2137SOL    HW2 7311   0.144   6.847   4.059
 2138SOL     OW 7312   6.477   1.849   2.216
 2138SOL    HW1 7313   6.569   1.883   2.197
 2138SOL    HW2 7314   6.469   1.827   2.313
 2139SOL     OW 7315   4.175   0.816   2.428
 2139SOL    HW1 7316   4.247   0.802   2.360
 2139SOL    HW2 7317   4.164   0.914   2.445
 2140SOL     OW 7318   3.138   5.811   3.132
 2140SOL    HW1 7319   3.199   5.765   3.068
 2140SOL    HW2 7320   3.148   5.910   3.121
 2141SOL     OW 7321   0.373   3.365   1.468
 2141SOL    HW1 7322   0.427   3.390   1.388
 2141SOL    HW2 7323   0.374   3.439   1.534
 2142SOL     OW 7324   1.405   2.180   3.321
 2142SOL    HW1 7325   1.318   2.227   3.333
 2142SOL    HW2 7326   1.464   2.233   3.260
 2143SOL     OW 7327   3.206   4.758   0.893
 2143SOL    HW1 7328   3.214   4.773   0.991
 2143SOL    HW2 7329   3.216   4.660   0.874
 2144SOL     OW 7330   1.230   0.184   2.982
 2144SOL    HW1 7331   1.221   0.283   2.996
 2144SOL    HW2 7332   1.139   0.143   2.976
 2145SOL     OW 7333   3.878   5.696   3.828
 2145SOL    HW1 7334   3.843   5.613   3.872
 2145SOL    HW2 7335   3.802   5.751   3.795
 2146SOL     OW 7336   2.850   3.485   2.106
 2146SOL    HW1 7337   2.878   3.430   2.027
 2146SOL    HW2 7338   2.783   3.435   2.160
 2147SOL     OW 7339   6.795   0.566   6.860
 2147SOL    HW1 7340   6.730   0.642   6.870
 2147SOL    HW2 7341   6.750   0.490   6.813
 2148SOL     OW 7342   4.816   3.044   4.228
 2148SOL    HW1 7343   4.762   2.961   4.238
 2148SOL    HW2 7344   4.909   3.028   4.260
 2149SOL     OW 7345   3.799   0.925   1.369
 2149SOL    HW1 7346   3.771   0.946   1.275
 2149SOL    HW2 7347   3.793   0.826   1.384
 2150SOL     OW 7348   2.156   2.359   2.441
 2150SOL    HW1 7349   2.147   2.450   2.480
 2150SOL    HW2 7350   2.169   2.292   2.514
 2151SOL     OW 7351   2.120   1.256   3.997
 2151SOL    HW1 7352   2.091   1.333   3.939
 2151SOL    HW2 7353   2.045   1.231   4.058
 2152SOL     OW 7354   3.822   5.947   1.018
 2152SOL    HW1 7355   3.737   5.996   1.000
 2152SOL    HW2 7356   3.802   5.866   1.073
 2153SOL     OW 7357   3.485   0.060   3.302
 2153SOL    HW1 7358   3.403   0.004   3.318
 2153SOL    HW2 7359   3.551   0.043   3.375
 2154SOL     OW 7360   4.363   0.074   4.839
 2154SOL    HW1 7361   4.328   0.003   4.900
 2154SOL    HW2 7362   4.444   0.040   4.791
 2155SOL     OW 7363   1.551   5.548   0.042
 2155SOL    HW1 7364   1.481   5.511   7.004
 2155SOL    HW2 7365   1.579   5.638   0.010
 2156SOL     OW 7366   2.671   0.450   2.276
 2156SOL    HW1 7367   2.608   0.470   2.350
 2156SOL    HW2 7368   2.736   0.380   2.305
 2157SOL     OW 7369   6.242   1.524   3.289
 2157SOL    HW1 7370   6.295   1.441   3.274
 2157SOL    HW2 7371   6.291   1.603   3.252
 2158SOL     OW 7372   4.279   6.277   0.753
 2158SOL    HW1 7373   4.304   6.269   0.656
 2158SOL    HW2 7374   4.310   6.196   0.802
 2159SOL     OW 7375   1.748   6.078   5.810
 2159SOL    HW1 7376   1.795   6.037   5.732
 2159SOL    HW2 7377   1.698   6.007   5.860
 2160SOL     OW 7378   4.338   3.107   1.372
 2160SOL    HW1 7379   4.410   3.037   1.370
 2160SOL    HW2 7380   4.288   3.106   1.286
 2161SOL     OW 7381   5.459   2.541   3.446
 2161SOL    HW1 7382   5.498   2.489   3.370
 2161SOL    HW2 7383   5.397   2.611   3.409
 2162SOL     OW 7384   3.121   0.466   0.128
 2162SOL    HW1 7385   3.115   0.432   0.222
 2162SOL    HW2 7386   3.140   0.390   0.066
 2163SOL     OW 7387   0.045   5.299   6.262
 2163SOL    HW1 7388   0.121   5.348   6.305
 2163SOL    HW2 7389   0.068   5.277   6.168
 2164SOL     OW 7390   1.623   2.288   6.935
 2164SOL    HW1 7391   1.639   2.314   6.840
 2164SOL    HW2 7392   1.638   2.190   6.945
 2165SOL     OW 7393   0.837   1.387   2.794
 2165SOL    HW1 7394   0.912   1.422   2.737
 2165SOL    HW2 7395   0.767   1.458   2.803
 2166SOL     OW 7396   2.247   2.365   5.508
 2166SOL    HW1 7397   2.266   2.451   5.556
 2166SOL    HW2 7398   2.231   2.292   5.574
 2167SOL     OW 7399   1.852   1.171   3.422
 2167SOL    HW1 7400   1.827   1.124   3.337
 2167SOL    HW2 7401   1.830   1.268   3.414
 2168SOL     OW 7402   6.851   2.303   3.621
 2168SOL    HW1 7403   6.806   2.334   3.538
 2168SOL    HW2 7404   6.783   2.287   3.692
 2169SOL     OW 7405   5.652   2.456   5.767
 2169SOL    HW1 7406   5.653   2.555   5.762
 2169SOL    HW2 7407   5.563   2.421   5.737
 2170SOL     OW 7408   6.066   4.777   5.923
 2170SOL    HW1 7409   6.070   4.777   6.023
 2170SOL    HW2 7410   6.159   4.774   5.886
 2171SOL     OW 7411   5.940   3.205   0.712
 2171SOL    HW1 7412   5.914   3.191   0.807
 2171SOL    HW2 7413   5.883   3.147   0.653
 2172SOL     OW 7414   2.399   2.113   0.714
 2172SOL    HW1 7415   2.421   2.018   0.690
 2172SOL    HW2 7416   2.402   2.170   0.632
 2173SOL     OW 7417   3.697   0.268   5.702
 2173SOL    HW1 7418   3.757   0.226   5.771
 2173SOL    HW2 7419   3.614   0.213   5.692
 2174SOL     OW 7420   6.064   5.077   5.932
 2174SOL    HW1 7421   5.973   5.118   5.936
 2174SOL    HW2 7422   6.061   4.984   5.968
 2175SOL     OW 7423   3.184   2.094   3.224
 2175SOL    HW1 7424   3.196   1.995   3.211
 2175SOL    HW2 7425   3.271   2.135   3.248
 2176SOL     OW 7426   1.223   2.631   1.224
 2176SOL    HW1 7427   1.195   2.629   1.319
 2176SOL    HW2 7428   1.275   2.548   1.203
 2177SOL     OW 7429   6.201   0.613   2.809
 2177SOL    HW1 7430   6.249   0.565   2.736
 2177SOL    HW2 7431   6.122   0.661   2.770
 2178SOL     OW 7432   1.969   4.365   0.583
 2178SOL    HW1 7433   1.990   4.439   0.519
 2178SOL    HW2 7434   1.907   4.399   0.654
 2179SOL     OW 7435   2.125   5.178   4.762
 2179SOL    HW1 7436   2.104   5.264   4.809
 2179SOL    HW2 7437   2.221   5.153   4.779
 2180SOL     OW 7438   2.962   3.407   1.857
 2180SOL    HW1 7439   2.868   3.413   1.822
 2180SOL    HW2 7440   3.015   3.486   1.825
 2181SOL     OW 7441   5.344   4.378   5.677
 2181SOL    HW1 7442   5.408   4.421   5.740
 2181SOL    HW2 7443   5.294   4.305   5.725
 2182SOL     OW 7444   6.434   3.317   4.844
 2182SOL    HW1 7445   6.387   3.342   4.929
 2182SOL    HW2 7446   6.493   3.392   4.815
 2183SOL     OW 7447   3.985   3.762   6.547
 2183SOL    HW1 7448   4.046   3.684   6.531
 2183SOL    HW2 7449   3.912   3.735   6.609
 2184SOL     OW 7450   3.515   1.250   5.173
 2184SOL    HW1 7451   3.601   1.266   5.221
 2184SOL    HW2 7452   3.471   1.337   5.153
 2185SOL     OW 7453   1.856   2.182   0.477
 2185SOL    HW1 7454   1.810   2.254   0.425
 2185SOL    HW2 7455   1.949   2.170   0.442
 2186SOL     OW 7456   6.674   4.872   2.503
 2186SOL    HW1 7457   6.745   4.827   2.558
 2186SOL    HW2 7458   6.608   4.804   2.471
 2187SOL     OW 7459   0.867   1.944   1.738
 2187SOL    HW1 7460   0.883   1.871   1.805
 2187SOL    HW2 7461   0.812   1.909   1.663
 2188SOL     OW 7462   5.482   5.786   3.693
 2188SOL    HW1 7463   5.519   5.693   3.693
 2188SOL    HW2 7464   5.405   5.791   3.629
 2189SOL     OW 7465   1.748   6.192   6.553
 2189SOL    HW1 7466   1.758   6.282   6.512
 2189SOL    HW2 7467   1.813   6.128   6.510
 2190SOL     OW 7468   6.871   2.361   2.003
 2190SOL    HW1 7469   6.816   2.428   1.953
 2190SOL    HW2 7470   6.937   2.320   1.940
 2191SOL     OW 7471   3.209   1.775   6.141
 2191SOL    HW1 7472   3.182   1.681   6.158
 2191SOL    HW2 7473   3.179   1.802   6.050
 2192SOL     OW 7474   3.704   0.199   4.145
 2192SOL    HW1 7475   3.745   0.132   4.206
 2192SOL    HW2 7476   3.772   0.267   4.118
 2193SOL     OW 7477   6.885   6.212   6.056
 2193SOL    HW1 7478   6.803   6.254   6.096
 2193SOL    HW2 7479   6.922   6.145   6.120
 2194SOL     OW 7480   2.203   4.416   0.147
 2194SOL    HW1 7481   2.154   4.489   0.098
 2194SOL    HW2 7482   2.289   4.396   0.100
 2195SOL     OW 7483   0.377   6.502   2.324
 2195SOL    HW1 7484   0.381   6.403   2.306
 2195SOL    HW2 7485   0.463   6.531   2.366
 2196SOL     OW 7486   2.924   0.406   5.936
 2196SOL    HW1 7487   2.905   0.423   6.033
 2196SOL    HW2 7488   2.866   0.464   5.879
 2197SOL     OW 7489   4.646   3.667   1.533
 2197SOL    HW1 7490   4.586   3.631   1.463
 2197SOL    HW2 7491   4.653   3.601   1.608
 2198SOL     OW 7492   6.678   1.855   0.218
 2198SOL    HW1 7493   6.682   1.954   0.229
 2198SOL    HW2 7494   6.771   1.819   0.212
 2199SOL     OW 7495   5.390   0.855   1.722
 2199SOL    HW1 7496   5.437   0.833   1.807
 2199SOL    HW2 7497   5.443   0.818   1.645
 2200SOL     OW 7498   4.131   0.724   4.762
 2200SOL    HW1 7499   4.202   0.667   4.722
 2200SOL    HW2 7500   4.159   0.751   4.855
 2201SOL     OW 7501   6.570   3.017   2.077
 2201SOL    HW1 7502   6.485   2.965   2.086
 2201SOL    HW2 7503   6.612   3.028   2.167
 2202SOL     OW 7504   3.509   4.904   4.361
 2202SOL    HW1 7505   3.595   4.955   4.359
 2202SOL    HW2 7506   3.496   4.863   4.451
 2203SOL     OW 7507   2.393   2.553   2.180
 2203SOL    HW1 7508   2.447   2.469   2.185
 2203SOL    HW2 7509   2.296   2.529   2.171
 2204SOL     OW 7510   3.423   1.266   6.920
 2204SOL    HW1 7511   3.385   1.179   6.952
 2204SOL    HW2 7512   3.475   1.309   6.994
 2205SOL     OW 7513   1.452   0.077   6.517
 2205SOL    HW1 7514   1.550   0.096   6.507
 2205SOL    HW2 7515   1.399   0.150   6.474
 2206SOL     OW 7516   3.104   4.319   5.253
 2206SOL    HW1 7517   3.034   4.376   5.210
 2206SOL    HW2 7518   3.061   4.242   5.300
 2207SOL     OW 7519   1.917   4.122   6.364
 2207SOL    HW1 7520   1.951   4.038   6.406
 2207SOL    HW2 7521   1.924   4.114   6.264
 2208SOL     OW 7522   1.897   4.447   2.084
 2208SOL    HW1 7523   1.858   4.476   1.996
 2208SOL    HW2 7524   1.964   4.515   2.115
 2209SOL     OW 7525   1.479   6.011   5.743
 2209SOL    HW1 7526   1.459   6.052   5.654
 2209SOL    HW2 7527   1.398   6.017   5.801
 2210SOL     OW 7528   0.173   5.058   3.571
 2210SOL    HW1 7529   0.138   4.965   3.583
 2210SOL    HW2 7530   0.228   5.083   3.651
 2211SOL     OW 7531   5.672   1.577   6.716
 2211SOL    HW1 7532   5.635   1.604   6.627
 2211SOL    HW2 7533   5.666   1.654   6.780
 2212SOL     OW 7534   1.750   6.090   0.727
 2212SOL    HW1 7535   1.725   6.139   0.810
 2212SOL    HW2 7536   1.676   6.097   0.660
 2213SOL     OW 7537   4.518   2.775   5.269
 2213SOL    HW1 7538   4.532   2.797   5.365
 2213SOL    HW2 7539   4.604   2.790   5.219
 2214SOL     OW 7540   4.892   1.207   5.273
 2214SOL    HW1 7541   4.818   1.141   5.285
 2214SOL    HW2 7542   4.978   1.168   5.306
 2215SOL     OW 7543   6.957   1.472   6.048
 2215SOL    HW1 7544   7.015   1.526   5.987
 2215SOL    HW2 7545   6.873   1.446   6.001
 2216SOL     OW 7546   1.812   0.524   0.064
 2216SOL    HW1 7547   1.714   0.537   0.075
 2216SOL    HW2 7548   1.858   0.536   0.152
 2217SOL     OW 7549   3.088   0.165   1.510
 2217SOL    HW1 7550   3.044   0.255   1.511
 2217SOL    HW2 7551   3.022   0.095   1.538
 2218SOL     OW 7552   1.250   6.286   0.498
 2218SOL    HW1 7553   1.182   6.332   0.439
 2218SOL    HW2 7554   1.341   6.296   0.457
 2219SOL     OW 7555   1.031   4.136   3.357
 2219SOL    HW1 7556   1.018   4.227   3.397
 2219SOL    HW2 7557   1.012   4.066   3.425
 2220SOL     OW 7558   0.489   1.026   4.306
 2220SOL    HW1 7559   0.466   1.007   4.402
 2220SOL    HW2 7560   0.434   0.967   4.247
 2221SOL     OW 7561   6.369   0.968   6.862
 2221SOL    HW1 7562   6.332   0.902   6.928
 2221SOL    HW2 7563   6.409   1.045   6.912
 2222SOL     OW 7564   3.868   0.644   0.709
 2222SOL    HW1 7565   3.884   0.564   0.652
 2222SOL    HW2 7566   3.820   0.714   0.657
 2223SOL     OW 7567   5.724   6.553   3.865
 2223SOL    HW1 7568   5.639   6.604   3.850
 2223SOL    HW2 7569   5.745   6.500   3.783
 2224SOL     OW 7570   2.488   4.753   1.665
 2224SOL    HW1 7571   2.530   4.716   1.748
 2224SOL    HW2 7572   2.550   4.819   1.623
 2225SOL     OW 7573   6.113   5.485   3.161
 2225SOL    HW1 7574   6.210   5.484   3.137
 2225SOL    HW2 7575   6.078   5.579   3.154
 2226SOL     OW 7576   4.222   3.305   0.535
 2226SOL    HW1 7577   4.132   3.306   0.491
 2226SOL    HW2 7578   4.284   3.247   0.482
 2227SOL     OW 7579   5.919   4.428   0.264
 2227SOL    HW1 7580   5.932   4.525   0.284
 2227SOL    HW2 7581   5.894   4.417   0.168
 2228SOL     OW 7582   3.432   5.813   0.508
 2228SOL    HW1 7583   3.438   5.726   0.557
 2228SOL    HW2 7584   3.351   5.863   0.539
 2229SOL     OW 7585   4.126   1.411   4.205
 2229SOL    HW1 7586   4.156   1.356   4.283
 2229SOL    HW2 7587   4.082   1.494   4.237
 2230SOL     OW 7588   0.741   6.546   4.299
 2230SOL    HW1 7589   0.739   6.509   4.392
 2230SOL    HW2 7590   0.779   6.477   4.237
 2231SOL     OW 7591   1.608   1.923   1.704
 2231SOL    HW1 7592   1.648   1.866   1.632
 2231SOL    HW2 7593   1.662   1.912   1.788
 2232SOL     OW 7594   0.842   2.719   3.731
 2232SOL    HW1 7595   0.940   2.720   3.712
 2232SOL    HW2 7596   0.792   2.689   3.650
 2233SOL     OW 7597   2.930   4.796   0.482
 2233SOL    HW1 7598   3.027   4.799   0.507
 2233SOL    HW2 7599   2.879   4.860   0.539
 2234SOL     OW 7600   4.660   2.307   1.367
 2234SOL    HW1 7601   4.677   2.263   1.456
 2234SOL    HW2 7602   4.715   2.262   1.297
 2235SOL     OW 7603   1.330   0.361   0.362
 2235SOL    HW1 7604   1.255   0.341   0.426
 2235SOL    HW2 7605   1.370   0.450   0.385
 2236SOL     OW 7606   1.106   4.804   0.575
 2236SOL    HW1 7607   1.060   4.798   0.486
 2236SOL    HW2 7608   1.141   4.714   0.600
 2237SOL     OW 7609   6.010   3.887   4.648
 2237SOL    HW1 7610   5.946   3.821   4.610
 2237SOL    HW2 7611   6.045   3.852   4.736
 2238SOL     OW 7612   6.760   5.805   2.725
 2238SOL    HW1 7613   6.771   5.829   2.821
 2238SOL    HW2 7614   6.669   5.766   2.710
 2239SOL     OW 7615   3.918   5.112   3.457
 2239SOL    HW1 7616   3.888   5.201   3.423
 2239SOL    HW2 7617   4.015   5.118   3.483
 2240SOL     OW 7618   5.415   5.489   3.829
 2240SOL    HW1 7619   5.455   5.521   3.915
 2240SOL    HW2 7620   5.429   5.391   3.821
 2241SOL     OW 7621   6.934   6.384   2.508
 2241SOL    HW1 7622   6.916   6.286   2.521
 2241SOL    HW2 7623   0.005   6.397   2.479
 2242SOL     OW 7624   5.182   1.964   3.445
 2242SOL    HW1 7625   5.271   1.987   3.408
 2242SOL    HW2 7626   5.188   1.879   3.498
 2243SOL     OW 7627   3.012   6.285   5.303
 2243SOL    HW1 7628   2.935   6.320   5.357
 2243SOL    HW2 7629   2.984   6.202   5.255
 2244SOL     OW 7630   3.683   0.221   2.911
 2244SOL    HW1 7631   3.748   0.148   2.931
 2244SOL    HW2 7632   3.712   0.305   2.957
 2245SOL     OW 7633   0.446   2.280   1.447
 2245SOL    HW1 7634   0.471   2.197   1.498
 2245SOL    HW2 7635   0.492   2.279   1.358
 2246SOL     OW 7636   1.527   1.700   5.433
 2246SOL    HW1 7637   1.467   1.667   5.506
 2246SOL    HW2 7638   1.600   1.633   5.416
 2247SOL     OW 7639   2.143   2.510   6.703
 2247SOL    HW1 7640   2.221   2.499   6.641
 2247SOL    HW2 7641   2.059   2.518   6.650
 2248SOL     OW 7642   4.822   3.812   5.763
 2248SOL    HW1 7643   4.881   3.857   5.831
 2248SOL    HW2 7644   4.876   3.795   5.680
 2249SOL     OW 7645   5.644   6.483   2.707
 2249SOL    HW1 7646   5.659   6.578   2.734
 2249SOL    HW2 7647   5.622   6.479   2.609
 2250SOL     OW 7648   5.138   3.831   1.173
 2250SOL    HW1 7649   5.156   3.817   1.076
 2250SOL    HW2 7650   5.143   3.928   1.195
 2251SOL     OW 7651   6.055   1.440   0.231
 2251SOL    HW1 7652   6.042   1.527   0.277
 2251SOL    HW2 7653   6.141   1.399   0.261
 2252SOL     OW 7654   6.432   2.487   4.634
 2252SOL    HW1 7655   6.468   2.577   4.659
 2252SOL    HW2 7656   6.352   2.466   4.691
 2253SOL     OW 7657   1.117   3.232   6.660
 2253SOL    HW1 7658   1.120   3.201   6.755
 2253SOL    HW2 7659   1.061   3.169   6.606
 2254SOL     OW 7660   2.533   3.019   6.003
 2254SOL    HW1 7661   2.480   2.954   5.948
 2254SOL    HW2 7662   2.602   3.062   5.945
 2255SOL     OW 7663   6.579   2.436   0.926
 2255SOL    HW1 7664   6.588   2.507   0.856
 2255SOL    HW2 7665   6.570   2.479   1.016
 2256SOL     OW 7666   4.138   5.703   1.683
 2256SOL    HW1 7667   4.085   5.678   1.601
 2256SOL    HW2 7668   4.135   5.627   1.748
 2257SOL     OW 7669   0.923   2.877   4.695
 2257SOL    HW1 7670   1.012   2.909   4.662
 2257SOL    HW2 7671   0.917   2.778   4.681
 2258SOL     OW 7672   1.046   5.686   4.679
 2258SOL    HW1 7673   1.014   5.657   4.769
 2258SOL    HW2 7674   1.099   5.613   4.637
 2259SOL     OW 7675   4.915   3.551   5.659
 2259SOL    HW1 7676   4.957   3.524   5.746
 2259SOL    HW2 7677   4.828   3.596   5.677
 2260SOL     OW 7678   4.349   4.659   3.007
 2260SOL    HW1 7679   4.410   4.636   2.931
 2260SOL    HW2 7680   4.382   4.615   3.090
 2261SOL     OW 7681   5.972   6.761   0.982
 2261SOL    HW1 7682   6.022   6.675   0.973
 2261SOL    HW2 7683   5.998   6.806   1.067
 2262SOL     OW 7684   5.666   2.374   2.626
 2262SOL    HW1 7685   5.568   2.362   2.645
 2262SOL    HW2 7686   5.695   2.306   2.559
 2263SOL     OW 7687   2.673   5.733   6.255
 2263SOL    HW1 7688   2.597   5.685   6.299
 2263SOL    HW2 7689   2.673   5.712   6.157
 2264SOL     OW 7690   3.674   3.852   2.667
 2264SOL    HW1 7691   3.668   3.938   2.617
 2264SOL    HW2 7692   3.697   3.778   2.603
 2265SOL     OW 7693   0.292   0.519   3.401
 2265SOL    HW1 7694   0.279   0.483   3.309
 2265SOL    HW2 7695   0.389   0.524   3.422
 2266SOL     OW 7696   6.925   1.421   1.251
 2266SOL    HW1 7697   6.929   1.356   1.175
 2266SOL    HW2 7698   6.909   1.513   1.215
 2267SOL     OW 7699   5.684   2.619   4.707
 2267SOL    HW1 7700   5.648   2.587   4.619
 2267SOL    HW2 7701   5.671   2.718   4.713
 2268SOL     OW 7702   6.979   4.904   0.294
 2268SOL    HW1 7703   6.950   4.857   0.377
 2268SOL    HW2 7704   6.959   5.002   0.302
 2269SOL     OW 7705   6.376   5.819   5.105
 2269SOL    HW1 7706   6.290   5.770   5.094
 2269SOL    HW2 7707   6.385   5.888   5.034
 2270SOL     OW 7708   4.022   3.864   0.534
 2270SOL    HW1 7709   4.053   3.888   0.626
 2270SOL    HW2 7710   4.050   3.935   0.470
 2271SOL     OW 7711   6.113   3.998   1.554
 2271SOL    HW1 7712   6.044   4.069   1.544
 2271SOL    HW2 7713   6.204   4.037   1.541
 2272SOL     OW 7714   6.519   1.850   4.765
 2272SOL    HW1 7715   6.494   1.945   4.786
 2272SOL    HW2 7716   6.438   1.792   4.768
 2273SOL     OW 7717   1.370   1.662   1.965
 2273SOL    HW1 7718   1.468   1.668   1.943
 2273SOL    HW2 7719   1.345   1.740   2.023
 2274SOL     OW 7720   1.031   3.214   5.756
 2274SOL    HW1 7721   1.071   3.256   5.675
 2274SOL    HW2 7722   1.005   3.285   5.822
 2275SOL     OW 7723   4.832   6.922   5.167
 2275SOL    HW1 7724   4.797   7.008   5.131
 2275SOL    HW2 7725   4.902   6.886   5.106
 2276SOL     OW 7726   3.307   4.907   1.354
 2276SOL    HW1 7727   3.366   4.878   1.279
 2276SOL    HW2 7728   3.307   4.837   1.426
 2277SOL     OW 7729   2.865   3.600   4.726
 2277SOL    HW1 7730   2.796   3.544   4.681
 2277SOL    HW2 7731   2.834   3.624   4.818
 2278SOL     OW 7732   5.017   6.637   3.730
 2278SOL    HW1 7733   4.989   6.657   3.636
 2278SOL    HW2 7734   4.985   6.546   3.755
 2279SOL     OW 7735   5.742   5.272   4.425
 2279SOL    HW1 7736   5.700   5.208   4.490
 2279SOL    HW2 7737   5.670   5.325   4.381
 2280SOL     OW 7738   5.662   6.218   5.002
 2280SOL    HW1 7739   5.600   6.297   5.006
 2280SOL    HW2 7740   5.706   6.214   4.912
 2281SOL     OW 7741   3.731   1.198   1.999
 2281SOL    HW1 7742   3.723   1.296   1.984
 2281SOL    HW2 7743   3.664   1.150   1.943
 2282SOL     OW 7744   5.416   6.252   5.188
 2282SOL    HW1 7745   5.369   6.253   5.276
 2282SOL    HW2 7746   5.452   6.344   5.169
 2283SOL     OW 7747   6.652   4.106   1.488
 2283SOL    HW1 7748   6.647   4.019   1.537
 2283SOL    HW2 7749   6.732   4.107   1.428
 2284SOL     OW 7750   2.297   1.772   1.043
 2284SOL    HW1 7751   2.203   1.767   1.010
 2284SOL    HW2 7752   2.300   1.826   1.127
 2285SOL     OW 7753   2.316   3.458   6.840
 2285SOL    HW1 7754   2.244   3.497   6.783
 2285SOL    HW2 7755   2.314   3.502   6.930
 2286SOL     OW 7756   6.307   6.364   4.891
 2286SOL    HW1 7757   6.321   6.320   4.802
 2286SOL    HW2 7758   6.396   6.390   4.930
 2287SOL     OW 7759   2.464   2.629   1.914
 2287SOL    HW1 7760   2.445   2.621   2.012
 2287SOL    HW2 7761   2.378   2.639   1.864
 2288SOL     OW 7762   6.999   5.784   4.450
 2288SOL    HW1 7763   6.926   5.850   4.468
 2288SOL    HW2 7764   6.983   5.739   4.362
 2289SOL     OW 7765   5.928   3.526   2.609
 2289SOL    HW1 7766   6.017   3.486   2.631
 2289SOL    HW2 7767   5.940   3.597   2.540
 2290SOL     OW 7768   2.346   3.885   1.831
 2290SOL    HW1 7769   2.315   3.963   1.776
 2290SOL    HW2 7770   2.446   3.886   1.836
 2291SOL     OW 7771   2.204   2.276   0.827
 2291SOL    HW1 7772   2.276   2.216   0.793
 2291SOL    HW2 7773   2.241   2.334   0.900
 2292SOL     OW 7774   5.074   2.881   3.946
 2292SOL    HW1 7775   5.158   2.907   3.900
 2292SOL    HW2 7776   5.086   2.888   4.045
 2293SOL     OW 7777   6.438   0.931   0.686
 2293SOL    HW1 7778   6.421   1.029   0.691
 2293SOL    HW2 7779   6.446   0.893   0.778
 2294SOL     OW 7780   3.382   1.956   6.252
 2294SOL    HW1 7781   3.447   1.977   6.179
 2294SOL    HW2 7782   3.307   1.900   6.216
 2295SOL     OW 7783   6.953   1.139   2.968
 2295SOL    HW1 7784   0.014   1.086   2.978
 2295SOL    HW2 7785   6.935   1.191   3.051
 2296SOL     OW 7786   2.408   5.186   3.060
 2296SOL    HW1 7787   2.425   5.219   3.153
 2296SOL    HW2 7788   2.490   5.201   3.004
 2297SOL     OW 7789   4.695   4.785   6.066
 2297SOL    HW1 7790   4.708   4.872   6.018
 2297SOL    HW2 7791   4.606   4.746   6.042
 2298SOL     OW 7792   3.515   3.634   3.367
 2298SOL    HW1 7793   3.427   3.620   3.322
 2298SOL    HW2 7794   3.507   3.615   3.464
 2299SOL     OW 7795   4.740   4.093   5.291
 2299SOL    HW1 7796   4.683   4.131   5.364
 2299SOL    HW2 7797   4.796   4.165   5.251
 2300SOL     OW 7798   3.302   6.989   3.628
 2300SOL    HW1 7799   3.400   6.974   3.614
 2300SOL    HW2 7800   3.286   0.063   3.647
 2301SOL     OW 7801   3.824   2.931   3.877
 2301SOL    HW1 7802   3.738   2.882   3.894
 2301SOL    HW2 7803   3.867   2.954   3.964
 2302SOL     OW 7804   3.570   0.170   1.380
 2302SOL    HW1 7805   3.503   0.213   1.441
 2302SOL    HW2 7806   3.571   0.218   1.292
 2303SOL     OW 7807   2.458   3.079   1.420
 2303SOL    HW1 7808   2.550   3.115   1.410
 2303SOL    HW2 7809   2.428   3.038   1.334
 2304SOL     OW 7810   5.171   5.574   3.697
 2304SOL    HW1 7811   5.179   5.654   3.637
 2304SOL    HW2 7812   5.260   5.555   3.739
 2305SOL     OW 7813   1.975   0.604   3.768
 2305SOL    HW1 7814   1.989   0.560   3.857
 2305SOL    HW2 7815   2.032   0.560   3.700
 2306SOL     OW 7816   1.440   5.195   2.038
 2306SOL    HW1 7817   1.504   5.156   2.104
 2306SOL    HW2 7818   1.433   5.135   1.958
 2307SOL     OW 7819   0.551   3.284   5.406
 2307SOL    HW1 7820   0.526   3.329   5.492
 2307SOL    HW2 7821   0.473   3.233   5.371
 2308SOL     OW 7822   2.797   4.533   0.881
 2308SOL    HW1 7823   2.839   4.610   0.929
 2308SOL    HW2 7824   2.808   4.546   0.782
 2309SOL     OW 7825   1.446   0.704   4.383
 2309SOL    HW1 7826   1.515   0.765   4.344
 2309SOL    HW2 7827   1.482   0.663   4.467
 2310SOL     OW 7828   5.761   5.974   2.344
 2310SOL    HW1 7829   5.699   6.050   2.320
 2310SOL    HW2 7830   5.853   6.011   2.360
 2311SOL     OW 7831   2.443   5.677   0.134
 2311SOL    HW1 7832   2.348   5.685   0.103
 2311SOL    HW2 7833   2.480   5.769   0.149
 2312SOL     OW 7834   4.313   5.626   3.384
 2312SOL    HW1 7835   4.239   5.651   3.322
 2312SOL    HW2 7836   4.400   5.630   3.335
 2313SOL     OW 7837   5.086   4.985   1.822
 2313SOL    HW1 7838   5.043   5.047   1.756
 2313SOL    HW2 7839   5.081   4.891   1.788
 2314SOL     OW 7840   3.866   0.008   2.928
 2314SOL    HW1 7841   3.953   0.026   2.973
 2314SOL    HW2 7842   3.880   0.004   2.829
 2315SOL     OW 7843   5.663   3.526   5.691
 2315SOL    HW1 7844   5.749   3.571   5.669
 2315SOL    HW2 7845   5.618   3.574   5.766
 2316SOL     OW 7846   5.129   2.232   3.391
 2316SOL    HW1 7847   5.141   2.142   3.434
 2316SOL    HW2 7848   5.080   2.293   3.453
 2317SOL     OW 7849   0.113   5.278   3.395
 2317SOL    HW1 7850   0.099   5.366   3.441
 2317SOL    HW2 7851   0.126   5.206   3.464
 2318SOL     OW 7852   0.518   2.745   3.680
 2318SOL    HW1 7853   0.587   2.800   3.634
 2318SOL    HW2 7854   0.451   2.805   3.724
 2319SOL     OW 7855   1.185   4.638   4.481
 2319SOL    HW1 7856   1.216   4.543   4.481
 2319SOL    HW2 7857   1.262   4.698   4.463
 2320SOL     OW 7858   0.519   2.719   4.267
 2320SOL    HW1 7859   0.577   2.680   4.339
 2320SOL    HW2 7860   0.437   2.758   4.308
 2321SOL     OW 7861   3.533   0.573   5.416
 2321SOL    HW1 7862   3.583   0.600   5.498
 2321SOL    HW2 7863   3.506   0.654   5.365
 2322SOL     OW 7864   2.151   1.840   5.368
 2322SOL    HW1 7865   2.152   1.741   5.381
 2322SOL    HW2 7866   2.167   1.862   5.272
 2323SOL     OW 7867   2.884   4.731   2.423
 2323SOL    HW1 7868   2.943   4.703   2.348
 2323SOL    HW2 7869   2.789   4.706   2.402
 2324SOL     OW 7870   0.114   5.901   2.870
 2324SOL    HW1 7871   0.184   5.946   2.926
 2324SOL    HW2 7872   0.039   5.871   2.929
 2325SOL     OW 7873   1.416   3.856   1.881
 2325SOL    HW1 7874   1.489   3.788   1.884
 2325SOL    HW2 7875   1.365   3.846   1.795
 2326SOL     OW 7876   2.424   3.728   6.225
 2326SOL    HW1 7877   2.348   3.674   6.189
 2326SOL    HW2 7878   2.441   3.806   6.165
 2327SOL     OW 7879   4.886   2.710   4.933
 2327SOL    HW1 7880   4.824   2.651   4.987
 2327SOL    HW2 7881   4.878   2.686   4.836
 2328SOL     OW 7882   4.834   1.249   3.766
 2328SOL    HW1 7883   4.896   1.272   3.691
 2328SOL    HW2 7884   4.766   1.322   3.777
 2329SOL     OW 7885   1.233   5.531   4.532
 2329SOL    HW1 7886   1.190   5.466   4.469
 2329SOL    HW2 7887   1.287   5.597   4.479
 2330SOL     OW 7888   0.446   4.668   2.290
 2330SOL    HW1 7889   0.465   4.749   2.345
 2330SOL    HW2 7890   0.509   4.665   2.212
 2331SOL     OW 7891   6.120   4.791   6.649
 2331SOL    HW1 7892   6.112   4.891   6.649
 2331SOL    HW2 7893   6.199   4.764   6.595
 2332SOL     OW 7894   5.228   2.133   5.209
 2332SOL    HW1 7895   5.208   2.162   5.115
 2332SOL    HW2 7896   5.241   2.033   5.211
 2333SOL     OW 7897   0.177   4.919   2.580
 2333SOL    HW1 7898   0.242   4.885   2.513
 2333SOL    HW2 7899   0.211   5.004   2.620
 2334SOL     OW 7900   3.032   6.744   0.006
 2334SOL    HW1 7901   3.003   6.777   6.939
 2334SOL    HW2 7902   2.952   6.711   0.056
 2335SOL     OW 7903   6.345   1.250   3.223
 2335SOL    HW1 7904   6.247   1.228   3.223
 2335SOL    HW2 7905   6.394   1.186   3.282
 2336SOL     OW 7906   4.728   1.428   5.177
 2336SOL    HW1 7907   4.800   1.361   5.192
 2336SOL    HW2 7908   4.694   1.461   5.265
 2337SOL     OW 7909   4.770   0.593   3.958
 2337SOL    HW1 7910   4.808   0.510   3.918
 2337SOL    HW2 7911   4.730   0.649   3.886
 2338SOL     OW 7912   0.856   7.012   6.582
 2338SOL    HW1 7913   0.918   6.989   6.657
 2338SOL    HW2 7914   0.871   0.083   6.554
 2339SOL     OW 7915   3.323   3.614   5.506
 2339SOL    HW1 7916   3.337   3.708   5.539
 2339SOL    HW2 7917   3.268   3.616   5.423
 2340SOL     OW 7918   4.389   6.794   5.626
 2340SOL    HW1 7919   4.429   6.868   5.680
 2340SOL    HW2 7920   4.403   6.812   5.529
 2341SOL     OW 7921   5.207   3.987   0.299
 2341SOL    HW1 7922   5.184   4.084   0.287
 2341SOL    HW2 7923   5.127   3.937   0.333
 2342SOL     OW 7924   0.281   6.315   5.030
 2342SOL    HW1 7925   0.295   6.242   5.098
 2342SOL    HW2 7926   0.239   6.277   4.948
 2343SOL     OW 7927   1.773   0.120   1.021
 2343SOL    HW1 7928   1.822   0.190   1.072
 2343SOL    HW2 7929   1.679   0.150   1.004
 2344SOL     OW 7930   2.278   1.949   1.910
 2344SOL    HW1 7931   2.316   2.028   1.958
 2344SOL    HW2 7932   2.328   1.935   1.825
 2345SOL     OW 7933   1.576   6.892   5.208
 2345SOL    HW1 7934   1.635   6.854   5.137
 2345SOL    HW2 7935   1.567   6.990   5.195
 2346SOL     OW 7936   4.929   2.916   5.315
 2346SOL    HW1 7937   5.021   2.926   5.276
 2346SOL    HW2 7938   4.934   2.859   5.397
 2347SOL     OW 7939   1.747   4.346   2.304
 2347SOL    HW1 7940   1.806   4.388   2.235
 2347SOL    HW2 7941   1.699   4.268   2.264
 2348SOL     OW 7942   2.094   6.152   3.551
 2348SOL    HW1 7943   2.166   6.087   3.573
 2348SOL    HW2 7944   2.044   6.121   3.470
 2349SOL     OW 7945   1.021   6.467   6.537
 2349SOL    HW1 7946   1.052   6.374   6.553
 2349SOL    HW2 7947   1.094   6.520   6.495
 2350SOL     OW 7948   3.442   0.040   5.928
 2350SOL    HW1 7949   3.357   0.035   5.875
 2350SOL    HW2 7950   3.470   0.135   5.937
 2351SOL     OW 7951   3.547   5.291   3.510
 2351SOL    HW1 7952   3.570   5.306   3.413
 2351SOL    HW2 7953   3.630   5.295   3.565
 2352SOL     OW 7954   0.338   4.262   3.322
 2352SOL    HW1 7955   0.437   4.255   3.332
 2352SOL    HW2 7956   0.294   4.183   3.363
 2353SOL     OW 7957   2.242   4.281   4.918
 2353SOL    HW1 7958   2.263   4.194   4.962
 2353SOL    HW2 7959   2.295   4.354   4.963
 2354SOL     OW 7960   3.903   2.030   6.585
 2354SOL    HW1 7961   3.812   2.001   6.613
 2354SOL    HW2 7962   3.966   1.953   6.591
 2355SOL     OW 7963   0.448   6.515   0.208
 2355SOL    HW1 7964   0.403   6.483   0.124
 2355SOL    HW2 7965   0.380   6.524   0.281
 2356SOL     OW 7966   2.451   4.237   1.764
 2356SOL    HW1 7967   2.469   4.274   1.855
 2356SOL    HW2 7968   2.536   4.203   1.724
 2357SOL     OW 7969   4.705   5.040   4.028
 2357SOL    HW1 7970   4.644   5.042   4.106
 2357SOL    HW2 7971   4.733   4.946   4.009
 2358SOL     OW 7972   3.379   6.535   3.908
 2358SOL    HW1 7973   3.422   6.482   3.981
 2358SOL    HW2 7974   3.287   6.498   3.891
 2359SOL     OW 7975   2.311   1.409   6.060
 2359SOL    HW1 7976   2.384   1.459   6.107
 2359SOL    HW2 7977   2.224   1.455   6.075
 2360SOL     OW 7978   4.427   5.059   6.804
 2360SOL    HW1 7979   4.357   5.109   6.753
 2360SOL    HW2 7980   4.473   5.121   6.868
 2361SOL     OW 7981   2.892   6.959   3.933
 2361SOL    HW1 7982   2.820   6.915   3.987
 2361SOL    HW2 7983   2.977   6.908   3.944
 2362SOL     OW 7984   4.681   6.374   5.250
 2362SOL    HW1 7985   4.591   6.369   5.294
 2362SOL    HW2 7986   4.670   6.377   5.151
 2363SOL     OW 7987   4.743   2.368   5.313
 2363SOL    HW1 7988   4.761   2.466   5.307
 2363SOL    HW2 7989   4.822   2.318   5.278
 2364SOL     OW 7990   5.275   1.811   1.958
 2364SOL    HW1 7991   5.279   1.883   2.026
 2364SOL    HW2 7992   5.308   1.846   1.870
 2365SOL     OW 7993   6.038   4.663   5.613
 2365SOL    HW1 7994   6.101   4.648   5.688
 2365SOL    HW2 7995   6.038   4.760   5.587
 2366SOL     OW 7996   0.755   3.547   5.911
 2366SOL    HW1 7997   0.765   3.525   6.008
 2366SOL    HW2 7998   0.663   3.524   5.881
 2367SOL     OW 7999   0.775   2.597   5.950
 2367SOL    HW1 8000   0.770   2.576   6.047
 2367SOL    HW2 8001   0.741   2.690   5.934
 2368SOL     OW 8002   4.430   1.266   5.306
 2368SOL    HW1 8003   4.482   1.202   5.249
 2368SOL    HW2 8004   4.352   1.218   5.347
 2369SOL     OW 8005   2.561   1.819   3.704
 2369SOL    HW1 8006   2.486   1.789   3.763
 2369SOL    HW2 8007   2.541   1.796   3.609
 2370SOL     OW 8008   4.760   2.786   0.667
 2370SOL    HW1 8009   4.743   2.876   0.628
 2370SOL    HW2 8010   4.677   2.732   0.664
 2371SOL     OW 8011   1.026   5.910   2.537
 2371SOL    HW1 8012   1.038   5.949   2.628
 2371SOL    HW2 8013   1.048   5.813   2.539
 2372SOL     OW 8014   6.934   0.805   6.705
 2372SOL    HW1 8015   6.873   0.883   6.693
 2372SOL    HW2 8016   6.908   0.732   6.641
 2373SOL     OW 8017   6.370   0.998   6.139
 2373SOL    HW1 8018   6.421   0.930   6.192
 2373SOL    HW2 8019   6.394   1.090   6.170
 2374SOL     OW 8020   6.051   5.732   3.009
 2374SOL    HW1 8021   5.960   5.759   2.978
 2374SOL    HW2 8022   6.089   5.804   3.068
 2375SOL     OW 8023   0.482   0.676   4.301
 2375SOL    HW1 8024   0.427   0.609   4.351
 2375SOL    HW2 8025   0.517   0.633   4.217
 2376SOL     OW 8026   6.205   2.679   3.441
 2376SOL    HW1 8027   6.149   2.596   3.434
 2376SOL    HW2 8028   6.244   2.685   3.533
 2377SOL     OW 8029   3.441   3.787   4.983
 2377SOL    HW1 8030   3.347   3.821   4.977
 2377SOL    HW2 8031   3.499   3.841   4.922
 2378SOL     OW 8032   5.695   1.896   0.191
 2378SOL    HW1 8033   5.714   1.818   0.133
 2378SOL    HW2 8034   5.779   1.948   0.207
 2379SOL     OW 8035   6.432   4.059   0.102
 2379SOL    HW1 8036   6.375   3.990   0.057
 2379SOL    HW2 8037   6.528   4.030   0.097
 2380SOL     OW 8038   6.054   1.246   5.391
 2380SOL    HW1 8039   6.049   1.329   5.445
 2380SOL    HW2 8040   6.006   1.259   5.305
 2381SOL     OW 8041   1.202   4.935   5.229
 2381SOL    HW1 8042   1.187   4.847   5.184
 2381SOL    HW2 8043   1.129   4.998   5.204
 2382SOL     OW 8044   2.210   5.843   2.499
 2382SOL    HW1 8045   2.164   5.769   2.451
 2382SOL    HW2 8046   2.255   5.807   2.581
 2383SOL     OW 8047   5.159   5.784   6.467
 2383SOL    HW1 8048   5.129   5.875   6.498
 2383SOL    HW2 8049   5.256   5.788   6.443
 2384SOL     OW 8050   1.193   2.644   0.947
 2384SOL    HW1 8051   1.247   2.562   0.928
 2384SOL    HW2 8052   1.190   2.659   1.046
 2385SOL     OW 8053   1.061   0.932   0.159
 2385SOL    HW1 8054   0.989   0.923   0.090
 2385SOL    HW2 8055   1.021   0.929   0.250
 2386SOL     OW 8056   3.624   5.216   4.252
 2386SOL    HW1 8057   3.693   5.215   4.180
 2386SOL    HW2 8058   3.533   5.218   4.211
 2387SOL     OW 8059   6.977   3.530   4.443
 2387SOL    HW1 8060   0.022   3.572   4.382
 2387SOL    HW2 8061   7.008   3.439   4.470
 2388SOL     OW 8062   0.669   1.353   5.735
 2388SOL    HW1 8063   0.694   1.263   5.698
 2388SOL    HW2 8064   0.713   1.366   5.823
 2389SOL     OW 8065   4.566   4.494   3.719
 2389SOL    HW1 8066   4.524   4.577   3.683
 2389SOL    HW2 8067   4.522   4.414   3.676
 2390SOL     OW 8068   3.636   3.929   4.830
 2390SOL    HW1 8069   3.696   3.859   4.792
 2390SOL    HW2 8070   3.680   4.019   4.821
 2391SOL     OW 8071   3.700   4.030   5.926
 2391SOL    HW1 8072   3.732   3.974   6.003
 2391SOL    HW2 8073   3.607   4.002   5.902
 2392SOL     OW 8074   2.774   3.920   6.362
 2392SOL    HW1 8075   2.719   3.993   6.321
 2392SOL    HW2 8076   2.770   3.928   6.462
 2393SOL     OW 8077   3.957   5.188   1.381
 2393SOL    HW1 8078   4.029   5.135   1.424
 2393SOL    HW2 8079   3.989   5.282   1.365
 2394SOL     OW 8080   0.473   3.729   4.103
 2394SOL    HW1 8081   0.457   3.699   4.197
 2394SOL    HW2 8082   0.454   3.827   4.095
 2395SOL     OW 8083   0.207   3.228   6.880
 2395SOL    HW1 8084   0.228   3.133   6.857
 2395SOL    HW2 8085   0.273   3.261   6.948
 2396SOL     OW 8086   5.856   6.519   0.781
 2396SOL    HW1 8087   5.787   6.518   0.709
 2396SOL    HW2 8088   5.814   6.495   0.868
 2397SOL     OW 8089   6.765   4.478   0.499
 2397SOL    HW1 8090   6.819   4.411   0.549
 2397SOL    HW2 8091   6.770   4.458   0.401
 2398SOL     OW 8092   2.851   4.911   4.947
 2398SOL    HW1 8093   2.951   4.919   4.939
 2398SOL    HW2 8094   2.827   4.816   4.964
 2399SOL     OW 8095   3.466   2.103   3.313
 2399SOL    HW1 8096   3.424   2.113   3.403
 2399SOL    HW2 8097   3.556   2.148   3.313
 2400SOL     OW 8098   2.350   3.912   0.096
 2400SOL    HW1 8099   2.296   3.995   0.081
 2400SOL    HW2 8100   2.347   3.888   0.193
 2401SOL     OW 8101   3.488   0.267   4.617
 2401SOL    HW1 8102   3.468   0.320   4.534
 2401SOL    HW2 8103   3.578   0.293   4.652
 2402SOL     OW 8104   6.787   1.490   3.954
 2402SOL    HW1 8105   6.874   1.443   3.969
 2402SOL    HW2 8106   6.797   1.554   3.877
 2403SOL     OW 8107   3.496   3.228   0.842
 2403SOL    HW1 8108   3.430   3.202   0.912
 2403SOL    HW2 8109   3.579   3.263   0.885
 2404SOL     OW 8110   5.934   1.860   1.584
 2404SOL    HW1 8111   6.030   1.885   1.597
 2404SOL    HW2 8112   5.884   1.872   1.670
 2405SOL     OW 8113   3.237   4.153   5.734
 2405SOL    HW1 8114   3.286   4.178   5.650
 2405SOL    HW2 8115   3.141   4.138   5.714
 2406SOL     OW 8116   2.501   6.604   4.235
 2406SOL    HW1 8117   2.578   6.662   4.209
 2406SOL    HW2 8118   2.425   6.661   4.265
 2407SOL     OW 8119   4.241   2.302   2.875
 2407SOL    HW1 8120   4.269   2.306   2.779
 2407SOL    HW2 8121   4.308   2.351   2.931
 2408SOL     OW 8122   2.563   4.615   3.162
 2408SOL    HW1 8123   2.463   4.607   3.155
 2408SOL    HW2 8124   2.600   4.643   3.073
 2409SOL     OW 8125   2.720   3.273   0.849
 2409SOL    HW1 8126   2.626   3.299   0.872
 2409SOL    HW2 8127   2.723   3.232   0.758
 2410SOL     OW 8128   6.090   3.493   5.874
 2410SOL    HW1 8129   6.095   3.593   5.873
 2410SOL    HW2 8130   6.170   3.455   5.828
 2411SOL     OW 8131   3.012   3.487   5.822
 2411SOL    HW1 8132   3.062   3.562   5.867
 2411SOL    HW2 8133   2.936   3.525   5.770
 2412SOL     OW 8134   3.196   2.839   0.660
 2412SOL    HW1 8135   3.145   2.786   0.728
 2412SOL    HW2 8136   3.133   2.883   0.598
 2413SOL     OW 8137   5.770   3.782   6.262
 2413SOL    HW1 8138   5.820   3.754   6.179
 2413SOL    HW2 8139   5.673   3.761   6.250
 2414SOL     OW 8140   5.725   3.576   3.482
 2414SOL    HW1 8141   5.819   3.564   3.449
 2414SOL    HW2 8142   5.667   3.503   3.446
 2415SOL     OW 8143   1.767   0.103   1.454
 2415SOL    HW1 8144   1.860   0.099   1.419
 2415SOL    HW2 8145   1.716   0.023   1.423
 2416SOL     OW 8146   1.582   2.232   4.397
 2416SOL    HW1 8147   1.535   2.180   4.325
 2416SOL    HW2 8148   1.590   2.328   4.369
 2417SOL     OW 8149   5.126   2.157   0.374
 2417SOL    HW1 8150   5.100   2.239   0.426
 2417SOL    HW2 8151   5.052   2.090   0.380
 2418SOL     OW 8152   3.260   3.499   4.733
 2418SOL    HW1 8153   3.192   3.461   4.797
 2418SOL    HW2 8154   3.274   3.596   4.754
 2419SOL     OW 8155   1.792   6.945   4.352
 2419SOL    HW1 8156   1.730   6.905   4.419
 2419SOL    HW2 8157   1.742   6.964   4.267
 2420SOL     OW 8158   3.832   5.751   1.642
 2420SOL    HW1 8159   3.745   5.801   1.641
 2420SOL    HW2 8160   3.881   5.769   1.557
 2421SOL     OW 8161   3.854   6.502   3.816
 2421SOL    HW1 8162   3.766   6.550   3.815
 2421SOL    HW2 8163   3.919   6.552   3.874
 2422SOL     OW 8164   4.428   6.900   0.916
 2422SOL    HW1 8165   4.336   6.894   0.956
 2422SOL    HW2 8166   4.422   6.890   0.817
 2423SOL     OW 8167   1.602   5.121   1.215
 2423SOL    HW1 8168   1.649   5.167   1.289
 2423SOL    HW2 8169   1.644   5.146   1.128
 2424SOL     OW 8170   5.367   6.600   6.818
 2424SOL    HW1 8171   5.416   6.666   6.762
 2424SOL    HW2 8172   5.369   6.510   6.773
 2425SOL     OW 8173   5.631   6.800   5.740
 2425SOL    HW1 8174   5.571   6.870   5.780
 2425SOL    HW2 8175   5.673   6.836   5.657
 2426SOL     OW 8176   1.198   5.778   3.967
 2426SOL    HW1 8177   1.220   5.685   3.995
 2426SOL    HW2 8178   1.117   5.809   4.016
 2427SOL     OW 8179   4.891   6.072   0.481
 2427SOL    HW1 8180   4.803   6.118   0.493
 2427SOL    HW2 8181   4.965   6.135   0.503
 2428SOL     OW 8182   0.662   0.200   3.355
 2428SOL    HW1 8183   0.578   0.184   3.304
 2428SOL    HW2 8184   0.715   0.115   3.361
 2429SOL     OW 8185   5.737   4.657   3.150
 2429SOL    HW1 8186   5.772   4.747   3.172
 2429SOL    HW2 8187   5.691   4.619   3.230
 2430SOL     OW 8188   5.507   3.081   0.359
 2430SOL    HW1 8189   5.446   3.069   0.438
 2430SOL    HW2 8190   5.475   3.158   0.304
 2431SOL     OW 8191   4.871   0.927   0.786
 2431SOL    HW1 8192   4.867   0.883   0.875
 2431SOL    HW2 8193   4.780   0.926   0.744
 2432SOL     OW 8194   2.855   6.486   1.964
 2432SOL    HW1 8195   2.877   6.572   2.012
 2432SOL    HW2 8196   2.777   6.501   1.904
 2433SOL     OW 8197   1.437   0.053   0.313
 2433SOL    HW1 8198   1.387   0.018   0.393
 2433SOL    HW2 8199   1.451   0.151   0.324
 2434SOL     OW 8200   5.902   2.097   3.094
 2434SOL    HW1 8201   5.975   2.073   3.030
 2434SOL    HW2 8202   5.876   2.015   3.146
 2435SOL     OW 8203   5.393   5.115   0.089
 2435SOL    HW1 8204   5.486   5.148   0.077
 2435SOL    HW2 8205   5.331   5.170   0.032
 2436SOL     OW 8206   1.715   0.349   1.164
 2436SOL    HW1 8207   1.718   0.357   1.263
 2436SOL    HW2 8208   1.740   0.437   1.122
 2437SOL     OW 8209   5.018   6.536   1.309
 2437SOL    HW1 8210   5.061   6.475   1.243
 2437SOL    HW2 8211   4.919   6.523   1.308
 2438SOL     OW 8212   3.804   1.235   4.200
 2438SOL    HW1 8213   3.871   1.246   4.127
 2438SOL    HW2 8214   3.850   1.201   4.282
 2439SOL     OW 8215   0.866   4.480   0.742
 2439SOL    HW1 8216   0.891   4.419   0.817
 2439SOL    HW2 8217   0.891   4.574   0.766
 2440SOL     OW 8218   4.020   0.069   6.336
 2440SOL    HW1 8219   4.044   0.070   6.239
 2440SOL    HW2 8220   4.030   6.999   6.372
 2441SOL     OW 8221   5.967   1.468   7.006
 2441SOL    HW1 8222   5.984   1.405   6.930
 2441SOL    HW2 8223   6.025   1.443   0.060
 2442SOL     OW 8224   5.386   5.002   2.732
 2442SOL    HW1 8225   5.485   5.004   2.721
 2442SOL    HW2 8226   5.354   5.093   2.761
 2443SOL     OW 8227   3.256   0.063   6.828
 2443SOL    HW1 8228   3.332   0.002   6.805
 2443SOL    HW2 8229   3.291   0.141   6.880
 2444SOL     OW 8230   3.966   3.629   0.669
 2444SOL    HW1 8231   4.055   3.609   0.708
 2444SOL    HW2 8232   3.970   3.716   0.619
 2445SOL     OW 8233   6.052   1.743   1.912
 2445SOL    HW1 8234   6.051   1.685   1.994
 2445SOL    HW2 8235   5.983   1.815   1.922
 2446SOL     OW 8236   1.354   2.603   4.666
 2446SOL    HW1 8237   1.343   2.702   4.659
 2446SOL    HW2 8238   1.447   2.582   4.693
 2447SOL     OW 8239   2.275   0.463   1.081
 2447SOL    HW1 8240   2.347   0.407   1.041
 2447SOL    HW2 8241   2.310   0.512   1.161
 2448SOL     OW 8242   5.948   0.696   4.059
 2448SOL    HW1 8243   5.854   0.726   4.043
 2448SOL    HW2 8244   5.948   0.601   4.091
 2449SOL     OW 8245   1.106   3.647   1.695
 2449SOL    HW1 8246   1.181   3.641   1.629
 2449SOL    HW2 8247   1.141   3.625   1.786
 2450SOL     OW 8248   3.275   4.395   6.121
 2450SOL    HW1 8249   3.349   4.368   6.060
 2450SOL    HW2 8250   3.189   4.396   6.071
 2451SOL     OW 8251   1.553   0.140   3.573
 2451SOL    HW1 8252   1.517   0.174   3.486
 2451SOL    HW2 8253   1.511   0.191   3.648
 2452SOL     OW 8254   2.986   2.140   4.093
 2452SOL    HW1 8255   2.891   2.160   4.115
 2452SOL    HW2 8256   3.001   2.042   4.097
 2453SOL     OW 8257   0.686   3.448   0.677
 2453SOL    HW1 8258   0.697   3.528   0.617
 2453SOL    HW2 8259   0.709   3.365   0.627
 2454SOL     OW 8260   2.975   6.985   6.823
 2454SOL    HW1 8261   2.936   0.047   6.858
 2454SOL    HW2 8262   3.074   6.992   6.822
 2455SOL     OW 8263   3.833   0.671   0.348
 2455SOL    HW1 8264   3.835   0.736   0.424
 2455SOL    HW2 8265   3.919   0.677   0.297
 2456SOL     OW 8266   6.999   2.479   6.974
 2456SOL    HW1 8267   6.926   2.422   7.013
 2456SOL    HW2 8268   0.033   2.423   6.914
 2457SOL     OW 8269   6.908   0.761   6.348
 2457SOL    HW1 8270   6.967   0.769   6.268
 2457SOL    HW2 8271   6.819   0.725   6.321
 2458SOL     OW 8272   1.666   6.660   3.573
 2458SOL    HW1 8273   1.577   6.619   3.592
 2458SOL    HW2 8274   1.732   6.629   3.643
 2459SOL     OW 8275   2.918   6.547   5.540
 2459SOL    HW1 8276   2.889   6.454   5.515
 2459SOL    HW2 8277   3.006   6.542   5.587
 2460SOL     OW 8278   1.427   1.297   1.152
 2460SOL    HW1 8279   1.450   1.208   1.113
 2460SOL    HW2 8280   1.461   1.369   1.093
 2461SOL     OW 8281   5.191   0.520   4.139
 2461SOL    HW1 8282   5.214   0.442   4.196
 2461SOL    HW2 8283   5.103   0.558   4.167
 2462SOL     OW 8284   2.148   5.214   6.801
 2462SOL    HW1 8285   2.122   5.143   6.867
 2462SOL    HW2 8286   2.111   5.302   6.831
 2463SOL     OW 8287   5.866   2.147   6.400
 2463SOL    HW1 8288   5.821   2.063   6.372
 2463SOL    HW2 8289   5.940   2.126   6.465
 2464SOL     OW 8290   1.999   3.733   2.782
 2464SOL    HW1 8291   2.017   3.702   2.876
 2464SOL    HW2 8292   2.010   3.655   2.719
 2465SOL     OW 8293   1.081   6.259   6.736
 2465SOL    HW1 8294   0.982   6.246   6.739
 2465SOL    HW2 8295   1.126   6.170   6.733
 2466SOL     OW 8296   2.269   2.241   2.799
 2466SOL    HW1 8297   2.368   2.226   2.801
 2466SOL    HW2 8298   2.239   2.276   2.888
 2467SOL     OW 8299   5.209   2.002   4.594
 2467SOL    HW1 8300   5.202   1.999   4.694
 2467SOL    HW2 8301   5.264   2.080   4.567
 2468SOL     OW 8302   4.133   7.015   0.979
 2468SOL    HW1 8303   4.142   6.916   0.975
 2468SOL    HW2 8304   4.151   0.024   1.072
 2469SOL     OW 8305   4.082   3.854   4.897
 2469SOL    HW1 8306   4.104   3.756   4.893
 2469SOL    HW2 8307   4.058   3.879   4.990
 2470SOL     OW 8308   4.554   4.383   6.121
 2470SOL    HW1 8309   4.584   4.421   6.034
 2470SOL    HW2 8310   4.493   4.306   6.104
 2471SOL     OW 8311   3.288   6.119   0.410
 2471SOL    HW1 8312   3.290   6.068   0.496
 2471SOL    HW2 8313   3.379   6.116   0.368
 2472SOL     OW 8314   4.401   2.086   3.297
 2472SOL    HW1 8315   4.497   2.113   3.288
 2472SOL    HW2 8316   4.395   1.991   3.327
 2473SOL     OW 8317   1.496   3.826   4.834
 2473SOL    HW1 8318   1.585   3.808   4.875
 2473SOL    HW2 8319   1.455   3.907   4.876
 2474SOL     OW 8320   0.230   5.923   1.637
 2474SOL    HW1 8321   0.237   5.823   1.635
 2474SOL    HW2 8322   0.303   5.960   1.694
 2475SOL     OW 8323   3.970   0.349   2.339
 2475SOL    HW1 8324   4.004   0.438   2.368
 2475SOL    HW2 8325   3.870   0.346   2.348
 2476SOL     OW 8326   6.556   1.500   2.639
 2476SOL    HW1 8327   6.626   1.566   2.612
 2476SOL    HW2 8328   6.544   1.432   2.567
 2477SOL     OW 8329   4.002   1.261   2.566
 2477SOL    HW1 8330   3.905   1.237   2.576
 2477SOL    HW2 8331   4.012   1.339   2.504
 2478SOL     OW 8332   5.645   1.351   1.836
 2478SOL    HW1 8333   5.653   1.309   1.746
 2478SOL    HW2 8334   5.701   1.302   1.902
 2479SOL     OW 8335   0.778   3.122   1.853
 2479SOL    HW1 8336   0.770   3.109   1.952
 2479SOL    HW2 8337   0.860   3.074   1.819
 2480SOL     OW 8338   4.935   3.972   0.362
 2480SOL    HW1 8339   4.938   3.927   0.451
 2480SOL    HW2 8340   4.952   3.905   0.290
 2481SOL     OW 8341   3.707   6.448   0.082
 2481SOL    HW1 8342   3.724   6.466   7.008
 2481SOL    HW2 8343   3.650   6.367   0.091
 2482SOL     OW 8344   5.562   3.743   5.872
 2482SOL    HW1 8345   5.634   3.717   5.936
 2482SOL    HW2 8346   5.537   3.838   5.886
 2483SOL     OW 8347   1.652   1.254   0.374
 2483SOL    HW1 8348   1.579   1.279   0.438
 2483SOL    HW2 8349   1.687   1.163   0.396
 2484SOL     OW 8350   3.120   0.884   6.862
 2484SOL    HW1 8351   3.040   0.865   6.919
 2484SOL    HW2 8352   3.184   0.942   6.912
 2485SOL     OW 8353   6.476   3.563   1.211
 2485SOL    HW1 8354   6.425   3.530   1.290
 2485SOL    HW2 8355   6.561   3.606   1.242
 2486SOL     OW 8356   2.159   4.716   4.390
 2486SOL    HW1 8357   2.126   4.787   4.452
 2486SOL    HW2 8358   2.083   4.655   4.367
 2487SOL     OW 8359   4.043   5.945   0.430
 2487SOL    HW1 8360   4.096   5.882   0.487
 2487SOL    HW2 8361   4.098   5.972   0.351
 2488SOL     OW 8362   1.769   4.369   2.688
 2488SOL    HW1 8363   1.778   4.391   2.785
 2488SOL    HW2 8364   1.757   4.454   2.636
 2489SOL     OW 8365   1.458   6.317   3.297
 2489SOL    HW1 8366   1.524   6.241   3.298
 2489SOL    HW2 8367   1.508   6.404   3.305
 2490SOL     OW 8368   0.043   4.812   1.032
 2490SOL    HW1 8369   7.021   4.797   1.121
 2490SOL    HW2 8370   6.998   4.808   0.959
 2491SOL     OW 8371   2.153   5.060   0.449
 2491SOL    HW1 8372   2.108   5.107   0.525
 2491SOL    HW2 8373   2.200   4.979   0.483
 2492SOL     OW 8374   4.696   2.986   0.912
 2492SOL    HW1 8375   4.777   3.039   0.884
 2492SOL    HW2 8376   4.706   2.892   0.882
 2493SOL     OW 8377   5.661   0.598   1.987
 2493SOL    HW1 8378   5.758   0.585   2.005
 2493SOL    HW2 8379   5.611   0.516   2.012
 2494SOL     OW 8380   5.081   4.444   2.782
 2494SOL    HW1 8381   4.983   4.453   2.798
 2494SOL    HW2 8382   5.131   4.476   2.862
 2495SOL     OW 8383   5.309   6.749   4.645
 2495SOL    HW1 8384   5.232   6.791   4.597
 2495SOL    HW2 8385   5.295   6.650   4.649
 2496SOL     OW 8386   6.742   3.436   5.925
 2496SOL    HW1 8387   6.659   3.477   5.963
 2496SOL    HW2 8388   6.766   3.354   5.977
 2497SOL     OW 8389   0.157   0.185   0.663
 2497SOL    HW1 8390   0.250   0.193   0.698
 2497SOL    HW2 8391   0.103   0.264   0.693
 2498SOL     OW 8392   2.900   1.523   4.128
 2498SOL    HW1 8393   2.980   1.577   4.105
 2498SOL    HW2 8394   2.922   1.426   4.122
 2499SOL     OW 8395   6.227   2.516   1.839
 2499SOL    HW1 8396   6.158   2.452   1.872
 2499SOL    HW2 8397   6.283   2.471   1.769
 2500SOL     OW 8398   4.396   3.199   6.646
 2500SOL    HW1 8399   4.360   3.147   6.723
 2500SOL    HW2 8400   4.496   3.206   6.654
 2501SOL     OW 8401   6.089   5.064   1.013
 2501SOL    HW1 8402   5.993   5.078   0.989
 2501SOL    HW2 8403   6.139   5.035   0.931
 2502SOL     OW 8404   1.153   6.443   3.087
 2502SOL    HW1 8405   1.249   6.430   3.062
 2502SOL    HW2 8406   1.123   6.367   3.145
 2503SOL     OW 8407   2.524   5.958   4.147
 2503SOL    HW1 8408   2.506   6.018   4.224
 2503SOL    HW2 8409   2.618   5.925   4.151
 2504SOL     OW 8410   3.629   5.381   4.486
 2504SOL    HW1 8411   3.606   5.341   4.574
 2504SOL    HW2 8412   3.606   5.316   4.413
 2505SOL     OW 8413   0.934   6.238   2.720
 2505SOL    HW1 8414   1.000   6.304   2.754
 2505SOL    HW2 8415   0.961   6.146   2.747
 2506SOL     OW 8416   6.070   4.300   5.197
 2506SOL    HW1 8417   6.166   4.295   5.170
 2506SOL    HW2 8418   6.059   4.363   5.273
 2507SOL     OW 8419   0.893   4.208   0.480
 2507SOL    HW1 8420   0.826   4.241   0.547
 2507SOL    HW2 8421   0.945   4.286   0.445
 2508SOL     OW 8422   2.191   1.348   2.937
 2508SOL    HW1 8423   2.175   1.446   2.951
 2508SOL    HW2 8424   2.110   1.297   2.964
 2509SOL     OW 8425   6.796   2.696   1.127
 2509SOL    HW1 8426   6.849   2.673   1.208
 2509SOL    HW2 8427   6.699   2.678   1.144
 2510SOL     OW 8428   2.589   4.189   1.462
 2510SOL    HW1 8429   2.629   4.279   1.479
 2510SOL    HW2 8430   2.496   4.201   1.427
 2511SOL     OW 8431   3.674   2.095   4.709
 2511SOL    HW1 8432   3.666   2.149   4.626
 2511SOL    HW2 8433   3.757   2.122   4.759
 2512SOL     OW 8434   5.708   4.332   5.602
 2512SOL    HW1 8435   5.791   4.280   5.580
 2512SOL    HW2 8436   5.661   4.357   5.517
 2513SOL     OW 8437   1.332   4.446   5.249
 2513SOL    HW1 8438   1.419   4.495   5.257
 2513SOL    HW2 8439   1.348   4.359   5.203
 2514SOL     OW 8440   6.368   3.165   4.619
 2514SOL    HW1 8441   6.332   3.217   4.542
 2514SOL    HW2 8442   6.372   3.223   4.700
 2515SOL     OW 8443   2.034   6.761   0.465
 2515SOL    HW1 8444   2.127   6.769   0.501
 2515SOL    HW2 8445   2.008   6.665   0.459
 2516SOL     OW 8446   5.967   1.224   3.101
 2516SOL    HW1 8447   5.990   1.268   3.188
 2516SOL    HW2 8448   6.044   1.168   3.071
 2517SOL     OW 8449   1.135   5.916   5.770
 2517SOL    HW1 8450   1.197   5.885   5.842
 2517SOL    HW2 8451   1.139   6.016   5.763
 2518SOL     OW 8452   1.243   4.562   6.942
 2518SOL    HW1 8453   1.195   4.558   6.855
 2518SOL    HW2 8454   1.176   4.569   7.017
 2519SOL     OW 8455   4.366   6.422   3.044
 2519SOL    HW1 8456   4.364   6.509   3.094
 2519SOL    HW2 8457   4.460   6.404   3.012
 2520SOL     OW 8458   2.501   1.841   0.708
 2520SOL    HW1 8459   2.515   1.863   0.804
 2520SOL    HW2 8460   2.589   1.846   0.659
 2521SOL     OW 8461   1.525   0.568   5.182
 2521SOL    HW1 8462   1.623   0.556   5.194
 2521SOL    HW2 8463   1.495   0.648   5.234
 2522SOL     OW 8464   0.405   3.841   4.961
 2522SOL    HW1 8465   0.396   3.842   5.060
 2522SOL    HW2 8466   0.483   3.784   4.935
 2523SOL     OW 8467   0.200   3.060   1.321
 2523SOL    HW1 8468   0.294   3.093   1.313
 2523SOL    HW2 8469   0.167   3.031   1.232
 2524SOL     OW 8470   1.094   6.454   5.111
 2524SOL    HW1 8471   1.004   6.489   5.084
 2524SOL    HW2 8472   1.104   6.461   5.210
 2525SOL     OW 8473   1.301   2.094   5.548
 2525SOL    HW1 8474   1.240   2.070   5.473
 2525SOL    HW2 8475   1.371   2.158   5.516
 2526SOL     OW 8476   1.727   4.148   5.687
 2526SOL    HW1 8477   1.803   4.097   5.647
 2526SOL    HW2 8478   1.643   4.094   5.681
 2527SOL     OW 8479   4.873   5.974   5.258
 2527SOL    HW1 8480   4.903   6.054   5.206
 2527SOL    HW2 8481   4.920   5.893   5.224
 2528SOL     OW 8482   5.599   4.837   0.694
 2528SOL    HW1 8483   5.674   4.821   0.758
 2528SOL    HW2 8484   5.635   4.879   0.610
 2529SOL     OW 8485   6.574   6.924   6.144
 2529SOL    HW1 8486   6.589   6.836   6.188
 2529SOL    HW2 8487   6.482   6.957   6.164
 2530SOL     OW 8488   2.372   0.033   5.651
 2530SOL    HW1 8489   2.339   0.047   5.744
 2530SOL    HW2 8490   2.294   0.035   5.587
 2531SOL     OW 8491   5.090   6.044   4.345
 2531SOL    HW1 8492   5.165   5.994   4.302
 2531SOL    HW2 8493   5.023   5.979   4.380
 2532SOL     OW 8494   0.355   6.556   1.137
 2532SOL    HW1 8495   0.351   6.505   1.222
 2532SOL    HW2 8496   0.272   6.539   1.083
 2533SOL     OW 8497   3.484   6.456   3.600
 2533SOL    HW1 8498   3.456   6.541   3.646
 2533SOL    HW2 8499   3.498   6.474   3.502
 2534SOL     OW 8500   3.370   0.515   3.205
 2534SOL    HW1 8501   3.377   0.518   3.304
 2534SOL    HW2 8502   3.402   0.426   3.171
 2535SOL     OW 8503   3.573   2.109   5.057
 2535SOL    HW1 8504   3.582   2.060   4.970
 2535SOL    HW2 8505   3.477   2.110   5.085
 2536SOL     OW 8506   0.903   2.140   4.883
 2536SOL    HW1 8507   0.833   2.076   4.852
 2536SOL    HW2 8508   0.863   2.205   4.947
 2537SOL     OW 8509   3.857   0.604   6.734
 2537SOL    HW1 8510   3.910   0.581   6.653
 2537SOL    HW2 8511   3.854   0.704   6.744
 2538SOL     OW 8512   1.329   4.818   4.762
 2538SOL    HW1 8513   1.390   4.743   4.735
 2538SOL    HW2 8514   1.382   4.902   4.773
 2539SOL     OW 8515   4.966   1.540   5.608
 2539SOL    HW1 8516   5.046   1.528   5.550
 2539SOL    HW2 8517   4.889   1.574   5.553
 2540SOL     OW 8518   4.133   1.260   2.837
 2540SOL    HW1 8519   4.171   1.170   2.861
 2540SOL    HW2 8520   4.089   1.254   2.747
 2541SOL     OW 8521   2.485   6.983   5.389
 2541SOL    HW1 8522   2.444   7.013   5.475
 2541SOL    HW2 8523   2.501   0.040   5.330
 2542SOL     OW 8524   4.163   1.720   6.217
 2542SOL    HW1 8525   4.223   1.737   6.138
 2542SOL    HW2 8526   4.132   1.808   6.254
 2543SOL     OW 8527   0.949   1.246   3.022
 2543SOL    HW1 8528   1.045   1.261   3.043
 2543SOL    HW2 8529   0.918   1.314   2.955
 2544SOL     OW 8530   0.222   5.801   1.127
 2544SOL    HW1 8531   0.258   5.745   1.201
 2544SOL    HW2 8532   0.175   5.881   1.165
 2545SOL     OW 8533   1.513   0.675   1.243
 2545SOL    HW1 8534   1.461   0.760   1.252
 2545SOL    HW2 8535   1.610   0.697   1.231
 2546SOL     OW 8536   0.473   1.537   1.305
 2546SOL    HW1 8537   0.537   1.585   1.364
 2546SOL    HW2 8538   0.443   1.453   1.350
 2547SOL     OW 8539   6.104   4.897   0.240
 2547SOL    HW1 8540   6.070   4.864   0.328
 2547SOL    HW2 8541   6.158   4.980   0.254
 2548SOL     OW 8542   2.310   6.714   5.986
 2548SOL    HW1 8543   2.339   6.729   5.891
 2548SOL    HW2 8544   2.270   6.798   6.022
 2549SOL     OW 8545   2.209   0.932   0.921
 2549SOL    HW1 8546   2.211   1.001   0.994
 2549SOL    HW2 8547   2.272   0.958   0.848
 2550SOL     OW 8548   6.997   0.055   5.960
 2550SOL    HW1 8549   6.945   0.140   5.971
 2550SOL    HW2 8550   0.071   0.077   5.952
 2551SOL     OW 8551   3.473   4.816   0.561
 2551SOL    HW1 8552   3.513   4.892   0.612
 2551SOL    HW2 8553   3.512   4.730   0.592
 2552SOL     OW 8554   2.346   6.070   5.501
 2552SOL    HW1 8555   2.402   6.009   5.445
 2552SOL    HW2 8556   2.249   6.046   5.490
 2553SOL     OW 8557   4.411   3.001   5.863
 2553SOL    HW1 8558   4.448   3.071   5.802
 2553SOL    HW2 8559   4.346   2.944   5.813
 2554SOL     OW 8560   2.162   6.350   0.762
 2554SOL    HW1 8561   2.075   6.304   0.743
 2554SOL    HW2 8562   2.162   6.385   0.856
 2555SOL     OW 8563   6.011   6.920   6.326
 2555SOL    HW1 8564   6.042   7.014   6.314
 2555SOL    HW2 8565   6.029   6.868   6.242
 2556SOL     OW 8566   4.307   5.819   0.601
 2556SOL    HW1 8567   4.386   5.761   0.621
 2556SOL    HW2 8568   4.223   5.767   0.616
 2557SOL     OW 8569   2.656   3.274   6.382
 2557SOL    HW1 8570   2.565   3.291   6.420
 2557SOL    HW2 8571   2.715   3.353   6.400
 2558SOL     OW 8572   4.977   2.157   5.289
 2558SOL    HW1 8573   5.070   2.153   5.254
 2558SOL    HW2 8574   4.974   2.216   5.369
 2559SOL     OW 8575   6.691   3.845   4.028
 2559SOL    HW1 8576   6.671   3.847   4.126
 2559SOL    HW2 8577   6.638   3.916   3.981
 2560SOL     OW 8578   6.190   3.176   4.201
 2560SOL    HW1 8579   6.284   3.176   4.166
 2560SOL    HW2 8580   6.139   3.102   4.157
 2561SOL     OW 8581   2.954   6.232   4.515
 2561SOL    HW1 8582   2.890   6.182   4.573
 2561SOL    HW2 8583   2.994   6.169   4.448
 2562SOL     OW 8584   1.008   5.308   1.869
 2562SOL    HW1 8585   1.066   5.327   1.948
 2562SOL    HW2 8586   1.055   5.243   1.808
 2563SOL     OW 8587   4.019   1.980   0.922
 2563SOL    HW1 8588   4.034   1.937   1.011
 2563SOL    HW2 8589   4.000   1.910   0.854
 2564SOL     OW 8590   2.054   6.250   5.827
 2564SOL    HW1 8591   2.147   6.285   5.815
 2564SOL    HW2 8592   1.998   6.277   5.749
 2565SOL     OW 8593   0.234   0.065   6.829
 2565SOL    HW1 8594   0.161   0.091   6.765
 2565SOL    HW2 8595   0.312   0.030   6.777
 2566SOL     OW 8596   2.166   0.184   0.596
 2566SOL    HW1 8597   2.265   0.187   0.606
 2566SOL    HW2 8598   2.142   0.130   0.516
 2567SOL     OW 8599   0.785   1.217   1.060
 2567SOL    HW1 8600   0.728   1.135   1.064
 2567SOL    HW2 8601   0.881   1.191   1.047
 2568SOL     OW 8602   3.649   0.130   0.266
 2568SOL    HW1 8603   3.732   0.143   0.320
 2568SOL    HW2 8604   3.569   0.152   0.321
 2569SOL     OW 8605   3.208   1.626   1.745
 2569SOL    HW1 8606   3.189   1.528   1.747
 2569SOL    HW2 8607   3.283   1.646   1.808
 2570SOL     OW 8608   5.481   0.298   6.078
 2570SOL    HW1 8609   5.518   0.388   6.056
 2570SOL    HW2 8610   5.551   0.242   6.122
 2571SOL     OW 8611   2.396   4.469   5.078
 2571SOL    HW1 8612   2.454   4.420   5.143
 2571SOL    HW2 8613   2.450   4.536   5.029
 2572SOL     OW 8614   2.173   5.754   7.011
 2572SOL    HW1 8615   2.237   5.814   6.962
 2572SOL    HW2 8616   2.087   5.803   0.003
 2573SOL     OW 8617   6.483   2.172   1.677
 2573SOL    HW1 8618   6.496   2.073   1.683
 2573SOL    HW2 8619   6.569   2.215   1.651
 2574SOL     OW 8620   6.054   3.794   0.076
 2574SOL    HW1 8621   6.021   3.803   0.170
 2574SOL    HW2 8622   6.125   3.724   0.072
 2575SOL     OW 8623   5.437   5.175   0.498
 2575SOL    HW1 8624   5.403   5.104   0.436
 2575SOL    HW2 8625   5.378   5.255   0.493
 2576SOL     OW 8626   3.713   6.829   4.292
 2576SOL    HW1 8627   3.635   6.859   4.237
 2576SOL    HW2 8628   3.763   6.910   4.325
 2577SOL     OW 8629   3.432   0.030   1.701
 2577SOL    HW1 8630   3.473   0.096   1.638
 2577SOL    HW2 8631   3.371   0.078   1.764
 2578SOL     OW 8632   4.684   1.511   3.755
 2578SOL    HW1 8633   4.705   1.572   3.679
 2578SOL    HW2 8634   4.598   1.463   3.737
 2579SOL     OW 8635   1.275   6.198   2.369
 2579SOL    HW1 8636   1.312   6.145   2.446
 2579SOL    HW2 8637   1.214   6.269   2.405
 2580SOL     OW 8638   2.417   2.902   6.462
 2580SOL    HW1 8639   2.458   2.817   6.494
 2580SOL    HW2 8640   2.479   2.948   6.399
 2581SOL     OW 8641   0.712   4.936   1.029
 2581SOL    HW1 8642   0.702   4.980   0.940
 2581SOL    HW2 8643   0.807   4.942   1.060
 2582SOL     OW 8644   0.821   4.703   2.272
 2582SOL    HW1 8645   0.876   4.624   2.244
 2582SOL    HW2 8646   0.740   4.709   2.214
 2583SOL     OW 8647   1.019   1.188   0.557
 2583SOL    HW1 8648   0.948   1.176   0.626
 2583SOL    HW2 8649   1.108   1.170   0.598
 2584SOL     OW 8650   4.012   5.717   0.006
 2584SOL    HW1 8651   3.915   5.699   0.021
 2584SOL    HW2 8652   4.046   5.660   6.954
 2585SOL     OW 8653   4.993   2.360   0.554
 2585SOL    HW1 8654   5.060   2.373   0.629
 2585SOL    HW2 8655   4.936   2.281   0.574
 2586SOL     OW 8656   3.491   1.172   3.502
 2586SOL    HW1 8657   3.532   1.146   3.415
 2586SOL    HW2 8658   3.407   1.224   3.485
 2587SOL     OW 8659   0.529   0.676   3.548
 2587SOL    HW1 8660   0.595   0.607   3.577
 2587SOL    HW2 8661   0.472   0.702   3.627
 2588SOL     OW 8662   4.252   0.737   6.789
 2588SOL    HW1 8663   4.347   0.765   6.803
 2588SOL    HW2 8664   4.249   0.655   6.732
 2589SOL     OW 8665   0.614   5.594   6.453
 2589SOL    HW1 8666   0.655   5.640   6.373
 2589SOL    HW2 8667   0.662   5.623   6.536
 2590SOL     OW 8668   3.634   5.727   0.818
 2590SOL    HW1 8669   3.580   5.777   0.885
 2590SOL    HW2 8670   3.717   5.779   0.796
 2591SOL     OW 8671   6.747   5.222   2.722
 2591SOL    HW1 8672   6.842   5.220   2.691
 2591SOL    HW2 8673   6.733   5.302   2.781
 2592SOL     OW 8674   3.555   4.899   0.303
 2592SOL    HW1 8675   3.501   4.836   0.359
 2592SOL    HW2 8676   3.587   4.974   0.361
 2593SOL     OW 8677   3.403   5.241   0.345
 2593SOL    HW1 8678   3.452   5.244   0.432
 2593SOL    HW2 8679   3.324   5.303   0.349
 2594SOL     OW 8680   1.338   5.047   6.447
 2594SOL    HW1 8681   1.384   4.985   6.384
 2594SOL    HW2 8682   1.365   5.027   6.541
 2595SOL     OW 8683   6.099   0.904   4.136
 2595SOL    HW1 8684   6.084   0.918   4.234
 2595SOL    HW2 8685   6.048   0.824   4.105
 2596SOL     OW 8686   3.116   1.886   1.713
 2596SOL    HW1 8687   3.140   1.789   1.707
 2596SOL    HW2 8688   3.036   1.903   1.655
 2597SOL     OW 8689   1.614   5.217   5.315
 2597SOL    HW1 8690   1.671   5.139   5.342
 2597SOL    HW2 8691   1.522   5.184   5.293
 2598SOL     OW 8692   0.098   1.473   3.073
 2598SOL    HW1 8693   7.023   1.455   3.063
 2598SOL    HW2 8694   0.124   1.464   3.169
 2599SOL     OW 8695   1.954   6.500   1.150
 2599SOL    HW1 8696   1.891   6.547   1.089
 2599SOL    HW2 8697   1.904   6.432   1.204
 2600SOL     OW 8698   5.195   3.129   4.625
 2600SOL    HW1 8699   5.102   3.159   4.648
 2600SOL    HW2 8700   5.238   3.196   4.565
 2601SOL     OW 8701   2.400   1.354   1.523
 2601SOL    HW1 8702   2.369   1.447   1.503
 2601SOL    HW2 8703   2.496   1.345   1.495
 2602SOL     OW 8704   1.499   4.290   4.668
 2602SOL    HW1 8705   1.439   4.216   4.637
 2602SOL    HW2 8706   1.536   4.339   4.589
 2603SOL     OW 8707   2.409   0.977   3.979
 2603SOL    HW1 8708   2.404   1.075   4.000
 2603SOL    HW2 8709   2.490   0.959   3.924
 2604SOL     OW 8710   4.489   1.619   2.601
 2604SOL    HW1 8711   4.454   1.675   2.676
 2604SOL    HW2 8712   4.475   1.522   2.621
 2605SOL     OW 8713   2.192   2.811   3.499
 2605SOL    HW1 8714   2.110   2.849   3.541
 2605SOL    HW2 8715   2.254   2.778   3.570
 2606SOL     OW 8716   5.412   4.624   1.878
 2606SOL    HW1 8717   5.480   4.658   1.944
 2606SOL    HW2 8718   5.347   4.564   1.925
 2607SOL     OW 8719   1.558   1.477   1.319
 2607SOL    HW1 8720   1.523   1.478   1.413
 2607SOL    HW2 8721   1.531   1.391   1.275
 2608SOL     OW 8722   4.905   5.028   1.174
 2608SOL    HW1 8723   4.956   5.092   1.117
 2608SOL    HW2 8724   4.920   4.934   1.142
 2609SOL     OW 8725   6.012   1.205   1.324
 2609SOL    HW1 8726   6.009   1.300   1.355
 2609SOL    HW2 8727   5.993   1.201   1.226
 2610SOL     OW 8728   1.138   4.672   4.860
 2610SOL    HW1 8729   1.222   4.720   4.834
 2610SOL    HW2 8730   1.071   4.737   4.895
 2611SOL     OW 8731   4.183   0.129   0.723
 2611SOL    HW1 8732   4.219   0.218   0.751
 2611SOL    HW2 8733   4.144   0.082   0.802
 2612SOL     OW 8734   6.488   0.149   5.576
 2612SOL    HW1 8735   6.512   0.246   5.576
 2612SOL    HW2 8736   6.562   0.095   5.616
 2613SOL     OW 8737   2.854   5.526   6.356
 2613SOL    HW1 8738   2.776   5.589   6.362
 2613SOL    HW2 8739   2.906   5.529   6.441
 2614SOL     OW 8740   6.117   1.640   6.259
 2614SOL    HW1 8741   6.052   1.571   6.288
 2614SOL    HW2 8742   6.192   1.647   6.325
 2615SOL     OW 8743   0.290   3.206   2.589
 2615SOL    HW1 8744   0.243   3.118   2.594
 2615SOL    HW2 8745   0.263   3.264   2.666
 2616SOL     OW 8746   3.062   2.785   6.003
 2616SOL    HW1 8747   3.121   2.730   6.061
 2616SOL    HW2 8748   3.116   2.857   5.958
 2617SOL     OW 8749   3.661   6.649   0.274
 2617SOL    HW1 8750   3.727   6.722   0.256
 2617SOL    HW2 8751   3.680   6.572   0.213
 2618SOL     OW 8752   6.986   0.608   3.770
 2618SOL    HW1 8753   6.893   0.632   3.798
 2618SOL    HW2 8754   6.982   0.548   3.690
 2619SOL     OW 8755   4.004   2.182   2.836
 2619SOL    HW1 8756   4.082   2.239   2.862
 2619SOL    HW2 8757   3.976   2.126   2.914
 2620SOL     OW 8758   6.709   6.607   3.298
 2620SOL    HW1 8759   6.643   6.541   3.336
 2620SOL    HW2 8760   6.745   6.571   3.212
 2621SOL     OW 8761   0.579   5.223   2.168
 2621SOL    HW1 8762   0.620   5.307   2.134
 2621SOL    HW2 8763   0.650   5.164   2.205
 2622SOL     OW 8764   1.768   3.832   4.924
 2622SOL    HW1 8765   1.805   3.776   4.998
 2622SOL    HW2 8766   1.793   3.928   4.937
 2623SOL     OW 8767   0.801   1.106   5.651
 2623SOL    HW1 8768   0.844   1.088   5.563
 2623SOL    HW2 8769   0.808   1.025   5.709
 2624SOL     OW 8770   6.574   1.123   4.748
 2624SOL    HW1 8771   6.508   1.064   4.702
 2624SOL    HW2 8772   6.601   1.197   4.686
 2625SOL     OW 8773   2.219   3.779   5.527
 2625SOL    HW1 8774   2.270   3.780   5.441
 2625SOL    HW2 8775   2.245   3.699   5.581
 2626SOL     OW 8776   0.469   0.520   5.860
 2626SOL    HW1 8777   0.489   0.506   5.763
 2626SOL    HW2 8778   0.531   0.589   5.898
 2627SOL     OW 8779   0.933   0.989   6.226
 2627SOL    HW1 8780   0.937   1.080   6.267
 2627SOL    HW2 8781   1.021   0.967   6.184
 2628SOL     OW 8782   1.998   4.741   5.840
 2628SOL    HW1 8783   1.971   4.725   5.935
 2628SOL    HW2 8784   2.078   4.685   5.818
 2629SOL     OW 8785   3.643   3.184   2.463
 2629SOL    HW1 8786   3.663   3.133   2.379
 2629SOL    HW2 8787   3.609   3.121   2.532
 2630SOL     OW 8788   2.831   2.024   2.597
 2630SOL    HW1 8789   2.754   1.996   2.540
 2630SOL    HW2 8790   2.912   1.970   2.572
 2631SOL     OW 8791   5.276   0.657   6.246
 2631SOL    HW1 8792   5.201   0.715   6.280
 2631SOL    HW2 8793   5.283   0.575   6.304
 2632SOL     OW 8794   5.550   3.139   6.623
 2632SOL    HW1 8795   5.541   3.041   6.644
 2632SOL    HW2 8796   5.495   3.161   6.542
 2633SOL     OW 8797   0.658   1.890   4.361
 2633SOL    HW1 8798   0.721   1.967   4.372
 2633SOL    HW2 8799   0.657   1.863   4.264
 2634SOL     OW 8800   0.671   4.454   3.530
 2634SOL    HW1 8801   0.674   4.550   3.558
 2634SOL    HW2 8802   0.694   4.396   3.608
 2635SOL     OW 8803   6.812   6.139   5.154
 2635SOL    HW1 8804   6.908   6.166   5.146
 2635SOL    HW2 8805   6.770   6.137   5.063
 2636SOL     OW 8806   4.003   0.930   5.353
 2636SOL    HW1 8807   3.904   0.938   5.338
 2636SOL    HW2 8808   4.051   0.939   5.266
 2637SOL     OW 8809   5.791   1.821   3.556
 2637SOL    HW1 8810   5.822   1.726   3.562
 2637SOL    HW2 8811   5.698   1.823   3.520
 2638SOL     OW 8812   6.992   6.972   3.703
 2638SOL    HW1 8813   6.918   6.955   3.638
 2638SOL    HW2 8814   0.002   0.042   3.693
 2639SOL     OW 8815   0.687   5.924   0.221
 2639SOL    HW1 8816   0.729   5.837   0.196
 2639SOL    HW2 8817   0.754   5.997   0.213
 2640SOL     OW 8818   6.969   6.053   5.622
 2640SOL    HW1 8819   6.980   6.127   5.689
 2640SOL    HW2 8820   6.893   6.074   5.561
 2641SOL     OW 8821   5.732   3.157   1.985
 2641SOL    HW1 8822   5.774   3.225   2.046
 2641SOL    HW2 8823   5.650   3.196   1.944
 2642SOL     OW 8824   5.595   0.815   3.492
 2642SOL    HW1 8825   5.514   0.840   3.545
 2642SOL    HW2 8826   5.599   0.870   3.408
 2643SOL     OW 8827   0.844   3.716   3.339
 2643SOL    HW1 8828   0.853   3.619   3.362
 2643SOL    HW2 8829   0.759   3.729   3.287
 2644SOL     OW 8830   5.109   5.694   5.282
 2644SOL    HW1 8831   5.100   5.695   5.183
 2644SOL    HW2 8832   5.126   5.601   5.314
 2645SOL     OW 8833   4.135   5.774   3.909
 2645SOL    HW1 8834   4.135   5.849   3.975
 2645SOL    HW2 8835   4.042   5.757   3.877
 2646SOL     OW 8836   6.287   1.532   6.932
 2646SOL    HW1 8837   6.361   1.523   6.999
 2646SOL    HW2 8838   6.267   1.629   6.917
 2647SOL     OW 8839   6.428   0.129   1.926
 2647SOL    HW1 8840   6.469   0.040   1.908
 2647SOL    HW2 8841   6.397   0.170   1.840
 2648SOL     OW 8842   1.055   6.631   3.261
 2648SOL    HW1 8843   1.105   6.568   3.201
 2648SOL    HW2 8844   1.115   6.661   3.335
 2649SOL     OW 8845   6.826   3.688   0.427
 2649SOL    HW1 8846   6.753   3.669   0.362
 2649SOL    HW2 8847   6.853   3.603   0.473
 2650SOL     OW 8848   1.097   4.989   3.771
 2650SOL    HW1 8849   1.064   4.920   3.707
 2650SOL    HW2 8850   1.137   4.944   3.851
 2651SOL     OW 8851   2.286   1.550   0.835
 2651SOL    HW1 8852   2.327   1.624   0.889
 2651SOL    HW2 8853   2.306   1.565   0.738
 2652SOL     OW 8854   4.178   3.183   5.262
 2652SOL    HW1 8855   4.239   3.110   5.292
 2652SOL    HW2 8856   4.192   3.264   5.319
 2653SOL     OW 8857   4.728   6.677   5.684
 2653SOL    HW1 8858   4.769   6.614   5.749
 2653SOL    HW2 8859   4.753   6.771   5.707
 2654SOL     OW 8860   4.516   0.238   1.878
 2654SOL    HW1 8861   4.428   0.266   1.918
 2654SOL    HW2 8862   4.586   0.307   1.899
 2655SOL     OW 8863   5.534   6.855   4.087
 2655SOL    HW1 8864   5.570   6.946   4.108
 2655SOL    HW2 8865   5.535   6.841   3.988
 2656SOL     OW 8866   3.257   4.949   4.311
 2656SOL    HW1 8867   3.353   4.918   4.315
 2656SOL    HW2 8868   3.251   5.032   4.256
 2657SOL     OW 8869   0.853   3.969   0.066
 2657SOL    HW1 8870   0.783   3.909   0.106
 2657SOL    HW2 8871   0.937   3.917   0.052
 2658SOL     OW 8872   4.991   4.700   0.625
 2658SOL    HW1 8873   5.030   4.677   0.714
 2658SOL    HW2 8874   5.053   4.761   0.576
 2659SOL     OW 8875   5.214   3.008   4.912
 2659SOL    HW1 8876   5.252   3.054   4.832
 2659SOL    HW2 8877   5.118   3.035   4.924
 2660SOL     OW 8878   1.672   6.811   1.689
 2660SOL    HW1 8879   1.746   6.843   1.748
 2660SOL    HW2 8880   1.584   6.825   1.736
 2661SOL     OW 8881   2.163   7.007   1.713
 2661SOL    HW1 8882   2.220   0.016   1.789
 2661SOL    HW2 8883   2.206   6.928   1.671
 2662SOL     OW 8884   4.053   6.514   5.371
 2662SOL    HW1 8885   4.083   6.437   5.427
 2662SOL    HW2 8886   4.015   6.481   5.285
 2663SOL     OW 8887   3.472   4.267   6.714
 2663SOL    HW1 8888   3.529   4.202   6.763
 2663SOL    HW2 8889   3.490   4.360   6.748
 2664SOL     OW 8890   4.610   3.339   5.384
 2664SOL    HW1 8891   4.637   3.396   5.306
 2664SOL    HW2 8892   4.611   3.243   5.357
 2665SOL     OW 8893   2.797   2.821   5.342
 2665SOL    HW1 8894   2.841   2.736   5.315
 2665SOL    HW2 8895   2.702   2.821   5.311
 2666SOL     OW 8896   0.474   5.180   1.803
 2666SOL    HW1 8897   0.442   5.252   1.741
 2666SOL    HW2 8898   0.435   5.092   1.775
 2667SOL     OW 8899   0.818   5.856   4.292
 2667SOL    HW1 8900   0.851   5.899   4.208
 2667SOL    HW2 8901   0.895   5.836   4.352
 2668SOL     OW 8902   0.340   2.846   4.855
 2668SOL    HW1 8903   0.289   2.898   4.923
 2668SOL    HW2 8904   0.418   2.900   4.822
 2669SOL     OW 8905   2.821   4.923   5.828
 2669SOL    HW1 8906   2.897   4.908   5.892
 2669SOL    HW2 8907   2.835   4.869   5.746
 2670SOL     OW 8908   6.188   4.026   5.653
 2670SOL    HW1 8909   6.277   4.017   5.609
 2670SOL    HW2 8910   6.196   4.081   5.736
 2671SOL     OW 8911   4.129   5.642   6.764
 2671SOL    HW1 8912   4.147   5.588   6.682
 2671SOL    HW2 8913   4.185   5.725   6.763
 2672SOL     OW 8914   2.383   5.283   1.089
 2672SOL    HW1 8915   2.448   5.243   1.024
 2672SOL    HW2 8916   2.378   5.225   1.170
 2673SOL     OW 8917   6.478   1.718   1.976
 2673SOL    HW1 8918   6.493   1.771   2.059
 2673SOL    HW2 8919   6.416   1.768   1.916
 2674SOL     OW 8920   1.351   4.754   3.643
 2674SOL    HW1 8921   1.449   4.771   3.639
 2674SOL    HW2 8922   1.314   4.791   3.728
 2675SOL     OW 8923   6.073   5.650   4.127
 2675SOL    HW1 8924   5.977   5.624   4.127
 2675SOL    HW2 8925   6.090   5.713   4.203
 2676SOL     OW 8926   3.625   2.797   1.363
 2676SOL    HW1 8927   3.585   2.800   1.271
 2676SOL    HW2 8928   3.555   2.818   1.431
 2677SOL     OW 8929   2.609   4.112   6.760
 2677SOL    HW1 8930   2.691   4.164   6.786
 2677SOL    HW2 8931   2.534   4.176   6.744
 2678SOL     OW 8932   6.983   2.487   2.213
 2678SOL    HW1 8933   6.933   2.463   2.129
 2678SOL    HW2 8934   0.036   2.424   2.225
 2679SOL     OW 8935   1.989   4.925   1.727
 2679SOL    HW1 8936   1.992   4.943   1.825
 2679SOL    HW2 8937   2.071   4.875   1.699
 2680SOL     OW 8938   0.802   2.137   1.279
 2680SOL    HW1 8939   0.837   2.199   1.209
 2680SOL    HW2 8940   0.873   2.072   1.304
 2681SOL     OW 8941   1.539   2.235   5.481
 2681SOL    HW1 8942   1.594   2.189   5.551
 2681SOL    HW2 8943   1.567   2.331   5.475
 2682SOL     OW 8944   4.657   4.391   3.317
 2682SOL    HW1 8945   4.718   4.348   3.384
 2682SOL    HW2 8946   4.636   4.325   3.245
 2683SOL     OW 8947   2.772   5.689   1.939
 2683SOL    HW1 8948   2.701   5.638   1.988
 2683SOL    HW2 8949   2.800   5.638   1.857
 2684SOL     OW 8950   4.519   6.415   1.569
 2684SOL    HW1 8951   4.455   6.455   1.636
 2684SOL    HW2 8952   4.579   6.350   1.616
 2685SOL     OW 8953   6.142   5.878   6.259
 2685SOL    HW1 8954   6.080   5.921   6.325
 2685SOL    HW2 8955   6.232   5.920   6.266
 2686SOL     OW 8956   1.978   1.310   5.962
 2686SOL    HW1 8957   1.974   1.274   5.869
 2686SOL    HW2 8958   1.997   1.409   5.959
 2687SOL     OW 8959   5.012   5.670   1.237
 2687SOL    HW1 8960   5.041   5.607   1.309
 2687SOL    HW2 8961   4.920   5.644   1.206
 2688SOL     OW 8962   3.017   3.655   0.299
 2688SOL    HW1 8963   3.020   3.732   0.363
 2688SOL    HW2 8964   3.030   3.570   0.349
 2689SOL     OW 8965   0.795   4.051   2.650
 2689SOL    HW1 8966   0.777   4.141   2.689
 2689SOL    HW2 8967   0.893   4.039   2.634
 2690SOL     OW 8968   3.777   3.403   5.201
 2690SOL    HW1 8969   3.813   3.310   5.204
 2690SOL    HW2 8970   3.696   3.406   5.142
 2691SOL     OW 8971   0.657   5.299   3.697
 2691SOL    HW1 8972   0.676   5.262   3.788
 2691SOL    HW2 8973   0.668   5.399   3.698
 2692SOL     OW 8974   2.810   5.944   3.402
 2692SOL    HW1 8975   2.872   5.971   3.476
 2692SOL    HW2 8976   2.844   5.861   3.357
 2693SOL     OW 8977   2.217   5.413   3.488
 2693SOL    HW1 8978   2.119   5.429   3.483
 2693SOL    HW2 8979   2.256   5.419   3.396
 2694SOL     OW 8980   4.111   6.389   3.003
 2694SOL    HW1 8981   4.059   6.431   3.077
 2694SOL    HW2 8982   4.208   6.411   3.013
 2695SOL     OW 8983   5.849   1.313   2.356
 2695SOL    HW1 8984   5.770   1.340   2.301
 2695SOL    HW2 8985   5.820   1.289   2.448
 2696SOL     OW 8986   3.540   3.243   5.983
 2696SOL    HW1 8987   3.584   3.330   5.964
 2696SOL    HW2 8988   3.542   3.186   5.901
 2697SOL     OW 8989   3.283   1.002   3.334
 2697SOL    HW1 8990   3.292   1.102   3.334
 2697SOL    HW2 8991   3.328   0.965   3.416
 2698SOL     OW 8992   2.109   4.941   0.924
 2698SOL    HW1 8993   2.079   5.036   0.935
 2698SOL    HW2 8994   2.164   4.914   1.003
 2699SOL     OW 8995   2.532   5.656   0.997
 2699SOL    HW1 8996   2.468   5.733   0.998
 2699SOL    HW2 8997   2.563   5.637   1.091
 2700SOL     OW 8998   2.745   2.866   0.438
 2700SOL    HW1 8999   2.701   2.920   0.367
 2700SOL    HW2 9000   2.679   2.803   0.479
 2701SOL     OW 9001   5.382   1.764   6.294
 2701SOL    HW1 9002   5.388   1.756   6.195
 2701SOL    HW2 9003   5.392   1.860   6.320
 2702SOL     OW 9004   0.411   2.643   3.354
 2702SOL    HW1 9005   0.472   2.663   3.431
 2702SOL    HW2 9006   0.390   2.545   3.352
 2703SOL     OW 9007   0.777   6.831   0.513
 2703SOL    HW1 9008   0.825   6.756   0.468
 2703SOL    HW2 9009   0.796   6.916   0.464
 2704SOL     OW 9010   6.388   6.013   1.873
 2704SOL    HW1 9011   6.377   6.075   1.795
 2704SOL    HW2 9012   6.463   5.950   1.855
 2705SOL     OW 9013   6.487   6.656   4.819
 2705SOL    HW1 9014   6.507   6.671   4.722
 2705SOL    HW2 9015   6.542   6.579   4.852
 2706SOL     OW 9016   6.236   5.084   2.863
 2706SOL    HW1 9017   6.271   5.060   2.773
 2706SOL    HW2 9018   6.248   5.183   2.878
 2707SOL     OW 9019   4.172   0.988   4.586
 2707SOL    HW1 9020   4.146   0.893   4.603
 2707SOL    HW2 9021   4.129   1.047   4.654
 2708SOL     OW 9022   6.912   2.553   0.920
 2708SOL    HW1 9023   6.837   2.558   0.854
 2708SOL    HW2 9024   6.894   2.615   0.996
 2709SOL     OW 9025   5.090   0.086   0.462
 2709SOL    HW1 9026   5.080   0.160   0.395
 2709SOL    HW2 9027   5.109   0.000   0.415
 2710SOL     OW 9028   1.174   3.045   4.211
 2710SOL    HW1 9029   1.103   2.980   4.184
 2710SOL    HW2 9030   1.230   3.005   4.284
 2711SOL     OW 9031   2.718   0.767   3.695
 2711SOL    HW1 9032   2.759   0.712   3.622
 2711SOL    HW2 9033   2.729   0.864   3.674
 2712SOL     OW 9034   2.508   4.429   0.989
 2712SOL    HW1 9035   2.417   4.389   0.986
 2712SOL    HW2 9036   2.572   4.365   1.032
 2713SOL     OW 9037   2.211   3.065   5.879
 2713SOL    HW1 9038   2.209   3.127   5.801
 2713SOL    HW2 9039   2.295   3.010   5.876
 2714SOL     OW 9040   4.163   2.537   0.295
 2714SOL    HW1 9041   4.189   2.446   0.328
 2714SOL    HW2 9042   4.128   2.591   0.372
 2715SOL     OW 9043   5.364   2.551   1.376
 2715SOL    HW1 9044   5.368   2.475   1.311
 2715SOL    HW2 9045   5.441   2.545   1.439
 2716SOL     OW 9046   5.130   3.234   3.445
 2716SOL    HW1 9047   5.148   3.264   3.538
 2716SOL    HW2 9048   5.214   3.194   3.406
 2717SOL     OW 9049   6.966   0.192   2.803
 2717SOL    HW1 9050   6.931   0.272   2.853
 2717SOL    HW2 9051   0.043   0.194   2.803
 2718SOL     OW 9052   1.180   1.163   5.191
 2718SOL    HW1 9053   1.270   1.206   5.198
 2718SOL    HW2 9054   1.118   1.204   5.258
 2719SOL     OW 9055   0.825   5.223   1.242
 2719SOL    HW1 9056   0.808   5.275   1.158
 2719SOL    HW2 9057   0.759   5.250   1.312
 2720SOL     OW 9058   1.836   6.400   2.188
 2720SOL    HW1 9059   1.926   6.357   2.198
 2720SOL    HW2 9060   1.784   6.351   2.118
 2721SOL     OW 9061   3.551   6.493   3.339
 2721SOL    HW1 9062   3.598   6.404   3.337
 2721SOL    HW2 9063   3.495   6.503   3.257
 2722SOL     OW 9064   6.585   4.815   0.736
 2722SOL    HW1 9065   6.520   4.800   0.810
 2722SOL    HW2 9066   6.548   4.780   0.650
 2723SOL     OW 9067   1.057   6.001   6.092
 2723SOL    HW1 9068   0.966   6.000   6.048
 2723SOL    HW2 9069   1.085   6.096   6.108
 2724SOL     OW 9070   2.049   5.500   6.915
 2724SOL    HW1 9071   2.011   5.444   6.989
 2724SOL    HW2 9072   2.094   5.581   6.954
 2725SOL     OW 9073   4.745   4.787   5.137
 2725SOL    HW1 9074   4.769   4.871   5.088
 2725SOL    HW2 9075   4.687   4.730   5.080
 2726SOL     OW 9076   0.352   1.881   1.509
 2726SOL    HW1 9077   0.413   1.931   1.448
 2726SOL    HW2 9078   0.294   1.820   1.456
 2727SOL     OW 9079   0.865   4.691   3.918
 2727SOL    HW1 9080   0.830   4.784   3.902
 2727SOL    HW2 9081   0.844   4.662   4.011
 2728SOL     OW 9082   4.593   6.804   5.218
 2728SOL    HW1 9083   4.615   6.729   5.279
 2728SOL    HW2 9084   4.676   6.837   5.173
 2729SOL     OW 9085   0.037   6.172   0.214
 2729SOL    HW1 9086   6.972   6.213   0.191
 2729SOL    HW2 9087   0.103   6.189   0.141
 2730SOL     OW 9088   1.837   5.345   1.701
 2730SOL    HW1 9089   1.761   5.409   1.709
 2730SOL    HW2 9090   1.815   5.275   1.634
 2731SOL     OW 9091   2.994   3.684   3.425
 2731SOL    HW1 9092   2.973   3.696   3.522
 2731SOL    HW2 9093   3.030   3.769   3.388
 2732SOL     OW 9094   5.458   2.389   1.706
 2732SOL    HW1 9095   5.502   2.319   1.763
 2732SOL    HW2 9096   5.359   2.386   1.719
 2733SOL     OW 9097   6.481   2.090   5.305
 2733SOL    HW1 9098   6.441   2.115   5.393
 2733SOL    HW2 9099   6.442   2.004   5.274
 2734SOL     OW 9100   3.372   5.505   0.913
 2734SOL    HW1 9101   3.326   5.421   0.883
 2734SOL    HW2 9102   3.447   5.526   0.851
 2735SOL     OW 9103   1.739   3.159   1.787
 2735SOL    HW1 9104   1.775   3.215   1.712
 2735SOL    HW2 9105   1.798   3.080   1.800
 2736SOL     OW 9106   5.847   5.877   4.455
 2736SOL    HW1 9107   5.917   5.855   4.386
 2736SOL    HW2 9108   5.756   5.858   4.417
 2737SOL     OW 9109   2.755   4.420   5.335
 2737SOL    HW1 9110   2.664   4.418   5.294
 2737SOL    HW2 9111   2.818   4.465   5.272
 2738SOL     OW 9112   5.272   6.580   1.973
 2738SOL    HW1 9113   5.178   6.615   1.977
 2738SOL    HW2 9114   5.293   6.554   1.879
 2739SOL     OW 9115   1.210   4.575   1.366
 2739SOL    HW1 9116   1.284   4.572   1.433
 2739SOL    HW2 9117   1.226   4.650   1.302
 2740SOL     OW 9118   6.405   4.134   2.308
 2740SOL    HW1 9119   6.433   4.165   2.217
 2740SOL    HW2 9120   6.482   4.143   2.371
 2741SOL     OW 9121   6.334   0.088   4.746
 2741SOL    HW1 9122   6.405   0.149   4.712
 2741SOL    HW2 9123   6.350   0.068   4.843
 2742SOL     OW 9124   1.793   5.100   0.232
 2742SOL    HW1 9125   1.722   5.054   0.177
 2742SOL    HW2 9126   1.786   5.199   0.218
 2743SOL     OW 9127   6.673   4.446   2.500
 2743SOL    HW1 9128   6.692   4.535   2.541
 2743SOL    HW2 9129   6.654   4.457   2.403
 2744SOL     OW 9130   4.751   2.259   0.612
 2744SOL    HW1 9131   4.702   2.175   0.591
 2744SOL    HW2 9132   4.700   2.312   0.680
 2745SOL     OW 9133   6.989   0.902   4.982
 2745SOL    HW1 9134   7.016   0.839   4.909
 2745SOL    HW2 9135   6.912   0.958   4.951
 2746SOL     OW 9136   1.176   2.483   4.835
 2746SOL    HW1 9137   1.221   2.406   4.881
 2746SOL    HW2 9138   1.233   2.513   4.758
 2747SOL     OW 9139   4.572   4.990   6.542
 2747SOL    HW1 9140   4.565   5.011   6.639
 2747SOL    HW2 9141   4.535   4.899   6.525
 2748SOL     OW 9142   4.483   1.305   2.151
 2748SOL    HW1 9143   4.540   1.299   2.233
 2748SOL    HW2 9144   4.516   1.378   2.093
 2749SOL     OW 9145   0.358   4.130   1.041
 2749SOL    HW1 9146   0.449   4.090   1.028
 2749SOL    HW2 9147   0.319   4.098   1.127
 2750SOL     OW 9148   1.334   3.674   0.579
 2750SOL    HW1 9149   1.363   3.747   0.642
 2750SOL    HW2 9150   1.372   3.692   0.489
 2751SOL     OW 9151   1.292   3.423   1.550
 2751SOL    HW1 9152   1.289   3.513   1.507
 2751SOL    HW2 9153   1.204   3.377   1.536
 2752SOL     OW 9154   3.832   5.048   5.331
 2752SOL    HW1 9155   3.839   4.972   5.396
 2752SOL    HW2 9156   3.835   5.134   5.381
 2753SOL     OW 9157   6.684   6.455   4.884
 2753SOL    HW1 9158   6.659   6.435   4.979
 2753SOL    HW2 9159   6.781   6.481   4.879
 2754SOL     OW 9160   0.875   0.506   1.299
 2754SOL    HW1 9161   0.969   0.471   1.294
 2754SOL    HW2 9162   0.872   0.598   1.261
 2755SOL     OW 9163   2.371   0.245   2.624
 2755SOL    HW1 9164   2.322   0.301   2.691
 2755SOL    HW2 9165   2.328   0.255   2.534
 2756SOL     OW 9166   5.784   5.218   6.804
 2756SOL    HW1 9167   5.719   5.240   6.877
 2756SOL    HW2 9168   5.872   5.261   6.823
 2757SOL     OW 9169   2.686   6.955   6.920
 2757SOL    HW1 9170   2.646   7.016   6.851
 2757SOL    HW2 9171   2.757   6.898   6.877
 2758SOL     OW 9172   3.690   5.857   4.197
 2758SOL    HW1 9173   3.653   5.852   4.104
 2758SOL    HW2 9174   3.662   5.943   4.239
 2759SOL     OW 9175   5.197   6.966   5.788
 2759SOL    HW1 9176   5.178   6.980   5.885
 2759SOL    HW2 9177   5.137   0.002   5.734
 2760SOL     OW 9178   0.741   6.190   1.925
 2760SOL    HW1 9179   0.691   6.179   1.839
 2760SOL    HW2 9180   0.805   6.267   1.917
 2761SOL     OW 9181   2.344   5.536   4.569
 2761SOL    HW1 9182   2.324   5.589   4.651
 2761SOL    HW2 9183   2.259   5.505   4.527
 2762SOL     OW 9184   1.058   1.469   5.088
 2762SOL    HW1 9185   1.060   1.500   4.993
 2762SOL    HW2 9186   1.151   1.459   5.123
 2763SOL     OW 9187   5.217   1.353   3.095
 2763SOL    HW1 9188   5.198   1.260   3.063
 2763SOL    HW2 9189   5.263   1.348   3.184
 2764SOL     OW 9190   5.881   1.255   1.047
 2764SOL    HW1 9191   5.859   1.352   1.049
 2764SOL    HW2 9192   5.800   1.203   1.022
 2765SOL     OW 9193   5.818   6.926   1.400
 2765SOL    HW1 9194   5.900   6.983   1.407
 2765SOL    HW2 9195   5.841   6.831   1.421
 2766SOL     OW 9196   5.294   1.982   0.588
 2766SOL    HW1 9197   5.213   2.039   0.602
 2766SOL    HW2 9198   5.336   2.005   0.500
 2767SOL     OW 9199   6.834   5.580   0.201
 2767SOL    HW1 9200   6.889   5.651   0.245
 2767SOL    HW2 9201   6.858   5.491   0.240
 2768SOL     OW 9202   4.465   0.966   1.007
 2768SOL    HW1 9203   4.374   0.927   1.020
 2768SOL    HW2 9204   4.519   0.907   0.946
 2769SOL     OW 9205   1.942   4.039   4.461
 2769SOL    HW1 9206   2.034   4.027   4.498
 2769SOL    HW2 9207   1.918   4.136   4.463
 2770SOL     OW 9208   4.282   6.096   5.654
 2770SOL    HW1 9209   4.342   6.132   5.725
 2770SOL    HW2 9210   4.197   6.064   5.694
 2771SOL     OW 9211   6.935   0.873   3.593
 2771SOL    HW1 9212   6.891   0.945   3.647
 2771SOL    HW2 9213   6.952   0.794   3.650
 2772SOL     OW 9214   4.088   1.290   0.870
 2772SOL    HW1 9215   4.055   1.239   0.950
 2772SOL    HW2 9216   4.182   1.262   0.850
 2773SOL     OW 9217   5.889   2.254   4.907
 2773SOL    HW1 9218   5.893   2.155   4.920
 2773SOL    HW2 9219   5.850   2.275   4.817
 2774SOL     OW 9220   5.719   3.183   3.112
 2774SOL    HW1 9221   5.789   3.244   3.075
 2774SOL    HW2 9222   5.741   3.160   3.207
 2775SOL     OW 9223   6.787   5.850   6.359
 2775SOL    HW1 9224   6.723   5.830   6.284
 2775SOL    HW2 9225   6.788   5.773   6.422
 2776SOL     OW 9226   4.121   4.898   5.749
 2776SOL    HW1 9227   4.189   4.909   5.821
 2776SOL    HW2 9228   4.114   4.801   5.725
 2777SOL     OW 9229   2.711   1.024   2.080
 2777SOL    HW1 9230   2.750   1.106   2.123
 2777SOL    HW2 9231   2.728   0.945   2.139
 2778SOL     OW 9232   1.617   0.009   5.649
 2778SOL    HW1 9233   1.702   0.048   5.685
 2778SOL    HW2 9234   1.639   6.959   5.585
 2779SOL     OW 9235   4.905   6.286   1.189
 2779SOL    HW1 9236   4.906   6.200   1.239
 2779SOL    HW2 9237   4.915   6.269   1.091
 2780SOL     OW 9238   6.232   6.890   6.939
 2780SOL    HW1 9239   6.198   6.844   6.857
 2780SOL    HW2 9240   6.256   6.984   6.916
 2781SOL     OW 9241   5.620   6.450   2.143
 2781SOL    HW1 9242   5.542   6.509   2.165
 2781SOL    HW2 9243   5.697   6.472   2.203
 2782SOL     OW 9244   4.555   2.446   6.156
 2782SOL    HW1 9245   4.484   2.473   6.222
 2782SOL    HW2 9246   4.559   2.346   6.152
 2783SOL     OW 9247   5.273   4.254   3.503
 2783SOL    HW1 9248   5.328   4.229   3.583
 2783SOL    HW2 9249   5.259   4.174   3.445
 2784SOL     OW 9250   3.384   1.267   2.135
 2784SOL    HW1 9251   3.328   1.346   2.160
 2784SOL    HW2 9252   3.480   1.294   2.129
 2785SOL     OW 9253   4.921   1.384   0.795
 2785SOL    HW1 9254   4.874   1.389   0.883
 2785SOL    HW2 9255   4.931   1.476   0.757
 2786SOL     OW 9256   4.952   0.020   1.915
 2786SOL    HW1 9257   4.982   0.101   1.965
 2786SOL    HW2 9258   4.854   0.025   1.899
 2787SOL     OW 9259   4.531   1.880   6.311
 2787SOL    HW1 9260   4.626   1.909   6.301
 2787SOL    HW2 9261   4.488   1.931   6.386
 2788SOL     OW 9262   1.936   4.998   5.798
 2788SOL    HW1 9263   1.897   5.009   5.890
 2788SOL    HW2 9264   1.962   4.902   5.785
 2789SOL     OW 9265   1.563   2.054   3.844
 2789SOL    HW1 9266   1.553   2.122   3.771
 2789SOL    HW2 9267   1.488   1.988   3.838
 2790SOL     OW 9268   3.146   5.862   1.958
 2790SOL    HW1 9269   3.050   5.853   1.986
 2790SOL    HW2 9270   3.206   5.855   2.038
 2791SOL     OW 9271   0.698   2.966   3.044
 2791SOL    HW1 9272   0.648   2.980   2.959
 2791SOL    HW2 9273   0.745   3.050   3.070
 2792SOL     OW 9274   2.466   6.777   3.939
 2792SOL    HW1 9275   2.373   6.811   3.954
 2792SOL    HW2 9276   2.465   6.710   3.865
 2793SOL     OW 9277   5.709   3.912   2.759
 2793SOL    HW1 9278   5.706   3.959   2.670
 2793SOL    HW2 9279   5.730   3.978   2.831
 2794SOL     OW 9280   0.123   2.601   6.614
 2794SOL    HW1 9281   0.025   2.600   6.595
 2794SOL    HW2 9282   0.141   2.666   6.688
 2795SOL     OW 9283   1.196   3.008   0.399
 2795SOL    HW1 9284   1.189   3.056   0.312
 2795SOL    HW2 9285   1.291   2.983   0.416
 2796SOL     OW 9286   6.904   6.110   2.881
 2796SOL    HW1 9287   6.937   6.016   2.892
 2796SOL    HW2 9288   6.979   6.174   2.898
 2797SOL     OW 9289   5.263   5.307   4.371
 2797SOL    HW1 9290   5.196   5.293   4.444
 2797SOL    HW2 9291   5.223   5.279   4.284
 2798SOL     OW 9292   0.197   5.260   2.157
 2798SOL    HW1 9293   0.225   5.349   2.121
 2798SOL    HW2 9294   0.278   5.208   2.186
 2799SOL     OW 9295   6.021   5.631   6.676
 2799SOL    HW1 9296   6.022   5.555   6.612
 2799SOL    HW2 9297   5.957   5.612   6.750
 2800SOL     OW 9298   4.621   6.167   0.488
 2800SOL    HW1 9299   4.616   6.266   0.495
 2800SOL    HW2 9300   4.571   6.137   0.406
 2801SOL     OW 9301   6.425   5.981   6.210
 2801SOL    HW1 9302   6.453   5.916   6.139
 2801SOL    HW2 9303   6.469   5.957   6.297
 2802SOL     OW 9304   5.465   1.477   5.078
 2802SOL    HW1 9305   5.429   1.534   5.004
 2802SOL    HW2 9306   5.565   1.484   5.079
 2803SOL     OW 9307   3.728   5.765   6.596
 2803SOL    HW1 9308   3.761   5.670   6.601
 2803SOL    HW2 9309   3.761   5.807   6.511
 2804SOL     OW 9310   0.269   4.938   4.875
 2804SOL    HW1 9311   0.197   4.954   4.941
 2804SOL    HW2 9312   0.238   4.963   4.783
 2805SOL     OW 9313   5.657   3.350   1.680
 2805SOL    HW1 9314   5.622   3.422   1.620
 2805SOL    HW2 9315   5.744   3.378   1.719
 2806SOL     OW 9316   6.975   4.913   5.923
 2806SOL    HW1 9317   6.931   4.899   6.011
 2806SOL    HW2 9318   6.966   5.008   5.895
 2807SOL     OW 9319   4.976   6.506   4.451
 2807SOL    HW1 9320   5.040   6.565   4.402
 2807SOL    HW2 9321   4.996   6.510   4.549
 2808SOL     OW 9322   5.759   4.520   2.033
 2808SOL    HW1 9323   5.696   4.589   2.067
 2808SOL    HW2 9324   5.758   4.441   2.095
 2809SOL     OW 9325   5.845   3.140   0.961
 2809SOL    HW1 9326   5.860   3.071   1.032
 2809SOL    HW2 9327   5.821   3.227   1.003
 2810SOL     OW 9328   3.763   4.984   3.644
 2810SOL    HW1 9329   3.697   4.947   3.579
 2810SOL    HW2 9330   3.832   5.037   3.595
 2811SOL     OW 9331   1.230   1.659   3.210
 2811SOL    HW1 9332   1.229   1.615   3.120
 2811SOL    HW2 9333   1.174   1.741   3.208
 2812SOL     OW 9334   5.050   3.947   6.338
 2812SOL    HW1 9335   5.096   3.867   6.300
 2812SOL    HW2 9336   4.951   3.933   6.334
 2813SOL     OW 9337   6.866   6.865   6.349
 2813SOL    HW1 9338   6.786   6.805   6.346
 2813SOL    HW2 9339   6.914   6.862   6.262
 2814SOL     OW 9340   4.147   3.664   5.343
 2814SOL    HW1 9341   4.115   3.586   5.289
 2814SOL    HW2 9342   4.080   3.685   5.414
 2815SOL     OW 9343   6.330   0.212   5.359
 2815SOL    HW1 9344   6.268   0.279   5.400
 2815SOL    HW2 9345   6.389   0.173   5.430
 2816SOL     OW 9346   6.385   5.484   3.148
 2816SOL    HW1 9347   6.397   5.579   3.176
 2816SOL    HW2 9348   6.470   5.433   3.163
 2817SOL     OW 9349   2.594   7.009   1.517
 2817SOL    HW1 9350   2.521   0.052   1.534
 2817SOL    HW2 9351   2.567   6.920   1.552
 2818SOL     OW 9352   0.399   0.564   0.628
 2818SOL    HW1 9353   0.404   0.634   0.699
 2818SOL    HW2 9354   0.393   0.607   0.538
 2819SOL     OW 9355   0.975   1.271   1.598
 2819SOL    HW1 9356   1.007   1.315   1.682
 2819SOL    HW2 9357   0.880   1.298   1.580
 2820SOL     OW 9358   0.632   2.694   3.149
 2820SOL    HW1 9359   0.548   2.672   3.198
 2820SOL    HW2 9360   0.632   2.790   3.124
 2821SOL     OW 9361   4.183   3.145   6.896
 2821SOL    HW1 9362   4.128   3.065   6.873
 2821SOL    HW2 9363   4.202   3.146   6.994
 2822SOL     OW 9364   3.974   1.399   0.106
 2822SOL    HW1 9365   3.980   1.484   0.054
 2822SOL    HW2 9366   3.980   1.418   0.203
 2823SOL     OW 9367   4.726   0.297   0.246
 2823SOL    HW1 9368   4.688   0.275   0.336
 2823SOL    HW2 9369   4.731   0.396   0.234
 2824SOL     OW 9370   2.667   1.363   3.582
 2824SOL    HW1 9371   2.755   1.394   3.618
 2824SOL    HW2 9372   2.597   1.375   3.652
 2825SOL     OW 9373   6.327   0.348   6.360
 2825SOL    HW1 9374   6.261   0.412   6.320
 2825SOL    HW2 9375   6.391   0.318   6.289
 2826SOL     OW 9376   4.923   1.124   6.535
 2826SOL    HW1 9377   4.854   1.092   6.601
 2826SOL    HW2 9378   4.878   1.176   6.462
 2827SOL     OW 9379   6.858   0.898   5.279
 2827SOL    HW1 9380   6.909   0.844   5.212
 2827SOL    HW2 9381   6.915   0.914   5.360
 2828SOL     OW 9382   2.623   1.250   0.331
 2828SOL    HW1 9383   2.641   1.154   0.352
 2828SOL    HW2 9384   2.561   1.289   0.399
 2829SOL     OW 9385   3.089   3.442   4.924
 2829SOL    HW1 9386   2.990   3.449   4.934
 2829SOL    HW2 9387   3.132   3.437   5.015
 2830SOL     OW 9388   1.601   3.371   5.730
 2830SOL    HW1 9389   1.533   3.433   5.770
 2830SOL    HW2 9390   1.687   3.379   5.780
 2831SOL     OW 9391   0.710   4.700   3.623
 2831SOL    HW1 9392   0.685   4.729   3.715
 2831SOL    HW2 9393   0.706   4.778   3.561
 2832SOL     OW 9394   0.725   2.828   1.886
 2832SOL    HW1 9395   0.744   2.884   1.966
 2832SOL    HW2 9396   0.632   2.844   1.855
 2833SOL     OW 9397   3.239   2.014   2.174
 2833SOL    HW1 9398   3.292   2.074   2.113
 2833SOL    HW2 9399   3.154   1.988   2.128
 2834SOL     OW 9400   4.060   5.170   6.032
 2834SOL    HW1 9401   4.097   5.249   5.983
 2834SOL    HW2 9402   4.001   5.201   6.106
 2835SOL     OW 9403   0.218   0.200   2.169
 2835SOL    HW1 9404   0.254   0.227   2.080
 2835SOL    HW2 9405   0.271   0.122   2.204
 2836SOL     OW 9406   6.570   6.916   2.511
 2836SOL    HW1 9407   6.645   6.938   2.449
 2836SOL    HW2 9408   6.485   6.911   2.459
 2837SOL     OW 9409   5.284   4.629   2.214
 2837SOL    HW1 9410   5.249   4.622   2.121
 2837SOL    HW2 9411   5.208   4.635   2.278
 2838SOL     OW 9412   2.428   3.875   0.878
 2838SOL    HW1 9413   2.336   3.874   0.837
 2838SOL    HW2 9414   2.495   3.845   0.810
 2839SOL     OW 9415   6.995   1.840   2.586
 2839SOL    HW1 9416   6.934   1.889   2.524
 2839SOL    HW2 9417   0.024   1.906   2.640
 2840SOL     OW 9418   1.739   0.452   3.098
 2840SOL    HW1 9419   1.739   0.476   3.001
 2840SOL    HW2 9420   1.803   0.377   3.113
 2841SOL     OW 9421   0.740   0.784   6.246
 2841SOL    HW1 9422   0.826   0.833   6.235
 2841SOL    HW2 9423   0.663   0.847   6.238
 2842SOL     OW 9424   0.312   4.224   4.189
 2842SOL    HW1 9425   0.279   4.316   4.210
 2842SOL    HW2 9426   0.310   4.168   4.271
 2843SOL     OW 9427   2.347   2.506   2.769
 2843SOL    HW1 9428   2.317   2.412   2.752
 2843SOL    HW2 9429   2.439   2.519   2.731
 2844SOL     OW 9430   6.855   4.763   0.490
 2844SOL    HW1 9431   6.843   4.672   0.529
 2844SOL    HW2 9432   6.765   4.807   0.480
 2845SOL     OW 9433   6.096   3.020   1.078
 2845SOL    HW1 9434   6.168   2.962   1.118
 2845SOL    HW2 9435   6.076   3.095   1.140
 2846SOL     OW 9436   4.074   1.025   7.010
 2846SOL    HW1 9437   4.125   0.942   0.012
 2846SOL    HW2 9438   3.983   0.999   6.979
 2847SOL     OW 9439   4.855   3.051   3.826
 2847SOL    HW1 9440   4.764   3.047   3.865
 2847SOL    HW2 9441   4.914   2.984   3.872
 2848SOL     OW 9442   1.599   2.163   4.916
 2848SOL    HW1 9443   1.503   2.163   4.943
 2848SOL    HW2 9444   1.633   2.257   4.914
 2849SOL     OW 9445   3.988   6.139   0.692
 2849SOL    HW1 9446   4.030   6.060   0.738
 2849SOL    HW2 9447   4.002   6.130   0.593
 2850SOL     OW 9448   1.605   0.261   2.355
 2850SOL    HW1 9449   1.540   0.226   2.287
 2850SOL    HW2 9450   1.558   0.278   2.441
 2851SOL     OW 9451   5.909   1.068   6.331
 2851SOL    HW1 9452   5.933   1.121   6.250
 2851SOL    HW2 9453   5.920   1.124   6.413
 2852SOL     OW 9454   5.596   4.294   6.666
 2852SOL    HW1 9455   5.638   4.338   6.587
 2852SOL    HW2 9456   5.662   4.232   6.709
 2853SOL     OW 9457   1.599   1.869   6.676
 2853SOL    HW1 9458   1.676   1.822   6.634
 2853SOL    HW2 9459   1.521   1.805   6.682
 2854SOL     OW 9460   4.161   1.457   4.943
 2854SOL    HW1 9461   4.204   1.480   5.030
 2854SOL    HW2 9462   4.142   1.541   4.892
 2855SOL     OW 9463   2.174   1.178   0.151
 2855SOL    HW1 9464   2.202   1.138   0.064
 2855SOL    HW2 9465   2.087   1.226   0.140
 2856SOL     OW 9466   0.929   2.564   5.733
 2856SOL    HW1 9467   0.860   2.583   5.803
 2856SOL    HW2 9468   0.895   2.595   5.644
 2857SOL     OW 9469   2.407   2.232   2.332
 2857SOL    HW1 9470   2.412   2.175   2.413
 2857SOL    HW2 9471   2.339   2.305   2.346
 2858SOL     OW 9472   4.701   4.269   2.261
 2858SOL    HW1 9473   4.627   4.227   2.207
 2858SOL    HW2 9474   4.775   4.297   2.200
 2859SOL     OW 9475   5.709   1.355   6.932
 2859SOL    HW1 9476   5.782   1.420   6.952
 2859SOL    HW2 9477   5.667   1.378   6.845
 2860SOL     OW 9478   3.535   1.050   1.872
 2860SOL    HW1 9479   3.519   0.952   1.876
 2860SOL    HW2 9480   3.497   1.087   1.787
 2861SOL     OW 9481   3.706   3.778   5.448
 2861SOL    HW1 9482   3.659   3.767   5.360
 2861SOL    HW2 9483   3.788   3.834   5.434
 2862SOL     OW 9484   5.930   1.620   2.584
 2862SOL    HW1 9485   5.983   1.703   2.605
 2862SOL    HW2 9486   5.838   1.645   2.555
 2863SOL     OW 9487   5.054   1.350   6.707
 2863SOL    HW1 9488   5.077   1.308   6.620
 2863SOL    HW2 9489   5.076   1.286   6.782
 2864SOL     OW 9490   4.514   1.757   2.028
 2864SOL    HW1 9491   4.457   1.739   1.948
 2864SOL    HW2 9492   4.510   1.855   2.050
 2865SOL     OW 9493   3.942   4.159   6.515
 2865SOL    HW1 9494   4.040   4.136   6.513
 2865SOL    HW2 9495   3.926   4.228   6.585
 2866SOL     OW 9496   6.623   5.602   0.524
 2866SOL    HW1 9497   6.692   5.578   0.455
 2866SOL    HW2 9498   6.568   5.522   0.546
 2867SOL     OW 9499   6.453   5.615   2.877
 2867SOL    HW1 9500   6.361   5.576   2.876
 2867SOL    HW2 9501   6.459   5.684   2.949
 2868SOL     OW 9502   0.815   1.846   5.578
 2868SOL    HW1 9503   0.758   1.904   5.637
 2868SOL    HW2 9504   0.766   1.760   5.560
 2869SOL     OW 9505   6.786   1.293   3.754
 2869SOL    HW1 9506   6.760   1.355   3.828
 2869SOL    HW2 9507   6.713   1.290   3.685
 2870SOL     OW 9508   0.472   1.583   4.927
 2870SOL    HW1 9509   0.508   1.582   4.833
 2870SOL    HW2 9510   0.517   1.512   4.981
 2871SOL     OW 9511   0.048   2.082   6.930
 2871SOL    HW1 9512   0.111   2.007   6.951
 2871SOL    HW2 9513   7.013   2.056   6.853
 2872SOL     OW 9514   2.491   2.102   2.549
 2872SOL    HW1 9515   2.548   2.021   2.543
 2872SOL    HW2 9516   2.466   2.118   2.645
 2873SOL     OW 9517   0.108   5.144   2.909
 2873SOL    HW1 9518   0.139   5.173   2.819
 2873SOL    HW2 9519   0.154   5.198   2.979
 2874SOL     OW 9520   4.219   6.604   3.262
 2874SOL    HW1 9521   4.305   6.609   3.314
 2874SOL    HW2 9522   4.142   6.609   3.324
 2875SOL     OW 9523   4.400   6.961   0.642
 2875SOL    HW1 9524   4.476   6.990   0.585
 2875SOL    HW2 9525   4.332   0.010   0.647
 2876SOL     OW 9526   1.484   0.238   1.652
 2876SOL    HW1 9527   1.557   0.214   1.716
 2876SOL    HW2 9528   1.456   0.333   1.666
 2877SOL     OW 9529   3.304   2.607   5.312
 2877SOL    HW1 9530   3.261   2.528   5.267
 2877SOL    HW2 9531   3.399   2.585   5.334
 2878SOL     OW 9532   4.058   4.969   4.854
 2878SOL    HW1 9533   4.049   4.873   4.826
 2878SOL    HW2 9534   3.996   5.025   4.799
 2879SOL     OW 9535   5.816   5.067   0.300
 2879SOL    HW1 9536   5.748   4.995   0.284
 2879SOL    HW2 9537   5.798   5.111   0.388
 2880SOL     OW 9538   6.853   0.461   1.984
 2880SOL    HW1 9539   6.753   0.455   1.993
 2880SOL    HW2 9540   6.895   0.460   2.075
 2881SOL     OW 9541   5.111   6.018   0.046
 2881SOL    HW1 9542   5.148   5.966   0.123
 2881SOL    HW2 9543   5.073   5.954   7.002
 2882SOL     OW 9544   0.797   4.633   2.560
 2882SOL    HW1 9545   0.776   4.581   2.477
 2882SOL    HW2 9546   0.713   4.648   2.612
 2883SOL     OW 9547   5.687   0.259   3.476
 2883SOL    HW1 9548   5.639   0.181   3.516
 2883SOL    HW2 9549   5.638   0.343   3.500
 2884SOL     OW 9550   1.009   7.019   2.630
 2884SOL    HW1 9551   1.073   0.064   2.664
 2884SOL    HW2 9552   0.917   0.035   2.626
 2885SOL     OW 9553   0.890   3.478   3.137
 2885SOL    HW1 9554   0.871   3.569   3.102
 2885SOL    HW2 9555   0.949   3.485   3.217
 2886SOL     OW 9556   1.681   4.462   5.767
 2886SOL    HW1 9557   1.634   4.463   5.855
 2886SOL    HW2 9558   1.635   4.396   5.706
 2887SOL     OW 9559   0.144   0.738   5.185
 2887SOL    HW1 9560   0.235   0.781   5.187
 2887SOL    HW2 9561   0.082   0.794   5.130
 2888SOL     OW 9562   0.544   4.037   0.175
 2888SOL    HW1 9563   0.532   3.938   0.179
 2888SOL    HW2 9564   0.517   4.070   0.084
 2889SOL     OW 9565   1.904   6.667   2.282
 2889SOL    HW1 9566   1.886   6.691   2.377
 2889SOL    HW2 9567   1.870   6.575   2.263
 2890SOL     OW 9568   2.371   6.019   0.485
 2890SOL    HW1 9569   2.470   6.039   0.487
 2890SOL    HW2 9570   2.345   5.973   0.570
 2891SOL     OW 9571   0.862   4.072   3.916
 2891SOL    HW1 9572   0.908   4.121   3.843
 2891SOL    HW2 9573   0.806   4.137   3.969
 2892SOL     OW 9574   5.287   3.418   7.019
 2892SOL    HW1 9575   5.197   3.375   7.019
 2892SOL    HW2 9576   5.289   3.492   6.952
 2893SOL     OW 9577   0.123   6.291   4.781
 2893SOL    HW1 9578   0.041   6.298   4.838
 2893SOL    HW2 9579   0.137   6.377   4.732
 2894SOL     OW 9580   1.259   2.915   1.949
 2894SOL    HW1 9581   1.351   2.931   1.986
 2894SOL    HW2 9582   1.217   2.839   1.998
 2895SOL     OW 9583   4.642   2.540   5.870
 2895SOL    HW1 9584   4.623   2.491   5.956
 2895SOL    HW2 9585   4.639   2.639   5.887
 2896SOL     OW 9586   4.558   5.993   6.087
 2896SOL    HW1 9587   4.636   5.930   6.080
 2896SOL    HW2 9588   4.495   5.961   6.158
 2897SOL     OW 9589   3.860   5.123   2.956
 2897SOL    HW1 9590   3.940   5.152   3.009
 2897SOL    HW2 9591   3.840   5.190   2.885
 2898SOL     OW 9592   4.614   4.937   4.430
 2898SOL    HW1 9593   4.606   5.036   4.413
 2898SOL    HW2 9594   4.587   4.888   4.347
 2899SOL     OW 9595   1.150   1.670   0.440
 2899SOL    HW1 9596   1.202   1.745   0.480
 2899SOL    HW2 9597   1.071   1.707   0.390
 2900SOL     OW 9598   1.570   4.550   5.311
 2900SOL    HW1 9599   1.550   4.637   5.266
 2900SOL    HW2 9600   1.618   4.568   5.398
 2901SOL     OW 9601   3.007   5.694   3.577
 2901SOL    HW1 9602   2.986   5.642   3.660
 2901SOL    HW2 9603   3.002   5.633   3.498
 2902SOL     OW 9604   4.912   6.734   2.430
 2902SOL    HW1 9605   4.834   6.697   2.380
 2902SOL    HW2 9606   4.934   6.825   2.395
 2903SOL     OW 9607   3.171   0.594   0.824
 2903SOL    HW1 9608   3.102   0.617   0.756
 2903SOL    HW2 9609   3.227   0.674   0.843
 2904SOL     OW 9610   2.122   3.900   4.871
 2904SOL    HW1 9611   2.122   3.821   4.932
 2904SOL    HW2 9612   2.209   3.949   4.880
 2905SOL     OW 9613   1.583   2.487   4.678
 2905SOL    HW1 9614   1.630   2.470   4.764
 2905SOL    HW2 9615   1.647   2.478   4.602
 2906SOL     OW 9616   4.260   5.392   1.623
 2906SOL    HW1 9617   4.189   5.420   1.687
 2906SOL    HW2 9618   4.227   5.405   1.529
 2907SOL     OW 9619   0.717   1.593   3.755
 2907SOL    HW1 9620   0.790   1.636   3.703
 2907SOL    HW2 9621   0.750   1.573   3.848
 2908SOL     OW 9622   5.032   6.452   3.998
 2908SOL    HW1 9623   5.088   6.513   3.943
 2908SOL    HW2 9624   5.077   6.435   4.086
 2909SOL     OW 9625   1.646   5.996   3.406
 2909SOL    HW1 9626   1.693   5.908   3.403
 2909SOL    HW2 9627   1.575   5.995   3.475
 2910SOL     OW 9628   4.535   6.969   4.184
 2910SOL    HW1 9629   4.548   0.042   4.207
 2910SOL    HW2 9630   4.519   6.916   4.268
 2911SOL     OW 9631   0.848   5.664   3.423
 2911SOL    HW1 9632   0.749   5.654   3.428
 2911SOL    HW2 9633   0.891   5.614   3.499
 2912SOL     OW 9634   5.069   0.575   0.071
 2912SOL    HW1 9635   5.026   0.503   0.015
 2912SOL    HW2 9636   5.041   0.564   0.166
 2913SOL     OW 9637   2.748   4.962   2.730
 2913SOL    HW1 9638   2.830   4.911   2.702
 2913SOL    HW2 9639   2.680   4.957   2.657
 2914SOL     OW 9640   6.225   6.428   7.014
 2914SOL    HW1 9641   6.225   6.506   0.053
 2914SOL    HW2 9642   6.219   6.343   0.043
 2915SOL     OW 9643   5.523   1.511   3.833
 2915SOL    HW1 9644   5.493   1.492   3.740
 2915SOL    HW2 9645   5.493   1.603   3.860
 2916SOL     OW 9646   1.048   6.466   6.901
 2916SOL    HW1 9647   0.964   6.522   6.901
 2916SOL    HW2 9648   1.070   6.440   6.807
 2917SOL     OW 9649   2.796   0.103   3.002
 2917SOL    HW1 9650   2.845   0.091   3.088
 2917SOL    HW2 9651   2.718   0.041   2.999
 2918SOL     OW 9652   6.357   5.416   4.893
 2918SOL    HW1 9653   6.423   5.473   4.942
 2918SOL    HW2 9654   6.305   5.472   4.829
 2919SOL     OW 9655   6.912   1.133   1.866
 2919SOL    HW1 9656   6.819   1.142   1.832
 2919SOL    HW2 9657   6.959   1.061   1.815
 2920SOL     OW 9658   2.618   1.570   1.324
 2920SOL    HW1 9659   2.520   1.555   1.308
 2920SOL    HW2 9660   2.630   1.624   1.407
 2921SOL     OW 9661   0.968   0.168   3.632
 2921SOL    HW1 9662   1.015   0.081   3.644
 2921SOL    HW2 9663   1.035   0.242   3.627
 2922SOL     OW 9664   4.978   0.478   0.317
 2922SOL    HW1 9665   5.012   0.483   0.411
 2922SOL    HW2 9666   4.893   0.530   0.310
 2923SOL     OW 9667   6.669   5.352   2.126
 2923SOL    HW1 9668   6.672   5.252   2.119
 2923SOL    HW2 9669   6.751   5.391   2.084
 2924SOL     OW 9670   6.654   2.275   5.789
 2924SOL    HW1 9671   6.647   2.201   5.855
 2924SOL    HW2 9672   6.581   2.341   5.804
 2925SOL     OW 9673   4.710   0.679   2.035
 2925SOL    HW1 9674   4.701   0.582   2.013
 2925SOL    HW2 9675   4.619   0.721   2.033
 2926SOL     OW 9676   6.766   1.800   4.385
 2926SOL    HW1 9677   6.760   1.840   4.477
 2926SOL    HW2 9678   6.853   1.826   4.343
 2927SOL     OW 9679   1.037   3.029   1.659
 2927SOL    HW1 9680   1.123   3.074   1.680
 2927SOL    HW2 9681   1.008   3.054   1.566
 2928SOL     OW 9682   0.352   1.352   6.291
 2928SOL    HW1 9683   0.352   1.253   6.301
 2928SOL    HW2 9684   0.365   1.395   6.380
 2929SOL     OW 9685   0.114   2.325   6.808
 2929SOL    HW1 9686   0.103   2.231   6.840
 2929SOL    HW2 9687   0.211   2.346   6.800
 2930SOL     OW 9688   4.710   0.280   5.125
 2930SOL    HW1 9689   4.641   0.351   5.140
 2930SOL    HW2 9690   4.664   0.192   5.113
 2931SOL     OW 9691   5.605   4.847   0.386
 2931SOL    HW1 9692   5.604   4.776   0.316
 2931SOL    HW2 9693   5.517   4.894   0.387
 2932SOL     OW 9694   0.798   5.337   0.992
 2932SOL    HW1 9695   0.860   5.348   0.914
 2932SOL    HW2 9696   0.705   5.356   0.964
 2933SOL     OW 9697   6.722   4.937   3.565
 2933SOL    HW1 9698   6.802   4.984   3.602
 2933SOL    HW2 9699   6.720   4.843   3.600
 2934SOL     OW 9700   4.481   1.242   0.207
 2934SOL    HW1 9701   4.399   1.253   0.151
 2934SOL    HW2 9702   4.500   1.326   0.257
 2935SOL     OW 9703   5.869   2.998   0.331
 2935SOL    HW1 9704   5.898   3.068   0.265
 2935SOL    HW2 9705   5.778   2.964   0.305
 2936SOL     OW 9706   3.998   5.890   1.452
 2936SOL    HW1 9707   4.050   5.922   1.531
 2936SOL    HW2 9708   3.997   5.962   1.382
 2937SOL     OW 9709   4.641   4.589   0.423
 2937SOL    HW1 9710   4.687   4.649   0.489
 2937SOL    HW2 9711   4.621   4.641   0.340
 2938SOL     OW 9712   4.533   5.106   0.135
 2938SOL    HW1 9713   4.456   5.125   0.074
 2938SOL    HW2 9714   4.536   5.009   0.156
 2939SOL     OW 9715   1.108   0.813   3.414
 2939SOL    HW1 9716   1.206   0.831   3.408
 2939SOL    HW2 9717   1.057   0.887   3.370
 2940SOL     OW 9718   5.826   5.204   5.952
 2940SOL    HW1 9719   5.735   5.227   5.916
 2940SOL    HW2 9720   5.857   5.277   6.012
 2941SOL     OW 9721   1.815   2.965   4.634
 2941SOL    HW1 9722   1.895   2.928   4.681
 2941SOL    HW2 9723   1.797   2.911   4.552
 2942SOL     OW 9724   3.273   2.429   0.969
 2942SOL    HW1 9725   3.344   2.468   0.911
 2942SOL    HW2 9726   3.264   2.483   1.052
 2943SOL     OW 9727   4.551   4.672   2.841
 2943SOL    HW1 9728   4.562   4.695   2.744
 2943SOL    HW2 9729   4.620   4.605   2.867
 2944SOL     OW 9730   2.871   5.876   4.474
 2944SOL    HW1 9731   2.969   5.877   4.452
 2944SOL    HW2 9732   2.854   5.808   4.545
 2945SOL     OW 9733   3.575   4.155   4.047
 2945SOL    HW1 9734   3.529   4.181   4.132
 2945SOL    HW2 9735   3.674   4.157   4.061
 2946SOL     OW 9736   0.729   5.104   5.890
 2946SOL    HW1 9737   0.654   5.110   5.956
 2946SOL    HW2 9738   0.787   5.185   5.896
 2947SOL     OW 9739   0.128   3.167   0.931
 2947SOL    HW1 9740   0.040   3.175   0.978
 2947SOL    HW2 9741   0.124   3.091   0.866
 2948SOL     OW 9742   0.730   4.492   5.344
 2948SOL    HW1 9743   0.679   4.577   5.329
 2948SOL    HW2 9744   0.808   4.511   5.404
 2949SOL     OW 9745   2.938   5.183   0.835
 2949SOL    HW1 9746   3.001   5.200   0.760
 2949SOL    HW2 9747   2.880   5.264   0.848
 2950SOL     OW 9748   5.246   4.170   4.339
 2950SOL    HW1 9749   5.288   4.103   4.400
 2950SOL    HW2 9750   5.274   4.150   4.245
 2951SOL     OW 9751   6.062   1.588   1.111
 2951SOL    HW1 9752   6.073   1.679   1.151
 2951SOL    HW2 9753   6.023   1.526   1.179
 2952SOL     OW 9754   0.872   5.485   5.429
 2952SOL    HW1 9755   0.853   5.509   5.524
 2952SOL    HW2 9756   0.787   5.489   5.376
 2953SOL     OW 9757   5.315   3.164   2.868
 2953SOL    HW1 9758   5.289   3.232   2.938
 2953SOL    HW2 9759   5.246   3.092   2.866
 2954SOL     OW 9760   0.020   5.666   1.656
 2954SOL    HW1 9761   0.020   5.639   1.752
 2954SOL    HW2 9762   0.111   5.651   1.617
 2955SOL     OW 9763   0.913   3.855   1.744
 2955SOL    HW1 9764   0.981   3.784   1.728
 2955SOL    HW2 9765   0.947   3.942   1.709
 2956SOL     OW 9766   5.579   6.256   3.200
 2956SOL    HW1 9767   5.588   6.273   3.102
 2956SOL    HW2 9768   5.631   6.324   3.251
 2957SOL     OW 9769   6.118   3.072   1.924
 2957SOL    HW1 9770   6.140   2.977   1.907
 2957SOL    HW2 9771   6.035   3.097   1.873
 2958SOL     OW 9772   2.268   5.022   4.019
 2958SOL    HW1 9773   2.240   5.100   4.075
 2958SOL    HW2 9774   2.299   4.947   4.079
 2959SOL     OW 9775   4.236   4.326   0.565
 2959SOL    HW1 9776   4.226   4.419   0.529
 2959SOL    HW2 9777   4.236   4.328   0.665
 2960SOL     OW 9778   3.551   0.706   6.587
 2960SOL    HW1 9779   3.548   0.725   6.685
 2960SOL    HW2 9780   3.634   0.746   6.547
 2961SOL     OW 9781   4.873   3.059   3.060
 2961SOL    HW1 9782   4.872   3.159   3.057
 2961SOL    HW2 9783   4.873   3.023   2.967
 2962SOL     OW 9784   3.901   0.637   3.375
 2962SOL    HW1 9785   3.837   0.653   3.451
 2962SOL    HW2 9786   3.952   0.552   3.392
 2963SOL     OW 9787   2.042   0.233   6.366
 2963SOL    HW1 9788   2.112   0.282   6.418
 2963SOL    HW2 9789   1.951   0.262   6.396
 2964SOL     OW 9790   0.848   0.521   2.984
 2964SOL    HW1 9791   0.832   0.585   3.060
 2964SOL    HW2 9792   0.907   0.563   2.916
 2965SOL     OW 9793   6.789   1.930   4.649
 2965SOL    HW1 9794   6.815   2.020   4.682
 2965SOL    HW2 9795   6.693   1.913   4.673
 2966SOL     OW 9796   5.886   5.973   3.908
 2966SOL    HW1 9797   5.820   6.031   3.860
 2966SOL    HW2 9798   5.841   5.923   3.981
 2967SOL     OW 9799   5.767   1.030   4.816
 2967SOL    HW1 9800   5.667   1.032   4.822
 2967SOL    HW2 9801   5.796   0.942   4.780
 2968SOL     OW 9802   0.888   3.244   6.437
 2968SOL    HW1 9803   0.838   3.159   6.422
 2968SOL    HW2 9804   0.965   3.249   6.373
 2969SOL     OW 9805   5.421   1.291   4.004
 2969SOL    HW1 9806   5.466   1.274   4.091
 2969SOL    HW2 9807   5.455   1.377   3.965
 2970SOL     OW 9808   1.897   4.605   6.074
 2970SOL    HW1 9809   1.807   4.567   6.097
 2970SOL    HW2 9810   1.924   4.671   6.145
 2971SOL     OW 9811   4.979   4.033   6.926
 2971SOL    HW1 9812   4.933   4.022   7.014
 2971SOL    HW2 9813   5.043   3.957   6.912
 2972SOL     OW 9814   6.410   4.452   6.527
 2972SOL    HW1 9815   6.355   4.419   6.603
 2972SOL    HW2 9816   6.426   4.378   6.462
 2973SOL     OW 9817   5.119   0.294   3.407
 2973SOL    HW1 9818   5.171   0.272   3.325
 2973SOL    HW2 9819   5.180   0.301   3.485
 2974SOL     OW 9820   0.513   4.722   2.903
 2974SOL    HW1 9821   0.513   4.713   2.803
 2974SOL    HW2 9822   0.419   4.735   2.935
 2975SOL     OW 9823   6.216   2.850   4.636
 2975SOL    HW1 9824   6.264   2.929   4.677
 2975SOL    HW2 9825   6.176   2.794   4.709
 2976SOL     OW 9826   3.686   2.097   3.720
 2976SOL    HW1 9827   3.617   2.146   3.774
 2976SOL    HW2 9828   3.715   2.155   3.644
 2977SOL     OW 9829   2.915   0.043   3.234
 2977SOL    HW1 9830   2.954   0.090   3.312
 2977SOL    HW2 9831   2.875   6.979   3.263
 2978SOL     OW 9832   4.537   4.500   0.082
 2978SOL    HW1 9833   4.580   4.410   0.092
 2978SOL    HW2 9834   4.442   4.490   0.054
 2979SOL     OW 9835   4.730   0.937   4.401
 2979SOL    HW1 9836   4.759   0.983   4.317
 2979SOL    HW2 9837   4.655   0.988   4.443
 2980SOL     OW 9838   1.544   6.302   3.978
 2980SOL    HW1 9839   1.500   6.354   4.051
 2980SOL    HW2 9840   1.498   6.214   3.967
 2981SOL     OW 9841   2.509   1.153   6.033
 2981SOL    HW1 9842   2.494   1.076   6.096
 2981SOL    HW2 9843   2.422   1.181   5.993
 2982SOL     OW 9844   4.040   5.275   3.083
 2982SOL    HW1 9845   4.005   5.362   3.119
 2982SOL    HW2 9846   4.130   5.290   3.041
 2983SOL     OW 9847   0.908   1.549   3.269
 2983SOL    HW1 9848   0.934   1.498   3.350
 2983SOL    HW2 9849   0.841   1.497   3.216
 2984SOL     OW 9850   5.298   5.736   1.371
 2984SOL    HW1 9851   5.331   5.818   1.418
 2984SOL    HW2 9852   5.217   5.758   1.317
 2985SOL     OW 9853   1.324   2.883   5.753
 2985SOL    HW1 9854   1.341   2.797   5.802
 2985SOL    HW2 9855   1.229   2.911   5.769
 2986SOL     OW 9856   3.185   3.867   5.056
 2986SOL    HW1 9857   3.106   3.880   4.996
 2986SOL    HW2 9858   3.208   3.953   5.101
 2987SOL     OW 9859   6.048   0.998   4.401
 2987SOL    HW1 9860   6.054   0.938   4.481
 2987SOL    HW2 9861   6.122   1.065   4.403
 2988SOL     OW 9862   0.717   5.908   2.556
 2988SOL    HW1 9863   0.807   5.867   2.543
 2988SOL    HW2 9864   0.657   5.880   2.482
 2989SOL     OW 9865   6.526   6.152   6.835
 2989SOL    HW1 9866   6.587   6.202   6.774
 2989SOL    HW2 9867   6.431   6.166   6.806
 2990SOL     OW 9868   4.380   1.933   4.559
 2990SOL    HW1 9869   4.368   2.005   4.490
 2990SOL    HW2 9870   4.330   1.958   4.642
 2991SOL     OW 9871   6.535   4.319   5.904
 2991SOL    HW1 9872   6.567   4.362   5.989
 2991SOL    HW2 9873   6.436   4.329   5.897
 2992SOL     OW 9874   2.982   5.885   4.809
 2992SOL    HW1 9875   2.994   5.787   4.793
 2992SOL    HW2 9876   2.914   5.920   4.744
 2993SOL     OW 9877   0.412   5.629   0.863
 2993SOL    HW1 9878   0.314   5.650   0.863
 2993SOL    HW2 9879   0.447   5.630   0.957
 2994SOL     OW 9880   4.103   6.717   0.022
 2994SOL    HW1 9881   4.031   6.648   0.033
 2994SOL    HW2 9882   4.184   6.676   7.004
 2995SOL     OW 9883   2.993   2.709   6.457
 2995SOL    HW1 9884   3.085   2.744   6.475
 2995SOL    HW2 9885   2.932   2.734   6.532
 2996SOL     OW 9886   2.314   0.449   3.182
 2996SOL    HW1 9887   2.332   0.511   3.105
 2996SOL    HW2 9888   2.340   0.494   3.268
 2997SOL     OW 9889   5.433   0.985   2.555
 2997SOL    HW1 9890   5.509   1.050   2.550
 2997SOL    HW2 9891   5.400   0.965   2.463
 2998SOL     OW 9892   4.201   0.301   4.248
 2998SOL    HW1 9893   4.187   0.290   4.150
 2998SOL    HW2 9894   4.216   0.397   4.270
 2999SOL     OW 9895   3.002   4.854   4.578
 2999SOL    HW1 9896   3.073   4.849   4.648
 2999SOL    HW2 9897   2.980   4.950   4.561
 3000SOL     OW 9898   2.376   3.185   0.118
 3000SOL    HW1 9899   2.368   3.237   0.202
 3000SOL    HW2 9900   2.471   3.156   0.106
 3001SOL     OW 9901   5.452   6.866   6.356
 3001SOL    HW1 9902   5.356   6.894   6.361
 3001SOL    HW2 9903   5.505   6.917   6.423
 3002SOL     OW 9904   3.766   0.878   6.713
 3002SOL    HW1 9905   3.813   0.872   6.801
 3002SOL    HW2 9906   3.685   0.937   6.723
 3003SOL     OW 9907   1.578   6.310   0.094
 3003SOL    HW1 9908   1.674   6.291   0.072
 3003SOL    HW2 9909   1.571   6.400   0.137
 3004SOL     OW 9910   1.004   4.387   3.503
 3004SOL    HW1 9911   1.074   4.402   3.573
 3004SOL    HW2 9912   0.986   4.473   3.455
 3005SOL     OW 9913   3.613   2.214   7.007
 3005SOL    HW1 9914   3.618   2.116   0.005
 3005SOL    HW2 9915   3.561   2.227   6.923
 3006SOL     OW 9916   5.571   1.974   5.858
 3006SOL    HW1 9917   5.527   1.960   5.770
 3006SOL    HW2 9918   5.583   2.072   5.875
 3007SOL     OW 9919   5.886   5.488   1.163
 3007SOL    HW1 9920   5.859   5.572   1.211
 3007SOL    HW2 9921   5.812   5.458   1.104
 3008SOL     OW 9922   3.688   2.000   6.381
 3008SOL    HW1 9923   3.696   1.984   6.479
 3008SOL    HW2 9924   3.593   1.982   6.352
 3009SOL     OW 9925   0.376   1.091   2.406
 3009SOL    HW1 9926   0.372   1.151   2.486
 3009SOL    HW2 9927   0.328   1.006   2.425
 3010SOL     OW 9928   3.540   5.793   2.821
 3010SOL    HW1 9929   3.624   5.839   2.850
 3010SOL    HW2 9930   3.535   5.792   2.721
 3011SOL     OW 9931   5.676   1.240   1.395
 3011SOL    HW1 9932   5.631   1.157   1.362
 3011SOL    HW2 9933   5.737   1.217   1.470
 3012SOL     OW 9934   0.944   3.603   5.718
 3012SOL    HW1 9935   0.870   3.579   5.780
 3012SOL    HW2 9936   0.907   3.655   5.640
 3013SOL     OW 9937   5.539   5.943   5.383
 3013SOL    HW1 9938   5.446   5.924   5.351
 3013SOL    HW2 9939   5.537   5.970   5.479
 3014SOL     OW 9940   4.696   2.311   4.595
 3014SOL    HW1 9941   4.760   2.326   4.519
 3014SOL    HW2 9942   4.651   2.222   4.583
 3015SOL     OW 9943   3.712   1.889   0.443
 3015SOL    HW1 9944   3.735   1.961   0.378
 3015SOL    HW2 9945   3.640   1.921   0.504
 3016SOL     OW 9946   2.341   6.214   4.069
 3016SOL    HW1 9947   2.389   6.129   4.051
 3016SOL    HW2 9948   2.391   6.290   4.028
 3017SOL     OW 9949   6.661   5.029   1.805
 3017SOL    HW1 9950   6.735   4.975   1.765
 3017SOL    HW2 9951   6.581   4.971   1.818
 3018SOL     OW 9952   3.151   6.154   6.044
 3018SOL    HW1 9953   3.200   6.067   6.035
 3018SOL    HW2 9954   3.136   6.193   5.953
 3019SOL     OW 9955   0.654   0.280   6.555
 3019SOL    HW1 9956   0.670   0.227   6.638
 3019SOL    HW2 9957   0.702   0.368   6.563
 3020SOL     OW 9958   4.064   3.075   1.821
 3020SOL    HW1 9959   4.060   2.988   1.773
 3020SOL    HW2 9960   4.147   3.124   1.796
 3021SOL     OW 9961   3.058   7.016   0.071
 3021SOL    HW1 9962   3.125   6.942   0.065
 3021SOL    HW2 9963   2.971   6.981   0.105
 3022SOL     OW 9964   3.781   5.468   3.926
 3022SOL    HW1 9965   3.764   5.373   3.952
 3022SOL    HW2 9966   3.696   5.521   3.936
 3023SOL     OW 9967   4.335   0.281   2.683
 3023SOL    HW1 9968   4.284   0.363   2.708
 3023SOL    HW2 9969   4.359   0.230   2.765
 3024SOL     OW 9970   4.097   6.820   5.371
 3024SOL    HW1 9971   4.187   6.856   5.348
 3024SOL    HW2 9972   4.107   6.727   5.408
 3025SOL     OW 9973   3.422   1.183   0.757
 3025SOL    HW1 9974   3.325   1.209   0.764
 3025SOL    HW2 9975   3.455   1.205   0.665
 3026SOL     OW 9976   1.223   0.573   0.680
 3026SOL    HW1 9977   1.317   0.592   0.649
 3026SOL    HW2 9978   1.225   0.543   0.775
 3027SOL     OW 9979   3.811   0.463   2.971
 3027SOL    HW1 9980   3.818   0.488   2.874
 3027SOL    HW2 9981   3.791   0.544   3.025
 3028SOL     OW 9982   1.030   4.431   5.309
 3028SOL    HW1 9983   0.993   4.387   5.227
 3028SOL    HW2 9984   1.127   4.452   5.296
 3029SOL     OW 9985   0.366   2.675   4.580
 3029SOL    HW1 9986   0.460   2.660   4.610
 3029SOL    HW2 9987   0.313   2.715   4.654
 3030SOL     OW 9988   0.766   3.090   5.863
 3030SOL    HW1 9989   0.719   3.003   5.851
 3030SOL    HW2 9990   0.841   3.097   5.797
 3031SOL     OW 9991   0.689   3.640   0.479
 3031SOL    HW1 9992   0.654   3.730   0.452
 3031SOL    HW2 9993   0.682   3.577   0.402
 3032SOL     OW 9994   3.668   6.851   1.152
 3032SOL    HW1 9995   3.581   6.900   1.146
 3032SOL    HW2 9996   3.717   6.881   1.235
 3033SOL     OW 9997   6.232   2.147   1.827
 3033SOL    HW1 9998   6.198   2.216   1.891
 3033SOL    HW2 9999   6.326   2.169   1.802
 3034SOL     OW10000   1.399   5.521   3.025
 3034SOL    HW110001   1.348   5.606   3.034
 3034SOL    HW210002   1.447   5.501   3.111
 3035SOL     OW10003   0.327   2.970   6.853
 3035SOL    HW110004   0.396   3.009   6.792
 3035SOL    HW210005   0.363   2.963   6.945
 3036SOL     OW10006   1.821   1.734   6.483
 3036SOL    HW110007   1.845   1.668   6.554
 3036SOL    HW210008   1.899   1.793   6.464
 3037SOL     OW10009   6.631   5.574   5.305
 3037SOL    HW110010   6.594   5.668   5.306
 3037SOL    HW210011   6.701   5.565   5.376
 3038SOL     OW10012   5.717   6.494   6.242
 3038SOL    HW110013   5.623   6.524   6.225
 3038SOL    HW210014   5.729   6.401   6.207
 3039SOL     OW10015   0.126   3.733   1.180
 3039SOL    HW110016   0.087   3.666   1.117
 3039SOL    HW210017   0.099   3.710   1.274
 3040SOL     OW10018   3.764   3.506   6.322
 3040SOL    HW110019   3.713   3.557   6.253
 3040SOL    HW210020   3.851   3.476   6.284
 3041SOL     OW10021   2.308   2.636   4.150
 3041SOL    HW110022   2.274   2.727   4.126
 3041SOL    HW210023   2.233   2.583   4.190
 3042SOL     OW10024   4.044   6.205   2.200
 3042SOL    HW110025   4.063   6.207   2.298
 3042SOL    HW210026   4.100   6.133   2.157
 3043SOL     OW10027   2.088   5.411   1.310
 3043SOL    HW110028   2.071   5.356   1.392
 3043SOL    HW210029   2.164   5.474   1.328
 3044SOL     OW10030   3.460   3.701   6.086
 3044SOL    HW110031   3.443   3.704   5.987
 3044SOL    HW210032   3.557   3.715   6.104
 3045SOL     OW10033   4.623   0.690   2.913
 3045SOL    HW110034   4.702   0.693   2.974
 3045SOL    HW210035   4.651   0.651   2.824
 3046SOL     OW10036   2.358   0.967   6.216
 3046SOL    HW110037   2.351   0.998   6.310
 3046SOL    HW210038   2.266   0.951   6.179
 3047SOL     OW10039   5.759   0.248   2.261
 3047SOL    HW110040   5.764   0.240   2.162
 3047SOL    HW210041   5.828   0.313   2.293
 3048SOL     OW10042   3.901   2.390   1.668
 3048SOL    HW110043   3.809   2.377   1.704
 3048SOL    HW210044   3.904   2.472   1.611
 3049SOL     OW10045   0.620   6.959   2.290
 3049SOL    HW110046   0.628   0.035   2.289
 3049SOL    HW210047   0.607   6.927   2.384
 3050SOL     OW10048   3.013   1.110   2.060
 3050SOL    HW110049   3.042   1.015   2.072
 3050SOL    HW210050   2.930   1.127   2.114
 3051SOL     OW10051   2.178   4.147   0.017
 3051SOL    HW110052   2.199   4.245   0.015
 3051SOL    HW210053   2.111   4.129   0.089
 3052SOL     OW10054   5.706   6.979   1.983
 3052SOL    HW110055   5.667   6.917   1.915
 3052SOL    HW210056   5.722   6.929   2.069
 3053SOL     OW10057   6.881   1.609   6.838
 3053SOL    HW110058   6.795   1.560   6.849
 3053SOL    HW210059   6.864   1.708   6.845
 3054SOL     OW10060   6.648   1.998   0.751
 3054SOL    HW110061   6.556   2.032   0.766
 3054SOL    HW210062   6.661   1.912   0.802
 3055SOL     OW10063   5.021   0.113   4.086
 3055SOL    HW110064   4.996   0.111   3.989
 3055SOL    HW210065   4.988   0.197   4.127
 3056SOL     OW10066   5.896   0.687   5.032
 3056SOL    HW110067   5.924   0.592   5.018
 3056SOL    HW210068   5.809   0.689   5.082
 3057SOL     OW10069   4.008   6.116   3.013
 3057SOL    HW110070   4.018   6.057   3.093
 3057SOL    HW210071   4.067   6.196   3.022
 3058SOL     OW10072   7.021   5.480   0.829
 3058SOL    HW110073   0.031   5.568   0.864
 3058SOL    HW210074   6.923   5.486   0.810
 3059SOL     OW10075   2.683   2.401   4.581
 3059SOL    HW110076   2.668   2.338   4.657
 3059SOL    HW210077   2.624   2.481   4.592
 3060SOL     OW10078   0.469   5.462   0.451
 3060SOL    HW110079   0.402   5.492   0.383
 3060SOL    HW210080   0.484   5.364   0.442
 3061SOL     OW10081   6.850   0.251   5.419
 3061SOL    HW110082   6.816   0.169   5.372
 3061SOL    HW210083   6.822   0.249   5.515
 3062SOL     OW10084   1.557   0.305   0.001
 3062SOL    HW110085   1.532   0.209   0.017
 3062SOL    HW210086   1.643   0.309   6.974
 3063SOL     OW10087   2.327   5.446   1.537
 3063SOL    HW110088   2.247   5.420   1.590
 3063SOL    HW210089   2.368   5.365   1.495
 3064SOL     OW10090   5.729   4.352   3.121
 3064SOL    HW110091   5.733   4.430   3.058
 3064SOL    HW210092   5.759   4.380   3.211
 3065SOL     OW10093   2.408   0.458   0.731
 3065SOL    HW110094   2.323   0.486   0.775
 3065SOL    HW210095   2.429   0.522   0.656
 3066SOL     OW10096   5.650   5.144   0.763
 3066SOL    HW110097   5.624   5.105   0.675
 3066SOL    HW210098   5.599   5.099   0.836
 3067SOL     OW10099   4.025   1.954   5.408
 3067SOL    HW110100   4.068   1.879   5.458
 3067SOL    HW210101   4.002   2.028   5.471
 3068SOL     OW10102   6.345   6.786   1.920
 3068SOL    HW110103   6.430   6.791   1.972
 3068SOL    HW210104   6.273   6.838   1.968
 3069SOL     OW10105   6.781   6.265   1.865
 3069SOL    HW110106   6.701   6.209   1.846
 3069SOL    HW210107   6.821   6.297   1.779
 3070SOL     OW10108   2.046   1.452   0.801
 3070SOL    HW110109   2.004   1.420   0.886
 3070SOL    HW210110   2.133   1.496   0.822
 3071SOL     OW10111   6.014   6.515   3.066
 3071SOL    HW110112   5.956   6.438   3.041
 3071SOL    HW210113   6.107   6.499   3.034
 3072SOL     OW10114   1.734   6.585   0.249
 3072SOL    HW110115   1.798   6.653   0.214
 3072SOL    HW210116   1.667   6.562   0.179
 3073SOL     OW10117   6.411   2.929   4.345
 3073SOL    HW110118   6.504   2.897   4.357
 3073SOL    HW210119   6.371   2.949   4.435
 3074SOL     OW10120   6.066   3.490   0.939
 3074SOL    HW110121   6.052   3.399   0.978
 3074SOL    HW210122   5.981   3.522   0.897
 3075SOL     OW10123   2.454   6.154   1.969
 3075SOL    HW110124   2.493   6.226   2.026
 3075SOL    HW210125   2.481   6.168   1.874
 3076SOL     OW10126   6.669   0.064   4.809
 3076SOL    HW110127   6.749   0.004   4.808
 3076SOL    HW210128   6.597   0.023   4.865
 3077SOL     OW10129   4.979   6.006   1.934
 3077SOL    HW110130   4.918   5.931   1.959
 3077SOL    HW210131   5.073   5.980   1.954
 3078SOL     OW10132   0.586   2.777   2.241
 3078SOL    HW110133   0.602   2.818   2.151
 3078SOL    HW210134   0.537   2.843   2.299
 3079SOL     OW10135   2.615   2.105   3.847
 3079SOL    HW110136   2.563   2.033   3.800
 3079SOL    HW210137   2.671   2.154   3.780
 3080SOL     OW10138   4.893   3.877   3.485
 3080SOL    HW110139   4.891   3.878   3.385
 3080SOL    HW210140   4.819   3.934   3.520
 3081SOL     OW10141   0.210   2.035   5.771
 3081SOL    HW110142   0.112   2.051   5.760
 3081SOL    HW210143   0.253   2.117   5.811
 3082SOL     OW10144   2.739   6.480   4.072
 3082SOL    HW110145   2.789   6.520   4.149
 3082SOL    HW210146   2.761   6.382   4.065
 3083SOL     OW10147   4.184   6.139   3.766
 3083SOL    HW110148   4.104   6.081   3.780
 3083SOL    HW210149   4.263   6.083   3.744
 3084SOL     OW10150   6.096   4.007   4.937
 3084SOL    HW110151   6.038   3.937   4.978
 3084SOL    HW210152   6.140   3.970   4.856
 3085SOL     OW10153   6.465   4.448   1.365
 3085SOL    HW110154   6.516   4.398   1.295
 3085SOL    HW210155   6.490   4.414   1.456
 3086SOL     OW10156   4.586   1.502   1.524
 3086SOL    HW110157   4.500   1.454   1.510
 3086SOL    HW210158   4.595   1.527   1.620
 3087SOL     OW10159   0.110   5.491   3.560
 3087SOL    HW110160   0.075   5.489   3.654
 3087SOL    HW210161   0.210   5.496   3.561
 3088SOL     OW10162   1.549   4.762   4.980
 3088SOL    HW110163   1.634   4.734   4.936
 3088SOL    HW210164   1.471   4.734   4.923
 3089SOL     OW10165   1.518   3.473   6.647
 3089SOL    HW110166   1.548   3.566   6.624
 3089SOL    HW210167   1.585   3.407   6.614
 3090SOL     OW10168   1.502   2.382   1.765
 3090SOL    HW110169   1.442   2.387   1.844
 3090SOL    HW210170   1.597   2.378   1.796
 3091SOL     OW10171   1.864   1.183   1.162
 3091SOL    HW110172   1.881   1.107   1.224
 3091SOL    HW210173   1.883   1.155   1.068
 3092SOL     OW10174   4.619   0.394   0.519
 3092SOL    HW110175   4.522   0.399   0.496
 3092SOL    HW210176   4.637   0.310   0.571
 3093SOL     OW10177   5.582   6.535   5.666
 3093SOL    HW110178   5.606   6.622   5.709
 3093SOL    HW210179   5.561   6.550   5.570
 3094SOL     OW10180   2.703   6.763   4.099
 3094SOL    HW110181   2.747   6.683   4.059
 3094SOL    HW210182   2.629   6.794   4.039
 3095SOL     OW10183   2.061   5.288   5.273
 3095SOL    HW110184   2.123   5.217   5.305
 3095SOL    HW210185   1.994   5.310   5.344
 3096SOL     OW10186   1.783   6.073   5.221
 3096SOL    HW110187   1.733   6.056   5.137
 3096SOL    HW210188   1.745   6.154   5.266
 3097SOL     OW10189   5.949   2.466   0.243
 3097SOL    HW110190   5.894   2.546   0.217
 3097SOL    HW210191   6.042   2.478   0.211
 3098SOL     OW10192   3.126   3.430   0.785
 3098SOL    HW110193   3.034   3.454   0.815
 3098SOL    HW210194   3.152   3.342   0.822
 3099SOL     OW10195   0.403   6.557   2.967
 3099SOL    HW110196   0.490   6.547   2.918
 3099SOL    HW210197   0.401   6.495   3.045
 3100SOL     OW10198   6.732   6.461   4.366
 3100SOL    HW110199   6.764   6.420   4.452
 3100SOL    HW210200   6.639   6.497   4.379
 3101SOL     OW10201   5.280   6.924   6.052
 3101SOL    HW110202   5.304   6.833   6.019
 3101SOL    HW210203   5.299   6.929   6.150
 3102SOL     OW10204   0.197   5.043   1.769
 3102SOL    HW110205   0.126   5.023   1.835
 3102SOL    HW210206   0.161   5.034   1.676
 3103SOL     OW10207   4.029   0.297   2.073
 3103SOL    HW110208   3.995   0.288   2.166
 3103SOL    HW210209   4.036   0.393   2.049
 3104SOL     OW10210   5.051   6.889   4.979
 3104SOL    HW110211   5.138   6.842   4.989
 3104SOL    HW210212   5.066   6.988   4.975
 3105SOL     OW10213   6.096   4.796   2.209
 3105SOL    HW110214   6.126   4.891   2.222
 3105SOL    HW210215   6.146   4.755   2.133
 3106SOL     OW10216   6.744   1.809   3.297
 3106SOL    HW110217   6.734   1.795   3.395
 3106SOL    HW210218   6.823   1.758   3.263
 3107SOL     OW10219   4.265   0.970   4.864
 3107SOL    HW110220   4.262   1.017   4.776
 3107SOL    HW210221   4.340   0.903   4.863
 3108SOL     OW10222   1.236   6.572   4.322
 3108SOL    HW110223   1.161   6.613   4.374
 3108SOL    HW210224   1.304   6.642   4.300
 3109SOL     OW10225   5.835   5.985   2.881
 3109SOL    HW110226   5.819   5.998   2.979
 3109SOL    HW210227   5.747   5.973   2.834
 3110SOL     OW10228   1.492   1.949   3.189
 3110SOL    HW110229   1.588   1.963   3.163
 3110SOL    HW210230   1.454   2.035   3.223
 3111SOL     OW10231   6.267   5.626   3.926
 3111SOL    HW110232   6.193   5.604   3.989
 3111SOL    HW210233   6.351   5.581   3.955
 3112SOL     OW10234   5.071   2.465   6.449
 3112SOL    HW110235   5.144   2.480   6.515
 3112SOL    HW210236   5.070   2.368   6.422
 3113SOL     OW10237   2.316   5.984   3.573
 3113SOL    HW110238   2.415   5.995   3.580
 3113SOL    HW210239   2.289   5.896   3.612
 3114SOL     OW10240   4.308   1.651   1.275
 3114SOL    HW110241   4.408   1.658   1.281
 3114SOL    HW210242   4.283   1.602   1.192
 3115SOL     OW10243   4.030   3.402   6.216
 3115SOL    HW110244   4.060   3.398   6.121
 3115SOL    HW210245   4.021   3.310   6.253
 3116SOL     OW10246   0.761   2.895   6.642
 3116SOL    HW110247   0.850   2.910   6.683
 3116SOL    HW210248   0.730   2.802   6.663
 3117SOL     OW10249   4.396   3.586   5.362
 3117SOL    HW110250   4.310   3.624   5.331
 3117SOL    HW210251   4.458   3.575   5.284
 3118SOL     OW10252   0.653   5.263   1.447
 3118SOL    HW110253   0.676   5.277   1.543
 3118SOL    HW210254   0.560   5.296   1.431
 3119SOL     OW10255   1.660   3.379   5.395
 3119SOL    HW110256   1.728   3.448   5.420
 3119SOL    HW210257   1.668   3.301   5.456
 3120SOL     OW10258   3.590   6.648   5.082
 3120SOL    HW110259   3.566   6.736   5.041
 3120SOL    HW210260   3.511   6.587   5.081
 3121SOL     OW10261   0.040   1.110   3.830
 3121SOL    HW110262   0.028   1.050   3.910
 3121SOL    HW210263   6.987   1.174   3.825
 3122SOL     OW10264   3.440   6.898   6.171
 3122SOL    HW110265   3.420   6.960   6.096
 3122SOL    HW210266   3.448   6.805   6.135
 3123SOL     OW10267   3.861   1.437   3.894
 3123SOL    HW110268   3.897   1.352   3.934
 3123SOL    HW210269   3.937   1.500   3.878
 3124SOL     OW10270   3.898   0.290   4.574
 3124SOL    HW110271   3.890   0.357   4.500
 3124SOL    HW210272   3.849   0.324   4.654
 3125SOL     OW10273   6.733   2.177   5.307
 3125SOL    HW110274   6.731   2.273   5.278
 3125SOL    HW210275   6.640   2.141   5.309
 3126SOL     OW10276   4.946   5.232   6.039
 3126SOL    HW110277   4.870   5.191   5.990
 3126SOL    HW210278   5.004   5.282   5.974
 3127SOL     OW10279   1.291   3.298   4.152
 3127SOL    HW110280   1.385   3.278   4.179
 3127SOL    HW210281   1.233   3.220   4.173
 3128SOL     OW10282   2.679   0.465   6.762
 3128SOL    HW110283   2.778   0.477   6.754
 3128SOL    HW210284   2.647   0.508   6.847
 3129SOL     OW10285   0.155   3.592   6.465
 3129SOL    HW110286   0.138   3.514   6.405
 3129SOL    HW210287   0.199   3.560   6.549
 3130SOL     OW10288   1.971   4.231   1.536
 3130SOL    HW110289   1.894   4.170   1.515
 3130SOL    HW210290   1.943   4.298   1.605
 3131SOL     OW10291   0.118   2.174   1.220
 3131SOL    HW110292   0.038   2.204   1.167
 3131SOL    HW210293   0.121   2.226   1.306
 3132SOL     OW10294   4.376   5.910   6.256
 3132SOL    HW110295   4.290   5.961   6.257
 3132SOL    HW210296   4.395   5.875   6.348
 3133SOL     OW10297   3.496   1.739   4.054
 3133SOL    HW110298   3.491   1.679   4.133
 3133SOL    HW210299   3.568   1.708   3.992
 3134SOL     OW10300   5.145   4.116   1.057
 3134SOL    HW110301   5.211   4.187   1.083
 3134SOL    HW210302   5.059   4.160   1.029
 3135SOL     OW10303   5.199   0.865   5.727
 3135SOL    HW110304   5.216   0.831   5.820
 3135SOL    HW210305   5.127   0.811   5.685
 3136SOL     OW10306   5.542   0.687   0.877
 3136SOL    HW110307   5.585   0.766   0.833
 3136SOL    HW210308   5.565   0.686   0.974
 3137SOL     OW10309   6.164   0.917   3.406
 3137SOL    HW110310   6.180   1.015   3.418
 3137SOL    HW210311   6.247   0.875   3.370
 3138SOL     OW10312   6.303   3.808   4.111
 3138SOL    HW110313   6.272   3.869   4.038
 3138SOL    HW210314   6.303   3.857   4.198
 3139SOL     OW10315   5.437   6.585   0.315
 3139SOL    HW110316   5.448   6.616   0.220
 3139SOL    HW210317   5.359   6.632   0.356
 3140SOL     OW10318   5.841   0.089   6.797
 3140SOL    HW110319   5.802   0.004   6.833
 3140SOL    HW210320   5.935   0.098   6.831
 3141SOL     OW10321   0.180   6.095   6.373
 3141SOL    HW110322   0.263   6.041   6.390
 3141SOL    HW210323   0.199   6.166   6.306
 3142SOL     OW10324   3.677   6.925   1.663
 3142SOL    HW110325   3.586   6.965   1.675
 3142SOL    HW210326   3.676   6.831   1.697
 3143SOL     OW10327   6.551   1.572   6.590
 3143SOL    HW110328   6.606   1.652   6.612
 3143SOL    HW210329   6.508   1.538   6.674
 3144SOL     OW10330   4.408   3.932   1.539
 3144SOL    HW110331   4.360   4.011   1.577
 3144SOL    HW210332   4.506   3.954   1.530
 3145SOL     OW10333   2.126   5.938   1.136
 3145SOL    HW110334   2.136   6.037   1.126
 3145SOL    HW210335   2.028   5.914   1.132
 3146SOL     OW10336   1.409   6.805   2.919
 3146SOL    HW110337   1.346   6.791   2.843
 3146SOL    HW210338   1.364   6.858   2.991
 3147SOL     OW10339   3.200   4.900   0.635
 3147SOL    HW110340   3.287   4.851   0.635
 3147SOL    HW210341   3.146   4.871   0.714
 3148SOL     OW10342   4.999   5.901   4.851
 3148SOL    HW110343   4.988   5.997   4.828
 3148SOL    HW210344   5.091   5.871   4.827
 3149SOL     OW10345   2.604   1.489   6.424
 3149SOL    HW110346   2.622   1.392   6.441
 3149SOL    HW210347   2.510   1.501   6.393
 3150SOL     OW10348   6.313   6.211   4.138
 3150SOL    HW110349   6.366   6.220   4.222
 3150SOL    HW210350   6.304   6.115   4.114
 3151SOL     OW10351   4.854   1.320   6.213
 3151SOL    HW110352   4.946   1.357   6.198
 3151SOL    HW210353   4.792   1.357   6.144
 3152SOL     OW10354   1.698   6.028   0.163
 3152SOL    HW110355   1.717   5.983   0.250
 3152SOL    HW210356   1.607   6.068   0.165
 3153SOL     OW10357   6.520   4.834   2.000
 3153SOL    HW110358   6.542   4.814   2.095
 3153SOL    HW210359   6.527   4.750   1.945
 3154SOL     OW10360   5.924   1.158   6.576
 3154SOL    HW110361   5.911   1.083   6.641
 3154SOL    HW210362   5.840   1.212   6.571
 3155SOL     OW10363   6.187   4.395   1.730
 3155SOL    HW110364   6.139   4.400   1.642
 3155SOL    HW210365   6.120   4.390   1.804
 3156SOL     OW10366   3.267   3.333   3.286
 3156SOL    HW110367   3.342   3.299   3.343
 3156SOL    HW210368   3.262   3.281   3.201
 3157SOL     OW10369   2.373   2.811   4.786
 3157SOL    HW110370   2.396   2.878   4.856
 3157SOL    HW210371   2.387   2.719   4.821
 3158SOL     OW10372   4.316   0.068   2.927
 3158SOL    HW110373   4.256   0.025   2.860
 3158SOL    HW210374   4.339   0.002   2.998
 3159SOL     OW10375   5.346   1.709   7.022
 3159SOL    HW110376   5.299   1.624   6.996
 3159SOL    HW210377   5.298   1.751   0.076
 3160SOL     OW10378   0.299   6.100   5.200
 3160SOL    HW110379   0.271   6.084   5.295
 3160SOL    HW210380   0.327   6.013   5.158
 3161SOL     OW10381   1.716   1.611   3.071
 3161SOL    HW110382   1.631   1.564   3.047
 3161SOL    HW210383   1.712   1.642   3.166
 3162SOL     OW10384   1.254   6.579   2.075
 3162SOL    HW110385   1.304   6.654   2.118
 3162SOL    HW210386   1.257   6.590   1.975
 3163SOL     OW10387   4.211   2.218   6.220
 3163SOL    HW110388   4.174   2.195   6.130
 3163SOL    HW210389   4.309   2.237   6.213
 3164SOL     OW10390   4.732   4.158   1.427
 3164SOL    HW110391   4.726   4.064   1.395
 3164SOL    HW210392   4.686   4.166   1.515
 3165SOL     OW10393   0.819   5.824   0.636
 3165SOL    HW110394   0.796   5.792   0.728
 3165SOL    HW210395   0.738   5.816   0.577
 3166SOL     OW10396   4.808   1.999   5.416
 3166SOL    HW110397   4.869   2.037   5.346
 3166SOL    HW210398   4.722   2.049   5.415
 3167SOL     OW10399   6.658   3.872   1.639
 3167SOL    HW110400   6.705   3.846   1.724
 3167SOL    HW210401   6.619   3.791   1.596
 3168SOL     OW10402   4.368   2.234   0.175
 3168SOL    HW110403   4.466   2.236   0.153
 3168SOL    HW210404   4.322   2.310   0.129
 3169SOL     OW10405   1.320   3.592   4.766
 3169SOL    HW110406   1.378   3.669   4.739
 3169SOL    HW210407   1.356   3.552   4.850
 3170SOL     OW10408   4.193   1.042   1.252
 3170SOL    HW110409   4.161   1.038   1.346
 3170SOL    HW210410   4.116   1.030   1.189
 3171SOL     OW10411   0.126   6.666   1.371
 3171SOL    HW110412   0.075   6.742   1.409
 3171SOL    HW210413   0.217   6.697   1.343
 3172SOL     OW10414   0.504   5.370   6.636
 3172SOL    HW110415   0.466   5.460   6.616
 3172SOL    HW210416   0.436   5.300   6.618
 3173SOL     OW10417   3.221   2.408   0.609
 3173SOL    HW110418   3.149   2.391   0.676
 3173SOL    HW210419   3.203   2.494   0.562
 3174SOL     OW10420   3.002   2.836   6.778
 3174SOL    HW110421   3.041   2.905   6.717
 3174SOL    HW210422   3.076   2.786   6.824
 3175SOL     OW10423   6.515   0.101   0.718
 3175SOL    HW110424   6.474   0.024   0.766
 3175SOL    HW210425   6.464   0.185   0.739
 3176SOL     OW10426   1.494   4.607   4.739
 3176SOL    HW110427   1.582   4.607   4.692
 3176SOL    HW210428   1.460   4.514   4.748
 3177SOL     OW10429   4.764   4.300   4.625
 3177SOL    HW110430   4.675   4.268   4.658
 3177SOL    HW210431   4.765   4.399   4.619
 3178SOL     OW10432   6.552   2.108   0.335
 3178SOL    HW110433   6.584   2.200   0.361
 3178SOL    HW210434   6.494   2.072   0.408
 3179SOL     OW10435   1.856   2.974   2.275
 3179SOL    HW110436   1.931   3.027   2.236
 3179SOL    HW210437   1.864   2.973   2.375
 3180SOL     OW10438   4.393   1.109   6.928
 3180SOL    HW110439   4.331   1.146   6.997
 3180SOL    HW210440   4.447   1.184   6.889
 3181SOL     OW10441   0.728   1.148   2.733
 3181SOL    HW110442   0.781   1.231   2.752
 3181SOL    HW210443   0.717   1.095   2.817
 3182SOL     OW10444   2.661   1.765   5.262
 3182SOL    HW110445   2.607   1.842   5.227
 3182SOL    HW210446   2.648   1.758   5.361
 3183SOL     OW10447   4.225   4.137   1.688
 3183SOL    HW110448   4.136   4.109   1.725
 3183SOL    HW210449   4.278   4.182   1.760
 3184SOL     OW10450   1.325   2.657   2.732
 3184SOL    HW110451   1.264   2.638   2.809
 3184SOL    HW210452   1.415   2.684   2.767
 3185SOL     OW10453   5.802   5.995   0.077
 3185SOL    HW110454   5.886   6.039   0.045
 3185SOL    HW210455   5.749   5.964   7.021
 3186SOL     OW10456   3.989   1.979   2.231
 3186SOL    HW110457   4.079   2.016   2.255
 3186SOL    HW210458   3.974   1.892   2.279
 3187SOL     OW10459   4.699   3.895   0.724
 3187SOL    HW110460   4.709   3.990   0.754
 3187SOL    HW210461   4.644   3.893   0.640
 3188SOL     OW10462   4.061   6.267   5.054
 3188SOL    HW110463   4.083   6.342   4.991
 3188SOL    HW210464   3.963   6.250   5.053
 3189SOL     OW10465   1.679   1.556   2.000
 3189SOL    HW110466   1.617   1.494   1.952
 3189SOL    HW210467   1.764   1.564   1.949
 3190SOL     OW10468   0.020   6.526   0.702
 3190SOL    HW110469   0.096   6.464   0.682
 3190SOL    HW210470   6.959   6.488   0.663
 3191SOL     OW10471   3.985   6.788   0.677
 3191SOL    HW110472   3.966   6.692   0.699
 3191SOL    HW210473   4.059   6.793   0.611
 3192SOL     OW10474   0.303   2.701   0.751
 3192SOL    HW110475   0.252   2.682   0.835
 3192SOL    HW210476   0.242   2.687   0.672
 3193SOL     OW10477   4.445   1.477   6.071
 3193SOL    HW110478   4.419   1.474   6.168
 3193SOL    HW210479   4.511   1.551   6.056
 3194SOL     OW10480   0.317   3.044   5.805
 3194SOL    HW110481   0.237   3.060   5.747
 3194SOL    HW210482   0.328   2.946   5.821
 3195SOL     OW10483   2.623   2.376   3.172
 3195SOL    HW110484   2.690   2.350   3.103
 3195SOL    HW210485   2.652   2.341   3.262
 3196SOL     OW10486   0.028   0.827   5.645
 3196SOL    HW110487   0.124   0.845   5.667
 3196SOL    HW210488   0.021   0.741   5.593
 3197SOL     OW10489   1.674   6.358   3.483
 3197SOL    HW110490   1.687   6.324   3.576
 3197SOL    HW210491   1.591   6.414   3.479
 3198SOL     OW10492   6.379   2.287   5.918
 3198SOL    HW110493   6.281   2.279   5.900
 3198SOL    HW210494   6.415   2.198   5.946
 3199SOL     OW10495   4.779   2.785   2.029
 3199SOL    HW110496   4.735   2.715   1.972
 3199SOL    HW210497   4.765   2.875   1.988
 3200SOL     OW10498   6.690   2.531   1.879
 3200SOL    HW110499   6.628   2.455   1.902
 3200SOL    HW210500   6.676   2.558   1.784
 3201SOL     OW10501   5.043   4.251   4.647
 3201SOL    HW110502   4.948   4.273   4.669
 3201SOL    HW210503   5.048   4.158   4.613
 3202SOL     OW10504   0.981   4.544   1.573
 3202SOL    HW110505   1.072   4.504   1.578
 3202SOL    HW210506   0.925   4.495   1.506
 3203SOL     OW10507   6.074   2.612   6.920
 3203SOL    HW110508   6.123   2.677   6.862
 3203SOL    HW210509   6.102   2.519   6.898
 3204SOL     OW10510   4.870   6.700   1.692
 3204SOL    HW110511   4.961   6.724   1.724
 3204SOL    HW210512   4.824   6.783   1.659
 3205SOL     OW10513   0.199   3.827   6.956
 3205SOL    HW110514   0.169   3.744   7.003
 3205SOL    HW210515   0.143   3.905   6.987
 3206SOL     OW10516   0.377   6.987   6.175
 3206SOL    HW110517   0.442   6.949   6.109
 3206SOL    HW210518   0.414   6.979   6.267
 3207SOL     OW10519   0.575   1.386   6.124
 3207SOL    HW110520   0.489   1.376   6.173
 3207SOL    HW210521   0.561   1.443   6.042
 3208SOL     OW10522   4.911   6.208   5.085
 3208SOL    HW110523   4.912   6.293   5.136
 3208SOL    HW210524   5.000   6.193   5.041
 3209SOL     OW10525   3.749   5.546   2.829
 3209SOL    HW110526   3.722   5.589   2.915
 3209SOL    HW210527   3.764   5.448   2.845
 3210SOL     OW10528   0.389   4.300   1.448
 3210SOL    HW110529   0.398   4.353   1.533
 3210SOL    HW210530   0.298   4.257   1.446
 3211SOL     OW10531   2.686   3.005   0.968
 3211SOL    HW110532   2.721   3.089   0.928
 3211SOL    HW210533   2.647   3.024   1.058
 3212SOL     OW10534   2.834   1.346   0.161
 3212SOL    HW110535   2.774   1.334   0.081
 3212SOL    HW210536   2.780   1.333   0.245
 3213SOL     OW10537   6.356   5.489   2.453
 3213SOL    HW110538   6.438   5.460   2.504
 3213SOL    HW210539   6.326   5.414   2.394
 3214SOL     OW10540   4.872   5.492   0.643
 3214SOL    HW110541   4.951   5.434   0.620
 3214SOL    HW210542   4.904   5.573   0.692
 3215SOL     OW10543   0.281   3.342   1.057
 3215SOL    HW110544   0.320   3.315   1.144
 3215SOL    HW210545   0.245   3.262   1.010
 3216SOL     OW10546   5.579   5.534   1.636
 3216SOL    HW110547   5.604   5.461   1.700
 3216SOL    HW210548   5.493   5.512   1.592
 3217SOL     OW10549   0.363   5.424   2.715
 3217SOL    HW110550   0.461   5.442   2.699
 3217SOL    HW210551   0.323   5.501   2.765
 3218SOL     OW10552   3.962   6.835   3.665
 3218SOL    HW110553   3.879   6.811   3.614
 3218SOL    HW210554   3.964   6.785   3.752
 3219SOL     OW10555   0.167   1.871   3.574
 3219SOL    HW110556   0.257   1.899   3.606
 3219SOL    HW210557   0.104   1.949   3.576
 3220SOL     OW10558   6.621   5.849   5.950
 3220SOL    HW110559   6.529   5.836   5.914
 3220SOL    HW210560   6.662   5.931   5.910
 3221SOL     OW10561   2.788   0.075   1.679
 3221SOL    HW110562   2.845   7.023   1.713
 3221SOL    HW210563   2.722   0.039   1.613
 3222SOL     OW10564   3.985   1.547   3.088
 3222SOL    HW110565   4.033   1.621   3.135
 3222SOL    HW210566   4.019   1.540   2.994
 3223SOL     OW10567   1.942   5.104   6.654
 3223SOL    HW110568   1.955   5.149   6.566
 3223SOL    HW210569   2.024   5.115   6.710
 3224SOL     OW10570   4.466   3.714   6.549
 3224SOL    HW110571   4.481   3.810   6.527
 3224SOL    HW210572   4.456   3.661   6.465
 3225SOL     OW10573   4.656   3.083   5.324
 3225SOL    HW110574   4.655   3.018   5.249
 3225SOL    HW210575   4.631   3.037   5.409
 3226SOL     OW10576   1.241   1.620   4.603
 3226SOL    HW110577   1.321   1.673   4.573
 3226SOL    HW210578   1.169   1.626   4.533
 3227SOL     OW10579   3.211   2.524   6.253
 3227SOL    HW110580   3.197   2.488   6.345
 3227SOL    HW210581   3.260   2.611   6.259
 3228SOL     OW10582   5.470   3.686   3.059
 3228SOL    HW110583   5.456   3.752   2.985
 3228SOL    HW210584   5.557   3.705   3.105
 3229SOL     OW10585   3.448   1.924   5.587
 3229SOL    HW110586   3.543   1.945   5.564
 3229SOL    HW210587   3.397   1.905   5.503
 3230SOL     OW10588   1.296   2.974   3.971
 3230SOL    HW110589   1.259   3.025   4.049
 3230SOL    HW210590   1.220   2.933   3.920
 3231SOL     OW10591   2.436   0.457   2.143
 3231SOL    HW110592   2.526   0.470   2.184
 3231SOL    HW210593   2.406   0.363   2.158
 3232SOL     OW10594   4.051   5.289   4.250
 3232SOL    HW110595   4.110   5.248   4.180
 3232SOL    HW210596   3.984   5.349   4.207
 3233SOL     OW10597   1.337   3.165   1.145
 3233SOL    HW110598   1.327   3.066   1.134
 3233SOL    HW210599   1.270   3.212   1.087
 3234SOL     OW10600   7.019   1.989   0.797
 3234SOL    HW110601   7.002   1.998   0.699
 3234SOL    HW210602   0.023   2.078   0.835
 3235SOL     OW10603   4.778   0.273   1.532
 3235SOL    HW110604   4.787   0.350   1.595
 3235SOL    HW210605   4.716   0.298   1.458
 3236SOL     OW10606   1.537   3.205   0.253
 3236SOL    HW110607   1.507   3.290   0.296
 3236SOL    HW210608   1.634   3.191   0.272
 3237SOL     OW10609   5.929   1.414   3.356
 3237SOL    HW110610   5.868   1.393   3.432
 3237SOL    HW210611   5.913   1.508   3.325
 3238SOL     OW10612   0.270   4.734   0.326
 3238SOL    HW110613   0.350   4.684   0.359
 3238SOL    HW210614   0.299   4.821   0.286
 3239SOL     OW10615   6.040   1.694   0.332
 3239SOL    HW110616   6.079   1.747   0.256
 3239SOL    HW210617   5.946   1.724   0.349
 3240SOL     OW10618   0.897   5.870   5.525
 3240SOL    HW110619   0.939   5.853   5.436
 3240SOL    HW210620   0.965   5.857   5.597
 3241SOL     OW10621   4.844   1.068   4.194
 3241SOL    HW110622   4.831   1.096   4.099
 3241SOL    HW210623   4.939   1.082   4.220
 3242SOL     OW10624   2.992   4.559   1.314
 3242SOL    HW110625   2.989   4.614   1.231
 3242SOL    HW210626   3.048   4.478   1.299
 3243SOL     OW10627   5.397   4.850   0.020
 3243SOL    HW110628   5.480   4.872   6.992
 3243SOL    HW210629   5.351   4.935   0.048
 3244SOL     OW10630   4.785   5.885   0.696
 3244SOL    HW110631   4.725   5.962   0.721
 3244SOL    HW210632   4.842   5.912   0.618
 3245SOL     OW10633   5.278   2.337   5.502
 3245SOL    HW110634   5.345   2.263   5.509
 3245SOL    HW210635   5.186   2.299   5.507
 3246SOL     OW10636   5.900   0.970   3.283
 3246SOL    HW110637   5.992   1.002   3.307
 3246SOL    HW210638   5.869   1.019   3.201
 3247SOL     OW10639   6.808   4.915   3.833
 3247SOL    HW110640   6.735   4.922   3.902
 3247SOL    HW210641   6.817   4.819   3.806
 3248SOL     OW10642   6.587   3.185   1.883
 3248SOL    HW110643   6.674   3.224   1.913
 3248SOL    HW210644   6.554   3.120   1.951
 3249SOL     OW10645   3.506   3.482   5.024
 3249SOL    HW110646   3.503   3.581   5.011
 3249SOL    HW210647   3.431   3.453   5.083
 3250SOL     OW10648   5.126   0.252   2.623
 3250SOL    HW110649   5.200   0.269   2.687
 3250SOL    HW210650   5.159   0.264   2.529
 3251SOL     OW10651   3.880   0.979   2.271
 3251SOL    HW110652   3.963   0.992   2.217
 3251SOL    HW210653   3.818   1.056   2.255
 3252SOL     OW10654   2.478   1.782   2.183
 3252SOL    HW110655   2.510   1.876   2.166
 3252SOL    HW210656   2.438   1.777   2.274
 3253SOL     OW10657   5.625   2.858   2.383
 3253SOL    HW110658   5.571   2.798   2.442
 3253SOL    HW210659   5.716   2.820   2.370
 3254SOL     OW10660   4.394   5.767   5.786
 3254SOL    HW110661   4.365   5.775   5.881
 3254SOL    HW210662   4.313   5.772   5.727
 3255SOL     OW10663   4.732   6.446   1.305
 3255SOL    HW110664   4.788   6.378   1.260
 3255SOL    HW210665   4.756   6.450   1.402
 3256SOL     OW10666   5.405   0.506   0.097
 3256SOL    HW110667   5.505   0.503   0.098
 3256SOL    HW210668   5.374   0.593   0.134
 3257SOL     OW10669   1.506   2.603   1.185
 3257SOL    HW110670   1.422   2.651   1.214
 3257SOL    HW210671   1.526   2.627   1.090
 3258SOL     OW10672   3.979   4.960   1.967
 3258SOL    HW110673   3.988   4.878   1.910
 3258SOL    HW210674   4.040   4.954   2.046
 3259SOL     OW10675   4.544   5.982   3.781
 3259SOL    HW110676   4.506   5.977   3.873
 3259SOL    HW210677   4.644   5.983   3.786
 3260SOL     OW10678   1.968   1.899   1.480
 3260SOL    HW110679   1.881   1.926   1.439
 3260SOL    HW210680   1.980   1.947   1.566
 3261SOL     OW10681   4.334   6.107   0.538
 3261SOL    HW110682   4.311   6.017   0.576
 3261SOL    HW210683   4.433   6.119   0.540
 3262SOL     OW10684   3.658   2.021   2.472
 3262SOL    HW110685   3.686   2.091   2.537
 3262SOL    HW210686   3.699   2.041   2.383
 3263SOL     OW10687   3.742   1.140   3.938
 3263SOL    HW110688   3.706   1.095   3.857
 3263SOL    HW210689   3.667   1.173   3.995
 3264SOL     OW10690   1.595   4.838   0.592
 3264SOL    HW110691   1.676   4.884   0.555
 3264SOL    HW210692   1.599   4.840   0.692
 3265SOL     OW10693   4.577   2.070   5.669
 3265SOL    HW110694   4.571   1.973   5.694
 3265SOL    HW210695   4.554   2.081   5.572
 3266SOL     OW10696   0.900   2.775   0.286
 3266SOL    HW110697   0.929   2.812   0.373
 3266SOL    HW210698   0.849   2.690   0.301
 3267SOL     OW10699   4.076   1.787   0.587
 3267SOL    HW110700   3.997   1.795   0.527
 3267SOL    HW210701   4.123   1.701   0.568
 3268SOL     OW10702   1.473   4.408   6.907
 3268SOL    HW110703   1.416   4.490   6.905
 3268SOL    HW210704   1.436   4.345   6.976
 3269SOL     OW10705   4.321   5.139   1.764
 3269SOL    HW110706   4.339   5.208   1.693
 3269SOL    HW210707   4.407   5.116   1.811
 3270SOL     OW10708   1.484   4.797   5.246
 3270SOL    HW110709   1.392   4.808   5.284
 3270SOL    HW210710   1.478   4.799   5.146
 3271SOL     OW10711   5.275   3.479   2.860
 3271SOL    HW110712   5.356   3.506   2.912
 3271SOL    HW210713   5.217   3.419   2.915
 3272SOL     OW10714   3.884   3.960   0.109
 3272SOL    HW110715   3.919   3.889   0.049
 3272SOL    HW210716   3.838   3.919   0.188
 3273SOL     OW10717   0.401   6.212   2.388
 3273SOL    HW110718   0.453   6.231   2.472
 3273SOL    HW210719   0.463   6.211   2.310
 3274SOL     OW10720   3.745   1.446   0.904
 3274SOL    HW110721   3.721   1.532   0.859
 3274SOL    HW210722   3.674   1.422   0.971
 3275SOL     OW10723   1.280   0.702   6.636
 3275SOL    HW110724   1.308   0.620   6.686
 3275SOL    HW210725   1.272   0.779   6.700
 3276SOL     OW10726   3.428   5.075   6.545
 3276SOL    HW110727   3.346   5.019   6.539
 3276SOL    HW210728   3.469   5.065   6.635
 3277SOL     OW10729   5.115   6.941   6.802
 3277SOL    HW110730   5.170   6.915   6.723
 3277SOL    HW210731   5.151   6.897   6.884
 3278SOL     OW10732   6.746   0.891   6.066
 3278SOL    HW110733   6.692   0.814   6.100
 3278SOL    HW210734   6.784   0.867   5.976
 3279SOL     OW10735   6.895   0.643   0.893
 3279SOL    HW110736   6.845   0.727   0.911
 3279SOL    HW210737   6.992   0.657   0.913
 3280SOL     OW10738   3.387   4.816   5.756
 3280SOL    HW110739   3.326   4.739   5.739
 3280SOL    HW210740   3.482   4.785   5.754
 3281SOL     OW10741   2.265   5.804   0.739
 3281SOL    HW110742   2.189   5.854   0.699
 3281SOL    HW210743   2.289   5.726   0.681
 3282SOL     OW10744   2.090   5.430   4.441
 3282SOL    HW110745   2.057   5.338   4.464
 3282SOL    HW210746   2.144   5.426   4.357
 3283SOL     OW10747   3.434   1.053   1.282
 3283SOL    HW110748   3.349   1.001   1.281
 3283SOL    HW210749   3.492   1.024   1.206
 3284SOL     OW10750   5.913   6.392   0.122
 3284SOL    HW110751   5.959   6.480   0.112
 3284SOL    HW210752   5.902   6.351   0.031
 3285SOL     OW10753   5.604   2.738   3.225
 3285SOL    HW110754   5.525   2.798   3.236
 3285SOL    HW210755   5.574   2.643   3.218
 3286SOL     OW10756   4.133   3.420   3.265
 3286SOL    HW110757   4.156   3.516   3.249
 3286SOL    HW210758   4.135   3.401   3.363
 3287SOL     OW10759   1.534   5.972   0.396
 3287SOL    HW110760   1.518   6.053   0.453
 3287SOL    HW210761   1.458   5.909   0.406
 3288SOL     OW10762   1.155   4.746   6.557
 3288SOL    HW110763   1.242   4.786   6.587
 3288SOL    HW210764   1.094   4.818   6.524
 3289SOL     OW10765   2.368   6.778   5.723
 3289SOL    HW110766   2.397   6.868   5.689
 3289SOL    HW210767   2.308   6.734   5.657
 3290SOL     OW10768   0.288   6.694   2.106
 3290SOL    HW110769   0.218   6.743   2.160
 3290SOL    HW210770   0.323   6.618   2.160
 3291SOL     OW10771   1.166   5.883   6.992
 3291SOL    HW110772   1.238   5.894   0.037
 3291SOL    HW210773   1.206   5.861   6.903
 3292SOL     OW10774   0.365   0.754   6.641
 3292SOL    HW110775   0.402   0.740   6.549
 3292SOL    HW210776   0.273   0.715   6.646
 3293SOL     OW10777   6.705   3.551   3.101
 3293SOL    HW110778   6.648   3.579   3.023
 3293SOL    HW210779   6.719   3.452   3.097
 3294SOL     OW10780   0.318   0.709   6.355
 3294SOL    HW110781   0.277   0.800   6.348
 3294SOL    HW210782   0.417   0.716   6.343
 3295SOL     OW10783   1.478   3.178   1.843
 3295SOL    HW110784   1.567   3.178   1.798
 3295SOL    HW210785   1.430   3.263   1.825
 3296SOL     OW10786   1.859   6.297   1.362
 3296SOL    HW110787   1.765   6.331   1.365
 3296SOL    HW210788   1.858   6.197   1.359
 3297SOL     OW10789   2.871   0.355   5.117
 3297SOL    HW110790   2.954   0.388   5.161
 3297SOL    HW210791   2.853   0.261   5.145
 3298SOL     OW10792   6.462   1.683   3.880
 3298SOL    HW110793   6.520   1.644   3.808
 3298SOL    HW210794   6.381   1.626   3.893
 3299SOL     OW10795   2.435   6.586   3.739
 3299SOL    HW110796   2.351   6.553   3.696
 3299SOL    HW210797   2.500   6.614   3.669
 3300SOL     OW10798   0.658   0.771   5.654
 3300SOL    HW110799   0.630   0.826   5.733
 3300SOL    HW210800   0.604   0.687   5.651
 3301SOL     OW10801   2.082   3.317   3.696
 3301SOL    HW110802   2.107   3.353   3.786
 3301SOL    HW210803   2.160   3.328   3.634
 3302SOL     OW10804   1.440   5.858   4.701
 3302SOL    HW110805   1.390   5.863   4.787
 3302SOL    HW210806   1.534   5.889   4.716
 3303SOL     OW10807   3.703   3.040   1.573
 3303SOL    HW110808   3.796   3.076   1.560
 3303SOL    HW210809   3.673   3.060   1.666
 3304SOL     OW10810   1.590   5.117   4.053
 3304SOL    HW110811   1.607   5.035   4.108
 3304SOL    HW210812   1.561   5.192   4.112
 3305SOL     OW10813   2.626   1.037   2.823
 3305SOL    HW110814   2.639   1.068   2.917
 3305SOL    HW210815   2.563   1.100   2.776
 3306SOL     OW10816   2.148   5.712   3.922
 3306SOL    HW110817   2.083   5.744   3.992
 3306SOL    HW210818   2.164   5.614   3.934
 3307SOL     OW10819   0.076   5.699   6.525
 3307SOL    HW110820   0.011   5.645   6.578
 3307SOL    HW210821   0.056   5.689   6.427
 3308SOL     OW10822   4.644   6.047   0.221
 3308SOL    HW110823   4.690   6.135   0.217
 3308SOL    HW210824   4.708   5.975   0.195
 3309SOL     OW10825   0.696   5.558   1.600
 3309SOL    HW110826   0.782   5.602   1.624
 3309SOL    HW210827   0.685   5.474   1.653
 3310SOL     OW10828   6.601   4.316   4.542
 3310SOL    HW110829   6.650   4.286   4.461
 3310SOL    HW210830   6.636   4.269   4.623
 3311SOL     OW10831   2.158   4.529   1.867
 3311SOL    HW110832   2.115   4.443   1.895
 3311SOL    HW210833   2.166   4.531   1.767
 3312SOL     OW10834   3.421   4.328   5.886
 3312SOL    HW110835   3.359   4.257   5.854
 3312SOL    HW210836   3.501   4.286   5.929
 3313SOL     OW10837   6.992   5.215   2.603
 3313SOL    HW110838   6.966   5.243   2.510
 3313SOL    HW210839   0.068   5.204   2.608
 3314SOL     OW10840   1.502   1.975   4.694
 3314SOL    HW110841   1.508   1.962   4.793
 3314SOL    HW210842   1.592   1.994   4.657
 3315SOL     OW10843   6.421   3.632   3.944
 3315SOL    HW110844   6.509   3.680   3.950
 3315SOL    HW210845   6.351   3.687   3.989
 3316SOL     OW10846   3.797   1.836   5.849
 3316SOL    HW110847   3.849   1.806   5.769
 3316SOL    HW210848   3.704   1.799   5.844
 3317SOL     OW10849   4.908   2.959   1.764
 3317SOL    HW110850   4.852   3.000   1.836
 3317SOL    HW210851   4.905   2.859   1.772
 3318SOL     OW10852   3.047   6.936   0.425
 3318SOL    HW110853   3.003   6.860   0.473
 3318SOL    HW210854   2.985   6.971   0.355
 3319SOL     OW10855   6.365   6.850   4.555
 3319SOL    HW110856   6.280   6.804   4.580
 3319SOL    HW210857   6.382   6.925   4.620
 3320SOL     OW10858   5.507   1.157   5.881
 3320SOL    HW110859   5.579   1.224   5.868
 3320SOL    HW210860   5.536   1.069   5.842
 3321SOL     OW10861   3.468   2.296   1.687
 3321SOL    HW110862   3.385   2.342   1.719
 3321SOL    HW210863   3.542   2.314   1.752
 3322SOL     OW10864   5.133   3.338   1.760
 3322SOL    HW110865   5.121   3.274   1.685
 3322SOL    HW210866   5.061   3.325   1.828
 3323SOL     OW10867   1.992   4.404   6.716
 3323SOL    HW110868   1.899   4.388   6.749
 3323SOL    HW210869   2.052   4.331   6.749
 3324SOL     OW10870   0.849   3.950   6.686
 3324SOL    HW110871   0.868   3.995   6.599
 3324SOL    HW210872   0.817   4.017   6.753
 3325SOL     OW10873   2.347   3.141   6.608
 3325SOL    HW110874   2.371   3.054   6.564
 3325SOL    HW210875   2.329   3.125   6.705
 3326SOL     OW10876   5.363   1.291   2.151
 3326SOL    HW110877   5.368   1.281   2.051
 3326SOL    HW210878   5.450   1.325   2.186
 3327SOL     OW10879   3.151   6.077   1.517
 3327SOL    HW110880   3.192   6.036   1.598
 3327SOL    HW210881   3.222   6.088   1.446
 3328SOL     OW10882   4.214   1.939   2.611
 3328SOL    HW110883   4.141   2.006   2.625
 3328SOL    HW210884   4.277   1.973   2.541
 3329SOL     OW10885   4.917   0.838   5.315
 3329SOL    HW110886   4.942   0.807   5.223
 3329SOL    HW210887   4.847   0.910   5.308
 3330SOL     OW10888   5.878   6.350   1.395
 3330SOL    HW110889   5.872   6.324   1.491
 3330SOL    HW210890   5.951   6.418   1.383
 3331SOL     OW10891   0.695   3.524   2.179
 3331SOL    HW110892   0.795   3.517   2.171
 3331SOL    HW210893   0.671   3.613   2.218
 3332SOL     OW10894   6.401   4.337   0.016
 3332SOL    HW110895   6.342   4.378   0.086
 3332SOL    HW210896   6.410   4.239   0.034
 3333SOL     OW10897   3.079   3.399   7.017
 3333SOL    HW110898   2.984   3.419   6.990
 3333SOL    HW210899   3.119   3.481   0.035
 3334SOL     OW10900   1.912   3.527   2.332
 3334SOL    HW110901   1.965   3.583   2.268
 3334SOL    HW210902   1.969   3.452   2.367
 3335SOL     OW10903   4.987   6.264   6.500
 3335SOL    HW110904   4.942   6.338   6.549
 3335SOL    HW210905   5.035   6.205   6.565
 3336SOL     OW10906   2.275   6.707   4.348
 3336SOL    HW110907   2.293   6.783   4.410
 3336SOL    HW210908   2.187   6.665   4.372
 3337SOL     OW10909   2.367   4.114   1.276
 3337SOL    HW110910   2.375   4.021   1.312
 3337SOL    HW210911   2.390   4.114   1.179
 3338SOL     OW10912   6.870   2.741   1.609
 3338SOL    HW110913   6.908   2.741   1.702
 3338SOL    HW210914   6.899   2.823   1.561
 3339SOL     OW10915   1.315   6.881   6.639
 3339SOL    HW110916   1.378   6.948   6.600
 3339SOL    HW210917   1.350   6.789   6.622
 3340SOL     OW10918   3.919   0.909   4.063
 3340SOL    HW110919   3.867   0.825   4.075
 3340SOL    HW210920   3.857   0.983   4.037
 3341SOL     OW10921   1.950   4.676   3.763
 3341SOL    HW110922   2.002   4.717   3.689
 3341SOL    HW210923   2.012   4.636   3.830
 3342SOL     OW10924   1.211   0.557   3.392
 3342SOL    HW110925   1.149   0.633   3.411
 3342SOL    HW210926   1.202   0.488   3.464
 3343SOL     OW10927   5.558   4.630   6.611
 3343SOL    HW110928   5.590   4.543   6.573
 3343SOL    HW210929   5.458   4.633   6.610
 3344SOL     OW10930   6.170   3.544   4.141
 3344SOL    HW110931   6.178   3.644   4.141
 3344SOL    HW210932   6.213   3.508   4.058
 3345SOL     OW10933   1.187   4.580   6.344
 3345SOL    HW110934   1.136   4.495   6.337
 3345SOL    HW210935   1.157   4.631   6.424
 3346SOL     OW10936   0.867   0.912   7.011
 3346SOL    HW110937   0.806   0.838   6.986
 3346SOL    HW210938   0.896   0.961   6.928
 3347SOL     OW10939   0.547   3.426   5.657
 3347SOL    HW110940   0.459   3.474   5.662
 3347SOL    HW210941   0.555   3.363   5.733
 3348SOL     OW10942   4.086   3.394   5.040
 3348SOL    HW110943   4.005   3.446   5.068
 3348SOL    HW210944   4.082   3.302   5.081
 3349SOL     OW10945   2.126   5.049   2.769
 3349SOL    HW110946   2.029   5.028   2.762
 3349SOL    HW210947   2.140   5.148   2.767
 3350SOL     OW10948   0.236   2.644   6.071
 3350SOL    HW110949   0.142   2.612   6.086
 3350SOL    HW210950   0.254   2.722   6.131
 3351SOL     OW10951   4.532   1.447   1.856
 3351SOL    HW110952   4.575   1.374   1.804
 3351SOL    HW210953   4.598   1.487   1.920
 3352SOL     OW10954   5.940   2.890   0.798
 3352SOL    HW110955   5.948   2.962   0.867
 3352SOL    HW210956   5.907   2.806   0.841
 3353SOL     OW10957   2.899   5.932   1.532
 3353SOL    HW110958   2.973   5.999   1.528
 3353SOL    HW210959   2.912   5.873   1.612
 3354SOL     OW10960   4.413   2.567   5.432
 3354SOL    HW110961   4.452   2.618   5.509
 3354SOL    HW210962   4.318   2.544   5.452
 3355SOL     OW10963   2.261   1.678   5.886
 3355SOL    HW110964   2.282   1.623   5.805
 3355SOL    HW210965   2.346   1.713   5.926
 3356SOL     OW10966   1.312   5.904   5.985
 3356SOL    HW110967   1.341   5.830   6.046
 3356SOL    HW210968   1.245   5.962   6.032
 3357SOL     OW10969   3.522   3.817   2.187
 3357SOL    HW110970   3.482   3.893   2.238
 3357SOL    HW210971   3.534   3.738   2.247
 3358SOL     OW10972   4.469   1.239   2.727
 3358SOL    HW110973   4.399   1.297   2.686
 3358SOL    HW210974   4.441   1.144   2.722
 3359SOL     OW10975   6.923   5.814   3.011
 3359SOL    HW110976   6.927   5.715   3.000
 3359SOL    HW210977   6.888   5.836   3.103
 3360SOL     OW10978   0.499   2.146   6.335
 3360SOL    HW110979   0.448   2.181   6.414
 3360SOL    HW210980   0.434   2.120   6.263
 3361SOL     OW10981   0.435   5.795   4.600
 3361SOL    HW110982   0.525   5.811   4.559
 3361SOL    HW210983   0.439   5.812   4.699
 3362SOL     OW10984   3.416   1.931   2.578
 3362SOL    HW110985   3.339   1.980   2.537
 3362SOL    HW210986   3.502   1.969   2.542
 3363SOL     OW10987   6.906   2.087   1.560
 3363SOL    HW110988   6.888   2.049   1.470
 3363SOL    HW210989   6.881   2.021   1.630
 3364SOL     OW10990   2.317   4.443   3.416
 3364SOL    HW110991   2.229   4.454   3.370
 3364SOL    HW210992   2.391   4.454   3.349
 3365SOL     OW10993   0.226   3.082   4.977
 3365SOL    HW110994   0.181   3.126   4.899
 3365SOL    HW210995   0.159   3.068   5.050
 3366SOL     OW10996   5.353   4.777   3.962
 3366SOL    HW110997   5.401   4.735   4.039
 3366SOL    HW210998   5.307   4.860   3.992
 3367SOL     OW10999   3.516   3.872   2.899
 3367SOL    HW111000   3.553   3.856   2.808
 3367SOL    HW211001   3.584   3.845   2.968
 3368SOL     OW11002   0.976   5.633   6.271
 3368SOL    HW111003   1.015   5.561   6.214
 3368SOL    HW211004   1.049   5.678   6.324
 3369SOL     OW11005   4.449   1.895   1.190
 3369SOL    HW111006   4.488   1.925   1.103
 3369SOL    HW211007   4.468   1.797   1.203
 3370SOL     OW11008   6.628   6.304   1.296
 3370SOL    HW111009   6.551   6.365   1.276
 3370SOL    HW211010   6.663   6.324   1.388
 3371SOL     OW11011   2.113   3.317   1.764
 3371SOL    HW111012   2.145   3.368   1.844
 3371SOL    HW211013   2.192   3.282   1.713
 3372SOL     OW11014   6.911   1.712   0.128
 3372SOL    HW111015   7.008   1.686   0.133
 3372SOL    HW211016   6.889   1.741   0.035
 3373SOL     OW11017   0.233   2.272   3.924
 3373SOL    HW111018   0.156   2.331   3.901
 3373SOL    HW211019   0.206   2.209   3.997
 3374SOL     OW11020   1.083   6.950   3.634
 3374SOL    HW111021   1.149   6.943   3.559
 3374SOL    HW211022   1.132   6.948   3.722
 3375SOL     OW11023   6.875   4.280   0.644
 3375SOL    HW111024   6.792   4.224   0.645
 3375SOL    HW211025   6.888   4.322   0.734
 3376SOL     OW11026   3.344   2.930   4.789
 3376SOL    HW111027   3.323   2.837   4.757
 3376SOL    HW211028   3.268   2.964   4.844
 3377SOL     OW11029   0.102   5.228   5.981
 3377SOL    HW111030   0.143   5.306   5.934
 3377SOL    HW211031   0.010   5.212   5.943
 3378SOL     OW11032   1.525   6.177   0.583
 3378SOL    HW111033   1.461   6.219   0.647
 3378SOL    HW211034   1.568   6.248   0.527
 3379SOL     OW11035   0.915   1.711   4.657
 3379SOL    HW111036   0.997   1.768   4.668
 3379SOL    HW211037   0.882   1.684   4.747
 3380SOL     OW11038   4.874   6.137   5.488
 3380SOL    HW111039   4.833   6.060   5.439
 3380SOL    HW211040   4.897   6.209   5.423
 3381SOL     OW11041   6.528   2.601   1.138
 3381SOL    HW111042   6.467   2.660   1.085
 3381SOL    HW211043   6.483   2.574   1.223
 3382SOL     OW11044   0.461   2.726   6.596
 3382SOL    HW111045   0.378   2.777   6.574
 3382SOL    HW211046   0.503   2.692   6.512
 3383SOL     OW11047   3.281   5.055   0.931
 3383SOL    HW111048   3.288   4.973   0.874
 3383SOL    HW211049   3.253   5.133   0.875
 3384SOL     OW11050   2.196   3.546   1.165
 3384SOL    HW111051   2.267   3.525   1.232
 3384SOL    HW211052   2.238   3.568   1.077
 3385SOL     OW11053   6.761   3.576   4.603
 3385SOL    HW111054   6.843   3.552   4.550
 3385SOL    HW211055   6.683   3.524   4.569
 3386SOL     OW11056   5.105   4.219   6.805
 3386SOL    HW111057   5.161   4.256   6.879
 3386SOL    HW211058   5.027   4.170   6.843
 3387SOL     OW11059   4.909   0.124   2.981
 3387SOL    HW111060   4.810   0.124   2.965
 3387SOL    HW211061   4.949   0.041   2.944
 3388SOL     OW11062   5.516   3.295   2.587
 3388SOL    HW111063   5.579   3.219   2.574
 3388SOL    HW211064   5.426   3.260   2.613
 3389SOL     OW11065   6.560   5.718   6.180
 3389SOL    HW111066   6.577   5.761   6.091
 3389SOL    HW211067   6.627   5.646   6.196
 3390SOL     OW11068   4.955   6.803   5.997
 3390SOL    HW111069   4.859   6.797   6.024
 3390SOL    HW211070   4.993   6.891   6.027
 3391SOL     OW11071   4.767   2.525   3.468
 3391SOL    HW111072   4.855   2.507   3.423
 3391SOL    HW211073   4.772   2.612   3.516
 3392SOL     OW11074   3.376   6.772   4.565
 3392SOL    HW111075   3.451   6.707   4.548
 3392SOL    HW211076   3.319   6.738   4.640
 3393SOL     OW11077   5.959   6.034   0.721
 3393SOL    HW111078   6.023   6.003   0.791
 3393SOL    HW211079   6.009   6.081   0.648
 3394SOL     OW11080   4.911   3.758   0.823
 3394SOL    HW111081   4.828   3.802   0.789
 3394SOL    HW211082   4.980   3.828   0.842
 3395SOL     OW11083   5.237   2.066   2.968
 3395SOL    HW111084   5.224   2.011   3.051
 3395SOL    HW211085   5.321   2.120   2.977
 3396SOL     OW11086   5.700   1.053   3.754
 3396SOL    HW111087   5.695   1.110   3.672
 3396SOL    HW211088   5.721   0.959   3.727
 3397SOL     OW11089   3.415   4.752   6.268
 3397SOL    HW111090   3.354   4.674   6.279
 3397SOL    HW211091   3.395   4.799   6.182
 3398SOL     OW11092   1.659   0.125   5.156
 3398SOL    HW111093   1.755   0.120   5.184
 3398SOL    HW211094   1.653   0.152   5.060
 3399SOL     OW11095   6.018   5.222   3.203
 3399SOL    HW111096   5.997   5.201   3.108
 3399SOL    HW211097   6.047   5.318   3.210
 3400SOL     OW11098   5.506   4.069   6.901
 3400SOL    HW111099   5.458   4.021   6.975
 3400SOL    HW211100   5.493   4.168   6.911
 3401SOL     OW11101   5.780   3.977   6.824
 3401SOL    HW111102   5.837   4.047   6.781
 3401SOL    HW211103   5.683   4.000   6.811
 3402SOL     OW11104   5.731   5.695   6.306
 3402SOL    HW111105   5.724   5.604   6.347
 3402SOL    HW211106   5.643   5.718   6.264
 3403SOL     OW11107   4.932   5.381   7.020
 3403SOL    HW111108   4.937   5.442   6.940
 3403SOL    HW211109   4.837   5.373   0.026
 3404SOL     OW11110   5.121   2.462   0.340
 3404SOL    HW111111   5.050   2.432   0.404
 3404SOL    HW211112   5.203   2.488   0.391
 3405SOL     OW11113   5.688   4.431   6.439
 3405SOL    HW111114   5.787   4.437   6.430
 3405SOL    HW211115   5.645   4.452   6.351
 3406SOL     OW11116   1.121   3.412   2.559
 3406SOL    HW111117   1.123   3.429   2.657
 3406SOL    HW211118   1.208   3.371   2.530
 3407SOL     OW11119   1.917   4.455   0.269
 3407SOL    HW111120   2.011   4.421   0.268
 3407SOL    HW211121   1.916   4.550   0.237
 3408SOL     OW11122   4.927   3.199   4.715
 3408SOL    HW111123   4.900   3.239   4.627
 3408SOL    HW211124   4.926   3.269   4.786
 3409SOL     OW11125   3.727   6.076   0.063
 3409SOL    HW111126   3.821   6.081   0.095
 3409SOL    HW211127   3.721   6.111   6.993
 3410SOL     OW11128   6.326   6.359   2.147
 3410SOL    HW111129   6.271   6.436   2.177
 3410SOL    HW211130   6.410   6.354   2.202
 3411SOL     OW11131   0.297   2.958   0.463
 3411SOL    HW111132   0.339   2.878   0.420
 3411SOL    HW211133   0.288   3.031   0.395
 3412SOL     OW11134   5.062   3.624   1.606
 3412SOL    HW111135   5.076   3.556   1.678
 3412SOL    HW211136   5.016   3.704   1.644
 3413SOL     OW11137   6.461   1.468   0.116
 3413SOL    HW111138   6.418   1.494   0.202
 3413SOL    HW211139   6.559   1.488   0.121
 3414SOL     OW11140   3.383   2.210   5.886
 3414SOL    HW111141   3.406   2.122   5.928
 3414SOL    HW211142   3.396   2.283   5.953
 3415SOL     OW11143   2.443   2.098   4.442
 3415SOL    HW111144   2.399   2.014   4.473
 3415SOL    HW211145   2.542   2.084   4.435
 3416SOL     OW11146   5.341   0.358   0.510
 3416SOL    HW111147   5.373   0.350   0.604
 3416SOL    HW211148   5.360   0.450   0.477
 3417SOL     OW11149   0.286   6.623   4.065
 3417SOL    HW111150   0.282   6.525   4.087
 3417SOL    HW211151   0.358   6.639   3.997
 3418SOL     OW11152   3.908   5.838   3.427
 3418SOL    HW111153   3.854   5.818   3.508
 3418SOL    HW211154   3.981   5.902   3.450
 3419SOL     OW11155   3.366   4.874   6.029
 3419SOL    HW111156   3.376   4.973   6.035
 3419SOL    HW211157   3.349   4.849   5.933
 3420SOL     OW11158   5.302   3.780   4.063
 3420SOL    HW111159   5.321   3.692   4.107
 3420SOL    HW211160   5.347   3.853   4.115
 3421SOL     OW11161   5.533   1.835   3.479
 3421SOL    HW111162   5.480   1.915   3.450
 3421SOL    HW211163   5.511   1.758   3.419
 3422SOL     OW11164   2.508   0.460   0.228
 3422SOL    HW111165   2.445   0.531   0.197
 3422SOL    HW211166   2.523   0.393   0.155
 3423SOL     OW11167   0.438   4.700   6.282
 3423SOL    HW111168   0.380   4.769   6.238
 3423SOL    HW211169   0.389   4.614   6.290
 3424SOL     OW11170   3.164   6.658   1.320
 3424SOL    HW111171   3.117   6.723   1.260
 3424SOL    HW211172   3.188   6.703   1.406
 3425SOL     OW11173   4.954   4.420   2.112
 3425SOL    HW111174   4.925   4.515   2.120
 3425SOL    HW211175   4.968   4.380   2.202
 3426SOL     OW11176   5.412   2.848   1.252
 3426SOL    HW111177   5.502   2.804   1.256
 3426SOL    HW211178   5.365   2.820   1.168
 3427SOL     OW11179   0.625   2.261   2.022
 3427SOL    HW111180   0.541   2.312   2.000
 3427SOL    HW211181   0.686   2.262   1.943
 3428SOL     OW11182   4.059   4.510   0.028
 3428SOL    HW111183   3.962   4.497   0.005
 3428SOL    HW211184   4.115   4.454   6.989
 3429SOL     OW11185   0.782   1.772   1.095
 3429SOL    HW111186   0.787   1.863   1.052
 3429SOL    HW211187   0.829   1.705   1.038
 3430SOL     OW11188   2.454   5.410   5.029
 3430SOL    HW111189   2.479   5.503   5.003
 3430SOL    HW211190   2.536   5.352   5.032
 3431SOL     OW11191   1.169   5.985   1.515
 3431SOL    HW111192   1.244   5.928   1.481
 3431SOL    HW211193   1.082   5.941   1.494
 3432SOL     OW11194   2.537   4.696   6.146
 3432SOL    HW111195   2.478   4.728   6.220
 3432SOL    HW211196   2.598   4.770   6.117
 3433SOL     OW11197   1.265   1.164   5.515
 3433SOL    HW111198   1.253   1.066   5.503
 3433SOL    HW211199   1.338   1.196   5.454
 3434SOL     OW11200   3.879   1.959   1.833
 3434SOL    HW111201   3.797   2.001   1.794
 3434SOL    HW211202   3.890   1.867   1.795
 3435SOL     OW11203   1.964   1.084   0.906
 3435SOL    HW111204   2.049   1.040   0.935
 3435SOL    HW211205   1.920   1.027   0.836
 3436SOL     OW11206   3.241   5.726   0.037
 3436SOL    HW111207   3.154   5.679   0.021
 3436SOL    HW211208   3.310   5.690   6.998
 3437SOL     OW11209   2.876   6.205   5.682
 3437SOL    HW111210   2.915   6.117   5.708
 3437SOL    HW211211   2.777   6.202   5.695
 3438SOL     OW11212   0.597   4.137   1.388
 3438SOL    HW111213   0.639   4.157   1.299
 3438SOL    HW211214   0.516   4.194   1.400
 3439SOL     OW11215   3.277   5.977   4.090
 3439SOL    HW111216   3.271   5.888   4.135
 3439SOL    HW211217   3.346   6.034   4.136
 3440SOL     OW11218   3.905   2.986   2.760
 3440SOL    HW111219   3.955   2.901   2.776
 3440SOL    HW211220   3.878   2.991   2.664
 3441SOL     OW11221   6.739   5.617   6.490
 3441SOL    HW111222   6.654   5.564   6.497
 3441SOL    HW211223   6.805   5.584   6.558
 3442SOL     OW11224   2.629   3.737   1.527
 3442SOL    HW111225   2.706   3.680   1.499
 3442SOL    HW211226   2.661   3.806   1.592
 3443SOL     OW11227   3.277   6.323   2.372
 3443SOL    HW111228   3.333   6.401   2.343
 3443SOL    HW211229   3.184   6.333   2.336
 3444SOL     OW11230   4.849   5.617   0.363
 3444SOL    HW111231   4.823   5.532   0.410
 3444SOL    HW211232   4.940   5.606   0.324
 3445SOL     OW11233   6.381   5.142   3.430
 3445SOL    HW111234   6.478   5.161   3.445
 3445SOL    HW211235   6.327   5.221   3.458
 3446SOL     OW11236   5.913   0.718   1.535
 3446SOL    HW111237   5.956   0.766   1.459
 3446SOL    HW211238   5.922   0.773   1.618
 3447SOL     OW11239   5.532   6.734   0.895
 3447SOL    HW111240   5.621   6.755   0.853
 3447SOL    HW211241   5.480   6.819   0.904
 3448SOL     OW11242   3.347   6.457   6.370
 3448SOL    HW111243   3.277   6.513   6.327
 3448SOL    HW211244   3.434   6.468   6.321
 3449SOL     OW11245   5.862   5.342   4.870
 3449SOL    HW111246   5.914   5.321   4.953
 3449SOL    HW211247   5.846   5.440   4.864
 3450SOL     OW11248   1.028   1.432   6.646
 3450SOL    HW111249   1.124   1.455   6.662
 3450SOL    HW211250   0.977   1.441   6.732
 3451SOL     OW11251   2.319   6.124   6.948
 3451SOL    HW111252   2.356   6.183   6.876
 3451SOL    HW211253   2.356   6.032   6.938
 3452SOL     OW11254   5.728   0.257   6.608
 3452SOL    HW111255   5.772   0.199   6.676
 3452SOL    HW211256   5.795   0.321   6.570
 3453SOL     OW11257   5.714   5.427   6.372
 3453SOL    HW111258   5.618   5.451   6.388
 3453SOL    HW211259   5.740   5.353   6.433
 3454SOL     OW11260   0.676   4.104   4.651
 3454SOL    HW111261   0.739   4.181   4.651
 3454SOL    HW211262   0.589   4.131   4.610
 3455SOL     OW11263   3.131   1.647   3.717
 3455SOL    HW111264   3.132   1.688   3.808
 3455SOL    HW211265   3.068   1.698   3.658
 3456SOL     OW11266   4.981   4.955   2.080
 3456SOL    HW111267   5.045   4.958   2.003
 3456SOL    HW211268   5.031   4.962   2.166
 3457SOL     OW11269   4.538   5.656   4.509
 3457SOL    HW111270   4.537   5.741   4.561
 3457SOL    HW211271   4.457   5.651   4.450
 3458SOL     OW11272   4.317   1.402   2.548
 3458SOL    HW111273   4.301   1.386   2.451
 3458SOL    HW211274   4.259   1.477   2.580
 3459SOL     OW11275   4.734   2.232   3.316
 3459SOL    HW111276   4.741   2.327   3.285
 3459SOL    HW211277   4.773   2.172   3.247
 3460SOL     OW11278   2.950   1.765   6.308
 3460SOL    HW111279   2.996   1.685   6.269
 3460SOL    HW211280   3.014   1.842   6.311
 3461SOL     OW11281   4.879   3.704   6.590
 3461SOL    HW111282   4.866   3.789   6.642
 3461SOL    HW211283   4.818   3.633   6.626
 3462SOL     OW11284   0.756   4.289   5.140
 3462SOL    HW111285   0.712   4.334   5.218
 3462SOL    HW211286   0.759   4.190   5.156
 3463SOL     OW11287   0.789   4.010   0.730
 3463SOL    HW111288   0.789   4.100   0.686
 3463SOL    HW211289   0.881   3.972   0.726
 3464SOL     OW11290   0.491   4.505   6.556
 3464SOL    HW111291   0.401   4.549   6.555
 3464SOL    HW211292   0.556   4.562   6.507
 3465SOL     OW11293   1.845   2.521   1.981
 3465SOL    HW111294   1.775   2.579   2.022
 3465SOL    HW211295   1.935   2.558   2.002
 3466SOL     OW11296   7.017   5.148   6.477
 3466SOL    HW111297   7.018   5.213   6.400
 3466SOL    HW211298   0.068   5.082   6.465
 3467SOL     OW11299   1.435   3.024   6.476
 3467SOL    HW111300   1.521   2.975   6.492
 3467SOL    HW211301   1.375   3.013   6.555
 3468SOL     OW11302   3.791   6.158   2.639
 3468SOL    HW111303   3.746   6.108   2.565
 3468SOL    HW211304   3.885   6.125   2.650
 3469SOL     OW11305   6.006   1.647   3.197
 3469SOL    HW111306   6.020   1.645   3.098
 3469SOL    HW211307   6.077   1.592   3.242
 3470SOL     OW11308   6.748   4.586   0.865
 3470SOL    HW111309   6.667   4.612   0.918
 3470SOL    HW211310   6.797   4.668   0.835
 3471SOL     OW11311   3.982   5.221   4.681
 3471SOL    HW111312   4.081   5.225   4.665
 3471SOL    HW211313   3.933   5.219   4.594
 3472SOL     OW11314   2.244   0.755   2.802
 3472SOL    HW111315   2.236   0.853   2.783
 3472SOL    HW211316   2.172   0.727   2.865
 3473SOL     OW11317   6.128   1.306   6.187
 3473SOL    HW111318   6.041   1.347   6.160
 3473SOL    HW211319   6.129   1.290   6.286
 3474SOL     OW11320   3.103   5.166   2.251
 3474SOL    HW111321   3.116   5.088   2.312
 3474SOL    HW211322   3.010   5.202   2.261
 3475SOL     OW11323   1.319   6.348   4.199
 3475SOL    HW111324   1.271   6.425   4.241
 3475SOL    HW211325   1.283   6.262   4.236
 3476SOL     OW11326   3.273   1.302   3.416
 3476SOL    HW111327   3.199   1.261   3.469
 3476SOL    HW211328   3.239   1.380   3.365
 3477SOL     OW11329   3.015   5.746   1.728
 3477SOL    HW111330   3.078   5.823   1.739
 3477SOL    HW211331   3.064   5.668   1.690
 3478SOL     OW11332   2.761   5.650   5.969
 3478SOL    HW111333   2.726   5.611   5.883
 3478SOL    HW211334   2.831   5.589   6.007
 3479SOL     OW11335   0.749   0.287   3.580
 3479SOL    HW111336   0.700   0.250   3.501
 3479SOL    HW211337   0.837   0.242   3.589
 3480SOL     OW11338   6.557   0.275   4.693
 3480SOL    HW111339   6.596   0.305   4.606
 3480SOL    HW211340   6.618   0.208   4.735
 3481SOL     OW11341   4.752   0.328   6.881
 3481SOL    HW111342   4.767   0.257   6.813
 3481SOL    HW211343   4.699   0.291   6.957
 3482SOL     OW11344   5.902   1.226   0.482
 3482SOL    HW111345   5.914   1.325   0.481
 3482SOL    HW211346   5.806   1.204   0.462
 3483SOL     OW11347   3.272   0.673   1.449
 3483SOL    HW111348   3.361   0.630   1.444
 3483SOL    HW211349   3.211   0.619   1.507
 3484SOL     OW11350   2.794   3.698   1.826
 3484SOL    HW111351   2.754   3.678   1.916
 3484SOL    HW211352   2.875   3.755   1.838
 3485SOL     OW11353   1.141   0.671   4.798
 3485SOL    HW111354   1.143   0.614   4.716
 3485SOL    HW211355   1.209   0.638   4.864
 3486SOL     OW11356   3.046   1.616   2.312
 3486SOL    HW111357   3.083   1.617   2.219
 3486SOL    HW211358   2.960   1.667   2.314
 3487SOL     OW11359   6.436   1.886   6.146
 3487SOL    HW111360   6.395   1.796   6.132
 3487SOL    HW211361   6.365   1.951   6.173
 3488SOL     OW11362   5.822   3.089   4.004
 3488SOL    HW111363   5.757   3.026   3.961
 3488SOL    HW211364   5.914   3.054   3.995
 3489SOL     OW11365   2.566   6.603   0.740
 3489SOL    HW111366   2.552   6.677   0.675
 3489SOL    HW211367   2.483   6.548   0.747
 3490SOL     OW11368   4.328   4.002   6.924
 3490SOL    HW111369   4.326   4.048   7.013
 3490SOL    HW211370   4.241   4.017   6.876
 3491SOL     OW11371   6.047   3.103   4.561
 3491SOL    HW111372   6.057   3.020   4.615
 3491SOL    HW211373   6.133   3.121   4.513
 3492SOL     OW11374   1.123   5.669   0.636
 3492SOL    HW111375   1.028   5.677   0.667
 3492SOL    HW211376   1.185   5.694   0.710
 3493SOL     OW11377   6.724   5.262   6.824
 3493SOL    HW111378   6.724   5.324   6.745
 3493SOL    HW211379   6.697   5.170   6.794
 3494SOL     OW11380   4.008   0.229   1.339
 3494SOL    HW111381   3.955   0.223   1.255
 3494SOL    HW211382   4.086   0.167   1.334
 3495SOL     OW11383   4.255   4.872   2.294
 3495SOL    HW111384   4.244   4.873   2.393
 3495SOL    HW211385   4.165   4.869   2.250
 3496SOL     OW11386   0.677   3.120   1.438
 3496SOL    HW111387   0.693   3.028   1.472
 3496SOL    HW211388   0.680   3.185   1.515
 3497SOL     OW11389   4.054   0.321   2.831
 3497SOL    HW111390   3.959   0.353   2.825
 3497SOL    HW211391   4.099   0.365   2.908
 3498SOL     OW11392   2.549   2.452   0.699
 3498SOL    HW111393   2.472   2.507   0.668
 3498SOL    HW211394   2.605   2.506   0.761
 3499SOL     OW11395   5.348   2.721   4.387
 3499SOL    HW111396   5.390   2.745   4.300
 3499SOL    HW211397   5.261   2.674   4.371
 3500SOL     OW11398   0.303   4.121   5.550
 3500SOL    HW111399   0.331   4.217   5.538
 3500SOL    HW211400   0.363   4.078   5.617
 3501SOL     OW11401   0.467   5.034   4.426
 3501SOL    HW111402   0.446   5.124   4.390
 3501SOL    HW211403   0.556   5.003   4.392
 3502SOL     OW11404   6.735   2.455   2.355
 3502SOL    HW111405   6.828   2.487   2.338
 3502SOL    HW211406   6.674   2.487   2.282
 3503SOL     OW11407   5.439   5.704   5.634
 3503SOL    HW111408   5.510   5.685   5.702
 3503SOL    HW211409   5.402   5.795   5.649
 3504SOL     OW11410   2.979   3.135   1.597
 3504SOL    HW111411   3.012   3.221   1.636
 3504SOL    HW211412   3.011   3.127   1.502
 3505SOL     OW11413   5.996   5.304   5.112
 3505SOL    HW111414   6.054   5.371   5.157
 3505SOL    HW211415   5.994   5.220   5.166
 3506SOL     OW11416   3.994   5.770   5.104
 3506SOL    HW111417   4.065   5.798   5.040
 3506SOL    HW211418   3.942   5.694   5.065
 3507SOL     OW11419   1.745   0.655   6.837
 3507SOL    HW111420   1.646   0.667   6.846
 3507SOL    HW211421   1.779   0.602   6.916
 3508SOL     OW11422   4.028   2.620   6.003
 3508SOL    HW111423   3.994   2.708   5.969
 3508SOL    HW211424   3.952   2.570   6.046
 3509SOL     OW11425   5.397   6.125   6.420
 3509SOL    HW111426   5.497   6.136   6.421
 3509SOL    HW211427   5.370   6.080   6.335
 3510SOL     OW11428   1.662   3.008   1.447
 3510SOL    HW111429   1.728   2.989   1.374
 3510SOL    HW211430   1.574   3.034   1.406
 3511SOL     OW11431   1.763   4.319   0.057
 3511SOL    HW111432   1.804   4.382   0.122
 3511SOL    HW211433   1.766   4.358   6.989
 3512SOL     OW11434   0.801   4.572   0.492
 3512SOL    HW111435   0.821   4.534   0.582
 3512SOL    HW211436   0.852   4.522   0.422
 3513SOL     OW11437   5.941   4.776   1.141
 3513SOL    HW111438   6.028   4.813   1.173
 3513SOL    HW211439   5.942   4.677   1.150
 3514SOL     OW11440   0.686   1.061   1.746
 3514SOL    HW111441   0.643   1.138   1.698
 3514SOL    HW211442   0.637   0.977   1.724
 3515SOL     OW11443   3.842   6.446   2.474
 3515SOL    HW111444   3.891   6.367   2.510
 3515SOL    HW211445   3.887   6.530   2.505
 3516SOL     OW11446   4.376   0.887   1.410
 3516SOL    HW111447   4.312   0.927   1.344
 3516SOL    HW211448   4.374   0.942   1.494
 3517SOL     OW11449   0.269   1.917   6.970
 3517SOL    HW111450   0.281   1.829   6.925
 3517SOL    HW211451   0.358   1.961   6.982
 3518SOL     OW11452   4.980   4.035   5.462
 3518SOL    HW111453   4.923   3.954   5.447
 3518SOL    HW211454   4.950   4.109   5.401
 3519SOL     OW11455   1.852   0.417   6.625
 3519SOL    HW111456   1.752   0.411   6.619
 3519SOL    HW211457   1.879   0.424   6.721
 3520SOL     OW11458   3.704   4.381   1.075
 3520SOL    HW111459   3.774   4.416   1.137
 3520SOL    HW211460   3.655   4.306   1.119
 3521SOL     OW11461   5.657   2.935   1.864
 3521SOL    HW111462   5.557   2.928   1.860
 3521SOL    HW211463   5.683   3.012   1.923
 3522SOL     OW11464   3.348   5.850   2.126
 3522SOL    HW111465   3.424   5.788   2.104
 3522SOL    HW211466   3.374   5.943   2.101
 3523SOL     OW11467   3.101   4.407   5.536
 3523SOL    HW111468   3.096   4.357   5.450
 3523SOL    HW211469   3.189   4.389   5.580
 3524SOL     OW11470   2.427   0.093   1.136
 3524SOL    HW111471   2.458   0.162   1.201
 3524SOL    HW211472   2.355   0.130   1.078
 3525SOL     OW11473   0.679   3.541   1.884
 3525SOL    HW111474   0.758   3.538   1.946
 3525SOL    HW211475   0.595   3.548   1.937
 3526SOL     OW11476   1.349   0.161   3.823
 3526SOL    HW111477   1.304   0.216   3.893
 3526SOL    HW211478   1.319   0.066   3.831
 3527SOL     OW11479   5.453   2.806   5.327
 3527SOL    HW111480   5.411   2.755   5.252
 3527SOL    HW211481   5.504   2.743   5.385
 3528SOL     OW11482   1.157   5.852   3.421
 3528SOL    HW111483   1.134   5.772   3.366
 3528SOL    HW211484   1.249   5.841   3.460
 3529SOL     OW11485   3.836   6.955   6.043
 3529SOL    HW111486   3.808   0.027   6.034
 3529SOL    HW211487   3.827   6.909   5.954
 3530SOL     OW11488   1.772   4.993   2.505
 3530SOL    HW111489   1.715   4.913   2.526
 3530SOL    HW211490   1.794   5.040   2.590
 3531SOL     OW11491   5.087   4.347   0.858
 3531SOL    HW111492   5.155   4.284   0.820
 3531SOL    HW211493   5.032   4.385   0.783
 3532SOL     OW11494   3.116   0.452   0.408
 3532SOL    HW111495   3.082   0.370   0.454
 3532SOL    HW211496   3.216   0.449   0.404
 3533SOL     OW11497   1.103   2.009   3.495
 3533SOL    HW111498   1.083   1.959   3.411
 3533SOL    HW211499   1.191   1.981   3.531
 3534SOL     OW11500   5.629   1.158   5.348
 3534SOL    HW111501   5.612   1.253   5.375
 3534SOL    HW211502   5.703   1.121   5.404
 3535SOL     OW11503   0.068   5.950   0.757
 3535SOL    HW111504   0.035   5.947   0.663
 3535SOL    HW211505   0.133   6.026   0.767
 3536SOL     OW11506   2.187   3.043   3.730
 3536SOL    HW111507   2.217   2.952   3.760
 3536SOL    HW211508   2.090   3.053   3.750
 3537SOL     OW11509   2.460   4.279   0.642
 3537SOL    HW111510   2.484   4.293   0.546
 3537SOL    HW211511   2.361   4.267   0.650
 3538SOL     OW11512   2.977   0.775   3.830
 3538SOL    HW111513   2.926   0.793   3.914
 3538SOL    HW211514   2.913   0.754   3.756
 3539SOL     OW11515   5.841   3.384   5.811
 3539SOL    HW111516   5.922   3.436   5.787
 3539SOL    HW211517   5.761   3.422   5.766
 3540SOL     OW11518   2.262   2.000   6.083
 3540SOL    HW111519   2.293   2.084   6.038
 3540SOL    HW211520   2.330   1.971   6.149
 3541SOL     OW11521   2.492   2.877   6.959
 3541SOL    HW111522   2.521   2.878   6.864
 3541SOL    HW211523   2.392   2.876   6.964
 3542SOL     OW11524   5.748   2.534   0.496
 3542SOL    HW111525   5.799   2.609   0.537
 3542SOL    HW211526   5.729   2.555   0.400
 3543SOL     OW11527   1.663   3.238   3.692
 3543SOL    HW111528   1.611   3.311   3.649
 3543SOL    HW211529   1.602   3.162   3.714
 3544SOL     OW11530   2.117   4.491   6.480
 3544SOL    HW111531   2.058   4.474   6.559
 3544SOL    HW211532   2.156   4.405   6.448
 3545SOL     OW11533   3.948   4.789   0.575
 3545SOL    HW111534   4.007   4.830   0.506
 3545SOL    HW211535   3.894   4.716   0.534
 3546SOL     OW11536   6.697   4.958   2.984
 3546SOL    HW111537   6.712   4.859   2.988
 3546SOL    HW211538   6.632   4.979   2.911
 3547SOL     OW11539   6.684   4.479   5.087
 3547SOL    HW111540   6.648   4.564   5.127
 3547SOL    HW211541   6.614   4.436   5.032
 3548SOL     OW11542   5.630   0.563   5.098
 3548SOL    HW111543   5.640   0.490   5.031
 3548SOL    HW211544   5.539   0.603   5.090
 3549SOL     OW11545   1.910   4.796   5.462
 3549SOL    HW111546   1.995   4.809   5.514
 3549SOL    HW211547   1.932   4.762   5.371
 3550SOL     OW11548   5.669   3.020   4.351
 3550SOL    HW111549   5.666   3.119   4.344
 3550SOL    HW211550   5.764   2.989   4.338
 3551SOL     OW11551   3.258   1.888   5.360
 3551SOL    HW111552   3.220   1.924   5.274
 3551SOL    HW211553   3.294   1.796   5.345
 3552SOL     OW11554   5.724   5.406   2.010
 3552SOL    HW111555   5.686   5.498   2.021
 3552SOL    HW211556   5.649   5.339   2.007
 3553SOL     OW11557   3.754   4.977   6.145
 3553SOL    HW111558   3.746   4.986   6.046
 3553SOL    HW211559   3.743   4.881   6.171
 3554SOL     OW11560   4.712   3.347   0.215
 3554SOL    HW111561   4.744   3.271   0.159
 3554SOL    HW211562   4.672   3.418   0.156
 3555SOL     OW11563   1.896   1.912   4.443
 3555SOL    HW111564   1.847   1.984   4.492
 3555SOL    HW211565   1.917   1.944   4.350
 3556SOL     OW11566   3.916   1.122   3.639
 3556SOL    HW111567   3.855   1.148   3.714
 3556SOL    HW211568   3.879   1.155   3.553
 3557SOL     OW11569   1.088   0.101   3.369
 3557SOL    HW111570   1.042   0.159   3.435
 3557SOL    HW211571   1.112   0.154   3.288
 3558SOL     OW11572   2.686   4.675   1.138
 3558SOL    HW111573   2.638   4.763   1.142
 3558SOL    HW211574   2.648   4.614   1.208
 3559SOL     OW11575   1.733   6.167   4.323
 3559SOL    HW111576   1.833   6.161   4.328
 3559SOL    HW211577   1.699   6.101   4.255
 3560SOL     OW11578   2.045   5.158   3.203
 3560SOL    HW111579   2.132   5.130   3.164
 3560SOL    HW211580   2.026   5.253   3.178
 3561SOL     OW11581   5.199   4.872   5.646
 3561SOL    HW111582   5.274   4.812   5.620
 3561SOL    HW211583   5.164   4.919   5.565
 3562SOL     OW11584   3.363   1.934   4.201
 3562SOL    HW111585   3.429   1.862   4.180
 3562SOL    HW211586   3.290   1.896   4.258
 3563SOL     OW11587   6.079   1.905   5.899
 3563SOL    HW111588   6.160   1.962   5.911
 3563SOL    HW211589   6.004   1.960   5.862
 3564SOL     OW11590   0.484   4.779   3.293
 3564SOL    HW111591   0.429   4.854   3.256
 3564SOL    HW211592   0.561   4.817   3.345
 3565SOL     OW11593   3.409   5.221   2.888
 3565SOL    HW111594   3.435   5.134   2.845
 3565SOL    HW211595   3.413   5.294   2.820
 3566SOL     OW11596   5.944   0.939   5.750
 3566SOL    HW111597   6.032   0.968   5.786
 3566SOL    HW211598   5.877   0.938   5.825
 3567SOL     OW11599   0.460   2.262   6.030
 3567SOL    HW111600   0.535   2.276   6.094
 3567SOL    HW211601   0.388   2.208   6.074
 3568SOL     OW11602   6.229   3.791   4.805
 3568SOL    HW111603   6.248   3.752   4.895
 3568SOL    HW211604   6.273   3.734   4.734
 3569SOL     OW11605   3.141   1.920   5.682
 3569SOL    HW111606   3.084   1.960   5.610
 3569SOL    HW211607   3.237   1.929   5.658
 3570SOL     OW11608   4.841   0.468   5.818
 3570SOL    HW111609   4.902   0.392   5.796
 3570SOL    HW211610   4.846   0.487   5.916
 3571SOL     OW11611   0.387   5.202   0.002
 3571SOL    HW111612   0.390   5.301   7.010
 3571SOL    HW211613   0.466   5.159   6.982
 3572SOL     OW11614   5.580   4.095   3.443
 3572SOL    HW111615   5.595   3.997   3.454
 3572SOL    HW211616   5.561   4.116   3.347
 3573SOL     OW11617   0.409   4.417   3.781
 3573SOL    HW111618   0.334   4.368   3.737
 3573SOL    HW211619   0.491   4.359   3.781
 3574SOL     OW11620   0.106   4.739   0.545
 3574SOL    HW111621   0.013   4.741   0.508
 3574SOL    HW211622   0.171   4.728   0.469
 3575SOL     OW11623   5.681   4.481   2.871
 3575SOL    HW111624   5.643   4.567   2.906
 3575SOL    HW211625   5.620   4.406   2.895
 3576SOL     OW11626   2.380   1.533   5.659
 3576SOL    HW111627   2.382   1.474   5.578
 3576SOL    HW211628   2.450   1.604   5.649
 3577SOL     OW11629   0.969   3.410   6.010
 3577SOL    HW111630   0.933   3.394   6.102
 3577SOL    HW211631   0.894   3.437   5.949
 3578SOL     OW11632   3.911   2.661   0.646
 3578SOL    HW111633   3.904   2.618   0.736
 3578SOL    HW211634   3.851   2.614   0.581
 3579SOL     OW11635   6.738   4.023   4.733
 3579SOL    HW111636   6.776   4.104   4.778
 3579SOL    HW211637   6.640   4.016   4.753
 3580SOL     OW11638   5.644   2.083   0.590
 3580SOL    HW111639   5.576   2.084   0.516
 3580SOL    HW211640   5.598   2.086   0.678
 3581SOL     OW11641   6.725   0.007   4.085
 3581SOL    HW111642   6.662   7.023   4.163
 3581SOL    HW211643   6.672   0.013   4.000
 3582SOL     OW11644   0.844   1.684   5.912
 3582SOL    HW111645   0.932   1.712   5.950
 3582SOL    HW211646   0.784   1.764   5.906
 3583SOL     OW11647   1.327   3.777   6.665
 3583SOL    HW111648   1.313   3.875   6.649
 3583SOL    HW211649   1.251   3.740   6.717
 3584SOL     OW11650   6.037   5.563   0.180
 3584SOL    HW111651   5.961   5.591   0.122
 3584SOL    HW211652   6.097   5.502   0.129
 3585SOL     OW11653   3.766   5.519   5.253
 3585SOL    HW111654   3.770   5.602   5.308
 3585SOL    HW211655   3.789   5.542   5.158
 3586SOL     OW11656   0.300   2.163   5.171
 3586SOL    HW111657   0.317   2.208   5.083
 3586SOL    HW211658   0.294   2.064   5.156
 3587SOL     OW11659   2.789   4.731   6.498
 3587SOL    HW111660   2.691   4.736   6.516
 3587SOL    HW211661   2.839   4.740   6.585
 3588SOL     OW11662   1.029   2.620   4.650
 3588SOL    HW111663   0.985   2.533   4.628
 3588SOL    HW211664   1.084   2.609   4.734
 3589SOL     OW11665   4.256   1.684   4.347
 3589SOL    HW111666   4.321   1.720   4.280
 3589SOL    HW211667   4.165   1.681   4.306
 3590SOL     OW11668   0.352   3.493   5.873
 3590SOL    HW111669   0.372   3.398   5.897
 3590SOL    HW211670   0.344   3.548   5.956
 3591SOL     OW11671   5.331   3.260   5.994
 3591SOL    HW111672   5.316   3.308   5.908
 3591SOL    HW211673   5.424   3.221   5.994
 3592SOL     OW11674   6.480   4.091   2.665
 3592SOL    HW111675   6.417   4.156   2.621
 3592SOL    HW211676   6.555   4.071   2.602
 3593SOL     OW11677   2.220   5.855   4.210
 3593SOL    HW111678   2.245   5.922   4.140
 3593SOL    HW211679   2.299   5.798   4.232
 3594SOL     OW11680   4.024   0.816   2.689
 3594SOL    HW111681   4.078   0.824   2.605
 3594SOL    HW211682   3.931   0.847   2.672
 3595SOL     OW11683   2.479   5.444   6.166
 3595SOL    HW111684   2.458   5.385   6.244
 3595SOL    HW211685   2.575   5.433   6.141
 3596SOL     OW11686   6.345   2.476   2.895
 3596SOL    HW111687   6.330   2.392   2.948
 3596SOL    HW211688   6.307   2.463   2.802
 3597SOL     OW11689   2.148   6.922   5.239
 3597SOL    HW111690   2.156   6.972   5.325
 3597SOL    HW211691   2.067   6.863   5.242
 3598SOL     OW11692   1.314   6.438   6.248
 3598SOL    HW111693   1.404   6.438   6.291
 3598SOL    HW211694   1.247   6.477   6.311
 3599SOL     OW11695   0.669   1.869   5.811
 3599SOL    HW111696   0.701   1.938   5.875
 3599SOL    HW211697   0.570   1.857   5.821
 3600SOL     OW11698   1.367   3.599   0.138
 3600SOL    HW111699   1.428   3.592   0.060
 3600SOL    HW211700   1.280   3.554   0.117
 3601SOL     OW11701   6.286   4.223   0.296
 3601SOL    HW111702   6.332   4.151   0.245
 3601SOL    HW211703   6.202   4.186   0.337
 3602SOL     OW11704   1.572   2.225   0.597
 3602SOL    HW111705   1.586   2.299   0.664
 3602SOL    HW211706   1.658   2.177   0.582
 3603SOL     OW11707   3.524   6.226   3.956
 3603SOL    HW111708   3.481   6.189   4.038
 3603SOL    HW211709   3.622   6.236   3.971
 3604SOL     OW11710   6.956   5.145   3.931
 3604SOL    HW111711   6.922   5.074   3.869
 3604SOL    HW211712   0.003   5.107   3.991
 3605SOL     OW11713   5.207   4.365   5.422
 3605SOL    HW111714   5.215   4.440   5.357
 3605SOL    HW211715   5.252   4.390   5.507
 3606SOL     OW11716   6.991   5.638   5.784
 3606SOL    HW111717   7.019   5.707   5.851
 3606SOL    HW211718   0.040   5.569   5.776
 3607SOL     OW11719   5.149   6.457   1.082
 3607SOL    HW111720   5.103   6.530   1.031
 3607SOL    HW211721   5.122   6.369   1.044
 3608SOL     OW11722   6.743   1.702   2.610
 3608SOL    HW111723   6.787   1.787   2.583
 3608SOL    HW211724   6.813   1.631   2.623
 3609SOL     OW11725   0.454   0.364   4.294
 3609SOL    HW111726   0.355   0.380   4.298
 3609SOL    HW211727   0.488   0.342   4.385
 3610SOL     OW11728   1.092   0.408   5.553
 3610SOL    HW111729   1.188   0.380   5.561
 3610SOL    HW211730   1.086   0.491   5.497
 3611SOL     OW11731   4.118   6.203   5.944
 3611SOL    HW111732   4.095   6.166   5.854
 3611SOL    HW211733   4.111   6.303   5.942
 3612SOL     OW11734   5.962   0.436   6.028
 3612SOL    HW111735   5.902   0.360   6.005
 3612SOL    HW211736   5.936   0.517   5.975
 3613SOL     OW11737   4.603   5.148   1.838
 3613SOL    HW111738   4.659   5.164   1.919
 3613SOL    HW211739   4.631   5.064   1.793
 3614SOL     OW11740   3.419   3.540   2.692
 3614SOL    HW111741   3.476   3.519   2.771
 3614SOL    HW211742   3.428   3.467   2.624
 3615SOL     OW11743   5.061   6.285   0.027
 3615SOL    HW111744   4.971   6.285   7.008
 3615SOL    HW211745   5.097   6.192   0.029
 3616SOL     OW11746   6.982   2.553   6.182
 3616SOL    HW111747   6.935   2.639   6.202
 3616SOL    HW211748   6.916   2.485   6.150
 3617SOL     OW11749   4.877   0.662   6.906
 3617SOL    HW111750   4.955   0.627   6.958
 3617SOL    HW211751   4.899   0.659   6.808
 3618SOL     OW11752   2.240   1.929   4.836
 3618SOL    HW111753   2.141   1.923   4.828
 3618SOL    HW211754   2.280   1.837   4.827
 3619SOL     OW11755   6.517   3.382   4.177
 3619SOL    HW111756   6.500   3.412   4.083
 3619SOL    HW211757   6.486   3.287   4.187
 3620SOL     OW11758   6.261   6.190   6.370
 3620SOL    HW111759   6.303   6.277   6.393
 3620SOL    HW211760   6.325   6.116   6.388
 3621SOL     OW11761   2.923   2.671   5.696
 3621SOL    HW111762   2.971   2.617   5.765
 3621SOL    HW211763   2.988   2.730   5.648
 3622SOL     OW11764   2.055   2.547   4.220
 3622SOL    HW111765   2.010   2.612   4.159
 3622SOL    HW211766   1.988   2.483   4.256
 3623SOL     OW11767   6.514   5.848   4.160
 3623SOL    HW111768   6.595   5.880   4.111
 3623SOL    HW211769   6.432   5.878   4.112
 3624SOL     OW11770   1.003   6.658   2.289
 3624SOL    HW111771   1.049   6.723   2.228
 3624SOL    HW211772   0.922   6.622   2.244
 3625SOL     OW11773   5.177   3.815   6.838
 3625SOL    HW111774   5.197   3.843   6.744
 3625SOL    HW211775   5.255   3.765   6.875
 3626SOL     OW11776   1.353   3.692   5.265
 3626SOL    HW111777   1.440   3.739   5.282
 3626SOL    HW211778   1.319   3.653   5.350
 3627SOL     OW11779   3.147   3.018   3.603
 3627SOL    HW111780   3.126   3.017   3.505
 3627SOL    HW211781   3.234   2.972   3.619
 3628SOL     OW11782   1.253   0.073   1.744
 3628SOL    HW111783   1.312   7.018   1.762
 3628SOL    HW211784   1.306   0.146   1.702
 3629SOL     OW11785   6.451   2.064   4.398
 3629SOL    HW111786   6.482   2.026   4.485
 3629SOL    HW211787   6.449   1.992   4.328
 3630SOL     OW11788   5.000   2.698   3.364
 3630SOL    HW111789   4.934   2.755   3.316
 3630SOL    HW211790   5.024   2.620   3.307
 3631SOL     OW11791   1.950   0.297   3.683
 3631SOL    HW111792   1.897   0.276   3.601
 3631SOL    HW211793   2.019   0.367   3.660
 3632SOL     OW11794   4.743   6.554   0.877
 3632SOL    HW111795   4.779   6.485   0.815
 3632SOL    HW211796   4.644   6.541   0.887
 3633SOL     OW11797   3.084   1.771   5.908
 3633SOL    HW111798   3.088   1.809   5.816
 3633SOL    HW211799   3.017   1.821   5.962
 3634SOL     OW11800   0.724   5.513   4.484
 3634SOL    HW111801   0.725   5.445   4.557
 3634SOL    HW211802   0.666   5.479   4.409
 3635SOL     OW11803   2.729   6.216   6.273
 3635SOL    HW111804   2.683   6.180   6.354
 3635SOL    HW211805   2.825   6.189   6.274
 3636SOL     OW11806   0.378   5.608   6.615
 3636SOL    HW111807   0.439   5.634   6.540
 3636SOL    HW211808   0.285   5.636   6.594
 3637SOL     OW11809   5.822   1.601   1.504
 3637SOL    HW111810   5.859   1.577   1.594
 3637SOL    HW211811   5.834   1.699   1.488
 3638SOL     OW11812   0.256   4.769   4.604
 3638SOL    HW111813   0.213   4.714   4.675
 3638SOL    HW211814   0.347   4.797   4.633
 3639SOL     OW11815   3.617   4.447   1.417
 3639SOL    HW111816   3.708   4.418   1.388
 3639SOL    HW211817   3.557   4.367   1.420
 3640SOL     OW11818   3.468   0.842   0.094
 3640SOL    HW111819   3.389   0.791   0.128
 3640SOL    HW211820   3.521   0.783   0.034
 3641SOL     OW11821   4.870   3.307   4.073
 3641SOL    HW111822   4.826   3.219   4.094
 3641SOL    HW211823   4.876   3.318   3.974
 3642SOL     OW11824   4.902   0.714   0.506
 3642SOL    HW111825   4.970   0.666   0.561
 3642SOL    HW211826   4.814   0.713   0.554
 3643SOL     OW11827   3.258   5.898   4.741
 3643SOL    HW111828   3.177   5.895   4.799
 3643SOL    HW211829   3.291   5.805   4.724
 3644SOL     OW11830   6.422   1.507   1.784
 3644SOL    HW111831   6.428   1.598   1.825
 3644SOL    HW211832   6.345   1.457   1.824
 3645SOL     OW11833   7.019   2.662   4.041
 3645SOL    HW111834   0.078   2.625   3.999
 3645SOL    HW211835   6.941   2.606   4.017
 3646SOL     OW11836   6.113   4.063   0.013
 3646SOL    HW111837   6.094   3.980   0.064
 3646SOL    HW211838   6.133   4.041   6.941
 3647SOL     OW11839   2.099   3.333   0.275
 3647SOL    HW111840   2.194   3.302   0.276
 3647SOL    HW211841   2.066   3.337   0.181
 3648SOL     OW11842   3.023   5.006   2.907
 3648SOL    HW111843   2.975   4.959   2.982
 3648SOL    HW211844   3.031   4.944   2.829
 3649SOL     OW11845   5.112   3.260   2.146
 3649SOL    HW111846   5.181   3.333   2.143
 3649SOL    HW211847   5.050   3.270   2.069
 3650SOL     OW11848   0.312   4.464   0.787
 3650SOL    HW111849   0.247   4.404   0.739
 3650SOL    HW211850   0.405   4.429   0.773
 3651SOL     OW11851   0.627   6.937   4.076
 3651SOL    HW111852   0.600   6.918   3.981
 3651SOL    HW211853   0.722   6.969   4.078
 3652SOL     OW11854   5.820   6.051   3.150
 3652SOL    HW111855   5.844   5.977   3.212
 3652SOL    HW211856   5.753   6.111   3.194
 3653SOL     OW11857   0.602   1.254   4.557
 3653SOL    HW111858   0.681   1.202   4.524
 3653SOL    HW211859   0.616   1.351   4.537
 3654SOL     OW11860   2.766   5.467   0.324
 3654SOL    HW111861   2.752   5.562   0.296
 3654SOL    HW211862   2.677   5.426   0.345
 3655SOL     OW11863   2.368   6.897   3.628
 3655SOL    HW111864   2.347   6.878   3.724
 3655SOL    HW211865   2.316   6.835   3.569
 3656SOL     OW11866   1.161   3.618   1.968
 3656SOL    HW111867   1.123   3.552   2.033
 3656SOL    HW211868   1.199   3.696   2.017
 3657SOL     OW11869   4.957   5.068   6.362
 3657SOL    HW111870   4.938   4.973   6.386
 3657SOL    HW211871   5.038   5.073   6.304
 3658SOL     OW11872   1.517   6.064   4.446
 3658SOL    HW111873   1.590   6.109   4.394
 3658SOL    HW211874   1.557   6.004   4.515
 3659SOL     OW11875   1.963   3.229   5.310
 3659SOL    HW111876   1.883   3.196   5.260
 3659SOL    HW211877   1.972   3.176   5.395
 3660SOL     OW11878   4.586   0.194   2.924
 3660SOL    HW111879   4.503   0.152   2.960
 3660SOL    HW211880   4.611   0.149   2.838
 3661SOL     OW11881   5.301   1.089   6.026
 3661SOL    HW111882   5.369   1.095   5.953
 3661SOL    HW211883   5.217   1.136   5.997
 3662SOL     OW11884   4.010   0.622   3.729
 3662SOL    HW111885   4.009   0.720   3.712
 3662SOL    HW211886   4.049   0.604   3.819
 3663SOL     OW11887   1.398   2.481   0.567
 3663SOL    HW111888   1.373   2.508   0.660
 3663SOL    HW211889   1.443   2.392   0.570
 3664SOL     OW11890   5.018   1.827   2.242
 3664SOL    HW111891   4.947   1.796   2.306
 3664SOL    HW211892   5.059   1.748   2.198
 3665SOL     OW11893   1.797   5.833   5.387
 3665SOL    HW111894   1.798   5.921   5.340
 3665SOL    HW211895   1.748   5.841   5.474
 3666SOL     OW11896   1.215   3.980   3.256
 3666SOL    HW111897   1.139   4.045   3.265
 3666SOL    HW211898   1.181   3.894   3.219
 3667SOL     OW11899   0.056   1.359   1.683
 3667SOL    HW111900   7.021   1.285   1.713
 3667SOL    HW211901   0.069   1.354   1.584
 3668SOL     OW11902   1.490   1.297   2.176
 3668SOL    HW111903   1.580   1.254   2.183
 3668SOL    HW211904   1.490   1.383   2.226
 3669SOL     OW11905   5.496   1.591   3.342
 3669SOL    HW111906   5.448   1.513   3.302
 3669SOL    HW211907   5.562   1.627   3.276
 3670SOL     OW11908   2.316   4.561   0.614
 3670SOL    HW111909   2.395   4.503   0.633
 3670SOL    HW211910   2.266   4.580   0.699
 3671SOL     OW11911   5.898   0.177   4.236
 3671SOL    HW111912   5.882   0.184   4.138
 3671SOL    HW211913   5.913   0.268   4.274
 3672SOL     OW11914   5.613   2.322   1.485
 3672SOL    HW111915   5.549   2.272   1.426
 3672SOL    HW211916   5.566   2.350   1.569
 3673SOL     OW11917   4.246   6.652   6.563
 3673SOL    HW111918   4.309   6.721   6.600
 3673SOL    HW211919   4.196   6.609   6.638
 3674SOL     OW11920   0.891   6.821   5.187
 3674SOL    HW111921   0.874   6.759   5.110
 3674SOL    HW211922   0.970   6.879   5.166
 3675SOL     OW11923   1.572   3.293   4.797
 3675SOL    HW111924   1.610   3.375   4.755
 3675SOL    HW211925   1.559   3.223   4.726
 3676SOL     OW11926   5.254   4.762   4.570
 3676SOL    HW111927   5.273   4.730   4.477
 3676SOL    HW211928   5.158   4.790   4.576
 3677SOL     OW11929   1.991   6.280   3.030
 3677SOL    HW111930   2.062   6.287   3.100
 3677SOL    HW211931   2.024   6.322   2.945
 3678SOL     OW11932   0.053   2.638   5.139
 3678SOL    HW111933   0.075   2.641   5.041
 3678SOL    HW211934   0.126   2.590   5.187
 3679SOL     OW11935   1.449   0.775   2.898
 3679SOL    HW111936   1.463   0.677   2.907
 3679SOL    HW211937   1.438   0.799   2.802
 3680SOL     OW11938   5.439   2.126   3.685
 3680SOL    HW111939   5.386   2.199   3.642
 3680SOL    HW211940   5.386   2.042   3.685
 3681SOL     OW11941   0.204   0.114   5.541
 3681SOL    HW111942   0.214   0.048   5.466
 3681SOL    HW211943   0.127   0.174   5.520
 3682SOL     OW11944   5.754   2.291   7.021
 3682SOL    HW111945   5.703   2.362   0.046
 3682SOL    HW211946   5.772   2.321   6.927
 3683SOL     OW11947   0.189   0.051   3.236
 3683SOL    HW111948   0.113   0.106   3.201
 3683SOL    HW211949   0.165   6.978   3.232
 3684SOL     OW11950   1.796   4.979   6.904
 3684SOL    HW111951   1.751   4.891   6.918
 3684SOL    HW211952   1.792   5.004   6.807
 3685SOL     OW11953   6.555   6.429   6.262
 3685SOL    HW111954   6.514   6.347   6.223
 3685SOL    HW211955   6.534   6.433   6.360
 3686SOL     OW11956   5.825   6.154   3.508
 3686SOL    HW111957   5.733   6.115   3.518
 3686SOL    HW211958   5.893   6.085   3.535
 3687SOL     OW11959   3.804   6.172   4.981
 3687SOL    HW111960   3.755   6.096   5.023
 3687SOL    HW211961   3.814   6.156   4.883
 3688SOL     OW11962   6.327   3.586   6.813
 3688SOL    HW111963   6.314   3.605   6.910
 3688SOL    HW211964   6.256   3.633   6.760
 3689SOL     OW11965   2.140   0.652   6.807
 3689SOL    HW111966   2.067   0.706   6.764
 3689SOL    HW211967   2.105   0.562   6.832
 3690SOL     OW11968   4.895   6.399   0.438
 3690SOL    HW111969   4.963   6.366   0.373
 3690SOL    HW211970   4.937   6.463   0.502
 3691SOL     OW11971   3.156   2.918   0.150
 3691SOL    HW111972   3.231   2.859   0.177
 3691SOL    HW211973   3.192   3.004   0.113
 3692SOL     OW11974   0.401   5.898   5.061
 3692SOL    HW111975   0.485   5.886   5.008
 3692SOL    HW211976   0.416   5.870   5.155
 3693SOL     OW11977   1.895   2.664   2.776
 3693SOL    HW111978   1.854   2.580   2.811
 3693SOL    HW211979   1.989   2.646   2.747
 3694SOL     OW11980   1.223   5.350   2.901
 3694SOL    HW111981   1.300   5.384   2.955
 3694SOL    HW211982   1.215   5.251   2.912
 3695SOL     OW11983   0.001   3.068   1.816
 3695SOL    HW111984   0.100   3.071   1.834
 3695SOL    HW211985   6.982   2.997   1.872
 3696SOL     OW11986   3.489   5.412   5.315
 3696SOL    HW111987   3.448   5.502   5.300
 3696SOL    HW211988   3.588   5.419   5.308
 3697SOL     OW11989   0.094   6.278   2.969
 3697SOL    HW111990   0.180   6.249   2.929
 3697SOL    HW211991   0.098   6.376   2.991
 3698SOL     OW11992   2.185   0.480   4.628
 3698SOL    HW111993   2.145   0.466   4.537
 3698SOL    HW211994   2.116   0.519   4.689
 3699SOL     OW11995   0.838   3.058   3.694
 3699SOL    HW111996   0.756   3.052   3.750
 3699SOL    HW211997   0.869   3.153   3.689
 3700SOL     OW11998   0.200   6.971   5.046
 3700SOL    HW111999   0.177   7.019   5.131
 3700SOL    HW212000   0.274   7.020   4.999
 3701SOL     OW12001   1.631   0.326   3.985
 3701SOL    HW112002   1.577   0.381   3.921
 3701SOL    HW212003   1.571   0.259   4.030
 3702SOL     OW12004   5.509   6.451   2.468
 3702SOL    HW112005   5.567   6.380   2.427
 3702SOL    HW212006   5.521   6.537   2.418
 3703SOL     OW12007   4.678   1.381   6.416
 3703SOL    HW112008   4.726   1.335   6.342
 3703SOL    HW212009   4.736   1.453   6.454
 3704SOL     OW12010   3.690   1.449   1.952
 3704SOL    HW112011   3.767   1.481   1.896
 3704SOL    HW212012   3.674   1.513   2.026
 3705SOL     OW12013   4.836   5.631   3.579
 3705SOL    HW112014   4.804   5.613   3.672
 3705SOL    HW212015   4.758   5.654   3.521
 3706SOL     OW12016   1.588   3.797   5.311
 3706SOL    HW112017   1.646   3.789   5.229
 3706SOL    HW212018   1.633   3.857   5.377
 3707SOL     OW12019   5.264   4.084   5.458
 3707SOL    HW112020   5.246   4.182   5.447
 3707SOL    HW212021   5.180   4.038   5.486
 3708SOL     OW12022   6.833   1.130   6.202
 3708SOL    HW112023   6.802   1.057   6.141
 3708SOL    HW212024   6.851   1.092   6.293
 3709SOL     OW12025   3.371   0.775   0.985
 3709SOL    HW112026   3.459   0.755   1.029
 3709SOL    HW212027   3.385   0.842   0.913
 3710SOL     OW12028   6.724   5.327   6.567
 3710SOL    HW112029   6.762   5.254   6.511
 3710SOL    HW212030   6.625   5.334   6.551
 3711SOL     OW12031   0.770   0.074   3.854
 3711SOL    HW112032   0.851   0.092   3.798
 3711SOL    HW212033   0.728   7.011   3.826
 3712SOL     OW12034   6.919   6.051   6.834
 3712SOL    HW112035   6.918   6.140   6.789
 3712SOL    HW212036   6.995   5.996   6.798
 3713SOL     OW12037   1.553   6.367   4.955
 3713SOL    HW112038   1.479   6.413   4.905
 3713SOL    HW212039   1.514   6.304   5.021
 3714SOL     OW12040   4.674   5.862   5.733
 3714SOL    HW112041   4.686   5.961   5.735
 3714SOL    HW212042   4.582   5.840   5.764
 3715SOL     OW12043   6.055   4.039   2.821
 3715SOL    HW112044   6.074   4.015   2.726
 3715SOL    HW212045   6.108   3.979   2.882
 3716SOL     OW12046   6.454   6.736   5.433
 3716SOL    HW112047   6.394   6.801   5.386
 3716SOL    HW212048   6.428   6.730   5.529
 3717SOL     OW12049   5.504   5.898   6.873
 3717SOL    HW112050   5.485   5.908   6.971
 3717SOL    HW212051   5.597   5.931   6.854
 3718SOL     OW12052   1.686   0.643   0.358
 3718SOL    HW112053   1.638   0.602   0.280
 3718SOL    HW212054   1.745   0.574   0.401
 3719SOL     OW12055   5.360   4.728   0.822
 3719SOL    HW112056   5.323   4.673   0.746
 3719SOL    HW212057   5.440   4.779   0.790
 3720SOL     OW12058   6.583   2.284   6.244
 3720SOL    HW112059   6.626   2.208   6.194
 3720SOL    HW212060   6.557   2.254   6.335
 3721SOL     OW12061   5.172   4.506   1.967
 3721SOL    HW112062   5.158   4.466   1.877
 3721SOL    HW212063   5.101   4.475   2.030
 3722SOL     OW12064   6.699   6.082   1.159
 3722SOL    HW112065   6.792   6.106   1.188
 3722SOL    HW212066   6.634   6.150   1.193
 3723SOL     OW12067   6.781   6.396   2.134
 3723SOL    HW112068   6.783   6.342   2.049
 3723SOL    HW212069   6.874   6.422   2.159
 3724SOL     OW12070   1.920   4.094   4.825
 3724SOL    HW112071   1.946   4.189   4.843
 3724SOL    HW212072   2.001   4.041   4.803
 3725SOL     OW12073   6.239   5.274   1.136
 3725SOL    HW112074   6.292   5.249   1.217
 3725SOL    HW212075   6.166   5.207   1.122
 3726SOL     OW12076   6.293   4.244   0.895
 3726SOL    HW112077   6.287   4.214   0.799
 3726SOL    HW212078   6.256   4.336   0.903
 3727SOL     OW12079   6.906   1.861   5.513
 3727SOL    HW112080   6.866   1.839   5.602
 3727SOL    HW212081   6.927   1.777   5.464
 3728SOL     OW12082   0.770   4.146   6.902
 3728SOL    HW112083   0.798   4.064   6.951
 3728SOL    HW212084   0.829   4.222   6.928
 3729SOL     OW12085   1.106   2.001   3.853
 3729SOL    HW112086   1.015   2.039   3.833
 3729SOL    HW212087   1.115   1.911   3.810
 3730SOL     OW12088   2.678   4.936   6.107
 3730SOL    HW112089   2.735   4.954   6.187
 3730SOL    HW212090   2.734   4.942   6.025
 3731SOL     OW12091   5.888   0.128   1.151
 3731SOL    HW112092   5.818   0.057   1.161
 3731SOL    HW212093   5.844   0.214   1.124
 3732SOL     OW12094   2.927   1.946   6.083
 3732SOL    HW112095   2.972   2.031   6.054
 3732SOL    HW212096   2.932   1.939   6.183
 3733SOL     OW12097   1.398   3.381   2.077
 3733SOL    HW112098   1.385   3.381   1.978
 3733SOL    HW212099   1.494   3.402   2.099
 3734SOL     OW12100   4.942   1.060   2.195
 3734SOL    HW112101   5.000   1.141   2.183
 3734SOL    HW212102   4.949   1.028   2.290
 3735SOL     OW12103   2.515   0.937   3.343
 3735SOL    HW112104   2.550   1.030   3.359
 3735SOL    HW212105   2.538   0.908   3.250
 3736SOL     OW12106   6.929   2.428   0.540
 3736SOL    HW112107   6.859   2.479   0.491
 3736SOL    HW212108   6.960   2.351   0.485
 3737SOL     OW12109   4.497   0.110   3.321
 3737SOL    HW112110   4.495   0.085   3.418
 3737SOL    HW212111   4.447   0.195   3.307
 3738SOL     OW12112   0.372   6.090   1.793
 3738SOL    HW112113   0.286   6.139   1.780
 3738SOL    HW212114   0.449   6.150   1.770
 3739SOL     OW12115   2.568   4.591   1.400
 3739SOL    HW112116   2.641   4.645   1.442
 3739SOL    HW212117   2.509   4.553   1.471
 3740SOL     OW12118   5.859   0.847   0.516
 3740SOL    HW112119   5.923   0.795   0.573
 3740SOL    HW212120   5.882   0.944   0.519
 3741SOL     OW12121   5.562   3.083   1.611
 3741SOL    HW112122   5.619   3.009   1.645
 3741SOL    HW212123   5.602   3.171   1.637
 3742SOL     OW12124   2.468   2.288   6.697
 3742SOL    HW112125   2.427   2.207   6.654
 3742SOL    HW212126   2.455   2.284   6.796
 3743SOL     OW12127   5.236   2.778   1.049
 3743SOL    HW112128   5.190   2.717   1.114
 3743SOL    HW212129   5.168   2.817   0.987
 3744SOL     OW12130   0.818   5.936   2.956
 3744SOL    HW112131   0.805   5.886   3.042
 3744SOL    HW212132   0.728   5.956   2.916
 3745SOL     OW12133   3.654   4.959   1.851
 3745SOL    HW112134   3.603   4.888   1.899
 3745SOL    HW212135   3.635   4.954   1.753
 3746SOL     OW12136   5.694   1.019   2.861
 3746SOL    HW112137   5.792   1.025   2.878
 3746SOL    HW212138   5.647   1.090   2.913
 3747SOL     OW12139   2.747   6.984   5.508
 3747SOL    HW112140   2.812   6.910   5.494
 3747SOL    HW212141   2.660   6.961   5.463
 3748SOL     OW12142   6.042   0.420   1.500
 3748SOL    HW112143   5.953   0.464   1.487
 3748SOL    HW212144   6.091   0.466   1.574
 3749SOL     OW12145   1.644   5.939   4.180
 3749SOL    HW112146   1.644   5.841   4.197
 3749SOL    HW212147   1.550   5.974   4.186
 3750SOL     OW12148   1.576   4.156   0.440
 3750SOL    HW112149   1.618   4.088   0.500
 3750SOL    HW212150   1.483   4.128   0.418
 3751SOL     OW12151   6.709   3.768   1.900
 3751SOL    HW112152   6.651   3.695   1.937
 3751SOL    HW212153   6.779   3.791   1.968
 3752SOL     OW12154   5.413   0.755   6.648
 3752SOL    HW112155   5.364   0.813   6.714
 3752SOL    HW212156   5.352   0.734   6.571
 3753SOL     OW12157   6.764   0.530   5.971
 3753SOL    HW112158   6.768   0.550   6.069
 3753SOL    HW212159   6.698   0.590   5.927
 3754SOL     OW12160   1.748   0.388   1.422
 3754SOL    HW112161   1.712   0.432   1.504
 3754SOL    HW212162   1.761   0.291   1.439
 3755SOL     OW12163   4.618   5.280   5.081
 3755SOL    HW112164   4.530   5.234   5.097
 3755SOL    HW212165   4.686   5.246   5.146
 3756SOL     OW12166   3.191   5.212   6.277
 3756SOL    HW112167   3.237   5.291   6.318
 3756SOL    HW212168   3.126   5.174   6.343
 3757SOL     OW12169   6.357   4.979   1.849
 3757SOL    HW112170   6.406   4.926   1.918
 3757SOL    HW212171   6.276   4.928   1.819
 3758SOL     OW12172   2.297   1.307   4.888
 3758SOL    HW112173   2.338   1.266   4.970
 3758SOL    HW212174   2.369   1.350   4.833
 3759SOL     OW12175   4.033   0.414   6.026
 3759SOL    HW112176   4.090   0.336   6.055
 3759SOL    HW212177   4.040   0.487   6.094
 3760SOL     OW12178   1.237   1.676   4.107
 3760SOL    HW112179   1.156   1.729   4.131
 3760SOL    HW212180   1.211   1.600   4.048
 3761SOL     OW12181   6.666   1.314   5.426
 3761SOL    HW112182   6.632   1.244   5.363
 3761SOL    HW212183   6.681   1.399   5.376
 3762SOL     OW12184   1.658   4.640   1.002
 3762SOL    HW112185   1.621   4.722   0.960
 3762SOL    HW212186   1.754   4.629   0.976
 3763SOL     OW12187   0.426   3.576   6.968
 3763SOL    HW112188   0.371   3.621   0.015
 3763SOL    HW212189   0.429   3.634   6.886
 3764SOL     OW12190   1.150   6.859   2.467
 3764SOL    HW112191   1.087   6.913   2.523
 3764SOL    HW212192   1.102   6.778   2.433
 3765SOL     OW12193   5.749   1.525   1.065
 3765SOL    HW112194   5.762   1.620   1.094
 3765SOL    HW212195   5.744   1.522   0.965
 3766SOL     OW12196   2.094   2.122   4.368
 3766SOL    HW112197   2.178   2.106   4.316
 3766SOL    HW212198   2.113   2.108   4.466
 3767SOL     OW12199   3.167   4.296   6.787
 3767SOL    HW112200   3.246   4.337   6.833
 3767SOL    HW212201   3.198   4.232   6.717
 3768SOL     OW12202   0.694   6.974   4.744
 3768SOL    HW112203   0.676   6.943   4.651
 3768SOL    HW212204   0.763   0.024   4.741
 3769SOL     OW12205   6.172   5.181   4.925
 3769SOL    HW112206   6.119   5.220   5.000
 3769SOL    HW212207   6.248   5.243   4.903
 3770SOL     OW12208   0.844   0.444   0.045
 3770SOL    HW112209   0.780   0.463   0.119
 3770SOL    HW212210   0.797   0.455   6.981
 3771SOL     OW12211   5.135   4.248   0.276
 3771SOL    HW112212   5.053   4.303   0.266
 3771SOL    HW212213   5.216   4.306   0.270
 3772SOL     OW12214   0.202   0.476   0.204
 3772SOL    HW112215   0.191   0.424   0.119
 3772SOL    HW212216   0.123   0.461   0.263
 3773SOL     OW12217   5.951   3.984   5.275
 3773SOL    HW112218   6.002   3.944   5.199
 3773SOL    HW212219   5.854   3.988   5.252
 3774SOL     OW12220   5.805   5.644   1.516
 3774SOL    HW112221   5.754   5.594   1.585
 3774SOL    HW212222   5.748   5.658   1.435
 3775SOL     OW12223   4.803   5.455   2.674
 3775SOL    HW112224   4.848   5.492   2.592
 3775SOL    HW212225   4.835   5.362   2.691
 3776SOL     OW12226   3.874   2.472   6.554
 3776SOL    HW112227   3.855   2.383   6.513
 3776SOL    HW212228   3.972   2.482   6.568
 3777SOL     OW12229   3.164   4.907   3.441
 3777SOL    HW112230   3.217   4.987   3.469
 3777SOL    HW212231   3.183   4.885   3.345
 3778SOL     OW12232   2.631   5.105   2.931
 3778SOL    HW112233   2.676   5.055   2.857
 3778SOL    HW212234   2.586   5.041   2.992
 3779SOL     OW12235   0.613   4.605   1.031
 3779SOL    HW112236   0.710   4.606   1.055
 3779SOL    HW212237   0.566   4.680   1.079
 3780SOL     OW12238   6.209   4.313   4.556
 3780SOL    HW112239   6.276   4.366   4.504
 3780SOL    HW212240   6.132   4.371   4.580
 3781SOL     OW12241   0.125   6.646   3.510
 3781SOL    HW112242   0.100   6.551   3.491
 3781SOL    HW212243   0.129   6.661   3.609
 3782SOL     OW12244   2.385   0.572   2.944
 3782SOL    HW112245   2.483   0.585   2.926
 3782SOL    HW212246   2.333   0.633   2.884
 3783SOL     OW12247   6.009   5.255   4.372
 3783SOL    HW112248   5.914   5.262   4.401
 3783SOL    HW212249   6.014   5.204   4.286
 3784SOL     OW12250   5.180   2.927   2.860
 3784SOL    HW112251   5.192   2.846   2.917
 3784SOL    HW212252   5.089   2.927   2.819
 3785SOL     OW12253   1.406   3.542   5.047
 3785SOL    HW112254   1.505   3.534   5.049
 3785SOL    HW212255   1.375   3.591   5.129
 3786SOL     OW12256   2.316   4.116   2.971
 3786SOL    HW112257   2.310   4.203   3.019
 3786SOL    HW212258   2.406   4.107   2.929
 3787SOL     OW12259   5.609   0.925   2.222
 3787SOL    HW112260   5.540   0.994   2.244
 3787SOL    HW212261   5.597   0.845   2.281
 3788SOL     OW12262   0.060   4.357   5.075
 3788SOL    HW112263   0.159   4.351   5.090
 3788SOL    HW212264   0.024   4.437   5.122
 3789SOL     OW12265   0.187   3.869   4.121
 3789SOL    HW112266   0.272   3.913   4.150
 3789SOL    HW212267   0.135   3.931   4.062
 3790SOL     OW12268   1.197   4.871   5.848
 3790SOL    HW112269   1.201   4.832   5.756
 3790SOL    HW212270   1.106   4.909   5.864
 3791SOL     OW12271   5.320   1.731   6.649
 3791SOL    HW112272   5.407   1.777   6.636
 3791SOL    HW212273   5.262   1.785   6.710
 3792SOL     OW12274   1.344   1.940   3.614
 3792SOL    HW112275   1.309   1.909   3.702
 3792SOL    HW212276   1.390   1.865   3.568
 3793SOL     OW12277   4.552   6.797   2.134
 3793SOL    HW112278   4.463   6.782   2.176
 3793SOL    HW212279   4.545   6.783   2.035
 3794SOL     OW12280   2.603   2.731   1.660
 3794SOL    HW112281   2.573   2.826   1.656
 3794SOL    HW212282   2.572   2.690   1.746
 3795SOL     OW12283   4.872   6.075   0.981
 3795SOL    HW112284   4.813   6.013   0.930
 3795SOL    HW212285   4.880   6.044   1.075
 3796SOL     OW12286   4.419   1.828   2.781
 3796SOL    HW112287   4.404   1.800   2.876
 3796SOL    HW212288   4.331   1.849   2.739
 3797SOL     OW12289   0.616   3.251   2.950
 3797SOL    HW112290   0.700   3.248   3.004
 3797SOL    HW212291   0.637   3.229   2.854
 3798SOL     OW12292   2.274   5.750   2.801
 3798SOL    HW112293   2.303   5.654   2.795
 3798SOL    HW212294   2.333   5.798   2.866
 3799SOL     OW12295   6.092   2.937   3.507
 3799SOL    HW112296   6.107   2.857   3.450
 3799SOL    HW212297   6.085   3.019   3.450
 3800SOL     OW12298   5.240   1.503   3.722
 3800SOL    HW112299   5.240   1.557   3.638
 3800SOL    HW212300   5.293   1.551   3.792
 3801SOL     OW12301   5.987   6.641   2.015
 3801SOL    HW112302   5.908   6.690   2.051
 3801SOL    HW212303   5.957   6.559   1.967
 3802SOL     OW12304   1.295   2.374   1.187
 3802SOL    HW112305   1.329   2.292   1.233
 3802SOL    HW212306   1.255   2.349   1.099
 3803SOL     OW12307   4.053   3.213   2.812
 3803SOL    HW112308   4.018   3.130   2.768
 3803SOL    HW212309   4.081   3.279   2.742
 3804SOL     OW12310   4.080   1.042   3.278
 3804SOL    HW112311   4.050   1.137   3.274
 3804SOL    HW212312   4.177   1.038   3.300
 3805SOL     OW12313   2.000   3.097   1.590
 3805SOL    HW112314   2.011   3.178   1.647
 3805SOL    HW212315   2.006   3.122   1.494
 3806SOL     OW12316   3.897   3.743   5.972
 3806SOL    HW112317   3.977   3.731   6.031
 3806SOL    HW212318   3.918   3.709   5.880
 3807SOL     OW12319   1.925   5.336   2.794
 3807SOL    HW112320   1.881   5.414   2.838
 3807SOL    HW212321   2.022   5.333   2.820
 3808SOL     OW12322   4.079   0.852   0.336
 3808SOL    HW112323   4.101   0.907   0.417
 3808SOL    HW212324   4.139   0.878   0.261
 3809SOL     OW12325   5.637   2.699   1.325
 3809SOL    HW112326   5.594   2.723   1.412
 3809SOL    HW212327   5.736   2.693   1.338
 3810SOL     OW12328   5.468   2.702   3.792
 3810SOL    HW112329   5.540   2.654   3.742
 3810SOL    HW212330   5.397   2.732   3.729
 3811SOL     OW12331   6.836   6.024   4.480
 3811SOL    HW112332   6.739   6.029   4.503
 3811SOL    HW212333   6.884   6.101   4.520
 3812SOL     OW12334   4.326   5.138   5.055
 3812SOL    HW112335   4.299   5.194   4.976
 3812SOL    HW212336   4.246   5.088   5.088
 3813SOL     OW12337   5.405   3.915   0.070
 3813SOL    HW112338   5.349   3.941   0.149
 3813SOL    HW212339   5.379   3.823   0.040
 3814SOL     OW12340   6.540   0.477   5.584
 3814SOL    HW112341   6.446   0.491   5.616
 3814SOL    HW212342   6.540   0.457   5.486
 3815SOL     OW12343   3.431   1.602   1.122
 3815SOL    HW112344   3.446   1.647   1.034
 3815SOL    HW212345   3.359   1.649   1.172
 3816SOL     OW12346   1.237   5.301   6.649
 3816SOL    HW112347   1.154   5.310   6.594
 3816SOL    HW212348   1.253   5.204   6.670
 3817SOL     OW12349   4.916   3.547   2.198
 3817SOL    HW112350   5.016   3.542   2.194
 3817SOL    HW212351   4.879   3.530   2.107
 3818SOL     OW12352   6.500   1.053   0.255
 3818SOL    HW112353   6.562   1.116   0.302
 3818SOL    HW212354   6.474   0.979   0.317
 3819SOL     OW12355   5.928   5.548   2.681
 3819SOL    HW112356   5.872   5.622   2.642
 3819SOL    HW212357   5.884   5.514   2.764
 3820SOL     OW12358   4.966   0.312   4.273
 3820SOL    HW112359   4.955   0.245   4.346
 3820SOL    HW212360   4.905   0.389   4.289
 3821SOL     OW12361   2.043   1.382   1.718
 3821SOL    HW112362   2.110   1.452   1.744
 3821SOL    HW212363   1.979   1.369   1.793
 3822SOL     OW12364   2.287   6.801   0.607
 3822SOL    HW112365   2.300   6.713   0.652
 3822SOL    HW212366   2.369   6.857   0.618
 3823SOL     OW12367   2.637   3.693   6.356
 3823SOL    HW112368   2.544   3.708   6.321
 3823SOL    HW212369   2.690   3.778   6.346
 3824SOL     OW12370   0.746   2.948   0.149
 3824SOL    HW112371   0.766   3.040   0.182
 3824SOL    HW212372   0.811   2.883   0.190
 3825SOL     OW12373   0.561   5.097   0.397
 3825SOL    HW112374   0.498   5.050   0.335
 3825SOL    HW212375   0.578   5.039   0.477
 3826SOL     OW12376   1.036   3.717   0.554
 3826SOL    HW112377   1.022   3.644   0.622
 3826SOL    HW212378   0.947   3.750   0.523
 3827SOL     OW12379   1.726   0.917   1.902
 3827SOL    HW112380   1.725   0.906   1.802
 3827SOL    HW212381   1.667   0.848   1.943
 3828SOL     OW12382   3.635   3.280   3.690
 3828SOL    HW112383   3.656   3.355   3.628
 3828SOL    HW212384   3.711   3.215   3.691
 3829SOL     OW12385   1.060   4.876   2.348
 3829SOL    HW112386   0.990   4.810   2.321
 3829SOL    HW212387   1.129   4.882   2.276
 3830SOL     OW12388   1.082   0.603   5.351
 3830SOL    HW112389   1.044   0.521   5.310
 3830SOL    HW212390   1.007   0.666   5.375
 3831SOL     OW12391   4.731   2.062   2.880
 3831SOL    HW112392   4.704   2.158   2.884
 3831SOL    HW212393   4.796   2.043   2.954
 3832SOL     OW12394   0.526   0.933   3.184
 3832SOL    HW112395   0.433   0.928   3.220
 3832SOL    HW212396   0.527   0.902   3.089
 3833SOL     OW12397   0.081   5.895   6.749
 3833SOL    HW112398   0.101   5.815   6.806
 3833SOL    HW212399   0.062   5.866   6.655
 3834SOL     OW12400   3.871   4.081   1.119
 3834SOL    HW112401   3.784   4.122   1.091
 3834SOL    HW212402   3.893   4.005   1.057
 3835SOL     OW12403   3.832   5.804   4.478
 3835SOL    HW112404   3.840   5.705   4.487
 3835SOL    HW212405   3.792   5.826   4.389
 3836SOL     OW12406   0.530   4.686   5.882
 3836SOL    HW112407   0.553   4.764   5.823
 3836SOL    HW212408   0.431   4.681   5.893
 3837SOL     OW12409   4.405   4.315   6.468
 3837SOL    HW112410   4.401   4.215   6.468
 3837SOL    HW212411   4.460   4.345   6.390
 3838SOL     OW12412   0.894   3.334   3.757
 3838SOL    HW112413   0.990   3.307   3.767
 3838SOL    HW212414   0.890   3.431   3.734
 3839SOL     OW12415   5.640   1.771   3.135
 3839SOL    HW112416   5.715   1.818   3.181
 3839SOL    HW212417   5.670   1.743   3.043
 3840SOL     OW12418   2.974   1.578   6.695
 3840SOL    HW112419   2.908   1.629   6.640
 3840SOL    HW212420   3.004   1.497   6.644
 3841SOL     OW12421   0.537   3.025   4.795
 3841SOL    HW112422   0.604   3.031   4.721
 3841SOL    HW212423   0.564   3.084   4.871
 3842SOL     OW12424   2.096   2.641   2.055
 3842SOL    HW112425   2.076   2.722   2.111
 3842SOL    HW212426   2.120   2.565   2.115
 3843SOL     OW12427   5.540   4.664   2.584
 3843SOL    HW112428   5.604   4.633   2.654
 3843SOL    HW212429   5.459   4.605   2.586
 3844SOL     OW12430   1.336   2.449   5.389
 3844SOL    HW112431   1.281   2.438   5.306
 3844SOL    HW212432   1.276   2.460   5.468
 3845SOL     OW12433   3.379   4.230   5.508
 3845SOL    HW112434   3.386   4.149   5.450
 3845SOL    HW212435   3.387   4.312   5.452
 3846SOL     OW12436   6.946   5.018   3.092
 3846SOL    HW112437   6.870   4.996   3.032
 3846SOL    HW212438   7.016   5.068   3.041
 3847SOL     OW12439   5.067   2.910   4.329
 3847SOL    HW112440   5.082   2.921   4.427
 3847SOL    HW212441   5.083   2.815   4.303
 3848SOL     OW12442   4.549   4.799   2.589
 3848SOL    HW112443   4.543   4.805   2.490
 3848SOL    HW212444   4.569   4.889   2.627
 3849SOL     OW12445   1.129   1.379   6.001
 3849SOL    HW112446   1.042   1.391   6.048
 3849SOL    HW212447   1.136   1.445   5.926
 3850SOL     OW12448   2.429   3.534   1.616
 3850SOL    HW112449   2.404   3.511   1.710
 3850SOL    HW212450   2.488   3.615   1.616
 3851SOL     OW12451   0.983   4.332   2.375
 3851SOL    HW112452   1.017   4.279   2.452
 3851SOL    HW212453   0.891   4.366   2.396
 3852SOL     OW12454   4.205   6.219   4.127
 3852SOL    HW112455   4.281   6.282   4.146
 3852SOL    HW212456   4.153   6.204   4.211
 3853SOL     OW12457   0.612   4.221   3.796
 3853SOL    HW112458   0.674   4.253   3.867
 3853SOL    HW212459   0.664   4.193   3.715
 3854SOL     OW12460   1.662   2.008   2.892
 3854SOL    HW112461   1.705   1.981   2.806
 3854SOL    HW212462   1.703   1.957   2.967
 3855SOL     OW12463   5.297   6.363   6.298
 3855SOL    HW112464   5.306   6.294   6.370
 3855SOL    HW212465   5.205   6.358   6.260
 3856SOL     OW12466   6.687   0.363   6.369
 3856SOL    HW112467   6.769   0.317   6.403
 3856SOL    HW212468   6.636   0.300   6.310
 3857SOL     OW12469   0.498   6.259   0.057
 3857SOL    HW112470   0.574   6.322   0.039
 3857SOL    HW212471   0.500   6.230   0.152
 3858SOL     OW12472   2.488   0.901   5.752
 3858SOL    HW112473   2.463   0.976   5.691
 3858SOL    HW212474   2.562   0.930   5.812
 3859SOL     OW12475   5.356   1.026   2.291
 3859SOL    HW112476   5.269   0.979   2.282
 3859SOL    HW212477   5.341   1.122   2.312
 3860SOL     OW12478   2.324   1.147   5.096
 3860SOL    HW112479   2.270   1.077   5.049
 3860SOL    HW212480   2.396   1.103   5.151
 3861SOL     OW12481   4.355   5.273   3.017
 3861SOL    HW112482   4.315   5.364   3.023
 3861SOL    HW212483   4.450   5.277   3.048
 3862SOL     OW12484   0.703   0.492   5.267
 3862SOL    HW112485   0.634   0.501   5.196
 3862SOL    HW212486   0.748   0.580   5.282
 3863SOL     OW12487   5.771   2.863   6.677
 3863SOL    HW112488   5.800   2.936   6.615
 3863SOL    HW212489   5.799   2.886   6.770
 3864SOL     OW12490   2.558   0.843   5.373
 3864SOL    HW112491   2.521   0.823   5.464
 3864SOL    HW212492   2.546   0.940   5.353
 3865SOL     OW12493   3.468   0.794   0.539
 3865SOL    HW112494   3.438   0.877   0.492
 3865SOL    HW212495   3.470   0.718   0.474
 3866SOL     OW12496   3.168   0.289   1.257
 3866SOL    HW112497   3.150   0.255   1.350
 3866SOL    HW212498   3.232   0.227   1.211
 3867SOL     OW12499   0.510   5.069   3.617
 3867SOL    HW112500   0.437   5.064   3.549
 3867SOL    HW212501   0.522   5.163   3.647
 3868SOL     OW12502   2.841   6.943   0.247
 3868SOL    HW112503   2.743   6.960   0.258
 3868SOL    HW212504   2.857   6.845   0.235
 3869SOL     OW12505   5.936   4.166   4.779
 3869SOL    HW112506   5.938   4.127   4.687
 3869SOL    HW212507   5.996   4.113   4.839
 3870SOL     OW12508   5.731   5.855   0.291
 3870SOL    HW112509   5.749   5.945   0.250
 3870SOL    HW212510   5.783   5.845   0.375
 3871SOL     OW12511   3.256   0.146   2.732
 3871SOL    HW112512   3.330   0.079   2.737
 3871SOL    HW212513   3.168   0.100   2.742
 3872SOL     OW12514   3.863   2.987   4.130
 3872SOL    HW112515   3.779   2.975   4.183
 3872SOL    HW212516   3.929   3.037   4.185
 3873SOL     OW12517   6.359   2.792   1.018
 3873SOL    HW112518   6.326   2.807   0.925
 3873SOL    HW212519   6.429   2.859   1.040
 3874SOL     OW12520   4.095   6.115   6.847
 3874SOL    HW112521   4.068   6.179   6.775
 3874SOL    HW212522   4.069   6.153   6.936
 3875SOL     OW12523   2.017   3.267   2.372
 3875SOL    HW112524   2.094   3.226   2.421
 3875SOL    HW212525   2.031   3.257   2.273
 3876SOL     OW12526   3.871   5.492   1.270
 3876SOL    HW112527   3.859   5.583   1.231
 3876SOL    HW212528   3.834   5.424   1.207
 3877SOL     OW12529   5.716   2.995   0.688
 3877SOL    HW112530   5.685   2.911   0.644
 3877SOL    HW212531   5.801   2.976   0.738
 3878SOL     OW12532   3.435   0.005   4.499
 3878SOL    HW112533   3.469   0.006   4.405
 3878SOL    HW212534   3.404   6.936   4.522
 3879SOL     OW12535   5.311   5.304   1.145
 3879SOL    HW112536   5.393   5.247   1.138
 3879SOL    HW212537   5.310   5.370   1.070
 3880SOL     OW12538   5.567   4.851   4.410
 3880SOL    HW112539   5.654   4.900   4.405
 3880SOL    HW212540   5.541   4.841   4.506
 3881SOL     OW12541   1.434   3.446   1.790
 3881SOL    HW112542   1.465   3.541   1.800
 3881SOL    HW212543   1.371   3.440   1.713
 3882SOL     OW12544   1.416   0.980   5.766
 3882SOL    HW112545   1.477   0.947   5.837
 3882SOL    HW212546   1.377   1.068   5.793
 3883SOL     OW12547   3.789   0.710   3.121
 3883SOL    HW112548   3.844   0.740   3.042
 3883SOL    HW212549   3.850   0.689   3.198
 3884SOL     OW12550   0.353   5.317   3.508
 3884SOL    HW112551   0.293   5.358   3.439
 3884SOL    HW212552   0.393   5.233   3.471
 3885SOL     OW12553   6.528   0.246   2.845
 3885SOL    HW112554   6.585   0.172   2.809
 3885SOL    HW212555   6.443   0.208   2.881
 3886SOL     OW12556   6.059   6.309   5.059
 3886SOL    HW112557   6.034   6.282   4.966
 3886SOL    HW212558   6.139   6.369   5.056
 3887SOL     OW12559   0.082   0.766   6.160
 3887SOL    HW112560   0.157   0.708   6.128
 3887SOL    HW212561   0.062   0.836   6.091
 3888SOL     OW12562   6.818   0.612   5.574
 3888SOL    HW112563   6.746   0.562   5.527
 3888SOL    HW212564   6.886   0.644   5.508
 3889SOL     OW12565   0.250   3.614   6.101
 3889SOL    HW112566   0.290   3.625   6.192
 3889SOL    HW212567   0.206   3.700   6.073
 3890SOL     OW12568   5.525   5.367   2.708
 3890SOL    HW112569   5.606   5.353   2.765
 3890SOL    HW212570   5.447   5.318   2.747
 3891SOL     OW12571   5.406   4.691   4.886
 3891SOL    HW112572   5.365   4.630   4.819
 3891SOL    HW212573   5.467   4.639   4.946
 3892SOL     OW12574   0.531   1.986   1.314
 3892SOL    HW112575   0.602   1.987   1.385
 3892SOL    HW212576   0.552   2.055   1.245
 3893SOL     OW12577   4.327   3.763   1.335
 3893SOL    HW112578   4.368   3.672   1.331
 3893SOL    HW212579   4.369   3.815   1.409
 3894SOL     OW12580   3.337   2.089   1.289
 3894SOL    HW112581   3.250   2.112   1.332
 3894SOL    HW212582   3.409   2.084   1.359
 3895SOL     OW12583   1.685   0.774   5.809
 3895SOL    HW112584   1.705   0.861   5.852
 3895SOL    HW212585   1.657   0.707   5.878
 3896SOL     OW12586   0.132   0.365   5.931
 3896SOL    HW112587   0.052   0.403   5.886
 3896SOL    HW212588   0.199   0.336   5.863
 3897SOL     OW12589   3.628   5.806   2.073
 3897SOL    HW112590   3.611   5.745   2.150
 3897SOL    HW212591   3.629   5.901   2.106
 3898SOL     OW12592   3.270   3.781   4.715
 3898SOL    HW112593   3.366   3.770   4.689
 3898SOL    HW212594   3.211   3.762   4.637
 3899SOL     OW12595   5.857   0.505   4.740
 3899SOL    HW112596   5.893   0.419   4.704
 3899SOL    HW212597   5.759   0.494   4.758
 3900SOL     OW12598   5.112   2.660   4.224
 3900SOL    HW112599   5.157   2.647   4.135
 3900SOL    HW212600   5.048   2.584   4.241
 3901SOL     OW12601   3.145   0.388   5.199
 3901SOL    HW112602   3.189   0.452   5.262
 3901SOL    HW212603   3.138   0.298   5.243
 3902SOL     OW12604   6.014   3.438   2.318
 3902SOL    HW112605   5.955   3.398   2.247
 3902SOL    HW212606   5.979   3.529   2.342
 3903SOL     OW12607   4.477   5.540   0.094
 3903SOL    HW112608   4.391   5.587   0.073
 3903SOL    HW212609   4.504   5.562   0.188
 3904SOL     OW12610   1.782   0.220   4.720
 3904SOL    HW112611   1.696   0.232   4.769
 3904SOL    HW212612   1.825   0.310   4.707
 3905SOL     OW12613   6.712   0.005   5.663
 3905SOL    HW112614   6.773   0.067   5.614
 3905SOL    HW212615   6.737   0.002   5.759
 3906SOL     OW12616   3.908   5.267   4.941
 3906SOL    HW112617   3.947   5.249   4.851
 3906SOL    HW212618   3.843   5.195   4.964
 3907SOL     OW12619   6.807   6.505   5.512
 3907SOL    HW112620   6.766   6.595   5.521
 3907SOL    HW212621   6.897   6.505   5.557
 3908SOL     OW12622   0.974   0.958   0.410
 3908SOL    HW112623   1.031   0.896   0.465
 3908SOL    HW212624   0.986   1.052   0.442
 3909SOL     OW12625   0.198   5.746   5.365
 3909SOL    HW112626   0.129   5.756   5.293
 3909SOL    HW212627   0.158   5.770   5.454
 3910SOL     OW12628   3.736   3.844   1.991
 3910SOL    HW112629   3.660   3.811   2.047
 3910SOL    HW212630   3.739   3.944   1.994
 3911SOL     OW12631   4.210   1.225   0.098
 3911SOL    HW112632   4.154   1.157   0.051
 3911SOL    HW212633   4.164   1.314   0.096
 3912SOL     OW12634   2.953   0.814   6.519
 3912SOL    HW112635   2.949   0.802   6.618
 3912SOL    HW212636   2.860   0.810   6.481
 3913SOL     OW12637   2.062   6.045   6.498
 3913SOL    HW112638   2.089   6.122   6.439
 3913SOL    HW212639   2.138   6.019   6.557
 3914SOL     OW12640   3.917   1.236   1.078
 3914SOL    HW112641   3.859   1.316   1.064
 3914SOL    HW212642   3.913   1.208   1.174
 3915SOL     OW12643   3.800   6.357   1.831
 3915SOL    HW112644   3.884   6.313   1.800
 3915SOL    HW212645   3.788   6.444   1.782
 3916SOL     OW12646   1.528   6.213   2.850
 3916SOL    HW112647   1.551   6.254   2.938
 3916SOL    HW212648   1.509   6.285   2.783
 3917SOL     OW12649   1.668   4.736   6.953
 3917SOL    HW112650   1.625   4.698   0.011
 3917SOL    HW212651   1.682   4.664   6.885
 3918SOL     OW12652   5.425   6.741   2.485
 3918SOL    HW112653   5.398   6.830   2.521
 3918SOL    HW212654   5.385   6.669   2.542
 3919SOL     OW12655   3.039   6.161   6.545
 3919SOL    HW112656   3.088   6.083   6.584
 3919SOL    HW212657   3.036   6.152   6.446
 3920SOL     OW12658   3.226   2.399   6.491
 3920SOL    HW112659   3.283   2.333   6.442
 3920SOL    HW212660   3.179   2.353   6.566
 3921SOL     OW12661   6.850   3.143   0.776
 3921SOL    HW112662   6.861   3.232   0.730
 3921SOL    HW212663   6.932   3.088   0.760
 3922SOL     OW12664   5.640   4.489   1.180
 3922SOL    HW112665   5.590   4.403   1.187
 3922SOL    HW212666   5.575   4.566   1.183
 3923SOL     OW12667   6.868   1.961   0.556
 3923SOL    HW112668   6.873   1.863   0.574
 3923SOL    HW212669   6.781   1.997   0.592
 3924SOL     OW12670   0.231   5.535   3.016
 3924SOL    HW112671   0.289   5.602   2.968
 3924SOL    HW212672   0.135   5.556   3.000
 3925SOL     OW12673   3.587   3.980   0.747
 3925SOL    HW112674   3.667   3.956   0.801
 3925SOL    HW212675   3.505   3.975   0.804
 3926SOL     OW12676   6.454   5.888   2.719
 3926SOL    HW112677   6.503   5.929   2.643
 3926SOL    HW212678   6.387   5.822   2.684
 3927SOL     OW12679   0.291   3.545   3.697
 3927SOL    HW112680   0.220   3.555   3.628
 3927SOL    HW212681   0.356   3.621   3.690
 3928SOL     OW12682   3.273   5.321   5.086
 3928SOL    HW112683   3.318   5.236   5.114
 3928SOL    HW212684   3.266   5.382   5.165
 3929SOL     OW12685   0.397   2.177   6.592
 3929SOL    HW112686   0.435   2.232   6.666
 3929SOL    HW212687   0.403   2.080   6.616
 3930SOL     OW12688   2.019   1.768   3.873
 3930SOL    HW112689   2.088   1.836   3.850
 3930SOL    HW212690   1.928   1.805   3.856
 3931SOL     OW12691   2.220   1.567   2.679
 3931SOL    HW112692   2.147   1.617   2.632
 3931SOL    HW212693   2.265   1.628   2.744
 3932SOL     OW12694   1.547   4.281   3.071
 3932SOL    HW112695   1.562   4.186   3.098
 3932SOL    HW212696   1.464   4.287   3.016
 3933SOL     OW12697   2.572   6.798   6.588
 3933SOL    HW112698   2.506   6.808   6.663
 3933SOL    HW212699   2.664   6.821   6.622
 3934SOL     OW12700   0.467   1.061   1.208
 3934SOL    HW112701   0.465   0.990   1.278
 3934SOL    HW212702   0.501   1.023   1.123
 3935SOL     OW12703   1.973   0.257   5.447
 3935SOL    HW112704   1.878   0.270   5.419
 3935SOL    HW212705   1.997   0.325   5.517
 3936SOL     OW12706   0.251   5.574   5.688
 3936SOL    HW112707   0.247   5.502   5.619
 3936SOL    HW212708   0.330   5.632   5.672
 3937SOL     OW12709   0.508   0.527   2.420
 3937SOL    HW112710   0.410   0.544   2.429
 3937SOL    HW212711   0.555   0.614   2.399
 3938SOL     OW12712   6.724   2.472   4.075
 3938SOL    HW112713   6.788   2.412   4.026
 3938SOL    HW212714   6.636   2.427   4.083
 3939SOL     OW12715   3.145   1.560   2.555
 3939SOL    HW112716   3.062   1.541   2.607
 3939SOL    HW212717   3.122   1.573   2.458
 3940SOL     OW12718   4.013   4.833   2.206
 3940SOL    HW112719   4.041   4.752   2.155
 3940SOL    HW212720   3.914   4.831   2.221
 3941SOL     OW12721   5.458   1.312   6.174
 3941SOL    HW112722   5.441   1.224   6.129
 3941SOL    HW212723   5.408   1.384   6.127
 3942SOL     OW12724   0.652   6.720   5.598
 3942SOL    HW112725   0.734   6.727   5.654
 3942SOL    HW212726   0.664   6.772   5.514
 3943SOL     OW12727   1.021   3.758   2.604
 3943SOL    HW112728   0.974   3.690   2.660
 3943SOL    HW212729   1.116   3.729   2.588
 3944SOL     OW12730   5.952   4.219   5.525
 3944SOL    HW112731   6.034   4.199   5.579
 3944SOL    HW212732   5.927   4.138   5.472
 3945SOL     OW12733   0.999   2.461   2.256
 3945SOL    HW112734   1.038   2.381   2.210
 3945SOL    HW212735   0.899   2.455   2.253
 3946SOL     OW12736   6.515   4.457   6.141
 3946SOL    HW112737   6.430   4.507   6.125
 3946SOL    HW212738   6.504   4.396   6.220
 3947SOL     OW12739   5.830   5.349   1.694
 3947SOL    HW112740   5.744   5.298   1.683
 3947SOL    HW212741   5.906   5.292   1.663
 3948SOL     OW12742   0.995   4.839   1.090
 3948SOL    HW112743   1.007   4.938   1.086
 3948SOL    HW212744   1.073   4.798   1.137
 3949SOL     OW12745   5.665   0.776   2.969
 3949SOL    HW112746   5.664   0.870   2.935
 3949SOL    HW212747   5.592   0.724   2.926
 3950SOL     OW12748   3.319   3.820   1.672
 3950SOL    HW112749   3.326   3.911   1.713
 3950SOL    HW212750   3.408   3.774   1.678
 3951SOL     OW12751   0.130   6.660   0.047
 3951SOL    HW112752   0.100   6.750   0.015
 3951SOL    HW212753   0.093   6.643   0.138
 3952SOL     OW12754   6.927   3.967   4.290
 3952SOL    HW112755   6.891   3.916   4.368
 3952SOL    HW212756   7.011   3.924   4.257
 3953SOL     OW12757   3.124   4.318   0.558
 3953SOL    HW112758   3.057   4.260   0.604
 3953SOL    HW212759   3.203   4.331   0.617
 3954SOL     OW12760   5.992   5.519   5.838
 3954SOL    HW112761   6.048   5.442   5.809
 3954SOL    HW212762   5.949   5.561   5.758
 3955SOL     OW12763   3.965   6.485   0.114
 3955SOL    HW112764   3.866   6.487   0.097
 3955SOL    HW212765   3.982   6.492   0.212
 3956SOL     OW12766   0.678   2.506   3.479
 3956SOL    HW112767   0.762   2.550   3.447
 3956SOL    HW212768   0.700   2.434   3.544
 3957SOL     OW12769   5.009   6.794   3.143
 3957SOL    HW112770   5.007   6.883   3.187
 3957SOL    HW212771   4.919   6.751   3.150
 3958SOL     OW12772   5.689   0.177   6.219
 3958SOL    HW112773   5.765   0.179   6.153
 3958SOL    HW212774   5.645   0.087   6.215
 3959SOL     OW12775   3.535   6.546   0.897
 3959SOL    HW112776   3.487   6.494   0.827
 3959SOL    HW212777   3.468   6.590   0.958
 3960SOL     OW12778   5.154   1.928   6.443
 3960SOL    HW112779   5.144   2.023   6.414
 3960SOL    HW212780   5.251   1.905   6.451
 3961SOL     OW12781   5.535   2.747   2.123
 3961SOL    HW112782   5.623   2.760   2.076
 3961SOL    HW212783   5.540   2.791   2.213
 3962SOL     OW12784   1.672   5.110   6.643
 3962SOL    HW112785   1.648   5.023   6.601
 3962SOL    HW212786   1.770   5.115   6.657
 3963SOL     OW12787   4.538   4.649   3.978
 3963SOL    HW112788   4.457   4.635   3.920
 3963SOL    HW212789   4.565   4.562   4.019
 3964SOL     OW12790   4.781   4.785   3.996
 3964SOL    HW112791   4.692   4.742   3.980
 3964SOL    HW212792   4.852   4.714   3.997
 3965SOL     OW12793   3.820   3.131   5.929
 3965SOL    HW112794   3.756   3.183   5.986
 3965SOL    HW212795   3.788   3.131   5.835
 3966SOL     OW12796   6.340   5.528   0.378
 3966SOL    HW112797   6.310   5.439   0.415
 3966SOL    HW212798   6.325   5.599   0.447
 3967SOL     OW12799   1.619   4.092   2.699
 3967SOL    HW112800   1.669   4.177   2.711
 3967SOL    HW212801   1.681   4.021   2.667
 3968SOL     OW12802   6.739   0.166   1.414
 3968SOL    HW112803   6.663   0.231   1.412
 3968SOL    HW212804   6.740   0.114   1.329
 3969SOL     OW12805   1.279   3.799   2.344
 3969SOL    HW112806   1.206   3.837   2.287
 3969SOL    HW212807   1.245   3.786   2.438
 3970SOL     OW12808   4.816   5.294   4.010
 3970SOL    HW112809   4.900   5.277   3.959
 3970SOL    HW212810   4.761   5.211   4.014
 3971SOL     OW12811   2.588   4.957   2.171
 3971SOL    HW112812   2.631   4.868   2.185
 3971SOL    HW212813   2.525   4.952   2.093
 3972SOL     OW12814   1.459   5.388   1.009
 3972SOL    HW112815   1.457   5.461   1.077
 3972SOL    HW212816   1.366   5.369   0.977
 3973SOL     OW12817   2.145   4.317   5.414
 3973SOL    HW112818   2.078   4.325   5.340
 3973SOL    HW212819   2.211   4.245   5.392
 3974SOL     OW12820   1.122   6.982   5.135
 3974SOL    HW112821   1.215   7.003   5.165
 3974SOL    HW212822   1.092   0.027   5.068
 3975SOL     OW12823   5.217   0.204   6.197
 3975SOL    HW112824   5.191   0.247   6.284
 3975SOL    HW212825   5.313   0.226   6.177
 3976SOL     OW12826   1.548   5.234   1.691
 3976SOL    HW112827   1.574   5.328   1.713
 3976SOL    HW212828   1.459   5.233   1.646
 3977SOL     OW12829   3.072   4.634   5.388
 3977SOL    HW112830   3.028   4.604   5.304
 3977SOL    HW212831   3.075   4.559   5.453
 3978SOL     OW12832   5.306   0.154   4.741
 3978SOL    HW112833   5.377   0.173   4.674
 3978SOL    HW212834   5.318   0.061   4.777
 3979SOL     OW12835   2.818   6.038   1.876
 3979SOL    HW112836   2.759   5.994   1.944
 3979SOL    HW212837   2.875   5.968   1.832
 3980SOL     OW12838   0.551   5.018   6.877
 3980SOL    HW112839   0.595   4.973   6.954
 3980SOL    HW212840   0.620   5.044   6.809
 3981SOL     OW12841   1.731   1.376   6.181
 3981SOL    HW112842   1.654   1.347   6.124
 3981SOL    HW212843   1.812   1.388   6.124
 3982SOL     OW12844   2.128   0.799   4.171
 3982SOL    HW112845   2.215   0.788   4.218
 3982SOL    HW212846   2.140   0.855   4.089
 3983SOL     OW12847   4.214   5.201   4.052
 3983SOL    HW112848   4.282   5.254   4.000
 3983SOL    HW212849   4.261   5.145   4.120
 3984SOL     OW12850   1.234   0.710   3.050
 3984SOL    HW112851   1.318   0.746   3.008
 3984SOL    HW212852   1.258   0.654   3.129
 3985SOL     OW12853   3.984   4.771   6.349
 3985SOL    HW112854   4.049   4.705   6.386
 3985SOL    HW212855   4.022   4.813   6.266
 3986SOL     OW12856   6.876   2.205   2.624
 3986SOL    HW112857   6.856   2.299   2.595
 3986SOL    HW212858   6.878   2.201   2.723
 3987SOL     OW12859   3.078   5.592   4.336
 3987SOL    HW112860   3.132   5.520   4.380
 3987SOL    HW212861   2.981   5.569   4.344
 3988SOL     OW12862   3.887   3.283   7.006
 3988SOL    HW112863   3.889   3.377   6.972
 3988SOL    HW212864   3.885   3.219   6.929
 3989SOL     OW12865   6.723   1.523   0.154
 3989SOL    HW112866   6.771   1.436   0.168
 3989SOL    HW212867   6.790   1.597   0.150
 3990SOL     OW12868   5.501   2.237   2.947
 3990SOL    HW112869   5.479   2.279   2.858
 3990SOL    HW212870   5.583   2.279   2.985
 3991SOL     OW12871   5.799   1.255   2.041
 3991SOL    HW112872   5.829   1.163   2.066
 3991SOL    HW212873   5.875   1.319   2.053
 3992SOL     OW12874   3.996   2.185   6.825
 3992SOL    HW112875   3.951   2.154   6.741
 3992SOL    HW212876   4.088   2.218   6.804
 3993SOL     OW12877   0.305   2.556   2.944
 3993SOL    HW112878   0.388   2.517   2.904
 3993SOL    HW212879   0.271   2.496   3.016
 3994SOL     OW12880   1.149   1.888   6.699
 3994SOL    HW112881   1.207   1.833   6.639
 3994SOL    HW212882   1.206   1.936   6.766
 3995SOL     OW12883   1.831   3.811   3.887
 3995SOL    HW112884   1.759   3.860   3.936
 3995SOL    HW212885   1.800   3.718   3.866
 3996SOL     OW12886   0.593   1.145   4.954
 3996SOL    HW112887   0.579   1.069   4.890
 3996SOL    HW212888   0.670   1.125   5.014
 3997SOL     OW12889   4.695   2.483   3.220
 3997SOL    HW112890   4.699   2.517   3.314
 3997SOL    HW212891   4.660   2.554   3.160
 3998SOL     OW12892   4.209   1.093   2.452
 3998SOL    HW112893   4.242   1.162   2.387
 3998SOL    HW212894   4.128   1.128   2.499
 3999SOL     OW12895   5.380   3.223   3.928
 3999SOL    HW112896   5.395   3.203   4.025
 3999SOL    HW212897   5.466   3.252   3.887
 4000SOL     OW12898   2.869   4.880   3.113
 4000SOL    HW112899   2.772   4.906   3.104
 4000SOL    HW212900   2.890   4.862   3.209
 4001SOL     OW12901   2.258   2.167   4.104
 4001SOL    HW112902   2.212   2.121   4.028
 4001SOL    HW212903   2.291   2.099   4.169
 4002SOL     OW12904   2.901   2.571   0.340
 4002SOL    HW112905   2.944   2.580   0.250
 4002SOL    HW212906   2.836   2.647   0.353
 4003SOL     OW12907   2.684   6.464   5.173
 4003SOL    HW112908   2.619   6.466   5.249
 4003SOL    HW212909   2.740   6.382   5.179
 4004SOL     OW12910   5.993   1.767   3.970
 4004SOL    HW112911   5.958   1.803   4.056
 4004SOL    HW212912   5.938   1.801   3.894
 4005SOL     OW12913   5.521   5.397   0.729
 4005SOL    HW112914   5.589   5.470   0.734
 4005SOL    HW212915   5.568   5.308   0.726
 4006SOL     OW12916   3.849   5.136   2.237
 4006SOL    HW112917   3.941   5.123   2.272
 4006SOL    HW212918   3.783   5.100   2.303
 4007SOL     OW12919   0.856   3.281   1.319
 4007SOL    HW112920   0.858   3.259   1.221
 4007SOL    HW212921   0.805   3.211   1.368
 4008SOL     OW12922   3.914   2.104   4.221
 4008SOL    HW112923   3.826   2.115   4.267
 4008SOL    HW212924   3.900   2.096   4.123
 4009SOL     OW12925   5.049   3.083   0.142
 4009SOL    HW112926   5.021   3.165   0.094
 4009SOL    HW212927   5.041   3.004   0.081
 4010SOL     OW12928   2.611   3.323   1.230
 4010SOL    HW112929   2.660   3.257   1.287
 4010SOL    HW212930   2.546   3.375   1.286
 4011SOL     OW12931   0.393   0.860   1.427
 4011SOL    HW112932   0.337   0.805   1.365
 4011SOL    HW212933   0.461   0.802   1.471
 4012SOL     OW12934   4.376   5.072   2.149
 4012SOL    HW112935   4.352   5.008   2.223
 4012SOL    HW212936   4.471   5.100   2.159
 4013SOL     OW12937   2.772   0.181   0.566
 4013SOL    HW112938   2.758   0.253   0.498
 4013SOL    HW212939   2.830   0.216   0.639
 4014SOL     OW12940   4.054   5.774   3.211
 4014SOL    HW112941   3.967   5.799   3.253
 4014SOL    HW212942   4.124   5.841   3.236
 4015SOL     OW12943   4.401   5.777   6.480
 4015SOL    HW112944   4.381   5.839   6.555
 4015SOL    HW212945   4.500   5.771   6.467
 4016SOL     OW12946   1.915   5.810   6.249
 4016SOL    HW112947   1.927   5.749   6.327
 4016SOL    HW212948   1.817   5.822   6.230
 4017SOL     OW12949   0.133   6.617   0.328
 4017SOL    HW112950   0.201   6.583   0.393
 4017SOL    HW212951   0.055   6.555   0.324
 4018SOL     OW12952   5.718   6.729   2.490
 4018SOL    HW112953   5.619   6.726   2.500
 4018SOL    HW212954   5.755   6.805   2.543
 4019SOL     OW12955   5.885   3.418   3.228
 4019SOL    HW112956   5.924   3.326   3.225
 4019SOL    HW212957   5.939   3.475   3.290
 4020SOL     OW12958   5.771   2.463   5.134
 4020SOL    HW112959   5.737   2.556   5.125
 4020SOL    HW212960   5.714   2.401   5.081
 4021SOL     OW12961   2.844   3.465   5.544
 4021SOL    HW112962   2.748   3.490   5.530
 4021SOL    HW212963   2.848   3.373   5.584
 4022SOL     OW12964   4.719   0.588   0.161
 4022SOL    HW112965   4.624   0.558   0.151
 4022SOL    HW212966   4.754   0.618   0.073
 4023SOL     OW12967   6.339   1.846   5.249
 4023SOL    HW112968   6.409   1.810   5.187
 4023SOL    HW212969   6.249   1.815   5.220
 4024SOL     OW12970   3.020   5.226   4.126
 4024SOL    HW112971   2.970   5.261   4.205
 4024SOL    HW212972   2.978   5.141   4.094
 4025SOL     OW12973   0.744   6.449   4.558
 4025SOL    HW112974   0.775   6.373   4.614
 4025SOL    HW212975   0.699   6.518   4.615
 4026SOL     OW12976   6.316   5.940   3.998
 4026SOL    HW112977   6.261   5.860   4.023
 4026SOL    HW212978   6.318   5.949   3.899
 4027SOL     OW12979   3.369   4.015   2.290
 4027SOL    HW112980   3.287   4.038   2.237
 4027SOL    HW212981   3.341   3.976   2.378
 4028SOL     OW12982   1.748   2.283   4.122
 4028SOL    HW112983   1.649   2.275   4.131
 4028SOL    HW212984   1.770   2.332   4.038
 4029SOL     OW12985   2.633   4.451   6.332
 4029SOL    HW112986   2.607   4.500   6.249
 4029SOL    HW212987   2.552   4.409   6.373
 4030SOL     OW12988   1.631   1.475   6.621
 4030SOL    HW112989   1.719   1.522   6.609
 4030SOL    HW212990   1.626   1.397   6.558
 4031SOL     OW12991   4.550   5.891   2.960
 4031SOL    HW112992   4.644   5.863   2.939
 4031SOL    HW212993   4.542   5.914   3.057
 4032SOL     OW12994   5.904   0.393   2.950
 4032SOL    HW112995   5.896   0.340   2.865
 4032SOL    HW212996   5.834   0.362   3.015
 4033SOL     OW12997   3.128   3.428   2.682
 4033SOL    HW112998   3.067   3.486   2.629
 4033SOL    HW212999   3.222   3.462   2.674
 4034SOL     OW13000   6.169   1.930   4.856
 4034SOL    HW113001   6.245   1.995   4.867
 4034SOL    HW213002   6.089   1.964   4.907
 4035SOL     OW13003   0.133   2.621   1.011
 4035SOL    HW113004   0.060   2.588   0.951
 4035SOL    HW213005   0.181   2.544   1.051
 4036SOL     OW13006   5.526   6.991   2.765
 4036SOL    HW113007   5.501   0.055   2.808
 4036SOL    HW213008   5.472   6.978   2.682
 4037SOL     OW13009   2.130   2.268   0.340
 4037SOL    HW113010   2.198   2.197   0.359
 4037SOL    HW213011   2.160   2.323   0.262
 4038SOL     OW13012   4.828   4.686   1.844
 4038SOL    HW113013   4.820   4.693   1.943
 4038SOL    HW213014   4.748   4.638   1.808
 4039SOL     OW13015   5.098   4.707   1.378
 4039SOL    HW113016   5.066   4.683   1.470
 4039SOL    HW213017   5.197   4.720   1.379
 4040SOL     OW13018   3.274   6.998   6.348
 4040SOL    HW113019   3.344   6.957   6.290
 4040SOL    HW213020   3.192   7.016   6.294
 4041SOL     OW13021   1.926   5.674   1.530
 4041SOL    HW113022   1.894   5.664   1.436
 4041SOL    HW213023   1.861   5.727   1.583
 4042SOL     OW13024   6.113   4.836   2.812
 4042SOL    HW113025   6.067   4.788   2.886
 4042SOL    HW213026   6.153   4.921   2.847
 4043SOL     OW13027   5.064   2.327   4.477
 4043SOL    HW113028   5.137   2.384   4.513
 4043SOL    HW213029   5.077   2.233   4.509
 4044SOL     OW13030   4.663   0.466   4.178
 4044SOL    HW113031   4.682   0.535   4.248
 4044SOL    HW213032   4.701   0.496   4.090
 4045SOL     OW13033   2.847   4.362   6.451
 4045SOL    HW113034   2.759   4.394   6.416
 4045SOL    HW213035   2.898   4.317   6.378
 4046SOL     OW13036   0.851   1.161   3.792
 4046SOL    HW113037   0.760   1.182   3.825
 4046SOL    HW213038   0.845   1.123   3.699
 4047SOL     OW13039   3.025   2.453   1.228
 4047SOL    HW113040   3.068   2.543   1.217
 4047SOL    HW213041   2.947   2.462   1.291
 4048SOL     OW13042   5.617   1.402   2.198
 4048SOL    HW113043   5.699   1.366   2.152
 4048SOL    HW213044   5.610   1.500   2.181
 4049SOL     OW13045   6.007   6.111   6.918
 4049SOL    HW113046   6.087   6.052   6.909
 4049SOL    HW213047   6.026   6.199   6.874
 4050SOL     OW13048   1.960   6.494   0.436
 4050SOL    HW113049   1.878   6.530   0.390
 4050SOL    HW213050   1.938   6.406   0.478
 4051SOL     OW13051   4.114   2.972   0.191
 4051SOL    HW113052   4.110   2.950   0.288
 4051SOL    HW213053   4.022   2.964   0.151
 4052SOL     OW13054   0.640   0.831   1.570
 4052SOL    HW113055   0.692   0.894   1.512
 4052SOL    HW213056   0.671   0.738   1.554
 4053SOL     OW13057   3.428   4.919   3.782
 4053SOL    HW113058   3.331   4.944   3.788
 4053SOL    HW213059   3.452   4.905   3.686
 4054SOL     OW13060   1.335   2.882   1.157
 4054SOL    HW113061   1.251   2.830   1.144
 4054SOL    HW213062   1.377   2.857   1.245
 4055SOL     OW13063   3.166   3.757   5.872
 4055SOL    HW113064   3.227   3.830   5.905
 4055SOL    HW213065   3.123   3.785   5.787
 4056SOL     OW13066   4.639   2.536   6.967
 4056SOL    HW113067   4.665   2.528   0.040
 4056SOL    HW213068   4.597   2.451   6.936
 4057SOL     OW13069   5.247   2.599   6.919
 4057SOL    HW113070   5.152   2.611   6.890
 4057SOL    HW213071   5.272   2.673   6.982
 4058SOL     OW13072   1.656   1.603   4.911
 4058SOL    HW113073   1.714   1.608   4.992
 4058SOL    HW213074   1.625   1.694   4.886
 4059SOL     OW13075   1.700   2.249   3.276
 4059SOL    HW113076   1.664   2.250   3.183
 4059SOL    HW213077   1.745   2.161   3.293
 4060SOL     OW13078   4.348   5.366   5.207
 4060SOL    HW113079   4.248   5.365   5.208
 4060SOL    HW213080   4.381   5.293   5.147
 4061SOL     OW13081   3.353   4.842   1.709
 4061SOL    HW113082   3.405   4.798   1.783
 4061SOL    HW213083   3.416   4.870   1.637
 4062SOL     OW13084   3.192   1.466   3.210
 4062SOL    HW113085   3.195   1.513   3.298
 4062SOL    HW213086   3.236   1.523   3.141
 4063SOL     OW13087   5.001   0.198   5.285
 4063SOL    HW113088   5.069   0.146   5.337
 4063SOL    HW213089   4.994   0.160   5.193
 4064SOL     OW13090   1.762   6.963   3.247
 4064SOL    HW113091   1.825   6.885   3.247
 4064SOL    HW213092   1.783   7.023   3.170
 4065SOL     OW13093   1.475   6.570   0.144
 4065SOL    HW113094   1.461   6.648   0.204
 4065SOL    HW213095   1.386   6.530   0.121
 4066SOL     OW13096   4.997   4.884   2.555
 4066SOL    HW113097   5.006   4.891   2.654
 4066SOL    HW213098   4.921   4.941   2.523
 4067SOL     OW13099   5.956   3.005   2.192
 4067SOL    HW113100   6.002   3.058   2.121
 4067SOL    HW213101   5.936   3.064   2.270
 4068SOL     OW13102   4.253   0.557   4.617
 4068SOL    HW113103   4.215   0.474   4.658
 4068SOL    HW213104   4.332   0.532   4.561
 4069SOL     OW13105   4.220   3.556   6.720
 4069SOL    HW113106   4.237   3.605   6.806
 4069SOL    HW213107   4.291   3.579   6.654
 4070SOL     OW13108   1.313   3.450   2.989
 4070SOL    HW113109   1.308   3.388   3.068
 4070SOL    HW213110   1.322   3.544   3.020
 4071SOL     OW13111   1.546   0.987   5.015
 4071SOL    HW113112   1.577   0.923   4.944
 4071SOL    HW213113   1.548   1.080   4.980
 4072SOL     OW13114   0.741   6.458   3.741
 4072SOL    HW113115   0.642   6.455   3.730
 4072SOL    HW213116   0.782   6.505   3.663
 4073SOL     OW13117   2.468   5.199   5.766
 4073SOL    HW113118   2.516   5.204   5.854
 4073SOL    HW213119   2.384   5.146   5.777
 4074SOL     OW13120   0.927   2.448   2.658
 4074SOL    HW113121   0.909   2.518   2.726
 4074SOL    HW213122   1.006   2.394   2.685
 4075SOL     OW13123   4.990   2.639   2.745
 4075SOL    HW113124   4.989   2.655   2.844
 4075SOL    HW213125   5.084   2.624   2.715
 4076SOL     OW13126   1.972   4.071   6.106
 4076SOL    HW113127   1.938   4.007   6.037
 4076SOL    HW213128   2.040   4.025   6.163
 4077SOL     OW13129   3.133   6.639   0.483
 4077SOL    HW113130   3.140   6.540   0.490
 4077SOL    HW213131   3.069   6.674   0.551
 4078SOL     OW13132   6.612   5.447   1.827
 4078SOL    HW113133   6.586   5.535   1.865
 4078SOL    HW213134   6.624   5.381   1.900
 4079SOL     OW13135   1.142   1.225   3.393
 4079SOL    HW113136   1.206   1.255   3.463
 4079SOL    HW213137   1.182   1.147   3.343
 4080SOL     OW13138   3.014   3.140   0.587
 4080SOL    HW113139   2.915   3.138   0.598
 4080SOL    HW213140   3.044   3.064   0.531
 4081SOL     OW13141   1.961   1.236   4.246
 4081SOL    HW113142   1.919   1.325   4.232
 4081SOL    HW213143   1.914   1.167   4.191
 4082SOL     OW13144   1.697   1.667   0.618
 4082SOL    HW113145   1.747   1.595   0.569
 4082SOL    HW213146   1.756   1.748   0.626
 4083SOL     OW13147   5.947   4.189   3.464
 4083SOL    HW113148   5.941   4.097   3.505
 4083SOL    HW213149   5.978   4.254   3.533
 4084SOL     OW13150   5.377   3.134   3.315
 4084SOL    HW113151   5.355   3.076   3.236
 4084SOL    HW213152   5.460   3.100   3.359
 4085SOL     OW13153   2.983   5.293   0.368
 4085SOL    HW113154   2.925   5.373   0.380
 4085SOL    HW213155   2.940   5.228   0.305
 4086SOL     OW13156   0.606   4.738   0.766
 4086SOL    HW113157   0.600   4.756   0.864
 4086SOL    HW213158   0.618   4.640   0.751
 4087SOL     OW13159   2.465   1.227   2.439
 4087SOL    HW113160   2.470   1.309   2.496
 4087SOL    HW213161   2.375   1.219   2.398
 4088SOL     OW13162   6.204   0.975   5.844
 4088SOL    HW113163   6.301   0.991   5.824
 4088SOL    HW213164   6.195   0.893   5.901
 4089SOL     OW13165   6.724   5.708   4.611
 4089SOL    HW113166   6.699   5.645   4.685
 4089SOL    HW213167   6.822   5.727   4.616
 4090SOL     OW13168   1.550   5.676   5.076
 4090SOL    HW113169   1.483   5.616   5.032
 4090SOL    HW213170   1.635   5.626   5.092
 4091SOL     OW13171   0.772   5.560   6.956
 4091SOL    HW113172   0.768   5.610   0.020
 4091SOL    HW213173   0.733   5.617   6.884
 4092SOL     OW13174   5.873   2.743   4.058
 4092SOL    HW113175   5.951   2.695   4.018
 4092SOL    HW213176   5.906   2.808   4.127
 4093SOL     OW13177   5.246   6.698   1.226
 4093SOL    HW113178   5.278   6.616   1.178
 4093SOL    HW213179   5.148   6.688   1.248
 4094SOL     OW13180   1.052   4.960   6.268
 4094SOL    HW113181   1.098   5.045   6.240
 4094SOL    HW213182   1.051   4.954   6.367
 4095SOL     OW13183   1.079   3.587   0.150
 4095SOL    HW113184   0.989   3.582   0.105
 4095SOL    HW213185   1.080   3.664   0.214
 4096SOL     OW13186   2.822   0.915   6.204
 4096SOL    HW113187   2.775   0.881   6.122
 4096SOL    HW213188   2.905   0.861   6.220
 4097SOL     OW13189   5.737   5.033   5.411
 4097SOL    HW113190   5.660   5.068   5.356
 4097SOL    HW213191   5.805   5.105   5.421
 4098SOL     OW13192   1.603   3.166   1.057
 4098SOL    HW113193   1.508   3.184   1.082
 4098SOL    HW213194   1.630   3.077   1.092
 4099SOL     OW13195   3.055   4.980   0.114
 4099SOL    HW113196   3.079   4.886   0.092
 4099SOL    HW213197   3.112   5.012   0.190
 4100SOL     OW13198   1.199   0.717   4.358
 4100SOL    HW113199   1.171   0.796   4.412
 4100SOL    HW213200   1.299   0.708   4.360
 4101SOL     OW13201   0.490   1.244   6.607
 4101SOL    HW113202   0.467   1.341   6.608
 4101SOL    HW213203   0.421   1.192   6.656
 4102SOL     OW13204   1.659   0.720   0.786
 4102SOL    HW113205   1.575   0.720   0.840
 4102SOL    HW213206   1.701   0.629   0.791
 4103SOL     OW13207   7.005   6.686   2.028
 4103SOL    HW113208   7.006   6.605   1.969
 4103SOL    HW213209   6.939   6.752   1.993
 4104SOL     OW13210   0.375   5.478   3.727
 4104SOL    HW113211   0.358   5.391   3.683
 4104SOL    HW213212   0.462   5.515   3.696
 4105SOL     OW13213   5.307   0.614   2.430
 4105SOL    HW113214   5.235   0.605   2.499
 4105SOL    HW213215   5.287   0.553   2.353
 4106SOL     OW13216   0.832   2.024   3.739
 4106SOL    HW113217   0.807   2.104   3.685
 4106SOL    HW213218   0.890   1.963   3.684
 4107SOL     OW13219   1.375   5.925   0.115
 4107SOL    HW113220   1.366   6.024   0.123
 4107SOL    HW213221   1.373   5.884   0.207
 4108SOL     OW13222   6.968   4.968   4.569
 4108SOL    HW113223   0.037   5.003   4.558
 4108SOL    HW213224   6.906   5.018   4.508
 4109SOL     OW13225   5.554   6.749   4.509
 4109SOL    HW113226   5.471   6.757   4.565
 4109SOL    HW213227   5.528   6.729   4.414
 4110SOL     OW13228   3.809   3.019   6.349
 4110SOL    HW113229   3.816   2.949   6.278
 4110SOL    HW213230   3.750   3.093   6.317
 4111SOL     OW13231   6.039   5.039   6.295
 4111SOL    HW113232   6.047   5.080   6.205
 4111SOL    HW213233   6.066   5.105   6.365
 4112SOL     OW13234   4.598   6.702   4.384
 4112SOL    HW113235   4.603   6.709   4.484
 4112SOL    HW213236   4.633   6.613   4.355
 4113SOL     OW13237   4.623   5.784   4.920
 4113SOL    HW113238   4.571   5.701   4.901
 4113SOL    HW213239   4.599   5.818   5.011
 4114SOL     OW13240   6.965   1.712   3.166
 4114SOL    HW113241   6.930   1.662   3.087
 4114SOL    HW213242   0.018   1.770   3.138
 4115SOL     OW13243   2.917   5.332   3.495
 4115SOL    HW113244   2.987   5.286   3.551
 4115SOL    HW213245   2.844   5.364   3.554
 4116SOL     OW13246   4.414   1.847   3.439
 4116SOL    HW113247   4.503   1.850   3.486
 4116SOL    HW213248   4.345   1.891   3.496
 4117SOL     OW13249   1.048   2.439   3.617
 4117SOL    HW113250   1.040   2.381   3.698
 4117SOL    HW213251   1.122   2.506   3.632
 4118SOL     OW13252   5.299   6.887   6.637
 4118SOL    HW113253   5.324   6.975   6.596
 4118SOL    HW213254   5.361   6.816   6.605
 4119SOL     OW13255   3.151   1.571   3.446
 4119SOL    HW113256   3.159   1.568   3.546
 4119SOL    HW213257   3.102   1.654   3.419
 4120SOL     OW13258   3.297   1.357   6.086
 4120SOL    HW113259   3.219   1.331   6.030
 4120SOL    HW213260   3.363   1.282   6.089
 4121SOL     OW13261   6.028   0.236   3.336
 4121SOL    HW113262   6.004   0.328   3.305
 4121SOL    HW213263   6.116   0.209   3.298
 4122SOL     OW13264   2.022   6.564   4.461
 4122SOL    HW113265   1.978   6.599   4.543
 4122SOL    HW213266   1.952   6.526   4.400
 4123SOL     OW13267   4.192   4.981   4.468
 4123SOL    HW113268   4.216   4.903   4.525
 4123SOL    HW213269   4.118   4.954   4.405
 4124SOL     OW13270   6.689   7.009   1.179
 4124SOL    HW113271   6.665   0.076   1.143
 4124SOL    HW213272   6.788   6.997   1.174
 4125SOL     OW13273   4.641   1.931   2.642
 4125SOL    HW113274   4.553   1.896   2.675
 4125SOL    HW213275   4.695   1.964   2.718
 4126SOL     OW13276   2.001   3.305   2.907
 4126SOL    HW113277   2.008   3.345   2.998
 4126SOL    HW213278   1.913   3.329   2.866
 4127SOL     OW13279   5.564   2.948   5.151
 4127SOL    HW113280   5.523   2.873   5.202
 4127SOL    HW213281   5.500   3.025   5.147
 4128SOL     OW13282   0.882   3.573   1.400
 4128SOL    HW113283   0.870   3.559   1.499
 4128SOL    HW213284   0.846   3.494   1.351
 4129SOL     OW13285   3.097   1.274   0.186
 4129SOL    HW113286   3.103   1.177   0.165
 4129SOL    HW213287   3.003   1.305   0.172
 4130SOL     OW13288   6.228   2.099   0.407
 4130SOL    HW113289   6.261   2.018   0.455
 4130SOL    HW213290   6.143   2.131   0.449
 4131SOL     OW13291   0.388   1.514   2.861
 4131SOL    HW113292   0.301   1.522   2.811
 4131SOL    HW213293   0.390   1.428   2.911
 4132SOL     OW13294   5.180   3.915   4.495
 4132SOL    HW113295   5.083   3.937   4.500
 4132SOL    HW213296   5.191   3.818   4.472
 4133SOL     OW13297   4.045   6.003   1.697
 4133SOL    HW113298   3.967   6.003   1.760
 4133SOL    HW213299   4.120   5.949   1.736
 4134SOL     OW13300   2.188   3.905   0.763
 4134SOL    HW113301   2.094   3.902   0.796
 4134SOL    HW213302   2.212   3.999   0.739
 4135SOL     OW13303   0.434   2.821   1.895
 4135SOL    HW113304   0.375   2.797   1.972
 4135SOL    HW213305   0.442   2.921   1.889
 4136SOL     OW13306   1.284   3.668   2.598
 4136SOL    HW113307   1.314   3.612   2.521
 4136SOL    HW213308   1.355   3.669   2.669
 4137SOL     OW13309   1.848   3.652   0.356
 4137SOL    HW113310   1.809   3.560   0.368
 4137SOL    HW213311   1.776   3.715   0.326
 4138SOL     OW13312   3.295   4.873   2.596
 4138SOL    HW113313   3.305   4.816   2.514
 4138SOL    HW213314   3.240   4.953   2.574
 4139SOL     OW13315   1.729   1.716   4.151
 4139SOL    HW113316   1.637   1.737   4.185
 4139SOL    HW213317   1.796   1.749   4.217
 4140SOL     OW13318   3.500   1.573   4.266
 4140SOL    HW113319   3.461   1.487   4.299
 4140SOL    HW213320   3.599   1.562   4.256
 4141SOL     OW13321   5.698   6.963   1.167
 4141SOL    HW113322   5.653   6.887   1.119
 4141SOL    HW213323   5.738   6.930   1.252
 4142SOL     OW13324   6.166   3.722   1.429
 4142SOL    HW113325   6.114   3.706   1.345
 4142SOL    HW213326   6.142   3.812   1.467
 4143SOL     OW13327   5.598   2.898   0.183
 4143SOL    HW113328   5.568   2.914   0.089
 4143SOL    HW213329   5.561   2.969   0.243
 4144SOL     OW13330   4.888   1.570   0.444
 4144SOL    HW113331   4.932   1.584   0.356
 4144SOL    HW213332   4.863   1.474   0.454
 4145SOL     OW13333   1.143   6.063   0.328
 4145SOL    HW113334   1.182   5.981   0.372
 4145SOL    HW213335   1.217   6.116   0.286
 4146SOL     OW13336   6.641   0.378   3.554
 4146SOL    HW113337   6.716   0.401   3.616
 4146SOL    HW213338   6.611   0.460   3.506
 4147SOL     OW13339   4.290   4.627   6.266
 4147SOL    HW113340   4.371   4.613   6.323
 4147SOL    HW213341   4.315   4.680   6.185
 4148SOL     OW13342   2.689   0.533   5.013
 4148SOL    HW113343   2.730   0.606   4.957
 4148SOL    HW213344   2.762   0.479   5.055
 4149SOL     OW13345   0.183   3.600   1.618
 4149SOL    HW113346   0.235   3.684   1.603
 4149SOL    HW213347   0.117   3.588   1.543
 4150SOL     OW13348   0.001   1.440   5.262
 4150SOL    HW113349   6.924   1.436   5.253
 4150SOL    HW213350   0.038   1.493   5.186
 4151SOL     OW13351   2.840   5.890   6.046
 4151SOL    HW113352   2.919   5.888   6.108
 4151SOL    HW213353   2.829   5.800   6.003
 4152SOL     OW13354   3.899   5.372   0.762
 4152SOL    HW113355   3.977   5.422   0.724
 4152SOL    HW213356   3.913   5.360   0.860
 4153SOL     OW13357   6.027   5.406   1.438
 4153SOL    HW113358   6.109   5.351   1.420
 4153SOL    HW213359   5.995   5.448   1.353
 4154SOL     OW13360   0.129   6.026   4.187
 4154SOL    HW113361   0.078   6.101   4.145
 4154SOL    HW213362   0.114   6.027   4.286
 4155SOL     OW13363   0.339   0.841   0.673
 4155SOL    HW113364   0.334   0.908   0.747
 4155SOL    HW213365   0.305   0.881   0.588
 4156SOL     OW13366   6.036   5.459   5.421
 4156SOL    HW113367   6.119   5.427   5.467
 4156SOL    HW213368   6.058   5.539   5.364
 4157SOL     OW13369   5.060   6.231   3.609
 4157SOL    HW113370   5.002   6.158   3.574
 4157SOL    HW213371   5.121   6.263   3.537
 4158SOL     OW13372   0.440   2.990   2.320
 4158SOL    HW113373   0.450   3.085   2.292
 4158SOL    HW213374   0.357   2.952   2.280
 4159SOL     OW13375   1.637   2.630   3.385
 4159SOL    HW113376   1.572   2.681   3.329
 4159SOL    HW213377   1.724   2.622   3.336
 4160SOL     OW13378   5.627   6.933   6.839
 4160SOL    HW113379   5.539   6.947   6.884
 4160SOL    HW213380   5.690   6.888   6.902
 4161SOL     OW13381   1.575   2.401   1.393
 4161SOL    HW113382   1.591   2.459   1.474
 4161SOL    HW213383   1.550   2.459   1.316
 4162SOL     OW13384   5.853   5.830   0.554
 4162SOL    HW113385   5.936   5.775   0.552
 4162SOL    HW213386   5.867   5.911   0.610
 4163SOL     OW13387   5.369   0.900   3.201
 4163SOL    HW113388   5.286   0.902   3.257
 4163SOL    HW213389   5.399   0.805   3.190
 4164SOL     OW13390   1.326   0.309   4.515
 4164SOL    HW113391   1.417   0.349   4.501
 4164SOL    HW213392   1.332   0.209   4.510
 4165SOL     OW13393   4.881   0.594   5.440
 4165SOL    HW113394   4.884   0.685   5.399
 4165SOL    HW213395   4.795   0.549   5.417
 4166SOL     OW13396   5.123   0.908   1.052
 4166SOL    HW113397   5.191   0.854   1.001
 4166SOL    HW213398   5.075   0.850   1.117
 4167SOL     OW13399   3.569   4.585   7.010
 4167SOL    HW113400   3.528   4.612   6.922
 4167SOL    HW213401   3.577   4.665   0.046
 4168SOL     OW13402   0.240   3.907   0.801
 4168SOL    HW113403   0.236   3.952   0.890
 4168SOL    HW213404   0.164   3.843   0.793
 4169SOL     OW13405   6.142   4.843   4.412
 4169SOL    HW113406   6.208   4.777   4.376
 4169SOL    HW213407   6.098   4.805   4.494
 4170SOL     OW13408   5.179   3.296   5.491
 4170SOL    HW113409   5.079   3.307   5.496
 4170SOL    HW213410   5.217   3.368   5.432
 4171SOL     OW13411   6.654   5.314   0.594
 4171SOL    HW113412   6.604   5.235   0.629
 4171SOL    HW213413   6.644   5.320   0.495
 4172SOL     OW13414   2.314   2.066   0.342
 4172SOL    HW113415   2.355   1.992   0.288
 4172SOL    HW213416   2.385   2.128   0.373
 4173SOL     OW13417   5.418   4.049   4.829
 4173SOL    HW113418   5.329   4.007   4.811
 4173SOL    HW213419   5.431   4.057   4.928
 4174SOL     OW13420   4.439   1.792   2.388
 4174SOL    HW113421   4.449   1.731   2.467
 4174SOL    HW213422   4.530   1.816   2.353
 4175SOL     OW13423   1.968   4.430   4.136
 4175SOL    HW113424   1.919   4.402   4.054
 4175SOL    HW213425   2.055   4.473   4.110
 4176SOL     OW13426   4.137   6.579   1.553
 4176SOL    HW113427   4.072   6.652   1.575
 4176SOL    HW213428   4.088   6.505   1.506
 4177SOL     OW13429   5.927   5.234   5.549
 4177SOL    HW113430   5.840   5.262   5.589
 4177SOL    HW213431   5.966   5.310   5.498
 4178SOL     OW13432   4.193   6.950   3.736
 4178SOL    HW113433   4.221   6.916   3.826
 4178SOL    HW213434   4.103   6.913   3.713
 4179SOL     OW13435   5.474   3.475   3.291
 4179SOL    HW113436   5.378   3.500   3.288
 4179SOL    HW213437   5.515   3.490   3.201
 4180SOL     OW13438   5.008   2.860   0.753
 4180SOL    HW113439   4.918   2.843   0.714
 4180SOL    HW213440   5.022   2.958   0.764
 4181SOL     OW13441   4.097   0.847   6.369
 4181SOL    HW113442   4.059   0.938   6.387
 4181SOL    HW213443   4.172   0.855   6.304
 4182SOL     OW13444   0.448   5.883   3.536
 4182SOL    HW113445   0.369   5.944   3.542
 4182SOL    HW213446   0.467   5.843   3.625
 4183SOL     OW13447   2.265   1.762   0.248
 4183SOL    HW113448   2.179   1.716   0.270
 4183SOL    HW213449   2.246   1.857   0.220
 4184SOL     OW13450   3.001   6.874   2.439
 4184SOL    HW113451   2.987   6.778   2.415
 4184SOL    HW213452   3.014   6.882   2.538
 4185SOL     OW13453   0.614   4.483   2.991
 4185SOL    HW113454   0.606   4.480   3.091
 4185SOL    HW213455   0.592   4.575   2.959
 4186SOL     OW13456   2.526   4.824   6.543
 4186SOL    HW113457   2.486   4.839   6.634
 4186SOL    HW213458   2.453   4.813   6.476
 4187SOL     OW13459   2.860   3.185   5.550
 4187SOL    HW113460   2.820   3.184   5.458
 4187SOL    HW213461   2.833   3.102   5.599
 4188SOL     OW13462   5.221   0.856   5.325
 4188SOL    HW113463   5.146   0.792   5.340
 4188SOL    HW213464   5.184   0.949   5.321
 4189SOL     OW13465   3.010   5.304   4.438
 4189SOL    HW113466   2.988   5.228   4.499
 4189SOL    HW213467   3.101   5.338   4.460
 4190SOL     OW13468   0.619   0.182   1.088
 4190SOL    HW113469   0.689   0.154   1.022
 4190SOL    HW213470   0.660   0.186   1.179
 4191SOL     OW13471   4.874   4.428   4.266
 4191SOL    HW113472   4.938   4.368   4.315
 4191SOL    HW213473   4.912   4.451   4.177
 4192SOL     OW13474   0.931   1.637   3.001
 4192SOL    HW113475   0.846   1.684   2.976
 4192SOL    HW213476   0.929   1.615   3.099
 4193SOL     OW13477   6.335   0.296   0.787
 4193SOL    HW113478   6.246   0.275   0.747
 4193SOL    HW213479   6.322   0.346   0.873
 4194SOL     OW13480   4.435   0.407   4.880
 4194SOL    HW113481   4.480   0.363   4.802
 4194SOL    HW213482   4.339   0.380   4.882
 4195SOL     OW13483   3.660   5.498   1.456
 4195SOL    HW113484   3.708   5.473   1.540
 4195SOL    HW213485   3.724   5.495   1.379
 4196SOL     OW13486   6.185   2.693   2.676
 4196SOL    HW113487   6.213   2.729   2.765
 4196SOL    HW213488   6.107   2.747   2.642
 4197SOL     OW13489   4.796   5.521   5.829
 4197SOL    HW113490   4.831   5.446   5.773
 4197SOL    HW213491   4.713   5.558   5.787
 4198SOL     OW13492   6.346   1.901   0.537
 4198SOL    HW113493   6.403   1.846   0.476
 4198SOL    HW213494   6.270   1.846   0.570
 4199SOL     OW13495   1.072   2.619   6.054
 4199SOL    HW113496   1.171   2.630   6.042
 4199SOL    HW213497   1.026   2.707   6.042
 4200SOL     OW13498   2.701   0.177   6.294
 4200SOL    HW113499   2.747   0.131   6.370
 4200SOL    HW213500   2.679   0.111   6.222
 4201SOL     OW13501   5.728   6.878   3.732
 4201SOL    HW113502   5.755   6.854   3.638
 4201SOL    HW213503   5.809   6.905   3.784
 4202SOL     OW13504   3.269   5.631   6.041
 4202SOL    HW113505   3.327   5.575   6.100
 4202SOL    HW213506   3.173   5.622   6.070
 4203SOL     OW13507   4.174   4.123   0.135
 4203SOL    HW113508   4.130   4.107   0.047
 4203SOL    HW213509   4.193   4.220   0.146
 4204SOL     OW13510   4.141   3.604   3.959
 4204SOL    HW113511   4.194   3.519   3.960
 4204SOL    HW213512   4.103   3.617   3.867
 4205SOL     OW13513   4.459   6.399   4.158
 4205SOL    HW113514   4.526   6.346   4.107
 4205SOL    HW213515   4.501   6.433   4.242
 4206SOL     OW13516   6.328   0.643   5.320
 4206SOL    HW113517   6.425   0.667   5.323
 4206SOL    HW213518   6.273   0.722   5.346
 4207SOL     OW13519   1.784   2.188   1.977
 4207SOL    HW113520   1.773   2.236   1.890
 4207SOL    HW213521   1.881   2.179   1.999
 4208SOL     OW13522   0.221   3.461   5.146
 4208SOL    HW113523   0.284   3.474   5.070
 4208SOL    HW213524   0.253   3.512   5.226
 4209SOL     OW13525   6.980   0.032   3.976
 4209SOL    HW113526   0.012   7.004   3.910
 4209SOL    HW213527   6.894   7.006   3.993
 4210SOL     OW13528   4.165   3.698   2.207
 4210SOL    HW113529   4.135   3.778   2.154
 4210SOL    HW213530   4.235   3.727   2.273
 4211SOL     OW13531   3.545   0.520   6.299
 4211SOL    HW113532   3.462   0.468   6.278
 4211SOL    HW213533   3.564   0.515   6.397
 4212SOL     OW13534   6.573   1.946   2.841
 4212SOL    HW113535   6.550   2.017   2.775
 4212SOL    HW213536   6.672   1.930   2.840
 4213SOL     OW13537   2.004   0.532   2.413
 4213SOL    HW113538   2.000   0.617   2.361
 4213SOL    HW213539   2.074   0.473   2.373
 4214SOL     OW13540   1.044   5.811   5.313
 4214SOL    HW113541   1.014   5.717   5.303
 4214SOL    HW213542   1.136   5.821   5.275
 4215SOL     OW13543   4.849   0.311   6.336
 4215SOL    HW113544   4.759   0.346   6.362
 4215SOL    HW213545   4.843   0.266   6.247
 4216SOL     OW13546   1.271   1.022   2.994
 4216SOL    HW113547   1.329   0.973   2.929
 4216SOL    HW213548   1.175   1.003   2.975
 4217SOL     OW13549   1.033   0.700   2.856
 4217SOL    HW113550   1.101   0.700   2.929
 4217SOL    HW213551   0.991   0.790   2.849
 4218SOL     OW13552   4.083   1.246   1.902
 4218SOL    HW113553   4.027   1.267   1.982
 4218SOL    HW213554   4.147   1.321   1.886
 4219SOL     OW13555   3.931   6.037   3.835
 4219SOL    HW113556   3.869   6.101   3.881
 4219SOL    HW213557   3.878   5.965   3.790
 4220SOL     OW13558   6.398   3.124   3.498
 4220SOL    HW113559   6.308   3.149   3.462
 4220SOL    HW213560   6.417   3.029   3.476
 4221SOL     OW13561   6.145   5.401   6.221
 4221SOL    HW113562   6.185   5.483   6.180
 4221SOL    HW213563   6.180   5.320   6.174
 4222SOL     OW13564   0.478   1.733   2.204
 4222SOL    HW113565   0.472   1.796   2.127
 4222SOL    HW213566   0.408   1.756   2.272
 4223SOL     OW13567   3.592   3.359   0.205
 4223SOL    HW113568   3.630   3.451   0.197
 4223SOL    HW213569   3.662   3.297   0.241
 4224SOL     OW13570   5.218   4.411   4.093
 4224SOL    HW113571   5.308   4.391   4.055
 4224SOL    HW213572   5.156   4.336   4.071
 4225SOL     OW13573   2.780   2.330   5.770
 4225SOL    HW113574   2.849   2.258   5.767
 4225SOL    HW213575   2.794   2.393   5.694
 4226SOL     OW13576   0.999   0.028   2.963
 4226SOL    HW113577   0.994   6.985   3.037
 4226SOL    HW213578   0.908   0.045   2.926
 4227SOL     OW13579   3.835   5.063   1.586
 4227SOL    HW113580   3.876   5.134   1.529
 4227SOL    HW213581   3.877   4.975   1.563
 4228SOL     OW13582   1.166   5.318   5.172
 4228SOL    HW113583   1.155   5.388   5.102
 4228SOL    HW213584   1.139   5.355   5.261
 4229SOL     OW13585   5.149   6.604   6.069
 4229SOL    HW113586   5.083   6.666   6.026
 4229SOL    HW213587   5.148   6.618   6.168
 4230SOL     OW13588   0.647   5.523   2.628
 4230SOL    HW113589   0.717   5.562   2.688
 4230SOL    HW213590   0.589   5.596   2.592
 4231SOL     OW13591   5.969   6.779   5.805
 4231SOL    HW113592   5.910   6.769   5.885
 4231SOL    HW213593   5.948   6.706   5.739
 4232SOL     OW13594   7.022   4.762   2.963
 4232SOL    HW113595   7.008   4.846   3.015
 4232SOL    HW213596   7.023   4.684   3.025
 4233SOL     OW13597   6.782   6.914   5.926
 4233SOL    HW113598   6.846   6.992   5.932
 4233SOL    HW213599   6.707   6.928   5.991
 4234SOL     OW13600   2.438   6.188   4.971
 4234SOL    HW113601   2.480   6.272   4.937
 4234SOL    HW213602   2.374   6.210   5.045
 4235SOL     OW13603   5.569   4.456   5.796
 4235SOL    HW113604   5.605   4.413   5.713
 4235SOL    HW213605   5.642   4.509   5.839
 4236SOL     OW13606   6.398   3.505   2.176
 4236SOL    HW113607   6.401   3.605   2.178
 4236SOL    HW213608   6.325   3.475   2.114
 4237SOL     OW13609   5.753   5.689   3.418
 4237SOL    HW113610   5.656   5.697   3.439
 4237SOL    HW213611   5.778   5.592   3.415
 4238SOL     OW13612   2.528   6.473   2.784
 4238SOL    HW113613   2.439   6.438   2.811
 4238SOL    HW213614   2.536   6.472   2.684
 4239SOL     OW13615   5.291   1.266   2.512
 4239SOL    HW113616   5.238   1.233   2.590
 4239SOL    HW213617   5.235   1.330   2.459
 4240SOL     OW13618   2.757   5.753   0.299
 4240SOL    HW113619   2.718   5.818   0.364
 4240SOL    HW213620   2.724   5.774   0.207
 4241SOL     OW13621   6.285   1.255   0.307
 4241SOL    HW113622   6.251   1.218   0.393
 4241SOL    HW213623   6.354   1.194   0.269
 4242SOL     OW13624   3.232   1.401   4.082
 4242SOL    HW113625   3.288   1.421   4.002
 4242SOL    HW213626   3.240   1.305   4.106
 4243SOL     OW13627   6.376   2.963   2.825
 4243SOL    HW113628   6.319   2.886   2.854
 4243SOL    HW213629   6.352   3.044   2.878
 4244SOL     OW13630   4.443   4.375   1.590
 4244SOL    HW113631   4.460   4.336   1.680
 4244SOL    HW213632   4.393   4.309   1.534
 4245SOL     OW13633   6.904   1.371   6.588
 4245SOL    HW113634   6.950   1.284   6.569
 4245SOL    HW213635   6.972   1.442   6.607
 4246SOL     OW13636   0.224   4.093   3.458
 4246SOL    HW113637   0.264   4.012   3.500
 4246SOL    HW213638   0.137   4.069   3.415
 4247SOL     OW13639   2.969   6.000   3.675
 4247SOL    HW113640   3.039   6.027   3.742
 4247SOL    HW213641   3.008   5.934   3.611
 4248SOL     OW13642   3.547   1.458   3.156
 4248SOL    HW113643   3.619   1.491   3.095
 4248SOL    HW213644   3.460   1.459   3.108
 4249SOL     OW13645   5.949   2.179   3.827
 4249SOL    HW113646   5.853   2.172   3.798
 4249SOL    HW213647   6.003   2.221   3.754
 4250SOL     OW13648   6.595   4.368   2.997
 4250SOL    HW113649   6.686   4.336   3.022
 4250SOL    HW213650   6.526   4.312   3.043
 4251SOL     OW13651   5.349   4.650   1.448
 4251SOL    HW113652   5.365   4.727   1.510
 4251SOL    HW213653   5.358   4.564   1.499
 4252SOL     OW13654   5.565   6.279   6.154
 4252SOL    HW113655   5.513   6.219   6.093
 4252SOL    HW213656   5.503   6.349   6.192
 4253SOL     OW13657   3.878   6.557   0.755
 4253SOL    HW113658   3.814   6.570   0.679
 4253SOL    HW213659   3.829   6.570   0.842
 4254SOL     OW13660   0.690   3.291   1.655
 4254SOL    HW113661   0.766   3.351   1.631
 4254SOL    HW213662   0.709   3.248   1.743
 4255SOL     OW13663   6.985   4.437   3.602
 4255SOL    HW113664   7.004   4.530   3.569
 4255SOL    HW213665   6.967   4.378   3.523
 4256SOL     OW13666   2.335   6.403   0.006
 4256SOL    HW113667   2.326   6.304   7.018
 4256SOL    HW213668   2.299   6.449   6.947
 4257SOL     OW13669   3.015   0.632   4.480
 4257SOL    HW113670   3.007   0.659   4.385
 4257SOL    HW213671   2.985   0.537   4.491
 4258SOL     OW13672   4.650   6.261   1.074
 4258SOL    HW113673   4.743   6.287   1.099
 4258SOL    HW213674   4.584   6.306   1.134
 4259SOL     OW13675   2.775   0.581   0.743
 4259SOL    HW113676   2.755   0.618   0.652
 4259SOL    HW213677   2.756   0.651   0.812
 4260SOL     OW13678   5.516   0.144   1.201
 4260SOL    HW113679   5.577   0.067   1.183
 4260SOL    HW213680   5.430   0.130   1.153
 4261SOL     OW13681   1.719   0.353   2.022
 4261SOL    HW113682   1.741   0.449   2.005
 4261SOL    HW213683   1.627   0.345   2.059
 4262SOL     OW13684   0.927   5.045   5.663
 4262SOL    HW113685   0.867   4.973   5.628
 4262SOL    HW213686   0.963   5.017   5.753
 4263SOL     OW13687   3.062   6.236   3.307
 4263SOL    HW113688   3.128   6.183   3.360
 4263SOL    HW213689   2.972   6.231   3.352
 4264SOL     OW13690   0.045   2.640   2.837
 4264SOL    HW113691   0.133   2.616   2.878
 4264SOL    HW213692   6.994   2.611   2.898
 4265SOL     OW13693   5.288   1.745   0.846
 4265SOL    HW113694   5.333   1.792   0.922
 4265SOL    HW213695   5.316   1.649   0.844
 4266SOL     OW13696   1.930   5.457   0.351
 4266SOL    HW113697   1.994   5.516   0.400
 4266SOL    HW213698   1.871   5.411   0.417
 4267SOL     OW13699   1.853   3.237   4.630
 4267SOL    HW113700   1.949   3.260   4.615
 4267SOL    HW213701   1.843   3.138   4.638
 4268SOL     OW13702   1.591   5.942   6.342
 4268SOL    HW113703   1.574   5.919   6.438
 4268SOL    HW213704   1.667   6.007   6.336
 4269SOL     OW13705   2.580   0.684   1.545
 4269SOL    HW113706   2.526   0.717   1.622
 4269SOL    HW213707   2.584   0.754   1.474
 4270SOL     OW13708   4.154   3.425   3.524
 4270SOL    HW113709   4.147   3.511   3.573
 4270SOL    HW213710   4.135   3.349   3.587
 4271SOL     OW13711   6.425   1.170   0.023
 4271SOL    HW113712   6.439   1.108   0.100
 4271SOL    HW213713   6.439   1.264   0.052
 4272SOL     OW13714   6.332   2.725   3.799
 4272SOL    HW113715   6.397   2.728   3.875
 4272SOL    HW213716   6.287   2.814   3.789
 4273SOL     OW13717   4.601   6.988   4.758
 4273SOL    HW113718   4.587   0.048   4.704
 4273SOL    HW213719   4.700   6.972   4.770
 4274SOL     OW13720   0.829   6.196   1.415
 4274SOL    HW113721   0.860   6.278   1.367
 4274SOL    HW213722   0.730   6.187   1.404
 4275SOL     OW13723   6.395   1.018   3.726
 4275SOL    HW113724   6.298   1.030   3.748
 4275SOL    HW213725   6.449   1.020   3.810
 4276SOL     OW13726   1.630   4.924   3.122
 4276SOL    HW113727   1.651   4.957   3.213
 4276SOL    HW213728   1.650   4.995   3.055
 4277SOL     OW13729   6.099   4.431   3.864
 4277SOL    HW113730   6.010   4.421   3.821
 4277SOL    HW213731   6.103   4.374   3.947
 4278SOL     OW13732   6.962   0.302   4.534
 4278SOL    HW113733   7.019   0.221   4.543
 4278SOL    HW213734   6.877   0.277   4.487
 4279SOL     OW13735   3.271   0.432   4.472
 4279SOL    HW113736   3.199   0.491   4.436
 4279SOL    HW213737   3.234   0.340   4.487
 4280SOL     OW13738   4.592   0.517   5.936
 4280SOL    HW113739   4.678   0.499   5.888
 4280SOL    HW213740   4.569   0.613   5.928
 4281SOL     OW13741   0.284   4.646   3.653
 4281SOL    HW113742   0.319   4.566   3.702
 4281SOL    HW213743   0.286   4.629   3.555
 4282SOL     OW13744   2.951   4.133   5.777
 4282SOL    HW113745   2.934   4.216   5.830
 4282SOL    HW213746   2.930   4.052   5.833
 4283SOL     OW13747   1.210   0.540   3.684
 4283SOL    HW113748   1.161   0.516   3.769
 4283SOL    HW213749   1.214   0.639   3.675
 4284SOL     OW13750   3.924   4.789   1.548
 4284SOL    HW113751   3.838   4.739   1.558
 4284SOL    HW213752   3.983   4.740   1.484
 4285SOL     OW13753   1.104   0.733   6.126
 4285SOL    HW113754   1.050   0.692   6.200
 4285SOL    HW213755   1.046   0.744   6.045
 4286SOL     OW13756   4.816   6.535   6.211
 4286SOL    HW113757   4.778   6.564   6.299
 4286SOL    HW213758   4.820   6.613   6.149
 4287SOL     OW13759   6.277   2.354   6.417
 4287SOL    HW113760   6.245   2.430   6.472
 4287SOL    HW213761   6.245   2.365   6.323
 4288SOL     OW13762   0.591   6.043   3.980
 4288SOL    HW113763   0.569   6.020   4.075
 4288SOL    HW213764   0.580   6.141   3.966
 4289SOL     OW13765   6.812   2.719   0.081
 4289SOL    HW113766   6.871   2.779   0.027
 4289SOL    HW213767   6.848   2.625   0.078
 4290SOL     OW13768   1.312   6.751   2.679
 4290SOL    HW113769   1.305   6.796   2.590
 4290SOL    HW213770   1.288   6.655   2.669
 4291SOL     OW13771   4.805   3.408   1.052
 4291SOL    HW113772   4.804   3.386   0.955
 4291SOL    HW213773   4.894   3.447   1.077
 4292SOL     OW13774   5.989   3.742   0.340
 4292SOL    HW113775   5.990   3.735   0.439
 4292SOL    HW213776   5.988   3.650   0.300
 4293SOL     OW13777   2.243   3.105   0.466
 4293SOL    HW113778   2.219   3.021   0.418
 4293SOL    HW213779   2.319   3.087   0.528
 4294SOL     OW13780   2.024   3.071   6.864
 4294SOL    HW113781   1.935   3.072   6.817
 4294SOL    HW213782   2.074   3.155   6.841
 4295SOL     OW13783   4.299   5.365   4.377
 4295SOL    HW113784   4.213   5.352   4.327
 4295SOL    HW213785   4.325   5.461   4.375
 4296SOL     OW13786   3.398   0.395   0.347
 4296SOL    HW113787   3.456   0.476   0.345
 4296SOL    HW213788   3.386   0.359   0.254
 4297SOL     OW13789   4.906   0.939   6.970
 4297SOL    HW113790   4.812   0.972   6.975
 4297SOL    HW213791   4.908   0.849   6.926
 4298SOL     OW13792   3.655   5.302   0.479
 4298SOL    HW113793   3.654   5.400   0.460
 4298SOL    HW213794   3.731   5.281   0.541
 4299SOL     OW13795   0.886   2.795   6.253
 4299SOL    HW113796   0.898   2.868   6.185
 4299SOL    HW213797   0.974   2.775   6.295
 4300SOL     OW13798   3.936   0.458   6.956
 4300SOL    HW113799   3.933   0.510   6.871
 4300SOL    HW213800   3.977   0.368   6.939
 4301SOL     OW13801   4.315   1.011   1.672
 4301SOL    HW113802   4.221   1.018   1.706
 4301SOL    HW213803   4.359   0.930   1.713
 4302SOL     OW13804   1.575   6.478   6.348
 4302SOL    HW113805   1.645   6.417   6.310
 4302SOL    HW213806   1.605   6.573   6.339
 4303SOL     OW13807   0.206   4.967   3.934
 4303SOL    HW113808   0.199   4.911   4.017
 4303SOL    HW213809   0.149   4.928   3.862
 4304SOL     OW13810   3.149   4.018   3.350
 4304SOL    HW113811   3.187   4.095   3.300
 4304SOL    HW213812   3.187   4.015   3.443
 4305SOL     OW13813   6.568   0.357   5.087
 4305SOL    HW113814   6.650   0.334   5.034
 4305SOL    HW213815   6.490   0.306   5.051
 4306SOL     OW13816   5.691   4.232   6.240
 4306SOL    HW113817   5.631   4.310   6.223
 4306SOL    HW213818   5.655   4.178   6.316
 4307SOL     OW13819   4.115   4.092   6.080
 4307SOL    HW113820   4.078   4.033   6.008
 4307SOL    HW213821   4.047   4.105   6.151
 4308SOL     OW13822   6.555   5.291   0.036
 4308SOL    HW113823   6.606   5.286   6.973
 4308SOL    HW213824   6.503   5.376   0.039
 4309SOL     OW13825   1.380   1.454   0.264
 4309SOL    HW113826   1.420   1.541   0.294
 4309SOL    HW213827   1.285   1.468   0.239
 4310SOL     OW13828   1.225   2.907   2.642
 4310SOL    HW113829   1.275   2.882   2.559
 4310SOL    HW213830   1.199   2.824   2.691
 4311SOL     OW13831   1.858   6.048   2.929
 4311SOL    HW113832   1.823   6.066   2.837
 4311SOL    HW213833   1.895   6.133   2.967
 4312SOL     OW13834   1.258   4.754   1.151
 4312SOL    HW113835   1.318   4.831   1.130
 4312SOL    HW213836   1.270   4.682   1.082
 4313SOL     OW13837   5.237   1.573   2.116
 4313SOL    HW113838   5.271   1.618   2.034
 4313SOL    HW213839   5.278   1.482   2.123
 4314SOL     OW13840   6.079   0.830   4.604
 4314SOL    HW113841   6.141   0.859   4.678
 4314SOL    HW213842   5.992   0.799   4.643
 4315SOL     OW13843   1.896   6.883   1.832
 4315SOL    HW113844   1.887   6.937   1.916
 4315SOL    HW213845   1.974   6.917   1.779
 4316SOL     OW13846   5.295   0.219   1.729
 4316SOL    HW113847   5.321   0.128   1.697
 4316SOL    HW213848   5.366   0.285   1.704
 4317SOL     OW13849   4.948   1.971   4.522
 4317SOL    HW113850   4.904   2.007   4.604
 4317SOL    HW213851   5.047   1.969   4.536
 4318SOL     OW13852   0.675   3.414   5.199
 4318SOL    HW113853   0.606   3.378   5.262
 4318SOL    HW213854   0.639   3.496   5.155
 4319SOL     OW13855   2.182   2.644   0.934
 4319SOL    HW113856   2.146   2.658   1.027
 4319SOL    HW213857   2.260   2.704   0.919
 4320SOL     OW13858   6.220   5.567   1.130
 4320SOL    HW113859   6.190   5.608   1.217
 4320SOL    HW213860   6.216   5.468   1.137
 4321SOL     OW13861   0.016   6.481   5.664
 4321SOL    HW113862   0.065   6.521   5.742
 4321SOL    HW213863   0.081   6.438   5.601
 4322SOL     OW13864   6.667   2.845   6.677
 4322SOL    HW113865   6.647   2.910   6.750
 4322SOL    HW213866   6.730   2.775   6.711
 4323SOL     OW13867   4.291   3.671   0.845
 4323SOL    HW113868   4.239   3.641   0.924
 4323SOL    HW213869   4.383   3.698   0.873
 4324SOL     OW13870   5.552   4.682   0.167
 4324SOL    HW113871   5.603   4.627   0.102
 4324SOL    HW213872   5.504   4.756   0.120
 4325SOL     OW13873   2.087   1.379   1.238
 4325SOL    HW113874   2.125   1.331   1.158
 4325SOL    HW213875   2.092   1.318   1.318
 4326SOL     OW13876   4.987   4.950   4.957
 4326SOL    HW113877   4.889   4.967   4.959
 4326SOL    HW213878   5.011   4.901   4.873
 4327SOL     OW13879   5.764   6.347   1.674
 4327SOL    HW113880   5.708   6.427   1.697
 4327SOL    HW213881   5.847   6.347   1.731
 4328SOL     OW13882   4.656   3.705   5.438
 4328SOL    HW113883   4.737   3.753   5.404
 4328SOL    HW213884   4.625   3.640   5.369
 4329SOL     OW13885   4.538   1.839   5.808
 4329SOL    HW113886   4.567   1.799   5.896
 4329SOL    HW213887   4.440   1.853   5.810
 4330SOL     OW13888   2.696   6.978   5.007
 4330SOL    HW113889   2.607   6.935   4.993
 4330SOL    HW213890   2.695   0.008   5.091
 4331SOL     OW13891   5.095   2.210   1.400
 4331SOL    HW113892   5.007   2.235   1.441
 4331SOL    HW213893   5.081   2.132   1.339
 4332SOL     OW13894   5.221   4.262   2.621
 4332SOL    HW113895   5.207   4.163   2.627
 4332SOL    HW213896   5.146   4.309   2.668
 4333SOL     OW13897   3.697   0.666   5.011
 4333SOL    HW113898   3.767   0.632   5.073
 4333SOL    HW213899   3.730   0.662   4.917
 4334SOL     OW13900   1.667   2.772   2.600
 4334SOL    HW113901   1.715   2.765   2.512
 4334SOL    HW213902   1.732   2.798   2.671
 4335SOL     OW13903   3.541   3.619   2.358
 4335SOL    HW113904   3.487   3.541   2.391
 4335SOL    HW213905   3.618   3.634   2.420
 4336SOL     OW13906   2.216   6.544   6.790
 4336SOL    HW113907   2.164   6.475   6.740
 4336SOL    HW213908   2.158   6.585   6.861
 4337SOL     OW13909   0.134   4.186   0.809
 4337SOL    HW113910   0.229   4.191   0.840
 4337SOL    HW213911   0.074   4.185   0.889
 4338SOL     OW13912   5.841   5.568   5.120
 4338SOL    HW113913   5.803   5.481   5.151
 4338SOL    HW213914   5.794   5.643   5.166
 4339SOL     OW13915   5.601   3.749   5.091
 4339SOL    HW113916   5.502   3.750   5.101
 4339SOL    HW213917   5.625   3.707   5.003
 4340SOL     OW13918   6.705   3.233   0.995
 4340SOL    HW113919   6.757   3.277   1.068
 4340SOL    HW213920   6.766   3.177   0.939
 4341SOL     OW13921   0.647   5.917   1.846
 4341SOL    HW113922   0.639   6.004   1.895
 4341SOL    HW213923   0.735   5.875   1.867
 4342SOL     OW13924   6.177   4.001   4.358
 4342SOL    HW113925   6.144   3.937   4.427
 4342SOL    HW213926   6.134   4.090   4.371
 4343SOL     OW13927   2.581   5.619   4.899
 4343SOL    HW113928   2.509   5.684   4.924
 4343SOL    HW213929   2.664   5.639   4.952
 4344SOL     OW13930   1.047   4.541   2.211
 4344SOL    HW113931   1.018   4.464   2.268
 4344SOL    HW213932   1.147   4.548   2.213
 4345SOL     OW13933   2.861   3.633   5.313
 4345SOL    HW113934   2.849   3.577   5.231
 4345SOL    HW213935   2.872   3.574   5.393
 4346SOL     OW13936   1.543   3.123   2.331
 4346SOL    HW113937   1.599   3.083   2.404
 4346SOL    HW213938   1.590   3.202   2.293
 4347SOL     OW13939   6.471   6.776   3.023
 4347SOL    HW113940   6.448   6.759   2.927
 4347SOL    HW213941   6.566   6.748   3.040
 4348SOL     OW13942   6.739   4.701   3.096
 4348SOL    HW113943   6.647   4.698   3.057
 4348SOL    HW213944   6.738   4.757   3.179
 4349SOL     OW13945   0.189   1.672   2.551
 4349SOL    HW113946   0.105   1.727   2.553
 4349SOL    HW213947   0.188   1.608   2.628
 4350SOL     OW13948   4.681   1.423   4.037
 4350SOL    HW113949   4.688   1.461   3.945
 4350SOL    HW213950   4.772   1.402   4.072
 4351SOL     OW13951   1.769   5.199   0.991
 4351SOL    HW113952   1.727   5.239   0.910
 4351SOL    HW213953   1.868   5.206   0.984
 4352SOL     OW13954   6.847   3.264   2.221
 4352SOL    HW113955   6.795   3.203   2.280
 4352SOL    HW213956   6.941   3.230   2.213
 4353SOL     OW13957   4.052   3.165   6.370
 4353SOL    HW113958   3.978   3.097   6.370
 4353SOL    HW213959   4.059   3.207   6.460
 4354SOL     OW13960   2.461   6.553   5.348
 4354SOL    HW113961   2.473   6.621   5.275
 4354SOL    HW213962   2.395   6.587   5.415
 4355SOL     OW13963   2.234   0.363   2.401
 4355SOL    HW113964   2.291   0.445   2.394
 4355SOL    HW213965   2.269   0.293   2.339
 4356SOL     OW13966   5.176   3.883   0.915
 4356SOL    HW113967   5.231   3.893   0.831
 4356SOL    HW213968   5.161   3.973   0.955
 4357SOL     OW13969   0.078   1.020   0.743
 4357SOL    HW113970   0.034   1.050   0.658
 4357SOL    HW213971   0.020   0.952   0.788
 4358SOL     OW13972   0.682   6.464   0.055
 4358SOL    HW113973   0.611   6.519   0.100
 4358SOL    HW213974   0.770   6.478   0.101
 4359SOL     OW13975   2.212   1.745   6.894
 4359SOL    HW113976   2.261   1.788   6.969
 4359SOL    HW213977   2.265   1.754   6.810
 4360SOL     OW13978   1.470   2.179   3.623
 4360SOL    HW113979   1.492   2.241   3.547
 4360SOL    HW213980   1.410   2.107   3.591
 4361SOL     OW13981   2.083   3.363   1.424
 4361SOL    HW113982   2.041   3.419   1.352
 4361SOL    HW213983   2.041   3.385   1.512
 4362SOL     OW13984   6.145   5.556   2.837
 4362SOL    HW113985   6.067   5.554   2.775
 4362SOL    HW213986   6.117   5.598   2.924
 4363SOL     OW13987   5.195   2.758   0.314
 4363SOL    HW113988   5.233   2.784   0.403
 4363SOL    HW213989   5.096   2.770   0.315
 4364SOL     OW13990   2.886   3.308   4.574
 4364SOL    HW113991   2.924   3.308   4.667
 4364SOL    HW213992   2.873   3.214   4.544
 4365SOL     OW13993   2.173   1.601   1.805
 4365SOL    HW113994   2.231   1.611   1.724
 4365SOL    HW213995   2.221   1.638   1.885
 4366SOL     OW13996   5.958   0.138   0.089
 4366SOL    HW113997   5.927   0.213   0.030
 4366SOL    HW213998   5.886   0.117   0.156
 4367SOL     OW13999   2.154   4.350   3.838
 4367SOL    HW114000   2.202   4.266   3.810
 4367SOL    HW214001   2.055   4.336   3.830
 4368SOL     OW14002   3.860   4.196   0.547
 4368SOL    HW114003   3.946   4.148   0.530
 4368SOL    HW214004   3.805   4.142   0.611
 4369SOL     OW14005   4.359   5.292   2.708
 4369SOL    HW114006   4.385   5.311   2.803
 4369SOL    HW214007   4.382   5.370   2.651
 4370SOL     OW14008   4.283   5.293   2.277
 4370SOL    HW114009   4.320   5.222   2.217
 4370SOL    HW214010   4.183   5.296   2.267
 4371SOL     OW14011   1.047   2.282   1.452
 4371SOL    HW114012   1.079   2.191   1.477
 4371SOL    HW214013   1.079   2.305   1.360
 4372SOL     OW14014   3.542   1.440   2.627
 4372SOL    HW114015   3.456   1.401   2.595
 4372SOL    HW214016   3.549   1.535   2.600
 4373SOL     OW14017   6.526   2.236   6.503
 4373SOL    HW114018   6.435   2.277   6.504
 4373SOL    HW214019   6.575   2.261   6.587
 4374SOL     OW14020   1.419   2.124   1.660
 4374SOL    HW114021   1.474   2.043   1.676
 4374SOL    HW214022   1.471   2.206   1.685
 4375SOL     OW14023   4.358   6.939   3.164
 4375SOL    HW114024   4.362   6.857   3.222
 4375SOL    HW214025   4.413   7.012   3.204
 4376SOL     OW14026   6.985   0.050   1.177
 4376SOL    HW114027   7.001   0.121   1.245
 4376SOL    HW214028   0.006   0.075   1.091
 4377SOL     OW14029   5.308   4.685   0.549
 4377SOL    HW114030   5.298   4.598   0.502
 4377SOL    HW214031   5.339   4.755   0.484
 4378SOL     OW14032   1.993   2.507   3.144
 4378SOL    HW114033   1.923   2.476   3.080
 4378SOL    HW214034   2.075   2.534   3.094
 4379SOL     OW14035   1.856   1.409   2.957
 4379SOL    HW114036   1.858   1.423   2.858
 4379SOL    HW214037   1.824   1.492   3.003
 4380SOL     OW14038   0.556   6.969   2.588
 4380SOL    HW114039   0.538   6.893   2.650
 4380SOL    HW214040   0.470   7.006   2.554
 4381SOL     OW14041   1.143   5.424   5.439
 4381SOL    HW114042   1.165   5.500   5.500
 4381SOL    HW214043   1.043   5.420   5.427
 4382SOL     OW14044   6.819   3.041   5.551
 4382SOL    HW114045   6.838   3.121   5.494
 4382SOL    HW214046   6.785   2.967   5.493
 4383SOL     OW14047   0.527   3.228   5.833
 4383SOL    HW114048   0.457   3.160   5.811
 4383SOL    HW214049   0.611   3.183   5.860
 4384SOL     OW14050   5.474   0.991   4.508
 4384SOL    HW114051   5.526   0.970   4.590
 4384SOL    HW214052   5.522   1.061   4.455
 4385SOL     OW14053   5.889   2.563   4.492
 4385SOL    HW114054   5.814   2.625   4.471
 4385SOL    HW214055   5.883   2.536   4.588
 4386SOL     OW14056   1.764   3.767   5.723
 4386SOL    HW114057   1.797   3.677   5.692
 4386SOL    HW214058   1.820   3.838   5.681
 4387SOL     OW14059   0.220   1.477   1.212
 4387SOL    HW114060   0.182   1.542   1.147
 4387SOL    HW214061   0.317   1.496   1.226
 4388SOL     OW14062   4.693   2.677   6.209
 4388SOL    HW114063   4.732   2.651   6.297
 4388SOL    HW214064   4.642   2.600   6.171
 4389SOL     OW14065   6.464   2.994   0.521
 4389SOL    HW114066   6.431   3.072   0.575
 4389SOL    HW214067   6.557   2.970   0.549
 4390SOL     OW14068   4.158   0.090   1.721
 4390SOL    HW114069   4.223   0.013   1.724
 4390SOL    HW214070   4.077   0.063   1.670
 4391SOL     OW14071   2.592   5.355   6.649
 4391SOL    HW114072   2.662   5.298   6.605
 4391SOL    HW214073   2.616   5.451   6.639
 4392SOL     OW14074   6.506   3.604   4.837
 4392SOL    HW114075   6.512   3.665   4.916
 4392SOL    HW214076   6.566   3.638   4.764
 4393SOL     OW14077   5.979   0.942   2.836
 4393SOL    HW114078   5.963   0.844   2.841
 4393SOL    HW214079   6.026   0.965   2.751
 4394SOL     OW14080   6.983   5.264   2.321
 4394SOL    HW114081   0.046   5.254   2.272
 4394SOL    HW214082   6.928   5.336   2.278
 4395SOL     OW14083   1.482   6.995   2.635
 4395SOL    HW114084   1.546   6.971   2.562
 4395SOL    HW214085   1.482   6.923   2.704
 4396SOL     OW14086   2.955   1.838   3.890
 4396SOL    HW114087   2.874   1.789   3.857
 4396SOL    HW214088   2.949   1.849   3.989
 4397SOL     OW14089   1.134   2.103   4.403
 4397SOL    HW114090   1.062   2.062   4.459
 4397SOL    HW214091   1.151   2.196   4.433
 4398SOL     OW14092   0.530   3.466   6.269
 4398SOL    HW114093   0.438   3.428   6.267
 4398SOL    HW214094   0.525   3.565   6.280
 4399SOL     OW14095   2.640   0.224   2.676
 4399SOL    HW114096   2.658   0.128   2.693
 4399SOL    HW214097   2.550   0.235   2.634
 4400SOL     OW14098   2.992   6.778   5.404
 4400SOL    HW114099   3.071   6.811   5.455
 4400SOL    HW214100   2.961   6.691   5.443
 4401SOL     OW14101   2.891   0.081   5.958
 4401SOL    HW114102   2.903   0.180   5.950
 4401SOL    HW214103   2.847   0.046   5.875
 4402SOL     OW14104   1.743   1.151   2.038
 4402SOL    HW114105   1.808   1.134   2.112
 4402SOL    HW214106   1.749   1.077   1.970
 4403SOL     OW14107   0.620   0.679   0.774
 4403SOL    HW114108   0.651   0.630   0.856
 4403SOL    HW214109   0.568   0.617   0.716
 4404SOL     OW14110   1.684   5.840   5.627
 4404SOL    HW114111   1.619   5.899   5.676
 4404SOL    HW214112   1.778   5.867   5.651
 4405SOL     OW14113   1.859   4.385   1.749
 4405SOL    HW114114   1.765   4.390   1.715
 4405SOL    HW214115   1.890   4.476   1.775
 4406SOL     OW14116   0.461   3.136   1.245
 4406SOL    HW114117   0.479   3.058   1.185
 4406SOL    HW214118   0.541   3.153   1.302
 4407SOL     OW14119   6.306   5.705   0.614
 4407SOL    HW114120   6.405   5.692   0.626
 4407SOL    HW214121   6.260   5.681   0.700
 4408SOL     OW14122   2.532   0.652   1.090
 4408SOL    HW114123   2.527   0.722   1.019
 4408SOL    HW214124   2.540   0.562   1.048
 4409SOL     OW14125   4.662   1.546   2.057
 4409SOL    HW114126   4.596   1.618   2.038
 4409SOL    HW214127   4.729   1.578   2.124
 4410SOL     OW14128   1.294   5.095   6.835
 4410SOL    HW114129   1.374   5.119   6.890
 4410SOL    HW214130   1.281   4.996   6.836
 4411SOL     OW14131   3.599   4.223   4.977
 4411SOL    HW114132   3.535   4.197   4.905
 4411SOL    HW214133   3.640   4.311   4.956
 4412SOL     OW14134   4.783   6.054   4.115
 4412SOL    HW114135   4.852   6.020   4.178
 4412SOL    HW214136   4.780   6.154   4.118
 4413SOL     OW14137   5.596   5.118   4.677
 4413SOL    HW114138   5.557   5.031   4.646
 4413SOL    HW214139   5.691   5.104   4.705
 4414SOL     OW14140   3.602   5.035   1.297
 4414SOL    HW114141   3.592   5.131   1.272
 4414SOL    HW214142   3.541   4.979   1.242
 4415SOL     OW14143   5.250   2.856   0.590
 4415SOL    HW114144   5.157   2.854   0.626
 4415SOL    HW214145   5.283   2.950   0.586
 4416SOL     OW14146   3.765   1.498   4.168
 4416SOL    HW114147   3.718   1.483   4.081
 4416SOL    HW214148   3.792   1.410   4.207
 4417SOL     OW14149   5.581   4.326   3.616
 4417SOL    HW114150   5.568   4.232   3.586
 4417SOL    HW214151   5.526   4.388   3.560
 4418SOL     OW14152   6.156   1.841   2.283
 4418SOL    HW114153   6.122   1.855   2.375
 4418SOL    HW214154   6.235   1.901   2.267
 4419SOL     OW14155   5.718   6.760   5.991
 4419SOL    HW114156   5.692   6.782   5.897
 4419SOL    HW214157   5.743   6.663   5.998
 4420SOL     OW14158   4.647   1.225   1.730
 4420SOL    HW114159   4.668   1.183   1.641
 4420SOL    HW214160   4.659   1.157   1.802
 4421SOL     OW14161   2.087   1.392   5.036
 4421SOL    HW114162   2.180   1.385   5.002
 4421SOL    HW214163   2.053   1.485   5.022
 4422SOL     OW14164   1.959   3.863   6.989
 4422SOL    HW114165   1.907   3.945   7.014
 4422SOL    HW214166   2.013   3.832   0.043
 4423SOL     OW14167   6.901   3.291   5.425
 4423SOL    HW114168   6.845   3.322   5.348
 4423SOL    HW214169   6.997   3.308   5.406
 4424SOL     OW14170   5.561   1.191   4.241
 4424SOL    HW114171   5.515   1.104   4.227
 4424SOL    HW214172   5.659   1.176   4.252
 4425SOL     OW14173   2.822   4.250   6.831
 4425SOL    HW114174   2.890   4.317   6.801
 4425SOL    HW214175   2.866   4.180   6.888
 4426SOL     OW14176   0.534   1.277   4.224
 4426SOL    HW114177   0.602   1.325   4.281
 4426SOL    HW214178   0.517   1.187   4.263
 4427SOL     OW14179   0.005   6.156   2.292
 4427SOL    HW114180   0.023   6.061   2.318
 4427SOL    HW214181   0.091   6.202   2.273
 4428SOL     OW14182   3.391   1.207   3.762
 4428SOL    HW114183   3.442   1.202   3.677
 4428SOL    HW214184   3.407   1.296   3.806
 4429SOL     OW14185   2.672   6.969   2.650
 4429SOL    HW114186   2.588   6.922   2.623
 4429SOL    HW214187   2.731   6.905   2.701
 4430SOL     OW14188   4.978   4.551   5.163
 4430SOL    HW114189   5.023   4.526   5.249
 4430SOL    HW214190   4.930   4.638   5.174
 4431SOL     OW14191   2.968   1.168   2.669
 4431SOL    HW114192   3.057   1.159   2.715
 4431SOL    HW214193   2.930   1.078   2.652
 4432SOL     OW14194   2.581   3.447   6.071
 4432SOL    HW114195   2.600   3.532   6.121
 4432SOL    HW214196   2.528   3.386   6.129
 4433SOL     OW14197   5.597   1.907   4.442
 4433SOL    HW114198   5.655   1.902   4.361
 4433SOL    HW214199   5.501   1.910   4.414
 4434SOL     OW14200   5.595   1.235   2.997
 4434SOL    HW114201   5.556   1.180   3.070
 4434SOL    HW214202   5.639   1.316   3.035
 4435SOL     OW14203   5.062   3.575   1.170
 4435SOL    HW114204   4.999   3.547   1.242
 4435SOL    HW214205   5.094   3.668   1.187
 4436SOL     OW14206   4.521   0.683   1.351
 4436SOL    HW114207   4.525   0.621   1.430
 4436SOL    HW214208   4.465   0.762   1.375
 4437SOL     OW14209   0.383   3.164   2.865
 4437SOL    HW114210   0.413   3.089   2.805
 4437SOL    HW214211   0.463   3.210   2.903
 4438SOL     OW14212   4.935   6.992   6.373
 4438SOL    HW114213   4.908   0.027   6.296
 4438SOL    HW214214   4.962   0.026   6.450
 4439SOL     OW14215   0.197   4.067   1.759
 4439SOL    HW114216   0.279   4.083   1.814
 4439SOL    HW214217   0.182   4.145   1.699
 4440SOL     OW14218   3.073   4.560   0.263
 4440SOL    HW114219   3.156   4.524   0.306
 4440SOL    HW214220   3.088   4.654   0.233
 4441SOL     OW14221   0.741   1.941   2.088
 4441SOL    HW114222   0.718   1.890   2.171
 4441SOL    HW214223   0.662   1.997   2.061
 4442SOL     OW14224   1.910   5.132   4.055
 4442SOL    HW114225   1.841   5.146   3.985
 4442SOL    HW214226   1.926   5.034   4.067
 4443SOL     OW14227   1.442   3.506   6.331
 4443SOL    HW114228   1.480   3.517   6.239
 4443SOL    HW214229   1.431   3.408   6.350
 4444SOL     OW14230   3.383   4.027   5.336
 4444SOL    HW114231   3.339   4.066   5.255
 4444SOL    HW214232   3.448   3.957   5.308
 4445SOL     OW14233   1.592   6.324   6.812
 4445SOL    HW114234   1.571   6.271   6.730
 4445SOL    HW214235   1.542   6.287   6.890
 4446SOL     OW14236   5.233   0.988   1.370
 4446SOL    HW114237   5.251   1.067   1.429
 4446SOL    HW214238   5.247   1.015   1.275
 4447SOL     OW14239   4.905   4.596   6.030
 4447SOL    HW114240   4.821   4.647   6.050
 4447SOL    HW214241   4.967   4.654   5.976
 4448SOL     OW14242   2.425   4.478   1.616
 4448SOL    HW114243   2.402   4.400   1.675
 4448SOL    HW214244   2.414   4.563   1.666
 4449SOL     OW14245   4.920   1.036   6.148
 4449SOL    HW114246   4.844   1.006   6.089
 4449SOL    HW214247   4.900   1.126   6.184
 4450SOL     OW14248   3.710   2.806   5.798
 4450SOL    HW114249   3.737   2.822   5.703
 4450SOL    HW214250   3.791   2.803   5.856
 4451SOL     OW14251   6.027   4.603   3.272
 4451SOL    HW114252   6.058   4.648   3.357
 4451SOL    HW214253   5.948   4.546   3.292
 4452SOL     OW14254   5.587   5.917   4.364
 4452SOL    HW114255   5.539   5.918   4.452
 4452SOL    HW214256   5.541   5.979   4.300
 4453SOL     OW14257   1.027   3.017   1.106
 4453SOL    HW114258   0.947   3.076   1.100
 4453SOL    HW214259   1.098   3.049   1.043
 4454SOL     OW14260   1.336   1.945   0.105
 4454SOL    HW114261   1.252   1.892   0.098
 4454SOL    HW214262   1.317   2.032   0.150
 4455SOL     OW14263   5.102   5.887   6.144
 4455SOL    HW114264   5.050   5.878   6.059
 4455SOL    HW214265   5.064   5.826   6.213
 4456SOL     OW14266   2.652   5.770   2.247
 4456SOL    HW114267   2.628   5.852   2.195
 4456SOL    HW214268   2.750   5.769   2.265
 4457SOL     OW14269   3.832   1.126   2.847
 4457SOL    HW114270   3.905   1.071   2.887
 4457SOL    HW214271   3.792   1.077   2.770
 4458SOL     OW14272   1.916   2.581   0.331
 4458SOL    HW114273   1.879   2.650   0.269
 4458SOL    HW214274   1.996   2.617   0.378
 4459SOL     OW14275   4.058   1.828   3.942
 4459SOL    HW114276   4.055   1.772   3.860
 4459SOL    HW214277   4.126   1.901   3.930
 4460SOL     OW14278   1.704   2.642   6.380
 4460SOL    HW114279   1.616   2.617   6.341
 4460SOL    HW214280   1.774   2.639   6.309
 4461SOL     OW14281   2.120   0.459   0.861
 4461SOL    HW114282   2.103   0.361   0.870
 4461SOL    HW214283   2.140   0.497   0.951
 4462SOL     OW14284   6.162   5.085   2.268
 4462SOL    HW114285   6.170   5.171   2.318
 4462SOL    HW214286   6.192   5.098   2.173
 4463SOL     OW14287   5.059   1.148   0.756
 4463SOL    HW114288   5.003   1.072   0.787
 4463SOL    HW214289   5.012   1.235   0.775
 4464SOL     OW14290   6.955   5.184   0.244
 4464SOL    HW114291   6.894   5.241   0.189
 4464SOL    HW214292   6.978   5.231   0.329
 4465SOL     OW14293   3.462   4.915   1.117
 4465SOL    HW114294   3.419   4.991   1.067
 4465SOL    HW214295   3.522   4.865   1.056
 4466SOL     OW14296   1.231   1.531   2.956
 4466SOL    HW114297   1.159   1.560   2.893
 4466SOL    HW214298   1.214   1.437   2.985
 4467SOL     OW14299   1.586   5.641   2.610
 4467SOL    HW114300   1.608   5.648   2.707
 4467SOL    HW214301   1.638   5.709   2.558
 4468SOL     OW14302   1.967   4.127   0.390
 4468SOL    HW114303   2.066   4.125   0.372
 4468SOL    HW214304   1.949   4.186   0.469
 4469SOL     OW14305   3.206   0.299   2.095
 4469SOL    HW114306   3.186   0.227   2.160
 4469SOL    HW214307   3.124   0.353   2.078
 4470SOL     OW14308   0.209   2.263   2.025
 4470SOL    HW114309   0.279   2.321   2.066
 4470SOL    HW214310   0.160   2.212   2.096
 4471SOL     OW14311   1.332   2.291   6.408
 4471SOL    HW114312   1.329   2.377   6.458
 4471SOL    HW214313   1.327   2.215   6.473
 4472SOL     OW14314   0.547   3.287   2.241
 4472SOL    HW114315   0.558   3.377   2.199
 4472SOL    HW214316   0.636   3.244   2.252
 4473SOL     OW14317   5.679   2.878   3.899
 4473SOL    HW114318   5.597   2.825   3.877
 4473SOL    HW214319   5.746   2.819   3.943
 4474SOL     OW14320   2.272   0.696   2.078
 4474SOL    HW114321   2.328   0.616   2.096
 4474SOL    HW214322   2.331   0.776   2.064
 4475SOL     OW14323   1.168   4.229   2.166
 4475SOL    HW114324   1.096   4.225   2.097
 4475SOL    HW214325   1.130   4.262   2.252
 4476SOL     OW14326   5.742   0.712   3.236
 4476SOL    HW114327   5.731   0.726   3.138
 4476SOL    HW214328   5.791   0.789   3.276
 4477SOL     OW14329   1.767   0.274   5.692
 4477SOL    HW114330   1.739   0.282   5.596
 4477SOL    HW214331   1.850   0.329   5.706
 4478SOL     OW14332   3.137   6.862   2.712
 4478SOL    HW114333   3.140   6.949   2.762
 4478SOL    HW214334   3.156   6.787   2.775
 4479SOL     OW14335   0.326   2.203   0.849
 4479SOL    HW114336   0.231   2.226   0.870
 4479SOL    HW214337   0.375   2.286   0.821
 4480SOL     OW14338   0.351   4.329   5.128
 4480SOL    HW114339   0.396   4.346   5.216
 4480SOL    HW214340   0.414   4.279   5.067
 4481SOL     OW14341   3.631   5.760   4.698
 4481SOL    HW114342   3.569   5.686   4.726
 4481SOL    HW214343   3.713   5.721   4.658
 4482SOL     OW14344   1.765   3.056   5.222
 4482SOL    HW114345   1.677   3.088   5.256
 4482SOL    HW214346   1.754   3.018   5.131
 4483SOL     OW14347   5.863   2.506   2.087
 4483SOL    HW114348   5.876   2.482   1.991
 4483SOL    HW214349   5.862   2.606   2.097
 4484SOL     OW14350   3.630   2.430   6.672
 4484SOL    HW114351   3.564   2.489   6.626
 4484SOL    HW214352   3.722   2.451   6.639
 4485SOL     OW14353   5.783   2.492   3.995
 4485SOL    HW114354   5.838   2.469   4.075
 4485SOL    HW214355   5.822   2.573   3.950
 4486SOL     OW14356   6.583   5.347   5.485
 4486SOL    HW114357   6.660   5.403   5.515
 4486SOL    HW214358   6.568   5.361   5.387
 4487SOL     OW14359   2.852   2.879   6.224
 4487SOL    HW114360   2.889   2.802   6.276
 4487SOL    HW214361   2.815   2.846   6.137
 4488SOL     OW14362   0.187   3.627   5.702
 4488SOL    HW114363   0.253   3.620   5.777
 4488SOL    HW214364   0.098   3.595   5.733
 4489SOL     OW14365   4.822   5.607   5.295
 4489SOL    HW114366   4.781   5.661   5.369
 4489SOL    HW214367   4.849   5.668   5.221
 4490SOL     OW14368   5.458   2.267   2.335
 4490SOL    HW114369   5.414   2.283   2.247
 4490SOL    HW214370   5.405   2.199   2.386
 4491SOL     OW14371   0.592   3.360   3.721
 4491SOL    HW114372   0.621   3.426   3.790
 4491SOL    HW214373   0.552   3.280   3.765
 4492SOL     OW14374   5.932   4.641   2.380
 4492SOL    HW114375   5.977   4.554   2.396
 4492SOL    HW214376   5.982   4.693   2.310
 4493SOL     OW14377   4.713   5.370   4.535
 4493SOL    HW114378   4.632   5.419   4.566
 4493SOL    HW214379   4.685   5.295   4.475
 4494SOL     OW14380   0.718   0.896   6.589
 4494SOL    HW114381   0.666   0.822   6.548
 4494SOL    HW214382   0.701   0.981   6.539
 4495SOL     OW14383   4.080   0.034   4.032
 4495SOL    HW114384   4.129   0.110   3.990
 4495SOL    HW214385   4.141   6.978   4.039
 4496SOL     OW14386   6.030   6.540   1.272
 4496SOL    HW114387   6.051   6.498   1.184
 4496SOL    HW214388   5.997   6.633   1.258
 4497SOL     OW14389   4.841   2.446   6.775
 4497SOL    HW114390   4.832   2.351   6.745
 4497SOL    HW214391   4.759   2.474   6.823
 4498SOL     OW14392   0.062   3.240   0.307
 4498SOL    HW114393   6.994   3.209   0.333
 4498SOL    HW214394   0.117   3.255   0.390
 4499SOL     OW14395   5.978   3.880   4.166
 4499SOL    HW114396   5.956   3.943   4.240
 4499SOL    HW214397   6.078   3.873   4.156
 4500SOL     OW14398   3.131   3.068   4.476
 4500SOL    HW114399   3.180   3.098   4.394
 4500SOL    HW214400   3.166   3.119   4.555
 4501SOL     OW14401   6.647   3.317   2.807
 4501SOL    HW114402   6.617   3.281   2.719
 4501SOL    HW214403   6.678   3.411   2.796
 4502SOL     OW14404   0.830   2.855   6.935
 4502SOL    HW114405   0.812   2.757   6.926
 4502SOL    HW214406   0.801   2.886   0.002
 4503SOL     OW14407   3.469   6.646   1.956
 4503SOL    HW114408   3.441   6.732   2.000
 4503SOL    HW214409   3.389   6.602   1.915
 4504SOL     OW14410   6.855   0.958   4.633
 4504SOL    HW114411   6.790   0.898   4.679
 4504SOL    HW214412   6.853   1.049   4.676
 4505SOL     OW14413   6.579   5.613   2.119
 4505SOL    HW114414   6.610   5.528   2.161
 4505SOL    HW214415   6.658   5.665   2.087
 4506SOL     OW14416   4.848   3.043   3.560
 4506SOL    HW114417   4.922   3.101   3.527
 4506SOL    HW214418   4.841   3.050   3.660
 4507SOL     OW14419   6.241   4.603   3.680
 4507SOL    HW114420   6.201   4.675   3.623
 4507SOL    HW214421   6.167   4.553   3.726
 4508SOL     OW14422   1.519   5.226   6.986
 4508SOL    HW114423   1.586   5.280   0.014
 4508SOL    HW214424   1.527   5.247   6.888
 4509SOL     OW14425   4.941   2.641   3.031
 4509SOL    HW114426   4.861   2.583   3.046
 4509SOL    HW214427   4.941   2.716   3.097
 4510SOL     OW14428   4.355   2.093   4.344
 4510SOL    HW114429   4.339   2.192   4.350
 4510SOL    HW214430   4.359   2.066   4.248
 4511SOL     OW14431   5.952   4.181   6.368
 4511SOL    HW114432   5.956   4.086   6.399
 4511SOL    HW214433   5.865   4.198   6.322
 4512SOL     OW14434   2.766   0.992   5.887
 4512SOL    HW114435   2.829   1.014   5.813
 4512SOL    HW214436   2.751   1.074   5.943
 4513SOL     OW14437   0.533   5.066   6.481
 4513SOL    HW114438   0.577   5.017   6.406
 4513SOL    HW214439   0.470   5.004   6.529
 4514SOL     OW14440   3.565   2.004   6.052
 4514SOL    HW114441   3.569   1.914   6.010
 4514SOL    HW214442   3.632   2.064   6.008
 4515SOL     OW14443   5.985   2.064   5.283
 4515SOL    HW114444   6.073   2.110   5.272
 4515SOL    HW214445   6.000   1.969   5.310
 4516SOL     OW14446   2.336   0.037   0.045
 4516SOL    HW114447   2.372   0.068   0.132
 4516SOL    HW214448   2.353   6.962   0.034
 4517SOL     OW14449   4.808   6.954   6.932
 4517SOL    HW114450   4.907   6.961   6.922
 4517SOL    HW214451   4.780   6.993   7.020
 4518SOL     OW14452   6.843   6.698   2.404
 4518SOL    HW114453   6.765   6.684   2.343
 4518SOL    HW214454   6.880   6.609   2.431
 4519SOL     OW14455   6.331   0.041   1.346
 4519SOL    HW114456   6.391   7.018   1.411
 4519SOL    HW214457   6.237   0.038   1.380
 4520SOL     OW14458   4.451   6.337   5.697
 4520SOL    HW114459   4.453   6.289   5.785
 4520SOL    HW214460   4.428   6.433   5.712
 4521SOL     OW14461   5.750   2.270   4.625
 4521SOL    HW114462   5.820   2.308   4.565
 4521SOL    HW214463   5.739   2.172   4.606
 4522SOL     OW14464   5.456   5.217   3.825
 4522SOL    HW114465   5.386   5.148   3.808
 4522SOL    HW214466   5.502   5.197   3.912
 4523SOL     OW14467   1.351   4.851   6.975
 4523SOL    HW114468   1.407   4.874   0.032
 4523SOL    HW214469   1.333   4.752   6.975
 4524SOL     OW14470   6.653   2.864   1.865
 4524SOL    HW114471   6.725   2.813   1.910
 4524SOL    HW214472   6.624   2.940   1.923
 4525SOL     OW14473   5.094   2.445   4.853
 4525SOL    HW114474   4.994   2.445   4.848
 4525SOL    HW214475   5.125   2.529   4.899
 4526SOL     OW14476   6.758   0.542   6.561
 4526SOL    HW114477   6.857   0.553   6.570
 4526SOL    HW214478   6.738   0.475   6.489
 4527SOL     OW14479   6.768   1.238   3.172
 4527SOL    HW114480   6.738   1.330   3.146
 4527SOL    HW214481   6.755   1.225   3.271
 4528SOL     OW14482   4.535   0.522   6.676
 4528SOL    HW114483   4.583   0.476   6.751
 4528SOL    HW214484   4.594   0.591   6.635
 4529SOL     OW14485   2.243   0.553   5.047
 4529SOL    HW114486   2.155   0.597   5.061
 4529SOL    HW214487   2.315   0.607   5.091
 4530SOL     OW14488   1.598   5.706   4.312
 4530SOL    HW114489   1.546   5.622   4.326
 4530SOL    HW214490   1.663   5.718   4.387
 4531SOL     OW14491   0.885   2.688   5.493
 4531SOL    HW114492   0.858   2.778   5.528
 4531SOL    HW214493   0.943   2.700   5.413
 4532SOL     OW14494   6.324   1.413   2.046
 4532SOL    HW114495   6.343   1.449   2.137
 4532SOL    HW214496   6.392   1.447   1.981
 4533SOL     OW14497   1.695   1.224   2.386
 4533SOL    HW114498   1.695   1.321   2.411
 4533SOL    HW214499   1.655   1.170   2.461
 4534SOL     OW14500   5.505   4.447   5.024
 4534SOL    HW114501   5.417   4.415   4.991
 4534SOL    HW214502   5.550   4.374   5.076
 4535SOL     OW14503   3.777   0.645   2.118
 4535SOL    HW114504   3.764   0.719   2.052
 4535SOL    HW214505   3.779   0.683   2.210
 4536SOL     OW14506   4.694   1.524   4.430
 4536SOL    HW114507   4.604   1.534   4.471
 4536SOL    HW214508   4.708   1.430   4.402
 4537SOL     OW14509   4.305   3.394   0.789
 4537SOL    HW114510   4.323   3.492   0.804
 4537SOL    HW214511   4.262   3.381   0.700
 4538SOL     OW14512   1.979   0.829   2.647
 4538SOL    HW114513   2.027   0.743   2.670
 4538SOL    HW214514   1.881   0.810   2.637
 4539SOL     OW14515   3.410   6.144   4.777
 4539SOL    HW114516   3.345   6.067   4.770
 4539SOL    HW214517   3.498   6.116   4.739
 4540SOL     OW14518   2.198   2.571   6.969
 4540SOL    HW114519   2.206   2.564   6.869
 4540SOL    HW214520   2.233   2.488   7.011
 4541SOL     OW14521   5.969   1.780   6.566
 4541SOL    HW114522   5.990   1.692   6.524
 4541SOL    HW214523   6.018   1.853   6.519
 4542SOL     OW14524   0.152   2.028   1.628
 4542SOL    HW114525   0.214   1.980   1.566
 4542SOL    HW214526   0.066   2.049   1.580
 4543SOL     OW14527   4.533   2.589   1.018
 4543SOL    HW114528   4.524   2.546   1.108
 4543SOL    HW214529   4.483   2.535   0.950
 4544SOL     OW14530   3.405   5.572   6.577
 4544SOL    HW114531   3.469   5.531   6.512
 4544SOL    HW214532   3.455   5.632   6.640
 4545SOL     OW14533   5.845   3.262   4.214
 4545SOL    HW114534   5.938   3.297   4.225
 4545SOL    HW214535   5.846   3.184   4.151
 4546SOL     OW14536   2.649   0.384   3.933
 4546SOL    HW114537   2.576   0.323   3.962
 4546SOL    HW214538   2.661   0.377   3.833
 4547SOL     OW14539   6.358   2.081   0.766
 4547SOL    HW114540   6.361   2.024   0.683
 4547SOL    HW214541   6.369   2.177   0.741
 4548SOL     OW14542   1.920   2.945   3.916
 4548SOL    HW114543   1.829   2.911   3.939
 4548SOL    HW214544   1.914   3.009   3.840
 4549SOL     OW14545   5.625   4.031   2.503
 4549SOL    HW114546   5.613   3.933   2.489
 4549SOL    HW214547   5.538   4.078   2.490
 4550SOL     OW14548   1.252   5.349   3.379
 4550SOL    HW114549   1.309   5.431   3.372
 4550SOL    HW214550   1.155   5.376   3.374
 4551SOL     OW14551   0.947   3.253   4.602
 4551SOL    HW114552   0.933   3.344   4.563
 4551SOL    HW214553   1.007   3.260   4.681
 4552SOL     OW14554   5.971   2.120   1.060
 4552SOL    HW114555   5.949   2.024   1.044
 4552SOL    HW214556   5.887   2.171   1.079
 4553SOL     OW14557   4.480   4.235   0.505
 4553SOL    HW114558   4.553   4.288   0.549
 4553SOL    HW214559   4.391   4.276   0.527
 4554SOL     OW14560   6.630   6.625   2.234
 4554SOL    HW114561   6.626   6.532   2.195
 4554SOL    HW214562   6.551   6.639   2.293
 4555SOL     OW14563   2.138   1.935   5.102
 4555SOL    HW114564   2.197   1.945   5.021
 4555SOL    HW214565   2.074   2.012   5.106
 4556SOL     OW14566   5.399   4.086   4.566
 4556SOL    HW114567   5.412   4.098   4.664
 4556SOL    HW214568   5.332   4.014   4.550
 4557SOL     OW14569   4.843   5.707   4.727
 4557SOL    HW114570   4.749   5.735   4.706
 4557SOL    HW214571   4.877   5.760   4.805
 4558SOL     OW14572   0.056   4.317   4.650
 4558SOL    HW114573   7.013   4.321   4.724
 4558SOL    HW214574   0.080   4.410   4.621
 4559SOL     OW14575   6.955   3.302   2.684
 4559SOL    HW114576   6.865   3.329   2.717
 4559SOL    HW214577   0.002   3.343   2.742
 4560SOL     OW14578   5.847   3.863   1.011
 4560SOL    HW114579   5.767   3.890   0.957
 4560SOL    HW214580   5.878   3.941   1.066
 4561SOL     OW14581   3.226   1.931   2.945
 4561SOL    HW114582   3.129   1.915   2.960
 4561SOL    HW214583   3.238   2.015   2.891
 4562SOL     OW14584   2.219   6.706   6.397
 4562SOL    HW114585   2.277   6.629   6.424
 4562SOL    HW214586   2.188   6.694   6.303
 4563SOL     OW14587   0.043   2.345   1.442
 4563SOL    HW114588   7.020   2.434   1.449
 4563SOL    HW214589   0.119   2.342   1.507
 4564SOL     OW14590   0.106   6.241   1.836
 4564SOL    HW114591   0.149   6.324   1.873
 4564SOL    HW214592   0.061   6.191   1.910
 4565SOL     OW14593   0.876   0.420   4.597
 4565SOL    HW114594   0.947   0.489   4.590
 4565SOL    HW214595   0.793   0.461   4.636
 4566SOL     OW14596   0.044   2.861   0.461
 4566SOL    HW114597   0.136   2.899   0.470
 4566SOL    HW214598   0.045   2.763   0.480
 4567SOL     OW14599   6.439   1.217   6.512
 4567SOL    HW114600   6.349   1.217   6.468
 4567SOL    HW214601   6.508   1.244   6.444
 4568SOL     OW14602   1.891   3.533   5.641
 4568SOL    HW114603   1.970   3.511   5.584
 4568SOL    HW214604   1.879   3.461   5.710
 4569SOL     OW14605   2.208   0.885   3.179
 4569SOL    HW114606   2.175   0.975   3.211
 4569SOL    HW214607   2.179   0.815   3.244
 4570SOL     OW14608   6.675   6.460   2.605
 4570SOL    HW114609   6.762   6.458   2.557
 4570SOL    HW214610   6.626   6.374   2.590
 4571SOL     OW14611   4.589   3.983   6.224
 4571SOL    HW114612   4.639   4.013   6.143
 4571SOL    HW214613   4.650   3.934   6.285
 4572SOL     OW14614   1.699   0.732   6.360
 4572SOL    HW114615   1.754   0.744   6.443
 4572SOL    HW214616   1.760   0.724   6.281
 4573SOL     OW14617   6.640   0.534   0.388
 4573SOL    HW114618   6.584   0.461   0.427
 4573SOL    HW214619   6.658   0.603   0.458
 4574SOL     OW14620   5.797   3.889   0.580
 4574SOL    HW114621   5.874   3.907   0.642
 4574SOL    HW214622   5.780   3.970   0.523
 4575SOL     OW14623   5.757   0.637   5.581
 4575SOL    HW114624   5.708   0.681   5.507
 4575SOL    HW214625   5.708   0.650   5.667
 4576SOL     OW14626   3.670   5.925   5.701
 4576SOL    HW114627   3.670   5.830   5.671
 4576SOL    HW214628   3.696   5.929   5.798
 4577SOL     OW14629   0.878   1.751   4.397
 4577SOL    HW114630   0.887   1.728   4.494
 4577SOL    HW214631   0.788   1.793   4.381
 4578SOL     OW14632   0.849   2.590   5.167
 4578SOL    HW114633   0.933   2.633   5.202
 4578SOL    HW214634   0.781   2.588   5.240
 4579SOL     OW14635   3.937   0.296   3.173
 4579SOL    HW114636   3.899   0.360   3.106
 4579SOL    HW214637   3.990   0.225   3.125
 4580SOL     OW14638   5.436   4.210   0.893
 4580SOL    HW114639   5.424   4.273   0.816
 4580SOL    HW214640   5.384   4.243   0.972
 4581SOL     OW14641   1.908   5.903   2.166
 4581SOL    HW114642   1.928   5.850   2.084
 4581SOL    HW214643   1.971   5.980   2.172
 4582SOL     OW14644   4.462   0.813   4.719
 4582SOL    HW114645   4.519   0.731   4.713
 4582SOL    HW214646   4.466   0.863   4.633
 4583SOL     OW14647   3.066   1.936   6.711
 4583SOL    HW114648   3.120   2.019   6.721
 4583SOL    HW214649   3.040   1.902   6.801
 4584SOL     OW14650   0.664   4.861   5.246
 4584SOL    HW114651   0.580   4.814   5.273
 4584SOL    HW214652   0.680   4.847   5.149
 4585SOL     OW14653   1.748   5.748   3.323
 4585SOL    HW114654   1.708   5.658   3.308
 4585SOL    HW214655   1.756   5.796   3.236
 4586SOL     OW14656   3.617   4.330   0.821
 4586SOL    HW114657   3.643   4.316   0.916
 4586SOL    HW214658   3.608   4.242   0.775
 4587SOL     OW14659   3.568   4.180   3.517
 4587SOL    HW114660   3.618   4.267   3.519
 4587SOL    HW214661   3.508   4.174   3.597
 4588SOL     OW14662   2.561   3.536   5.464
 4588SOL    HW114663   2.603   3.613   5.416
 4588SOL    HW214664   2.462   3.537   5.449
 4589SOL     OW14665   6.192   0.747   2.394
 4589SOL    HW114666   6.112   0.687   2.389
 4589SOL    HW214667   6.173   0.824   2.455
 4590SOL     OW14668   4.380   5.174   1.414
 4590SOL    HW114669   4.331   5.261   1.408
 4590SOL    HW214670   4.475   5.191   1.441
 4591SOL     OW14671   1.945   0.528   4.793
 4591SOL    HW114672   1.877   0.585   4.748
 4591SOL    HW214673   1.903   0.480   4.870
 4592SOL     OW14674   2.940   1.435   3.243
 4592SOL    HW114675   3.038   1.446   3.228
 4592SOL    HW214676   2.924   1.379   3.324
 4593SOL     OW14677   5.035   6.270   2.028
 4593SOL    HW114678   5.011   6.179   1.994
 4593SOL    HW214679   4.981   6.339   1.980
 4594SOL     OW14680   2.661   1.219   3.357
 4594SOL    HW114681   2.650   1.271   3.442
 4594SOL    HW214682   2.757   1.220   3.330
 4595SOL     OW14683   4.867   3.208   5.739
 4595SOL    HW114684   4.903   3.225   5.647
 4595SOL    HW214685   4.909   3.271   5.804
 4596SOL     OW14686   6.257   1.224   2.505
 4596SOL    HW114687   6.326   1.279   2.457
 4596SOL    HW214688   6.199   1.284   2.560
 4597SOL     OW14689   3.751   5.484   6.654
 4597SOL    HW114690   3.669   5.452   6.703
 4597SOL    HW214691   3.812   5.406   6.638
 4598SOL     OW14692   1.277   5.962   0.907
 4598SOL    HW114693   1.248   6.017   0.829
 4598SOL    HW214694   1.264   5.865   0.887
 4599SOL     OW14695   1.562   4.962   0.126
 4599SOL    HW114696   1.601   4.957   0.034
 4599SOL    HW214697   1.495   5.036   0.130
 4600SOL     OW14698   0.444   5.803   5.303
 4600SOL    HW114699   0.498   5.832   5.382
 4600SOL    HW214700   0.354   5.772   5.333
 4601SOL     OW14701   1.674   1.218   5.471
 4601SOL    HW114702   1.765   1.203   5.507
 4601SOL    HW214703   1.654   1.316   5.470
 4602SOL     OW14704   3.248   6.856   0.223
 4602SOL    HW114705   3.197   6.772   0.245
 4602SOL    HW214706   3.228   6.926   0.290
 4603SOL     OW14707   3.639   6.148   0.969
 4603SOL    HW114708   3.566   6.147   1.037
 4603SOL    HW214709   3.695   6.230   0.982
 4604SOL     OW14710   4.590   0.148   0.037
 4604SOL    HW114711   4.503   0.119   0.077
 4604SOL    HW214712   4.636   0.211   0.100
 4605SOL     OW14713   1.529   5.999   2.452
 4605SOL    HW114714   1.548   6.072   2.386
 4605SOL    HW214715   1.612   5.946   2.468
 4606SOL     OW14716   0.536   0.294   2.554
 4606SOL    HW114717   0.469   0.237   2.506
 4606SOL    HW214718   0.538   0.385   2.512
 4607SOL     OW14719   2.099   3.125   2.735
 4607SOL    HW114720   2.148   3.068   2.801
 4607SOL    HW214721   2.039   3.189   2.783
 4608SOL     OW14722   0.315   5.712   3.879
 4608SOL    HW114723   0.238   5.773   3.897
 4608SOL    HW214724   0.284   5.635   3.823
 4609SOL     OW14725   4.726   5.037   6.797
 4609SOL    HW114726   4.821   5.043   6.765
 4609SOL    HW214727   4.685   5.128   6.794
 4610SOL     OW14728   5.020   1.643   0.183
 4610SOL    HW114729   5.058   1.735   0.192
 4610SOL    HW214730   4.982   1.631   0.091
 4611SOL     OW14731   0.975   6.830   5.958
 4611SOL    HW114732   0.921   6.889   6.019
 4611SOL    HW214733   1.045   6.783   6.011
 4612SOL     OW14734   1.476   6.451   0.752
 4612SOL    HW114735   1.451   6.526   0.692
 4612SOL    HW214736   1.571   6.424   0.734
 4613SOL     OW14737   1.404   5.536   2.255
 4613SOL    HW114738   1.457   5.568   2.176
 4613SOL    HW214739   1.385   5.613   2.316
 4614SOL     OW14740   6.062   3.438   3.686
 4614SOL    HW114741   5.967   3.412   3.704
 4614SOL    HW214742   6.120   3.405   3.761
 4615SOL     OW14743   1.498   0.967   0.074
 4615SOL    HW114744   1.590   0.929   0.079
 4615SOL    HW214745   1.496   1.055   0.122
 4616SOL     OW14746   6.498   1.193   4.426
 4616SOL    HW114747   6.512   1.097   4.400
 4616SOL    HW214748   6.413   1.202   4.478
 4617SOL     OW14749   1.283   2.205   2.366
 4617SOL    HW114750   1.195   2.159   2.351
 4617SOL    HW214751   1.266   2.295   2.405
 4618SOL     OW14752   2.492   2.999   5.462
 4618SOL    HW114753   2.481   3.090   5.501
 4618SOL    HW214754   2.527   3.007   5.369
 4619SOL     OW14755   3.208   6.054   3.823
 4619SOL    HW114756   3.264   5.994   3.879
 4619SOL    HW214757   3.253   6.143   3.813
 4620SOL     OW14758   1.374   5.098   0.854
 4620SOL    HW114759   1.375   5.054   0.764
 4620SOL    HW214760   1.328   5.186   0.847
 4621SOL     OW14761   4.609   0.547   2.669
 4621SOL    HW114762   4.536   0.563   2.603
 4621SOL    HW214763   4.614   0.449   2.690
 4622SOL     OW14764   3.614   5.038   0.706
 4622SOL    HW114765   3.598   5.119   0.762
 4622SOL    HW214766   3.684   5.058   0.637
 4623SOL     OW14767   5.206   5.770   1.745
 4623SOL    HW114768   5.298   5.800   1.717
 4623SOL    HW214769   5.148   5.762   1.664
 4624SOL     OW14770   3.616   6.948   3.064
 4624SOL    HW114771   3.579   6.977   3.152
 4624SOL    HW214772   3.714   6.964   3.062
 4625SOL     OW14773   1.443   4.553   1.520
 4625SOL    HW114774   1.486   4.585   1.435
 4625SOL    HW214775   1.504   4.573   1.597
 4626SOL     OW14776   4.840   3.967   2.061
 4626SOL    HW114777   4.770   3.968   1.990
 4626SOL    HW214778   4.921   4.016   2.029
 4627SOL     OW14779   1.835   4.988   4.706
 4627SOL    HW114780   1.799   4.968   4.797
 4627SOL    HW214781   1.811   5.082   4.682
 4628SOL     OW14782   4.795   4.299   4.999
 4628SOL    HW114783   4.709   4.335   5.034
 4628SOL    HW214784   4.847   4.372   4.955
 4629SOL     OW14785   2.975   5.478   5.621
 4629SOL    HW114786   2.973   5.495   5.719
 4629SOL    HW214787   2.893   5.428   5.594
 4630SOL     OW14788   2.090   6.099   2.211
 4630SOL    HW114789   2.106   6.197   2.201
 4630SOL    HW214790   2.175   6.054   2.240
 4631SOL     OW14791   1.249   5.753   3.080
 4631SOL    HW114792   1.166   5.717   3.122
 4631SOL    HW214793   1.225   5.823   3.013
 4632SOL     OW14794   2.554   4.507   2.859
 4632SOL    HW114795   2.507   4.445   2.922
 4632SOL    HW214796   2.493   4.531   2.784
 4633SOL     OW14797   6.127   0.580   4.482
 4633SOL    HW114798   6.124   0.661   4.541
 4633SOL    HW214799   6.190   0.513   4.522
 4634SOL     OW14800   2.542   3.817   5.368
 4634SOL    HW114801   2.561   3.887   5.437
 4634SOL    HW214802   2.499   3.858   5.288
 4635SOL     OW14803   4.744   3.857   1.710
 4635SOL    HW114804   4.710   3.805   1.632
 4635SOL    HW214805   4.687   3.938   1.723
 4636SOL     OW14806   2.642   4.476   0.459
 4636SOL    HW114807   2.708   4.478   0.535
 4636SOL    HW214808   2.599   4.565   0.449
 4637SOL     OW14809   0.351   6.563   0.791
 4637SOL    HW114810   0.292   6.500   0.842
 4637SOL    HW214811   0.308   6.654   0.789
 4638SOL     OW14812   4.086   5.074   7.010
 4638SOL    HW114813   4.169   5.129   7.000
 4638SOL    HW214814   4.103   4.982   6.975
 4639SOL     OW14815   3.526   3.393   6.385
 4639SOL    HW114816   3.612   3.443   6.372
 4639SOL    HW214817   3.452   3.443   6.341
 4640SOL     OW14818   4.783   4.106   4.398
 4640SOL    HW114819   4.835   4.047   4.459
 4640SOL    HW214820   4.768   4.194   4.443
 4641SOL     OW14821   3.029   0.717   4.721
 4641SOL    HW114822   3.065   0.638   4.770
 4641SOL    HW214823   3.011   0.692   4.626
 4642SOL     OW14824   1.280   6.966   3.144
 4642SOL    HW114825   1.185   6.937   3.155
 4642SOL    HW214826   1.282   0.028   3.092
 4643SOL     OW14827   6.651   2.293   0.527
 4643SOL    HW114828   6.720   2.312   0.598
 4643SOL    HW214829   6.588   2.370   0.520
 4644SOL     OW14830   0.748   6.473   5.284
 4644SOL    HW114831   0.712   6.554   5.236
 4644SOL    HW214832   0.709   6.390   5.244
 4645SOL     OW14833   0.628   0.546   4.609
 4645SOL    HW114834   0.538   0.585   4.593
 4645SOL    HW214835   0.682   0.548   4.524
 4646SOL     OW14836   2.008   5.424   3.157
 4646SOL    HW114837   2.054   5.504   3.197
 4646SOL    HW214838   1.959   5.451   3.075
 4647SOL     OW14839   1.829   0.157   2.726
 4647SOL    HW114840   1.823   0.136   2.628
 4647SOL    HW214841   1.908   0.111   2.766
 4648SOL     OW14842   3.538   0.220   2.673
 4648SOL    HW114843   3.588   0.223   2.759
 4648SOL    HW214844   3.443   0.244   2.688
 4649SOL     OW14845   5.388   0.998   0.444
 4649SOL    HW114846   5.354   0.999   0.350
 4649SOL    HW214847   5.457   0.925   0.454
 4650SOL     OW14848   4.836   5.786   2.024
 4650SOL    HW114849   4.795   5.797   2.114
 4650SOL    HW214850   4.787   5.716   1.973
 4651SOL     OW14851   6.200   3.759   6.547
 4651SOL    HW114852   6.140   3.679   6.553
 4651SOL    HW214853   6.286   3.734   6.503
 4652SOL     OW14854   5.770   6.200   4.457
 4652SOL    HW114855   5.742   6.110   4.489
 4652SOL    HW214856   5.791   6.196   4.359
 4653SOL     OW14857   5.117   5.863   1.079
 4653SOL    HW114858   5.122   5.956   1.115
 4653SOL    HW214859   5.060   5.806   1.139
 4654SOL     OW14860   0.754   6.051   6.222
 4654SOL    HW114861   0.821   6.106   6.271
 4654SOL    HW214862   0.700   6.109   6.161
 4655SOL     OW14863   5.790   3.604   0.904
 4655SOL    HW114864   5.764   3.630   0.811
 4655SOL    HW214865   5.825   3.685   0.952
 4656SOL     OW14866   1.327   0.479   1.698
 4656SOL    HW114867   1.313   0.534   1.780
 4656SOL    HW214868   1.240   0.466   1.651
 4657SOL     OW14869   4.593   5.569   1.587
 4657SOL    HW114870   4.554   5.536   1.673
 4657SOL    HW214871   4.655   5.646   1.605
 4658SOL     OW14872   3.200   0.169   4.491
 4658SOL    HW114873   3.288   0.124   4.510
 4658SOL    HW214874   3.140   0.159   4.571
 4659SOL     OW14875   2.649   4.279   5.750
 4659SOL    HW114876   2.557   4.318   5.756
 4659SOL    HW214877   2.648   4.186   5.788
 4660SOL     OW14878   0.622   5.873   4.900
 4660SOL    HW114879   0.694   5.889   4.968
 4660SOL    HW214880   0.643   5.926   4.817
 4661SOL     OW14881   3.500   3.913   6.443
 4661SOL    HW114882   3.539   3.902   6.352
 4661SOL    HW214883   3.490   4.010   6.464
 4662SOL     OW14884   2.659   0.182   5.650
 4662SOL    HW114885   2.708   0.104   5.612
 4662SOL    HW214886   2.609   0.154   5.732
 4663SOL     OW14887   0.540   1.255   1.369
 4663SOL    HW114888   0.626   1.297   1.341
 4663SOL    HW214889   0.511   1.188   1.300
 4664SOL     OW14890   1.285   1.188   0.676
 4664SOL    HW114891   1.299   1.091   0.656
 4664SOL    HW214892   1.336   1.243   0.610
 4665SOL     OW14893   4.126   6.860   6.446
 4665SOL    HW114894   4.194   6.788   6.458
 4665SOL    HW214895   4.041   6.834   6.493
 4666SOL     OW14896   2.827   2.596   6.781
 4666SOL    HW114897   2.790   2.577   6.872
 4666SOL    HW214898   2.892   2.673   6.787
 4667SOL     OW14899   6.441   3.924   1.914
 4667SOL    HW114900   6.538   3.942   1.896
 4667SOL    HW214901   6.416   3.837   1.872
 4668SOL     OW14902   4.953   1.439   3.511
 4668SOL    HW114903   4.966   1.485   3.600
 4668SOL    HW214904   4.978   1.502   3.438
 4669SOL     OW14905   4.657   6.119   0.810
 4669SOL    HW114906   4.662   6.197   0.873
 4669SOL    HW214907   4.562   6.090   0.800
 4670SOL     OW14908   1.613   2.140   6.357
 4670SOL    HW114909   1.555   2.216   6.387
 4670SOL    HW214910   1.655   2.096   6.436
 4671SOL     OW14911   0.922   3.454   6.642
 4671SOL    HW114912   1.011   3.454   6.687
 4671SOL    HW214913   0.928   3.402   6.556
 4672SOL     OW14914   2.562   4.734   5.752
 4672SOL    HW114915   2.579   4.640   5.721
 4672SOL    HW214916   2.628   4.796   5.708
 4673SOL     OW14917   5.162   6.915   1.540
 4673SOL    HW114918   5.190   6.916   1.635
 4673SOL    HW214919   5.083   6.975   1.528
 4674SOL     OW14920   4.942   1.203   0.223
 4674SOL    HW114921   4.854   1.159   0.240
 4674SOL    HW214922   5.007   1.176   0.295
 4675SOL     OW14923   2.234   1.011   0.353
 4675SOL    HW114924   2.201   1.062   0.273
 4675SOL    HW214925   2.232   1.071   0.434
 4676SOL     OW14926   6.424   6.411   3.985
 4676SOL    HW114927   6.390   6.327   4.026
 4676SOL    HW214928   6.368   6.435   3.905
 4677SOL     OW14929   2.707   0.758   0.182
 4677SOL    HW114930   2.765   0.702   0.242
 4677SOL    HW214931   2.762   0.832   0.143
 4678SOL     OW14932   1.996   4.256   2.872
 4678SOL    HW114933   1.966   4.166   2.842
 4678SOL    HW214934   1.992   4.261   2.972
 4679SOL     OW14935   3.564   1.383   0.102
 4679SOL    HW114936   3.584   1.477   0.131
 4679SOL    HW214937   3.649   1.338   0.074
 4680SOL     OW14938   1.995   0.736   1.414
 4680SOL    HW114939   1.999   0.707   1.510
 4680SOL    HW214940   1.984   0.655   1.356
 4681SOL     OW14941   6.017   5.811   5.709
 4681SOL    HW114942   6.025   5.864   5.793
 4681SOL    HW214943   6.096   5.829   5.650
 4682SOL     OW14944   4.069   4.486   6.311
 4682SOL    HW114945   4.145   4.540   6.275
 4682SOL    HW214946   4.023   4.438   6.237
 4683SOL     OW14947   4.243   4.798   2.565
 4683SOL    HW114948   4.209   4.802   2.658
 4683SOL    HW214949   4.334   4.756   2.565
 4684SOL     OW14950   6.957   1.679   4.682
 4684SOL    HW114951   0.029   1.707   4.669
 4684SOL    HW214952   6.896   1.753   4.654
 4685SOL     OW14953   0.275   6.591   5.189
 4685SOL    HW114954   0.274   6.686   5.159
 4685SOL    HW214955   0.291   6.531   5.111
 4686SOL     OW14956   5.382   5.466   0.482
 4686SOL    HW114957   5.438   5.471   0.564
 4686SOL    HW214958   5.416   5.529   0.413
 4687SOL     OW14959   6.595   4.723   5.170
 4687SOL    HW114960   6.505   4.767   5.164
 4687SOL    HW214961   6.666   4.790   5.153
 4688SOL     OW14962   6.523   3.749   5.572
 4688SOL    HW114963   6.519   3.742   5.472
 4688SOL    HW214964   6.515   3.844   5.599
 4689SOL     OW14965   5.939   0.727   0.251
 4689SOL    HW114966   5.900   0.794   0.313
 4689SOL    HW214967   5.905   0.742   0.158
 4690SOL     OW14968   1.175   0.706   0.084
 4690SOL    HW114969   1.145   0.796   0.115
 4690SOL    HW214970   1.142   0.690   7.014
 4691SOL     OW14971   2.971   4.831   2.172
 4691SOL    HW114972   2.938   4.921   2.143
 4691SOL    HW214973   2.944   4.762   2.105
 4692SOL     OW14974   6.664   5.753   2.432
 4692SOL    HW114975   6.574   5.710   2.447
 4692SOL    HW214976   6.733   5.703   2.484
 4693SOL     OW14977   0.772   0.546   3.659
 4693SOL    HW114978   0.739   0.531   3.751
 4693SOL    HW214979   0.780   0.459   3.611
 4694SOL     OW14980   2.706   0.705   0.515
 4694SOL    HW114981   2.614   0.667   0.507
 4694SOL    HW214982   2.701   0.797   0.554
 4695SOL     OW14983   2.336   3.260   1.657
 4695SOL    HW114984   2.396   3.322   1.708
 4695SOL    HW214985   2.353   3.269   1.559
 4696SOL     OW14986   0.393   4.423   5.980
 4696SOL    HW114987   0.470   4.483   5.961
 4696SOL    HW214988   0.351   4.394   5.893
 4697SOL     OW14989   2.439   2.949   0.615
 4697SOL    HW114990   2.481   2.868   0.656
 4697SOL    HW214991   2.511   3.015   0.591
 4698SOL     OW14992   4.056   6.032   2.721
 4698SOL    HW114993   4.085   5.982   2.639
 4698SOL    HW214994   4.078   5.978   2.803
 4699SOL     OW14995   1.044   6.288   1.810
 4699SOL    HW114996   1.056   6.330   1.900
 4699SOL    HW214997   0.971   6.335   1.761
 4700SOL     OW14998   6.463   1.359   2.402
 4700SOL    HW114999   6.539   1.305   2.364
 4700SOL    HW215000   6.461   1.449   2.359
 4701SOL     OW15001   2.319   2.400   1.053
 4701SOL    HW115002   2.288   2.495   1.063
 4701SOL    HW215003   2.293   2.347   1.133
 4702SOL     OW15004   5.713   4.863   6.690
 4702SOL    HW115005   5.632   4.808   6.668
 4702SOL    HW215006   5.744   4.911   6.607
 4703SOL     OW15007   1.080   2.711   2.013
 4703SOL    HW115008   1.040   2.729   1.924
 4703SOL    HW215009   1.014   2.732   2.085
 4704SOL     OW15010   1.213   6.710   6.936
 4704SOL    HW115011   1.223   6.762   6.851
 4704SOL    HW215012   1.227   6.613   6.917
 4705SOL     OW15013   3.446   3.373   2.477
 4705SOL    HW115014   3.523   3.313   2.454
 4705SOL    HW215015   3.360   3.324   2.461
 4706SOL     OW15016   3.707   6.560   6.089
 4706SOL    HW115017   3.790   6.594   6.134
 4706SOL    HW215018   3.656   6.502   6.152
 4707SOL     OW15019   3.043   5.864   0.824
 4707SOL    HW115020   3.060   5.793   0.893
 4707SOL    HW215021   2.972   5.831   0.760
 4708SOL     OW15022   1.470   2.530   6.305
 4708SOL    HW115023   1.433   2.438   6.320
 4708SOL    HW215024   1.428   2.570   6.224
 4709SOL     OW15025   4.416   6.160   5.896
 4709SOL    HW115026   4.337   6.195   5.945
 4709SOL    HW215027   4.463   6.092   5.953
 4710SOL     OW15028   4.115   1.247   5.719
 4710SOL    HW115029   4.158   1.257   5.809
 4710SOL    HW215030   4.079   1.154   5.710
 4711SOL     OW15031   5.295   0.956   2.011
 4711SOL    HW115032   5.382   0.920   1.977
 4711SOL    HW215033   5.310   1.005   2.097
 4712SOL     OW15034   3.513   4.075   0.288
 4712SOL    HW115035   3.542   4.017   0.364
 4712SOL    HW215036   3.417   4.100   0.300
 4713SOL     OW15037   3.325   3.440   1.183
 4713SOL    HW115038   3.337   3.472   1.277
 4713SOL    HW215039   3.309   3.518   1.123
 4714SOL     OW15040   1.817   2.601   0.045
 4714SOL    HW115041   1.747   2.633   0.108
 4714SOL    HW215042   1.856   2.515   0.079
 4715SOL     OW15043   6.925   3.213   1.617
 4715SOL    HW115044   6.840   3.160   1.613
 4715SOL    HW215045   6.976   3.188   1.699
 4716SOL     OW15046   4.669   6.305   6.397
 4716SOL    HW115047   4.724   6.238   6.446
 4716SOL    HW215048   4.625   6.261   6.318
 4717SOL     OW15049   6.847   6.269   3.285
 4717SOL    HW115050   6.915   6.207   3.246
 4717SOL    HW215051   6.806   6.323   3.211
 4718SOL     OW15052   5.411   2.425   0.799
 4718SOL    HW115053   5.326   2.382   0.827
 4718SOL    HW215054   5.483   2.356   0.793
 4719SOL     OW15055   5.245   3.069   2.304
 4719SOL    HW115056   5.188   3.142   2.264
 4719SOL    HW215057   5.341   3.093   2.295
 4720SOL     OW15058   1.783   5.583   5.302
 4720SOL    HW115059   1.876   5.576   5.266
 4720SOL    HW215060   1.762   5.679   5.322
 4721SOL     OW15061   6.771   2.412   1.270
 4721SOL    HW115062   6.814   2.497   1.300
 4721SOL    HW215063   6.835   2.362   1.211
 4722SOL     OW15064   0.831   6.074   6.700
 4722SOL    HW115065   0.820   6.027   6.788
 4722SOL    HW215066   0.744   6.116   6.674
 4723SOL     OW15067   1.416   4.695   5.841
 4723SOL    HW115068   1.343   4.756   5.873
 4723SOL    HW215069   1.505   4.732   5.870
 4724SOL     OW15070   5.244   5.960   2.969
 4724SOL    HW115071   5.284   5.947   3.060
 4724SOL    HW215072   5.156   6.006   2.978
 4725SOL     OW15073   6.221   6.831   2.670
 4725SOL    HW115074   6.143   6.776   2.700
 4725SOL    HW215075   6.306   6.785   2.694
 4726SOL     OW15076   1.651   3.016   6.227
 4726SOL    HW115077   1.717   3.091   6.219
 4726SOL    HW215078   1.673   2.961   6.308
 4727SOL     OW15079   0.921   6.241   0.025
 4727SOL    HW115080   0.906   6.157   6.996
 4727SOL    HW215081   0.948   6.314   6.986
 4728SOL     OW15082   5.158   0.323   0.792
 4728SOL    HW115083   5.139   0.348   0.887
 4728SOL    HW215084   5.111   0.387   0.731
 4729SOL     OW15085   2.339   1.628   1.570
 4729SOL    HW115086   2.266   1.664   1.511
 4729SOL    HW215087   2.409   1.698   1.582
 4730SOL     OW15088   3.158   5.926   4.456
 4730SOL    HW115089   3.202   5.974   4.532
 4730SOL    HW215090   3.225   5.906   4.385
 4731SOL     OW15091   4.217   0.215   6.060
 4731SOL    HW115092   4.188   0.120   6.064
 4731SOL    HW215093   4.305   0.225   6.107
 4732SOL     OW15094   0.234   3.642   5.424
 4732SOL    HW115095   0.201   3.728   5.385
 4732SOL    HW215096   0.232   3.649   5.524
 4733SOL     OW15097   1.538   4.335   3.657
 4733SOL    HW115098   1.616   4.397   3.657
 4733SOL    HW215099   1.509   4.319   3.563
 4734SOL     OW15100   5.252   2.478   6.655
 4734SOL    HW115101   5.298   2.561   6.624
 4734SOL    HW215102   5.181   2.502   6.721
 4735SOL     OW15103   0.448   6.271   4.485
 4735SOL    HW115104   0.449   6.261   4.385
 4735SOL    HW215105   0.409   6.360   4.509
 4736SOL     OW15106   6.910   2.040   6.699
 4736SOL    HW115107   6.840   2.112   6.696
 4736SOL    HW215108   6.946   2.025   6.607
 4737SOL     OW15109   1.968   4.942   2.240
 4737SOL    HW115110   2.056   4.910   2.205
 4737SOL    HW215111   1.900   4.939   2.167
 4738SOL     OW15112   6.682   6.281   2.968
 4738SOL    HW115113   6.740   6.362   2.981
 4738SOL    HW215114   6.735   6.209   2.923
 4739SOL     OW15115   4.690   6.628   3.333
 4739SOL    HW115116   4.685   6.534   3.369
 4739SOL    HW215117   4.707   6.625   3.235
 4740SOL     OW15118   1.128   1.885   0.839
 4740SOL    HW115119   1.036   1.852   0.818
 4740SOL    HW215120   1.162   1.838   0.921
 4741SOL     OW15121   3.624   2.911   1.975
 4741SOL    HW115122   3.530   2.886   1.955
 4741SOL    HW215123   3.652   2.987   1.918
 4742SOL     OW15124   2.531   6.269   5.363
 4742SOL    HW115125   2.456   6.205   5.375
 4742SOL    HW215126   2.495   6.361   5.345
 4743SOL     OW15127   2.171   3.922   3.133
 4743SOL    HW115128   2.140   3.833   3.100
 4743SOL    HW215129   2.230   3.965   3.064
 4744SOL     OW15130   2.544   4.917   0.786
 4744SOL    HW115131   2.547   4.821   0.814
 4744SOL    HW215132   2.470   4.930   0.720
 4745SOL     OW15133   3.007   3.862   6.269
 4745SOL    HW115134   2.928   3.895   6.319
 4745SOL    HW215135   3.063   3.805   6.329
 4746SOL     OW15136   4.670   6.424   3.666
 4746SOL    HW115137   4.646   6.518   3.691
 4746SOL    HW215138   4.759   6.401   3.707
 4747SOL     OW15139   1.549   3.950   7.023
 4747SOL    HW115140   1.607   3.948   6.941
 4747SOL    HW215141   1.552   4.041   0.040
 4748SOL     OW15142   1.911   5.624   1.247
 4748SOL    HW115143   1.991   5.563   1.245
 4748SOL    HW215144   1.831   5.573   1.278
 4749SOL     OW15145   2.297   6.465   6.466
 4749SOL    HW115146   2.269   6.408   6.388
 4749SOL    HW215147   2.236   6.447   6.543
 4750SOL     OW15148   6.897   3.499   4.870
 4750SOL    HW115149   6.873   3.407   4.901
 4750SOL    HW215150   6.829   3.531   4.805
 4751SOL     OW15151   4.240   1.999   3.053
 4751SOL    HW115152   4.285   2.051   3.126
 4751SOL    HW215153   4.250   2.048   2.967
 4752SOL     OW15154   4.856   1.403   0.016
 4752SOL    HW115155   4.896   1.346   0.088
 4752SOL    HW215156   4.770   1.443   0.049
 4753SOL     OW15157   0.474   0.261   4.553
 4753SOL    HW115158   0.532   0.199   4.605
 4753SOL    HW215159   0.390   0.280   4.604
 4754SOL     OW15160   5.495   4.372   4.231
 4754SOL    HW115161   5.404   4.414   4.236
 4754SOL    HW215162   5.558   4.435   4.186
 4755SOL     OW15163   2.692   1.016   0.588
 4755SOL    HW115164   2.651   0.996   0.499
 4755SOL    HW215165   2.792   1.021   0.578
 4756SOL     OW15166   5.938   3.665   6.091
 4756SOL    HW115167   5.911   3.570   6.082
 4756SOL    HW215168   5.989   3.694   6.010
 4757SOL     OW15169   2.286   2.318   1.311
 4757SOL    HW115170   2.186   2.315   1.318
 4757SOL    HW215171   2.319   2.406   1.346
 4758SOL     OW15172   1.415   6.531   2.999
 4758SOL    HW115173   1.500   6.479   3.001
 4758SOL    HW215174   1.427   6.612   2.942
 4759SOL     OW15175   0.776   4.987   6.310
 4759SOL    HW115176   0.716   4.929   6.255
 4759SOL    HW215177   0.872   4.968   6.286
 4760SOL     OW15178   2.046   1.916   0.415
 4760SOL    HW115179   2.119   1.876   0.471
 4760SOL    HW215180   1.967   1.935   0.473
 4761SOL     OW15181   1.112   6.792   0.164
 4761SOL    HW115182   1.146   6.730   0.093
 4761SOL    HW215183   1.013   6.803   0.155
 4762SOL     OW15184   1.232   5.355   2.133
 4762SOL    HW115185   1.286   5.417   2.191
 4762SOL    HW215186   1.289   5.278   2.105
 4763SOL     OW15187   4.921   0.742   2.790
 4763SOL    HW115188   4.833   0.780   2.762
 4763SOL    HW215189   4.983   0.817   2.814
 4764SOL     OW15190   4.253   3.948   5.348
 4764SOL    HW115191   4.199   3.863   5.346
 4764SOL    HW215192   4.274   3.976   5.255
 4765SOL     OW15193   3.555   0.844   5.704
 4765SOL    HW115194   3.615   0.764   5.700
 4765SOL    HW215195   3.500   0.840   5.787
 4766SOL     OW15196   5.549   5.313   3.562
 4766SOL    HW115197   5.649   5.317   3.551
 4766SOL    HW215198   5.527   5.289   3.656
 4767SOL     OW15199   3.115   4.908   4.912
 4767SOL    HW115200   3.173   4.961   4.851
 4767SOL    HW215201   3.164   4.889   4.997
 4768SOL     OW15202   4.108   2.677   6.327
 4768SOL    HW115203   4.198   2.705   6.294
 4768SOL    HW215204   4.099   2.577   6.320
 4769SOL     OW15205   4.586   5.636   0.331
 4769SOL    HW115206   4.563   5.725   0.370
 4769SOL    HW215207   4.681   5.614   0.350
 4770SOL     OW15208   0.287   2.165   4.622
 4770SOL    HW115209   0.271   2.261   4.598
 4770SOL    HW215210   0.326   2.117   4.543
 4771SOL     OW15211   2.735   6.492   5.958
 4771SOL    HW115212   2.693   6.523   5.873
 4771SOL    HW215213   2.676   6.516   6.035
 4772SOL     OW15214   3.795   4.785   6.884
 4772SOL    HW115215   3.879   4.823   6.843
 4772SOL    HW215216   3.789   4.812   6.980
 4773SOL     OW15217   0.438   5.025   5.376
 4773SOL    HW115218   0.406   5.026   5.471
 4773SOL    HW215219   0.531   5.062   5.373
 4774SOL     OW15220   1.489   3.842   0.742
 4774SOL    HW115221   1.455   3.892   0.821
 4774SOL    HW215222   1.553   3.900   0.692
 4775SOL     OW15223   5.222   6.347   3.388
 4775SOL    HW115224   5.186   6.381   3.301
 4775SOL    HW215225   5.304   6.292   3.371
 4776SOL     OW15226   0.930   0.346   5.194
 4776SOL    HW115227   0.923   0.276   5.265
 4776SOL    HW215228   0.857   0.413   5.206
 4777SOL     OW15229   1.815   4.975   0.478
 4777SOL    HW115230   1.869   5.039   0.532
 4777SOL    HW215231   1.829   4.993   0.381
 4778SOL     OW15232   6.519   2.743   4.746
 4778SOL    HW115233   6.425   2.770   4.768
 4778SOL    HW215234   6.576   2.825   4.738
 4779SOL     OW15235   5.124   0.349   3.702
 4779SOL    HW115236   5.030   0.315   3.695
 4779SOL    HW215237   5.127   0.446   3.680
 4780SOL     OW15238   6.418   2.967   0.040
 4780SOL    HW115239   6.356   3.014   0.103
 4780SOL    HW215240   6.377   2.964   6.972
 4781SOL     OW15241   2.869   5.041   2.056
 4781SOL    HW115242   2.934   5.110   2.089
 4781SOL    HW215243   2.781   5.053   2.103
 4782SOL     OW15244   6.151   5.071   6.665
 4782SOL    HW115245   6.249   5.084   6.653
 4782SOL    HW215246   6.110   5.154   6.701
 4783SOL     OW15247   5.348   3.338   6.642
 4783SOL    HW115248   5.288   3.327   6.562
 4783SOL    HW215249   5.368   3.247   6.680
 4784SOL     OW15250   6.418   1.966   6.516
 4784SOL    HW115251   6.466   2.053   6.528
 4784SOL    HW215252   6.432   1.909   6.597
 4785SOL     OW15253   0.381   6.231   2.847
 4785SOL    HW115254   0.424   6.275   2.768
 4785SOL    HW215255   0.427   6.259   2.931
 4786SOL     OW15256   2.569   6.954   0.270
 4786SOL    HW115257   2.521   6.886   0.214
 4786SOL    HW215258   2.502   7.017   0.311
 4787SOL     OW15259   3.715   1.868   2.794
 4787SOL    HW115260   3.682   1.959   2.819
 4787SOL    HW215261   3.653   1.799   2.831
 4788SOL     OW15262   7.010   6.863   0.440
 4788SOL    HW115263   0.024   6.770   0.434
 4788SOL    HW215264   6.989   6.884   0.535
 4789SOL     OW15265   5.106   1.225   1.762
 4789SOL    HW115266   5.127   1.241   1.858
 4789SOL    HW215267   5.071   1.309   1.721
 4790SOL     OW15268   5.984   1.455   5.596
 4790SOL    HW115269   6.005   1.550   5.620
 4790SOL    HW215270   6.025   1.393   5.662
 4791SOL     OW15271   0.007   2.946   1.505
 4791SOL    HW115272   7.013   3.031   1.555
 4791SOL    HW215273   0.081   2.960   1.439
 4792SOL     OW15274   2.321   4.511   3.968
 4792SOL    HW115275   2.257   4.578   4.005
 4792SOL    HW215276   2.270   4.435   3.927
 4793SOL     OW15277   1.382   2.955   5.426
 4793SOL    HW115278   1.448   2.943   5.501
 4793SOL    HW215279   1.401   3.041   5.379
 4794SOL     OW15280   4.617   0.182   4.279
 4794SOL    HW115281   4.597   0.199   4.183
 4794SOL    HW215282   4.703   0.227   4.304
 4795SOL     OW15283   6.318   1.668   4.536
 4795SOL    HW115284   6.407   1.647   4.497
 4795SOL    HW215285   6.321   1.654   4.635
 4796SOL     OW15286   4.005   1.010   5.669
 4796SOL    HW115287   3.957   0.993   5.755
 4796SOL    HW215288   4.009   0.926   5.616
 4797SOL     OW15289   0.182   6.738   4.896
 4797SOL    HW115290   0.173   6.818   4.954
 4797SOL    HW215291   0.265   6.745   4.841
 4798SOL     OW15292   0.268   4.658   5.809
 4798SOL    HW115293   0.273   4.563   5.777
 4798SOL    HW215294   0.196   4.706   5.758
 4799SOL     OW15295   4.471   1.757   0.410
 4799SOL    HW115296   4.527   1.785   0.489
 4799SOL    HW215297   4.531   1.736   0.333
 4800SOL     OW15298   2.119   3.336   6.617
 4800SOL    HW115299   2.209   3.295   6.604
 4800SOL    HW215300   2.052   3.287   6.562
 4801SOL     OW15301   3.344   2.409   0.137
 4801SOL    HW115302   3.323   2.318   0.170
 4801SOL    HW215303   3.438   2.412   0.103
 4802SOL     OW15304   0.676   6.689   1.858
 4802SOL    HW115305   0.663   6.704   1.956
 4802SOL    HW215306   0.653   6.773   1.808
 4803SOL     OW15307   0.477   4.199   0.403
 4803SOL    HW115308   0.402   4.161   0.457
 4803SOL    HW215309   0.506   4.132   0.334
 4804SOL     OW15310   6.467   6.257   1.726
 4804SOL    HW115311   6.486   6.178   1.667
 4804SOL    HW215312   6.491   6.341   1.678
 4805SOL     OW15313   6.097   0.972   2.593
 4805SOL    HW115314   6.009   0.985   2.546
 4805SOL    HW215315   6.161   1.044   2.563
 4806SOL     OW15316   0.840   4.311   3.012
 4806SOL    HW115317   0.923   4.352   2.974
 4806SOL    HW215318   0.767   4.380   3.015
 4807SOL     OW15319   0.727   5.092   6.693
 4807SOL    HW115320   0.772   5.182   6.689
 4807SOL    HW215321   0.671   5.079   6.611
 4808SOL     OW15322   4.167   5.410   0.616
 4808SOL    HW115323   4.126   5.464   0.542
 4808SOL    HW215324   4.236   5.349   0.578
 4809SOL     OW15325   3.452   4.511   1.089
 4809SOL    HW115326   3.420   4.564   1.167
 4809SOL    HW215327   3.552   4.508   1.091
 4810SOL     OW15328   1.380   4.071   3.467
 4810SOL    HW115329   1.308   4.030   3.412
 4810SOL    HW215330   1.383   4.170   3.450
 4811SOL     OW15331   3.853   3.476   2.766
 4811SOL    HW115332   3.892   3.554   2.813
 4811SOL    HW215333   3.924   3.429   2.713
 4812SOL     OW15334   0.595   0.775   2.376
 4812SOL    HW115335   0.678   0.759   2.324
 4812SOL    HW215336   0.618   0.813   2.466
 4813SOL     OW15337   5.897   1.481   6.587
 4813SOL    HW115338   5.822   1.516   6.644
 4813SOL    HW215339   5.966   1.439   6.645
 4814SOL     OW15340   6.743   2.930   1.292
 4814SOL    HW115341   6.808   2.928   1.367
 4814SOL    HW215342   6.777   2.873   1.217
 4815SOL     OW15343   5.516   4.110   3.150
 4815SOL    HW115344   5.537   4.208   3.148
 4815SOL    HW215345   5.448   4.089   3.079
 4816SOL     OW15346   2.287   5.536   1.043
 4816SOL    HW115347   2.344   5.594   0.984
 4816SOL    HW215348   2.333   5.448   1.057
 4817SOL     OW15349   2.197   1.130   1.115
 4817SOL    HW115350   2.275   1.187   1.089
 4817SOL    HW215351   2.224   1.071   1.191
 4818SOL     OW15352   0.827   1.097   4.448
 4818SOL    HW115353   0.847   1.009   4.489
 4818SOL    HW215354   0.878   1.106   4.362
 4819SOL     OW15355   2.321   2.314   1.654
 4819SOL    HW115356   2.419   2.333   1.650
 4819SOL    HW215357   2.270   2.400   1.658
 4820SOL     OW15358   6.812   1.667   1.164
 4820SOL    HW115359   6.814   1.757   1.121
 4820SOL    HW215360   6.745   1.608   1.118
 4821SOL     OW15361   0.223   0.693   1.579
 4821SOL    HW115362   0.238   0.670   1.483
 4821SOL    HW215363   0.190   0.787   1.586
 4822SOL     OW15364   1.909   3.111   3.721
 4822SOL    HW115365   1.814   3.140   3.711
 4822SOL    HW215366   1.969   3.188   3.699
 4823SOL     OW15367   0.931   1.328   3.987
 4823SOL    HW115368   0.879   1.412   4.005
 4823SOL    HW215369   0.884   1.274   3.918
 4824SOL     OW15370   5.649   1.855   4.158
 4824SOL    HW115371   5.745   1.869   4.183
 4824SOL    HW215372   5.627   1.913   4.079
 4825SOL     OW15373   1.707   2.420   4.917
 4825SOL    HW115374   1.684   2.492   4.982
 4825SOL    HW215375   1.804   2.426   4.893
 4826SOL     OW15376   0.363   0.415   6.069
 4826SOL    HW115377   0.270   0.391   6.042
 4826SOL    HW215378   0.406   0.468   5.995
 4827SOL     OW15379   5.894   2.300   1.803
 4827SOL    HW115380   5.960   2.356   1.752
 4827SOL    HW215381   5.919   2.204   1.795
 4828SOL     OW15382   5.438   3.479   0.761
 4828SOL    HW115383   5.522   3.424   0.763
 4828SOL    HW215384   5.417   3.503   0.667
 4829SOL     OW15385   3.787   6.533   6.860
 4829SOL    HW115386   3.831   6.613   6.821
 4829SOL    HW215387   3.797   6.456   6.798
 4830SOL     OW15388   4.917   6.362   3.775
 4830SOL    HW115389   4.950   6.398   3.863
 4830SOL    HW215390   4.992   6.319   3.726
 4831SOL     OW15391   0.387   4.861   6.591
 4831SOL    HW115392   0.335   4.789   6.544
 4831SOL    HW215393   0.448   4.820   6.659
 4832SOL     OW15394   2.571   2.359   5.481
 4832SOL    HW115395   2.516   2.366   5.564
 4832SOL    HW215396   2.665   2.387   5.500
 4833SOL     OW15397   4.896   1.264   2.601
 4833SOL    HW115398   4.919   1.186   2.543
 4833SOL    HW215399   4.818   1.240   2.659
 4834SOL     OW15400   3.851   0.508   0.933
 4834SOL    HW115401   3.762   0.522   0.977
 4834SOL    HW215402   3.854   0.560   0.848
 4835SOL     OW15403   0.768   1.814   6.469
 4835SOL    HW115404   0.728   1.760   6.395
 4835SOL    HW215405   0.862   1.786   6.484
 4836SOL     OW15406   5.072   2.544   3.802
 4836SOL    HW115407   4.987   2.501   3.832
 4836SOL    HW215408   5.052   2.631   3.758
 4837SOL     OW15409   4.860   3.508   1.902
 4837SOL    HW115410   4.899   3.598   1.883
 4837SOL    HW215411   4.764   3.507   1.873
 4838SOL     OW15412   0.799   4.771   1.654
 4838SOL    HW115413   0.845   4.683   1.661
 4838SOL    HW215414   0.781   4.807   1.746
 4839SOL     OW15415   1.241   3.379   6.031
 4839SOL    HW115416   1.142   3.386   6.019
 4839SOL    HW215417   1.274   3.296   5.985
 4840SOL     OW15418   0.850   6.092   5.920
 4840SOL    HW115419   0.887   6.051   5.837
 4840SOL    HW215420   0.795   6.172   5.897
 4841SOL     OW15421   2.926   6.313   1.531
 4841SOL    HW115422   3.008   6.260   1.510
 4841SOL    HW215423   2.902   6.299   1.627
 4842SOL     OW15424   3.199   4.838   1.962
 4842SOL    HW115425   3.270   4.880   2.018
 4842SOL    HW215426   3.188   4.742   1.988
 4843SOL     OW15427   6.092   3.096   0.502
 4843SOL    HW115428   6.046   3.124   0.586
 4843SOL    HW215429   6.025   3.054   0.440
 4844SOL     OW15430   6.897   3.731   5.463
 4844SOL    HW115431   6.873   3.778   5.378
 4844SOL    HW215432   6.903   3.633   5.447
 4845SOL     OW15433   5.888   5.703   4.901
 4845SOL    HW115434   5.841   5.636   4.959
 4845SOL    HW215435   5.915   5.782   4.957
 4846SOL     OW15436   6.272   3.182   2.978
 4846SOL    HW115437   6.190   3.188   3.034
 4846SOL    HW215438   6.350   3.220   3.029
 4847SOL     OW15439   2.906   1.297   6.045
 4847SOL    HW115440   2.862   1.251   6.122
 4847SOL    HW215441   2.870   1.390   6.038
 4848SOL     OW15442   1.363   1.393   4.535
 4848SOL    HW115443   1.291   1.326   4.549
 4848SOL    HW215444   1.330   1.484   4.562
 4849SOL     OW15445   1.206   6.638   6.417
 4849SOL    HW115446   1.293   6.648   6.466
 4849SOL    HW215447   1.154   6.723   6.425
 4850SOL     OW15448   3.929   1.673   2.766
 4850SOL    HW115449   3.868   1.752   2.770
 4850SOL    HW215450   3.877   1.592   2.738
 4851SOL     OW15451   4.126   6.268   5.505
 4851SOL    HW115452   4.205   6.225   5.549
 4851SOL    HW215453   4.046   6.210   5.517
 4852SOL     OW15454   1.320   0.090   5.291
 4852SOL    HW115455   1.233   0.121   5.330
 4852SOL    HW215456   1.393   0.153   5.318
 4853SOL     OW15457   2.946   1.149   3.297
 4853SOL    HW115458   2.932   1.153   3.198
 4853SOL    HW215459   2.907   1.065   3.333
 4854SOL     OW15460   5.279   6.886   1.792
 4854SOL    HW115461   5.302   6.793   1.764
 4854SOL    HW215462   5.248   6.885   1.887
 4855SOL     OW15463   6.589   2.976   2.629
 4855SOL    HW115464   6.512   2.965   2.691
 4855SOL    HW215465   6.590   2.900   2.564
 4856SOL     OW15466   1.913   3.947   2.207
 4856SOL    HW115467   1.855   3.881   2.254
 4856SOL    HW215468   1.859   4.026   2.179
 4857SOL     OW15469   1.578   2.506   5.513
 4857SOL    HW115470   1.624   2.588   5.477
 4857SOL    HW215471   1.499   2.485   5.456
 4858SOL     OW15472   1.105   1.103   4.846
 4858SOL    HW115473   1.179   1.111   4.913
 4858SOL    HW215474   1.080   1.194   4.813
 4859SOL     OW15475   1.121   0.861   4.582
 4859SOL    HW115476   1.168   0.823   4.662
 4859SOL    HW215477   1.169   0.943   4.551
 4860SOL     OW15478   3.889   4.423   1.380
 4860SOL    HW115479   3.900   4.380   1.469
 4860SOL    HW215480   3.956   4.496   1.369
 4861SOL     OW15481   4.989   4.664   6.690
 4861SOL    HW115482   5.046   4.746   6.681
 4861SOL    HW215483   4.893   4.691   6.692
 4862SOL     OW15484   2.792   4.718   4.700
 4862SOL    HW115485   2.864   4.702   4.768
 4862SOL    HW215486   2.832   4.757   4.617
 4863SOL     OW15487   6.425   3.763   2.136
 4863SOL    HW115488   6.442   3.797   2.044
 4863SOL    HW215489   6.425   3.839   2.201
 4864SOL     OW15490   3.766   1.231   3.455
 4864SOL    HW115491   3.715   1.183   3.383
 4864SOL    HW215492   3.702   1.285   3.510
 4865SOL     OW15493   2.004   0.718   5.074
 4865SOL    HW115494   2.027   0.812   5.102
 4865SOL    HW215495   1.929   0.721   5.008
 4866SOL     OW15496   6.393   1.767   1.132
 4866SOL    HW115497   6.368   1.757   1.229
 4866SOL    HW215498   6.355   1.852   1.097
 4867SOL     OW15499   3.485   5.346   2.246
 4867SOL    HW115500   3.390   5.370   2.265
 4867SOL    HW215501   3.532   5.326   2.332
 4868SOL     OW15502   6.407   4.805   2.408
 4868SOL    HW115503   6.458   4.865   2.347
 4868SOL    HW215504   6.366   4.730   2.356
 4869SOL     OW15505   1.114   1.784   2.141
 4869SOL    HW115506   1.202   1.825   2.115
 4869SOL    HW215507   1.123   1.743   2.232
 4870SOL     OW15508   0.532   6.563   1.681
 4870SOL    HW115509   0.583   6.605   1.756
 4870SOL    HW215510   0.581   6.578   1.595
 4871SOL     OW15511   1.464   0.714   3.967
 4871SOL    HW115512   1.456   0.690   3.870
 4871SOL    HW215513   1.425   0.805   3.982
 4872SOL     OW15514   6.312   0.027   3.858
 4872SOL    HW115515   6.256   7.001   3.926
 4872SOL    HW215516   6.276   0.009   3.767
 4873SOL     OW15517   6.234   5.340   3.771
 4873SOL    HW115518   6.324   5.384   3.769
 4873SOL    HW215519   6.231   5.273   3.845
 4874SOL     OW15520   6.304   3.413   2.819
 4874SOL    HW115521   6.296   3.315   2.840
 4874SOL    HW215522   6.326   3.424   2.722
 4875SOL     OW15523   5.763   1.712   0.853
 4875SOL    HW115524   5.736   1.780   0.921
 4875SOL    HW215525   5.703   1.719   0.773
 4876SOL     OW15526   6.023   2.555   2.902
 4876SOL    HW115527   5.948   2.611   2.936
 4876SOL    HW215528   6.101   2.614   2.880
 4877SOL     OW15529   1.363   1.777   6.518
 4877SOL    HW115530   1.339   1.873   6.501
 4877SOL    HW215531   1.433   1.749   6.452
 4878SOL     OW15532   6.078   1.184   2.048
 4878SOL    HW115533   6.023   1.124   2.107
 4878SOL    HW215534   6.116   1.131   1.972
 4879SOL     OW15535   4.387   0.788   2.830
 4879SOL    HW115536   4.478   0.753   2.851
 4879SOL    HW215537   4.327   0.711   2.806
 4880SOL     OW15538   5.353   3.606   6.831
 4880SOL    HW115539   5.318   3.549   6.757
 4880SOL    HW215540   5.446   3.577   6.854
 4881SOL     OW15541   1.135   1.182   0.187
 4881SOL    HW115542   1.121   1.083   0.183
 4881SOL    HW215543   1.090   1.219   0.268
 4882SOL     OW15544   4.665   0.903   4.938
 4882SOL    HW115545   4.695   0.906   4.843
 4882SOL    HW215546   4.567   0.884   4.942
 4883SOL     OW15547   4.961   5.182   1.683
 4883SOL    HW115548   4.929   5.193   1.589
 4883SOL    HW215549   4.945   5.267   1.734
 4884SOL     OW15550   2.725   6.562   1.203
 4884SOL    HW115551   2.710   6.585   1.107
 4884SOL    HW215552   2.700   6.639   1.261
 4885SOL     OW15553   2.239   5.348   1.816
 4885SOL    HW115554   2.331   5.388   1.804
 4885SOL    HW215555   2.170   5.418   1.797
 4886SOL     OW15556   1.130   6.217   1.229
 4886SOL    HW115557   1.118   6.142   1.294
 4886SOL    HW215558   1.041   6.255   1.205
 4887SOL     OW15559   6.957   0.146   2.099
 4887SOL    HW115560   0.022   0.186   2.124
 4887SOL    HW215561   6.903   0.212   2.048
 4888SOL     OW15562   3.077   0.094   4.269
 4888SOL    HW115563   2.995   0.142   4.299
 4888SOL    HW215564   3.151   0.110   4.334
 4889SOL     OW15565   6.973   2.129   5.404
 4889SOL    HW115566   6.881   2.144   5.368
 4889SOL    HW215567   6.981   2.034   5.435
 4890SOL     OW15568   0.014   1.159   6.526
 4890SOL    HW115569   0.069   1.134   6.446
 4890SOL    HW215570   6.946   1.119   6.518
 4891SOL     OW15571   2.443   4.370   0.020
 4891SOL    HW115572   2.501   4.439   0.063
 4891SOL    HW215573   2.445   4.382   6.944
 4892SOL     OW15574   3.382   6.151   2.537
 4892SOL    HW115575   3.387   6.073   2.476
 4892SOL    HW215576   3.330   6.225   2.493
 4893SOL     OW15577   6.526   3.053   1.382
 4893SOL    HW115578   6.603   2.990   1.378
 4893SOL    HW215579   6.546   3.128   1.446
 4894SOL     OW15580   2.878   0.872   3.296
 4894SOL    HW115581   2.890   0.787   3.347
 4894SOL    HW215582   2.888   0.854   3.199
 4895SOL     OW15583   0.717   4.949   4.385
 4895SOL    HW115584   0.764   4.892   4.452
 4895SOL    HW215585   0.783   5.010   4.340
 4896SOL     OW15586   1.522   4.788   2.136
 4896SOL    HW115587   1.429   4.824   2.146
 4896SOL    HW215588   1.520   4.702   2.085
 4897SOL     OW15589   1.713   4.608   5.532
 4897SOL    HW115590   1.787   4.675   5.522
 4897SOL    HW215591   1.742   4.537   5.596
 4898SOL     OW15592   4.510   1.024   4.551
 4898SOL    HW115593   4.422   1.056   4.515
 4898SOL    HW215594   4.542   1.087   4.622
 4899SOL     OW15595   5.547   5.195   2.991
 4899SOL    HW115596   5.570   5.246   3.074
 4899SOL    HW215597   5.623   5.200   2.926
 4900SOL     OW15598   3.466   6.225   5.055
 4900SOL    HW115599   3.438   6.175   4.973
 4900SOL    HW215600   3.445   6.322   5.043
 4901SOL     OW15601   2.999   1.274   5.159
 4901SOL    HW115602   3.070   1.290   5.227
 4901SOL    HW215603   3.036   1.221   5.083
 4902SOL     OW15604   1.963   1.897   4.824
 4902SOL    HW115605   1.880   1.884   4.877
 4902SOL    HW215606   1.941   1.896   4.727
 4903SOL     OW15607   3.752   5.617   0.003
 4903SOL    HW115608   3.710   5.547   0.060
 4903SOL    HW215609   3.686   5.690   7.009
 4904SOL     OW15610   2.471   0.442   4.824
 4904SOL    HW115611   2.392   0.486   4.865
 4904SOL    HW215612   2.554   0.468   4.873
 4905SOL     OW15613   3.363   0.626   2.933
 4905SOL    HW115614   3.355   0.632   3.033
 4905SOL    HW215615   3.340   0.534   2.903
 4906SOL     OW15616   5.459   1.972   6.491
 4906SOL    HW115617   5.523   1.906   6.530
 4906SOL    HW215618   5.452   2.051   6.552
 4907SOL     OW15619   4.090   6.217   2.470
 4907SOL    HW115620   4.073   6.242   2.565
 4907SOL    HW215621   4.173   6.261   2.438
 4908SOL     OW15622   5.603   6.258   0.505
 4908SOL    HW115623   5.642   6.222   0.590
 4908SOL    HW215624   5.636   6.203   0.428
 4909SOL     OW15625   0.513   6.997   4.411
 4909SOL    HW115626   0.518   6.908   4.367
 4909SOL    HW215627   0.593   0.028   4.387
 4910SOL     OW15628   5.241   1.105   4.983
 4910SOL    HW115629   5.271   1.107   5.078
 4910SOL    HW215630   5.300   1.165   4.928
 4911SOL     OW15631   1.231   4.500   3.663
 4911SOL    HW115632   1.215   4.502   3.762
 4911SOL    HW215633   1.278   4.584   3.636
 4912SOL     OW15634   5.556   1.597   6.462
 4912SOL    HW115635   5.527   1.501   6.460
 4912SOL    HW215636   5.495   1.651   6.403
 4913SOL     OW15637   4.289   2.939   5.340
 4913SOL    HW115638   4.372   2.900   5.301
 4913SOL    HW215639   4.313   2.995   5.419
 4914SOL     OW15640   3.351   0.364   4.813
 4914SOL    HW115641   3.390   0.321   4.732
 4914SOL    HW215642   3.361   0.302   4.891
 4915SOL     OW15643   3.364   6.444   5.932
 4915SOL    HW115644   3.449   6.403   5.965
 4915SOL    HW215645   3.297   6.373   5.914
 4916SOL     OW15646   1.253   0.335   4.013
 4916SOL    HW115647   1.306   0.402   4.066
 4916SOL    HW215648   1.173   0.380   3.975
 4917SOL     OW15649   2.394   5.849   1.640
 4917SOL    HW115650   2.308   5.897   1.622
 4917SOL    HW215651   2.460   5.913   1.680
 4918SOL     OW15652   4.829   5.825   2.888
 4918SOL    HW115653   4.870   5.791   2.804
 4918SOL    HW215654   4.886   5.797   2.966
 4919SOL     OW15655   3.539   2.491   0.821
 4919SOL    HW115656   3.553   2.517   0.726
 4919SOL    HW215657   3.628   2.475   0.864
 4920SOL     OW15658   5.360   0.538   4.597
 4920SOL    HW115659   5.392   0.606   4.663
 4920SOL    HW215660   5.303   0.583   4.528
 4921SOL     OW15661   1.238   5.331   0.773
 4921SOL    HW115662   1.165   5.269   0.745
 4921SOL    HW215663   1.219   5.423   0.740
 4922SOL     OW15664   2.712   2.499   5.262
 4922SOL    HW115665   2.728   2.480   5.359
 4922SOL    HW215666   2.640   2.567   5.252
 4923SOL     OW15667   3.760   2.145   2.690
 4923SOL    HW115668   3.842   2.140   2.746
 4923SOL    HW215669   3.679   2.140   2.748
 4924SOL     OW15670   3.787   1.288   4.917
 4924SOL    HW115671   3.784   1.373   4.865
 4924SOL    HW215672   3.838   1.302   5.002
 4925SOL     OW15673   6.683   0.046   2.734
 4925SOL    HW115674   6.651   7.020   2.653
 4925SOL    HW215675   6.778   0.023   2.753
 4926SOL     OW15676   4.767   0.982   0.504
 4926SOL    HW115677   4.841   0.917   0.490
 4926SOL    HW215678   4.732   1.013   0.415
 4927SOL     OW15679   3.424   3.945   4.452
 4927SOL    HW115680   3.336   3.993   4.453
 4927SOL    HW215681   3.407   3.847   4.442
 4928SOL     OW15682   2.351   6.784   6.758
 4928SOL    HW115683   2.380   6.788   6.854
 4928SOL    HW215684   2.274   6.722   6.749
 4929SOL     OW15685   6.897   6.899   4.248
 4929SOL    HW115686   6.859   6.978   4.198
 4929SOL    HW215687   6.832   6.823   4.245
 4930SOL     OW15688   5.183   0.820   2.847
 4930SOL    HW115689   5.241   0.901   2.847
 4930SOL    HW215690   5.219   0.752   2.910
 4931SOL     OW15691   6.858   6.692   0.844
 4931SOL    HW115692   6.812   6.664   0.928
 4931SOL    HW215693   6.928   6.625   0.820
 4932SOL     OW15694   3.048   3.051   2.197
 4932SOL    HW115695   3.131   3.102   2.220
 4932SOL    HW215696   3.046   3.035   2.099
 4933SOL     OW15697   2.439   6.813   2.548
 4933SOL    HW115698   2.394   6.798   2.460
 4933SOL    HW215699   2.390   6.883   2.599
 4934SOL     OW15700   3.310   5.718   2.946
 4934SOL    HW115701   3.235   5.692   2.885
 4934SOL    HW215702   3.394   5.727   2.892
 4935SOL     OW15703   2.022   1.878   6.413
 4935SOL    HW115704   2.006   1.976   6.404
 4935SOL    HW215705   2.119   1.861   6.428
 4936SOL     OW15706   2.675   4.930   1.508
 4936SOL    HW115707   2.732   4.991   1.455
 4936SOL    HW215708   2.721   4.841   1.517
 4937SOL     OW15709   5.735   3.023   5.619
 4937SOL    HW115710   5.645   3.005   5.580
 4937SOL    HW215711   5.805   3.012   5.548
 4938SOL     OW15712   2.177   5.099   5.743
 4938SOL    HW115713   2.086   5.067   5.766
 4938SOL    HW215714   2.173   5.157   5.661
 4939SOL     OW15715   6.231   2.190   4.279
 4939SOL    HW115716   6.235   2.158   4.184
 4939SOL    HW215717   6.270   2.120   4.339
 4940SOL     OW15718   0.305   1.232   4.817
 4940SOL    HW115719   0.312   1.254   4.720
 4940SOL    HW215720   0.391   1.255   4.863
 4941SOL     OW15721   4.924   2.221   5.880
 4941SOL    HW115722   5.017   2.215   5.915
 4941SOL    HW215723   4.909   2.311   5.839
 4942SOL     OW15724   4.969   2.622   6.181
 4942SOL    HW115725   4.884   2.665   6.212
 4942SOL    HW215726   5.015   2.579   6.259
 4943SOL     OW15727   4.864   3.334   6.636
 4943SOL    HW115728   4.960   3.360   6.643
 4943SOL    HW215729   4.808   3.416   6.628
 4944SOL     OW15730   1.765   4.721   1.635
 4944SOL    HW115731   1.798   4.651   1.571
 4944SOL    HW215732   1.779   4.812   1.597
 4945SOL     OW15733   1.396   0.521   4.154
 4945SOL    HW115734   1.405   0.600   4.093
 4945SOL    HW215735   1.419   0.549   4.247
 4946SOL     OW15736   1.117   3.834   0.288
 4946SOL    HW115737   1.036   3.879   0.323
 4946SOL    HW215738   1.168   3.793   0.364
 4947SOL     OW15739   2.037   0.736   1.052
 4947SOL    HW115740   2.091   0.720   1.134
 4947SOL    HW215741   2.087   0.797   0.990
 4948SOL     OW15742   1.497   1.995   2.342
 4948SOL    HW115743   1.432   2.068   2.361
 4948SOL    HW215744   1.529   2.003   2.247
 4949SOL     OW15745   4.651   6.836   6.357
 4949SOL    HW115746   4.684   6.841   6.263
 4949SOL    HW215747   4.648   6.740   6.386
 4950SOL     OW15748   2.525   5.443   4.376
 4950SOL    HW115749   2.546   5.345   4.374
 4950SOL    HW215750   2.474   5.465   4.459
 4951SOL     OW15751   5.122   1.559   4.242
 4951SOL    HW115752   5.050   1.628   4.247
 4951SOL    HW215753   5.207   1.598   4.278
 4952SOL     OW15754   6.972   1.047   5.490
 4952SOL    HW115755   6.880   1.078   5.513
 4952SOL    HW215756   7.004   0.982   5.558
 4953SOL     OW15757   2.095   6.376   2.353
 4953SOL    HW115758   2.125   6.440   2.424
 4953SOL    HW215759   2.042   6.302   2.395
 4954SOL     OW15760   4.373   3.372   6.932
 4954SOL    HW115761   4.361   3.433   7.010
 4954SOL    HW215762   4.284   3.342   6.898
 4955SOL     OW15763   2.815   5.907   6.655
 4955SOL    HW115764   2.752   5.935   6.583
 4955SOL    HW215765   2.908   5.905   6.620
 4956SOL     OW15766   2.459   6.889   4.929
 4956SOL    HW115767   2.427   6.974   4.887
 4956SOL    HW215768   2.380   6.832   4.952
 4957SOL     OW15769   6.822   1.970   2.451
 4957SOL    HW115770   6.806   2.051   2.508
 4957SOL    HW215771   6.784   1.986   2.360
 4958SOL     OW15772   6.786   5.156   5.055
 4958SOL    HW115773   6.833   5.090   5.114
 4958SOL    HW215774   6.816   5.143   4.960
 4959SOL     OW15775   6.659   1.379   6.434
 4959SOL    HW115776   6.757   1.366   6.453
 4959SOL    HW215777   6.616   1.428   6.510
 4960SOL     OW15778   3.744   5.900   2.924
 4960SOL    HW115779   3.734   5.994   2.890
 4960SOL    HW215780   3.737   5.900   3.024
 4961SOL     OW15781   4.874   1.709   6.080
 4961SOL    HW115782   4.894   1.730   5.985
 4961SOL    HW215783   4.925   1.629   6.109
 4962SOL     OW15784   6.749   2.585   0.415
 4962SOL    HW115785   6.655   2.573   0.447
 4962SOL    HW215786   6.766   2.682   0.396
 4963SOL     OW15787   6.136   5.858   6.857
 4963SOL    HW115788   6.180   5.816   6.935
 4963SOL    HW215789   6.106   5.788   6.793
 4964SOL     OW15790   3.493   6.954   4.214
 4964SOL    HW115791   3.394   6.958   4.204
 4964SOL    HW215792   3.535   7.007   4.140
 4965SOL     OW15793   0.283   0.314   3.596
 4965SOL    HW115794   0.360   0.324   3.658
 4965SOL    HW215795   0.276   0.396   3.538
 4966SOL     OW15796   2.611   0.430   4.599
 4966SOL    HW115797   2.542   0.438   4.671
 4966SOL    HW215798   2.698   0.401   4.638
 4967SOL     OW15799   3.721   3.792   6.174
 4967SOL    HW115800   3.762   3.775   6.084
 4967SOL    HW215801   3.789   3.835   6.233
 4968SOL     OW15802   6.062   2.427   3.479
 4968SOL    HW115803   6.084   2.417   3.575
 4968SOL    HW215804   5.971   2.468   3.470
 4969SOL     OW15805   2.461   0.885   2.127
 4969SOL    HW115806   2.551   0.921   2.106
 4969SOL    HW215807   2.441   0.899   2.225
 4970SOL     OW15808   1.811   1.936   3.901
 4970SOL    HW115809   1.791   1.944   3.998
 4970SOL    HW215810   1.735   1.975   3.848
 4971SOL     OW15811   6.391   6.630   3.516
 4971SOL    HW115812   6.324   6.704   3.510
 4971SOL    HW215813   6.471   6.663   3.567
 4972SOL     OW15814   2.215   2.852   6.987
 4972SOL    HW115815   2.203   2.753   6.977
 4972SOL    HW215816   2.139   2.899   6.944
 4973SOL     OW15817   0.435   0.319   2.809
 4973SOL    HW115818   0.472   0.302   2.718
 4973SOL    HW215819   0.510   0.322   2.875
 4974SOL     OW15820   5.886   4.925   1.489
 4974SOL    HW115821   5.957   4.855   1.495
 4974SOL    HW215822   5.804   4.893   1.536
 4975SOL     OW15823   5.527   5.246   5.888
 4975SOL    HW115824   5.483   5.157   5.879
 4975SOL    HW215825   5.457   5.318   5.891
 4976SOL     OW15826   2.944   6.815   4.494
 4976SOL    HW115827   2.962   6.719   4.516
 4976SOL    HW215828   2.967   6.833   4.399
 4977SOL     OW15829   4.154   3.922   0.796
 4977SOL    HW115830   4.188   3.978   0.872
 4977SOL    HW215831   4.189   3.829   0.806
 4978SOL     OW15832   0.032   4.150   5.483
 4978SOL    HW115833   6.976   4.099   5.517
 4978SOL    HW215834   0.114   4.117   5.529
 4979SOL     OW15835   0.664   0.148   5.379
 4979SOL    HW115836   0.607   0.229   5.391
 4979SOL    HW215837   0.760   0.174   5.381
 4980SOL     OW15838   4.710   6.353   3.417
 4980SOL    HW115839   4.648   6.276   3.401
 4980SOL    HW215840   4.710   6.376   3.515
 4981SOL     OW15841   4.956   5.694   6.330
 4981SOL    HW115842   5.012   5.709   6.411
 4981SOL    HW215843   4.985   5.609   6.285
 4982SOL     OW15844   2.710   2.126   6.281
 4982SOL    HW115845   2.798   2.086   6.306
 4982SOL    HW215846   2.723   2.198   6.213
 4983SOL     OW15847   5.463   2.296   4.269
 4983SOL    HW115848   5.542   2.255   4.223
 4983SOL    HW215849   5.454   2.391   4.242
 4984SOL     OW15850   6.060   4.257   4.313
 4984SOL    HW115851   6.078   4.277   4.410
 4984SOL    HW215852   6.069   4.341   4.260
 4985SOL     OW15853   5.888   6.657   3.284
 4985SOL    HW115854   5.922   6.587   3.221
 4985SOL    HW215855   5.808   6.622   3.332
 4986SOL     OW15856   5.794   4.149   2.884
 4986SOL    HW115857   5.786   4.241   2.923
 4986SOL    HW215858   5.890   4.125   2.873
 4987SOL     OW15859   1.147   1.518   1.122
 4987SOL    HW115860   1.192   1.482   1.203
 4987SOL    HW215861   1.166   1.616   1.114
 4988SOL     OW15862   6.068   1.181   3.407
 4988SOL    HW115863   6.137   1.223   3.465
 4988SOL    HW215864   6.008   1.252   3.371
 4989SOL     OW15865   5.741   0.349   1.217
 4989SOL    HW115866   5.655   0.300   1.227
 4989SOL    HW215867   5.757   0.406   1.298
 4990SOL     OW15868   1.917   1.566   5.553
 4990SOL    HW115869   1.959   1.486   5.596
 4990SOL    HW215870   1.870   1.620   5.622
 4991SOL     OW15871   0.326   3.297   4.558
 4991SOL    HW115872   0.341   3.199   4.546
 4991SOL    HW215873   0.398   3.348   4.512
 4992SOL     OW15874   4.916   1.128   4.999
 4992SOL    HW115875   4.916   1.141   5.098
 4992SOL    HW215876   5.010   1.118   4.967
 4993SOL     OW15877   3.731   5.289   3.694
 4993SOL    HW115878   3.806   5.317   3.754
 4993SOL    HW215879   3.740   5.191   3.674
 4994SOL     OW15880   1.113   0.375   2.531
 4994SOL    HW115881   1.147   0.339   2.618
 4994SOL    HW215882   1.150   0.321   2.456
 4995SOL     OW15883   6.813   3.143   5.796
 4995SOL    HW115884   6.826   3.111   5.702
 4995SOL    HW215885   6.849   3.074   5.859
 4996SOL     OW15886   1.342   0.912   2.675
 4996SOL    HW115887   1.247   0.941   2.689
 4996SOL    HW215888   1.351   0.867   2.587
 4997SOL     OW15889   6.543   1.458   3.228
 4997SOL    HW115890   6.506   1.539   3.182
 4997SOL    HW215891   6.479   1.382   3.220
 4998SOL     OW15892   2.218   3.747   5.211
 4998SOL    HW115893   2.300   3.801   5.193
 4998SOL    HW215894   2.165   3.738   5.127
 4999SOL     OW15895   5.678   4.866   1.138
 4999SOL    HW115896   5.760   4.809   1.134
 4999SOL    HW215897   5.700   4.953   1.183
 5000SOL     OW15898   2.227   6.593   4.081
 5000SOL    HW115899   2.314   6.601   4.033
 5000SOL    HW215900   2.230   6.645   4.166
 5001SOL     OW15901   1.319   4.510   0.311
 5001SOL    HW115902   1.306   4.576   0.385
 5001SOL    HW215903   1.406   4.528   0.265
 5002SOL     OW15904   1.337   3.346   3.243
 5002SOL    HW115905   1.427   3.306   3.234
 5002SOL    HW215906   1.278   3.286   3.297
 5003SOL     OW15907   2.143   6.692   2.814
 5003SOL    HW115908   2.049   6.725   2.818
 5003SOL    HW215909   2.146   6.594   2.830
 5004SOL     OW15910   3.122   4.980   5.651
 5004SOL    HW115911   3.157   5.051   5.713
 5004SOL    HW215912   3.161   4.892   5.677
 5005SOL     OW15913   3.570   2.063   0.879
 5005SOL    HW115914   3.658   2.092   0.916
 5005SOL    HW215915   3.497   2.094   0.940
 5006SOL     OW15916   4.610   6.543   6.702
 5006SOL    HW115917   4.527   6.488   6.695
 5006SOL    HW215918   4.607   6.598   6.785
 5007SOL     OW15919   1.990   0.454   6.881
 5007SOL    HW115920   2.024   0.359   6.881
 5007SOL    HW215921   1.950   0.474   6.971
 5008SOL     OW15922   6.441   0.533   3.404
 5008SOL    HW115923   6.365   0.490   3.453
 5008SOL    HW215924   6.405   0.599   3.338
 5009SOL     OW15925   1.564   6.163   1.519
 5009SOL    HW115926   1.525   6.142   1.609
 5009SOL    HW215927   1.555   6.083   1.460
 5010SOL     OW15928   3.392   2.933   2.931
 5010SOL    HW115929   3.489   2.910   2.919
 5010SOL    HW215930   3.363   2.908   3.023
 5011SOL     OW15931   1.783   3.650   2.536
 5011SOL    HW115932   1.699   3.608   2.569
 5011SOL    HW215933   1.807   3.611   2.447
 5012SOL     OW15934   5.031   3.353   6.341
 5012SOL    HW115935   5.012   3.412   6.262
 5012SOL    HW215936   4.947   3.308   6.370
 5013SOL     OW15937   5.249   1.750   0.457
 5013SOL    HW115938   5.342   1.714   0.454
 5013SOL    HW215939   5.243   1.824   0.524
 5014SOL     OW15940   5.383   4.335   0.622
 5014SOL    HW115941   5.453   4.396   0.584
 5014SOL    HW215942   5.292   4.373   0.603
 5015SOL     OW15943   4.831   2.168   3.749
 5015SOL    HW115944   4.850   2.118   3.665
 5015SOL    HW215945   4.900   2.145   3.818
 5016SOL     OW15946   2.790   1.823   0.628
 5016SOL    HW115947   2.827   1.740   0.587
 5016SOL    HW215948   2.817   1.828   0.724
 5017SOL     OW15949   1.977   2.702   6.869
 5017SOL    HW115950   2.025   2.624   6.828
 5017SOL    HW215951   1.933   2.672   6.953
 5018SOL     OW15952   0.716   4.306   1.187
 5018SOL    HW115953   0.617   4.318   1.184
 5018SOL    HW215954   0.761   4.391   1.162
 5019SOL     OW15955   2.159   4.911   6.477
 5019SOL    HW115956   2.209   4.985   6.522
 5019SOL    HW215957   2.071   4.897   6.523
 5020SOL     OW15958   4.685   6.791   6.059
 5020SOL    HW115959   4.618   6.864   6.042
 5020SOL    HW215960   4.654   6.706   6.016
 5021SOL     OW15961   1.825   1.771   5.732
 5021SOL    HW115962   1.921   1.798   5.745
 5021SOL    HW215963   1.768   1.852   5.728
 5022SOL     OW15964   1.982   0.072   0.152
 5022SOL    HW115965   2.010   7.006   0.117
 5022SOL    HW215966   1.982   0.138   0.076
 5023SOL     OW15967   6.227   2.610   1.200
 5023SOL    HW115968   6.208   2.669   1.279
 5023SOL    HW215969   6.264   2.666   1.126
 5024SOL     OW15970   6.681   4.898   3.297
 5024SOL    HW115971   6.713   4.934   3.385
 5024SOL    HW215972   6.693   4.968   3.226
 5025SOL     OW15973   4.041   2.124   1.980
 5025SOL    HW115974   4.031   2.119   2.080
 5025SOL    HW215975   3.973   2.066   1.937
 5026SOL     OW15976   5.683   6.166   6.406
 5026SOL    HW115977   5.776   6.130   6.412
 5026SOL    HW215978   5.665   6.195   6.312
 5027SOL     OW15979   0.339   0.126   2.460
 5027SOL    HW115980   0.328   0.082   2.371
 5027SOL    HW215981   0.251   0.161   2.492
 5028SOL     OW15982   0.383   6.362   3.161
 5028SOL    HW115983   0.325   6.361   3.242
 5028SOL    HW215984   0.479   6.356   3.189
 5029SOL     OW15985   6.828   4.053   3.641
 5029SOL    HW115986   6.920   4.034   3.676
 5029SOL    HW215987   6.773   4.097   3.712
 5030SOL     OW15988   7.007   0.586   6.531
 5030SOL    HW115989   6.981   0.649   6.456
 5030SOL    HW215990   0.033   0.508   6.493
 5031SOL     OW15991   5.223   1.039   4.630
 5031SOL    HW115992   5.157   1.114   4.618
 5031SOL    HW215993   5.283   1.034   4.550
 5032SOL     OW15994   1.389   4.359   1.267
 5032SOL    HW115995   1.413   4.281   1.325
 5032SOL    HW215996   1.313   4.410   1.309
 5033SOL     OW15997   1.658   4.849   6.543
 5033SOL    HW115998   1.696   4.779   6.603
 5033SOL    HW215999   1.706   4.848   6.456
 5034SOL     OW16000   6.625   2.449   2.851
 5034SOL    HW116001   6.534   2.473   2.883
 5034SOL    HW216002   6.630   2.460   2.752
 5035SOL     OW16003   6.106   4.479   0.863
 5035SOL    HW116004   6.037   4.459   0.793
 5035SOL    HW216005   6.064   4.471   0.954
 5036SOL     OW16006   0.021   4.460   0.298
 5036SOL    HW116007   0.056   4.535   0.242
 5036SOL    HW216008   6.950   4.440   0.272
 5037SOL     OW16009   4.905   2.082   2.349
 5037SOL    HW116010   4.809   2.079   2.378
 5037SOL    HW216011   4.935   1.991   2.321
 5038SOL     OW16012   1.983   4.752   5.186
 5038SOL    HW116013   2.068   4.702   5.205
 5038SOL    HW216014   2.004   4.831   5.128
 5039SOL     OW16015   1.927   3.992   5.554
 5039SOL    HW116016   2.025   4.012   5.558
 5039SOL    HW216017   1.908   3.932   5.477
 5040SOL     OW16018   1.893   4.674   6.519
 5040SOL    HW116019   1.986   4.637   6.517
 5040SOL    HW216020   1.871   4.710   6.428
 5041SOL     OW16021   1.465   3.256   1.405
 5041SOL    HW116022   1.399   3.302   1.465
 5041SOL    HW216023   1.421   3.235   1.317
 5042SOL     OW16024   6.865   3.150   0.000
 5042SOL    HW116025   6.926   3.223   6.994
 5042SOL    HW216026   6.908   3.098   0.074
 5043SOL     OW16027   2.669   1.711   6.184
 5043SOL    HW116028   2.653   1.645   6.258
 5043SOL    HW216029   2.764   1.742   6.187
 5044SOL     OW16030   6.014   6.676   2.433
 5044SOL    HW116031   6.011   6.610   2.508
 5044SOL    HW216032   5.969   6.761   2.462
 5045SOL     OW16033   5.576   3.133   7.004
 5045SOL    HW116034   5.652   3.195   6.983
 5045SOL    HW216035   5.534   3.160   0.067
 5046SOL     OW16036   3.247   4.138   5.106
 5046SOL    HW116037   3.183   4.211   5.131
 5046SOL    HW216038   3.298   4.164   5.025
 5047SOL     OW16039   0.215   2.694   2.053
 5047SOL    HW116040   0.160   2.695   1.970
 5047SOL    HW216041   0.167   2.744   2.126
 5048SOL     OW16042   6.812   1.290   1.481
 5048SOL    HW116043   6.752   1.339   1.544
 5048SOL    HW216044   6.829   1.347   1.400
 5049SOL     OW16045   6.549   1.619   4.380
 5049SOL    HW116046   6.630   1.671   4.407
 5049SOL    HW216047   6.568   1.567   4.297
 5050SOL     OW16048   1.189   1.178   1.840
 5050SOL    HW116049   1.092   1.155   1.849
 5050SOL    HW216050   1.208   1.262   1.891
 5051SOL     OW16051   4.388   3.432   0.253
 5051SOL    HW116052   4.479   3.412   0.291
 5051SOL    HW216053   4.346   3.348   0.221
 5052SOL     OW16054   2.602   5.201   6.036
 5052SOL    HW116055   2.535   5.133   6.065
 5052SOL    HW216056   2.655   5.230   6.115
 5053SOL     OW16057   1.614   3.952   3.452
 5053SOL    HW116058   1.531   4.008   3.464
 5053SOL    HW216059   1.687   4.008   3.413
 5054SOL     OW16060   3.642   5.676   5.587
 5054SOL    HW116061   3.637   5.589   5.636
 5054SOL    HW216062   3.550   5.706   5.563
 5055SOL     OW16063   0.831   0.760   5.337
 5055SOL    HW116064   0.848   0.821   5.260
 5055SOL    HW216065   0.768   0.804   5.401
 5056SOL     OW16066   6.205   3.601   0.620
 5056SOL    HW116067   6.128   3.537   0.622
 5056SOL    HW216068   6.243   3.610   0.712
 5057SOL     OW16069   0.782   5.640   4.072
 5057SOL    HW116070   0.831   5.725   4.090
 5057SOL    HW216071   0.684   5.652   4.092
 5058SOL     OW16072   2.633   4.114   6.272
 5058SOL    HW116073   2.553   4.076   6.226
 5058SOL    HW216074   2.673   4.187   6.217
 5059SOL     OW16075   5.799   3.552   3.787
 5059SOL    HW116076   5.748   3.576   3.705
 5059SOL    HW216077   5.750   3.480   3.837
 5060SOL     OW16078   0.177   2.808   5.419
 5060SOL    HW116079   0.271   2.785   5.394
 5060SOL    HW216080   0.132   2.727   5.458
 5061SOL     OW16081   3.346   3.108   3.836
 5061SOL    HW116082   3.267   3.069   3.788
 5061SOL    HW216083   3.362   3.201   3.804
 5062SOL     OW16084   5.159   1.218   2.736
 5062SOL    HW116085   5.061   1.219   2.719
 5062SOL    HW216086   5.177   1.183   2.828
 5063SOL     OW16087   1.250   6.207   1.679
 5063SOL    HW116088   1.214   6.133   1.623
 5063SOL    HW216089   1.176   6.247   1.733
 5064SOL     OW16090   5.022   4.195   1.502
 5064SOL    HW116091   5.061   4.254   1.432
 5064SOL    HW216092   4.933   4.162   1.472
 5065SOL     OW16093   1.122   1.961   2.858
 5065SOL    HW116094   1.025   1.968   2.884
 5065SOL    HW216095   1.171   1.908   2.927
 5066SOL     OW16096   3.269   4.035   1.853
 5066SOL    HW116097   3.190   4.089   1.824
 5066SOL    HW216098   3.352   4.090   1.842
 5067SOL     OW16099   3.362   0.875   2.744
 5067SOL    HW116100   3.400   0.928   2.820
 5067SOL    HW216101   3.341   0.782   2.776
 5068SOL     OW16102   3.717   4.807   0.111
 5068SOL    HW116103   3.811   4.816   0.144
 5068SOL    HW216104   3.654   4.841   0.180
 5069SOL     OW16105   1.541   2.815   6.070
 5069SOL    HW116106   1.551   2.906   6.112
 5069SOL    HW216107   1.627   2.764   6.080
 5070SOL     OW16108   5.261   5.118   5.113
 5070SOL    HW116109   5.177   5.081   5.153
 5070SOL    HW216110   5.271   5.084   5.020
 5071SOL     OW16111   3.916   2.079   3.924
 5071SOL    HW116112   3.920   1.980   3.913
 5071SOL    HW216113   3.841   2.116   3.868
 5072SOL     OW16114   1.693   1.452   1.605
 5072SOL    HW116115   1.599   1.440   1.639
 5072SOL    HW216116   1.719   1.372   1.552
 5073SOL     OW16117   1.769   4.933   1.048
 5073SOL    HW116118   1.772   4.941   1.148
 5073SOL    HW216119   1.784   5.022   1.007
 5074SOL     OW16120   3.736   1.996   2.153
 5074SOL    HW116121   3.703   2.076   2.101
 5074SOL    HW216122   3.835   2.005   2.167
 5075SOL     OW16123   1.127   1.785   0.069
 5075SOL    HW116124   1.079   1.721   0.130
 5075SOL    HW216125   1.089   1.777   7.000
 5076SOL     OW16126   5.391   6.959   0.506
 5076SOL    HW116127   5.416   0.019   0.457
 5076SOL    HW216128   5.379   6.981   0.603
 5077SOL     OW16129   0.949   4.011   6.425
 5077SOL    HW116130   1.010   4.033   6.349
 5077SOL    HW216131   0.854   4.016   6.394
 5078SOL     OW16132   0.616   1.178   3.971
 5078SOL    HW116133   0.599   1.219   4.061
 5078SOL    HW216134   0.664   1.091   3.982
 5079SOL     OW16135   2.540   2.714   5.263
 5079SOL    HW116136   2.517   2.810   5.281
 5079SOL    HW216137   2.475   2.676   5.198
 5080SOL     OW16138   6.196   6.090   5.137
 5080SOL    HW116139   6.152   6.176   5.111
 5080SOL    HW216140   6.276   6.109   5.195
 5081SOL     OW16141   2.979   4.229   6.248
 5081SOL    HW116142   3.014   4.138   6.272
 5081SOL    HW216143   2.938   4.226   6.157
 5082SOL     OW16144   5.418   6.993   0.861
 5082SOL    HW116145   5.352   7.016   0.789
 5082SOL    HW216146   5.510   7.004   0.825
 5083SOL     OW16147   3.015   0.379   2.562
 5083SOL    HW116148   3.018   0.440   2.641
 5083SOL    HW216149   3.103   0.380   2.515
 5084SOL     OW16150   1.004   5.304   3.646
 5084SOL    HW116151   0.984   5.299   3.548
 5084SOL    HW216152   0.923   5.277   3.698
 5085SOL     OW16153   6.955   2.721   5.654
 5085SOL    HW116154   7.012   2.803   5.645
 5085SOL    HW216155   6.982   2.654   5.584
 5086SOL     OW16156   1.486   4.636   2.799
 5086SOL    HW116157   1.404   4.588   2.769
 5086SOL    HW216158   1.559   4.570   2.817
 5087SOL     OW16159   0.381   5.366   1.489
 5087SOL    HW116160   0.321   5.347   1.567
 5087SOL    HW216161   0.344   5.443   1.436
 5088SOL     OW16162   5.320   0.160   3.775
 5088SOL    HW116163   5.327   0.210   3.861
 5088SOL    HW216164   5.255   0.207   3.714
 5089SOL     OW16165   6.321   4.661   4.292
 5089SOL    HW116166   6.336   4.572   4.335
 5089SOL    HW216167   6.350   4.657   4.196
 5090SOL     OW16168   1.796   1.890   2.532
 5090SOL    HW116169   1.703   1.854   2.538
 5090SOL    HW216170   1.837   1.893   2.623
 5091SOL     OW16171   6.321   0.845   1.941
 5091SOL    HW116172   6.330   0.929   1.995
 5091SOL    HW216173   6.404   0.790   1.951
 5092SOL     OW16174   3.840   3.428   3.520
 5092SOL    HW116175   3.818   3.419   3.423
 5092SOL    HW216176   3.938   3.416   3.534
 5093SOL     OW16177   3.470   1.319   0.508
 5093SOL    HW116178   3.413   1.370   0.444
 5093SOL    HW216179   3.566   1.337   0.491
 5094SOL     OW16180   2.339   5.889   6.029
 5094SOL    HW116181   2.324   5.793   6.007
 5094SOL    HW216182   2.252   5.939   6.020
 5095SOL     OW16183   6.943   2.554   3.070
 5095SOL    HW116184   6.966   2.636   3.122
 5095SOL    HW216185   6.872   2.503   3.119
 5096SOL     OW16186   4.740   4.771   6.749
 5096SOL    HW116187   4.761   4.867   6.732
 5096SOL    HW216188   4.659   4.745   6.697
 5097SOL     OW16189   0.634   6.765   6.610
 5097SOL    HW116190   0.722   6.802   6.641
 5097SOL    HW216191   0.631   6.666   6.626
 5098SOL     OW16192   2.432   1.002   1.881
 5098SOL    HW116193   2.524   1.039   1.863
 5098SOL    HW216194   2.422   0.984   1.978
 5099SOL     OW16195   0.440   6.762   1.314
 5099SOL    HW116196   0.412   6.721   1.226
 5099SOL    HW216197   0.521   6.715   1.348
 5100SOL     OW16198   3.366   5.348   4.820
 5100SOL    HW116199   3.286   5.320   4.768
 5100SOL    HW216200   3.342   5.356   4.917
 5101SOL     OW16201   4.103   6.982   6.104
 5101SOL    HW116202   4.168   6.920   6.061
 5101SOL    HW216203   4.012   6.941   6.104
 5102SOL     OW16204   4.851   6.901   4.382
 5102SOL    HW116205   4.888   6.883   4.291
 5102SOL    HW216206   4.777   6.836   4.400
 5103SOL     OW16207   0.024   1.379   3.940
 5103SOL    HW116208   0.086   1.301   3.945
 5103SOL    HW216209   0.070   1.455   3.893
 5104SOL     OW16210   1.930   7.019   2.093
 5104SOL    HW116211   1.904   0.018   2.187
 5104SOL    HW216212   1.960   0.079   2.046
 5105SOL     OW16213   3.307   2.699   0.175
 5105SOL    HW116214   3.321   2.602   0.157
 5105SOL    HW216215   3.301   2.714   0.274
 5106SOL     OW16216   4.558   1.348   0.868
 5106SOL    HW116217   4.634   1.296   0.907
 5106SOL    HW216218   4.584   1.445   0.861
 5107SOL     OW16219   4.608   2.779   1.412
 5107SOL    HW116220   4.639   2.685   1.419
 5107SOL    HW216221   4.553   2.791   1.330
 5108SOL     OW16222   3.969   3.923   5.173
 5108SOL    HW116223   3.971   3.993   5.102
 5108SOL    HW216224   3.902   3.852   5.148
 5109SOL     OW16225   1.000   2.055   0.127
 5109SOL    HW116226   1.006   1.955   0.132
 5109SOL    HW216227   0.986   2.092   0.219
 5110SOL     OW16228   0.482   0.463   6.335
 5110SOL    HW116229   0.436   0.401   6.398
 5110SOL    HW216230   0.441   0.455   6.244
 5111SOL     OW16231   1.556   1.038   4.483
 5111SOL    HW116232   1.580   1.134   4.494
 5111SOL    HW216233   1.579   1.008   4.390
 5112SOL     OW16234   1.164   0.443   2.829
 5112SOL    HW116235   1.118   0.529   2.807
 5112SOL    HW216236   1.260   0.462   2.852
 5113SOL     OW16237   2.207   5.702   1.237
 5113SOL    HW116238   2.163   5.783   1.197
 5113SOL    HW216239   2.228   5.636   1.164
 5114SOL     OW16240   4.104   0.325   6.418
 5114SOL    HW116241   4.144   0.287   6.501
 5114SOL    HW216242   4.049   0.255   6.372
 5115SOL     OW16243   1.507   5.444   3.512
 5115SOL    HW116244   1.475   5.506   3.584
 5115SOL    HW216245   1.484   5.350   3.538
 5116SOL     OW16246   0.896   6.583   0.444
 5116SOL    HW116247   0.805   6.548   0.423
 5116SOL    HW216248   0.905   6.596   0.542
 5117SOL     OW16249   1.437   3.616   3.889
 5117SOL    HW116250   1.515   3.615   3.827
 5117SOL    HW216251   1.364   3.560   3.851
 5118SOL     OW16252   5.319   1.097   0.194
 5118SOL    HW116253   5.254   1.035   0.152
 5118SOL    HW216254   5.318   1.185   0.145
 5119SOL     OW16255   4.499   0.844   2.385
 5119SOL    HW116256   4.478   0.883   2.474
 5119SOL    HW216257   4.561   0.904   2.336
 5120SOL     OW16258   3.895   0.133   4.819
 5120SOL    HW116259   3.844   0.047   4.820
 5120SOL    HW216260   3.886   0.176   4.729
 5121SOL     OW16261   3.812   2.897   0.146
 5121SOL    HW116262   3.781   2.856   0.231
 5121SOL    HW216263   3.876   2.836   0.100
 5122SOL     OW16264   3.329   6.043   3.209
 5122SOL    HW116265   3.266   6.084   3.144
 5122SOL    HW216266   3.356   6.110   3.277
 5123SOL     OW16267   4.657   2.132   4.249
 5123SOL    HW116268   4.575   2.093   4.291
 5123SOL    HW216269   4.738   2.094   4.293
 5124SOL     OW16270   1.647   5.998   4.986
 5124SOL    HW116271   1.633   5.907   5.025
 5124SOL    HW216272   1.559   6.046   4.981
 5125SOL     OW16273   6.590   3.848   3.640
 5125SOL    HW116274   6.665   3.816   3.583
 5125SOL    HW216275   6.626   3.904   3.715
 5126SOL     OW16276   6.399   5.840   6.739
 5126SOL    HW116277   6.319   5.858   6.795
 5126SOL    HW216278   6.428   5.745   6.751
 5127SOL     OW16279   0.055   3.796   0.421
 5127SOL    HW116280   7.009   3.724   0.416
 5127SOL    HW216281   0.033   3.859   0.495
 5128SOL     OW16282   0.233   0.034   6.519
 5128SOL    HW116283   0.306   6.989   6.509
 5128SOL    HW216284   0.147   7.010   6.539
 5129SOL     OW16285   6.246   7.017   2.451
 5129SOL    HW116286   6.260   6.943   2.518
 5129SOL    HW216287   6.320   7.015   2.384
 5130SOL     OW16288   0.345   5.571   3.273
 5130SOL    HW116289   0.313   5.556   3.179
 5130SOL    HW216290   0.276   5.623   3.323
 5131SOL     OW16291   2.152   4.738   4.004
 5131SOL    HW116292   2.174   4.755   4.100
 5131SOL    HW216293   2.201   4.803   3.946
 5132SOL     OW16294   4.023   2.950   6.803
 5132SOL    HW116295   4.036   2.916   6.710
 5132SOL    HW216296   3.930   2.984   6.814
 5133SOL     OW16297   2.039   5.036   6.989
 5133SOL    HW116298   2.046   5.025   0.065
 5133SOL    HW216299   1.943   5.038   6.962
 5134SOL     OW16300   0.262   3.346   2.320
 5134SOL    HW116301   0.358   3.332   2.295
 5134SOL    HW216302   0.247   3.313   2.414
 5135SOL     OW16303   6.156   2.738   4.881
 5135SOL    HW116304   6.121   2.656   4.927
 5135SOL    HW216305   6.090   2.813   4.894
 5136SOL     OW16306   3.824   0.895   5.905
 5136SOL    HW116307   3.841   0.799   5.881
 5136SOL    HW216308   3.848   0.909   6.001
 5137SOL     OW16309   5.594   3.586   6.131
 5137SOL    HW116310   5.595   3.505   6.190
 5137SOL    HW216311   5.500   3.618   6.119
 5138SOL     OW16312   3.116   2.851   5.657
 5138SOL    HW116313   3.187   2.846   5.586
 5138SOL    HW216314   3.082   2.945   5.663
 5139SOL     OW16315   2.003   0.734   2.979
 5139SOL    HW116316   1.914   0.691   2.967
 5139SOL    HW216317   2.002   0.790   3.062
 5140SOL     OW16318   4.060   2.258   0.402
 5140SOL    HW116319   4.032   2.287   0.493
 5140SOL    HW216320   4.154   2.225   0.404
 5141SOL     OW16321   6.646   3.862   0.179
 5141SOL    HW116322   6.608   3.853   0.087
 5141SOL    HW216323   6.745   3.850   0.176
 5142SOL     OW16324   6.313   0.285   3.958
 5142SOL    HW116325   6.329   0.193   3.923
 5142SOL    HW216326   6.215   0.301   3.968
 5143SOL     OW16327   6.755   4.192   4.307
 5143SOL    HW116328   6.793   4.273   4.263
 5143SOL    HW216329   6.816   4.114   4.292
 5144SOL     OW16330   1.036   4.571   6.027
 5144SOL    HW116331   1.090   4.655   6.035
 5144SOL    HW216332   1.095   4.492   6.049
 5145SOL     OW16333   2.379   4.891   5.398
 5145SOL    HW116334   2.415   4.856   5.312
 5145SOL    HW216335   2.454   4.902   5.463
 5146SOL     OW16336   3.875   4.126   5.017
 5146SOL    HW116337   3.907   4.123   4.923
 5146SOL    HW216338   3.779   4.154   5.019
 5147SOL     OW16339   6.595   5.012   2.741
 5147SOL    HW116340   6.654   5.093   2.743
 5147SOL    HW216341   6.621   4.954   2.664
 5148SOL     OW16342   0.176   6.415   1.518
 5148SOL    HW116343   0.114   6.492   1.503
 5148SOL    HW216344   0.253   6.444   1.575
 5149SOL     OW16345   6.437   5.744   3.197
 5149SOL    HW116346   6.435   5.812   3.124
 5149SOL    HW216347   6.496   5.776   3.272
 5150SOL     OW16348   2.316   5.062   2.553
 5150SOL    HW116349   2.239   5.045   2.615
 5150SOL    HW216350   2.290   5.133   2.487
 5151SOL     OW16351   5.504   2.672   0.963
 5151SOL    HW116352   5.414   2.715   0.973
 5151SOL    HW216353   5.499   2.602   0.891
 5152SOL     OW16354   2.350   5.073   0.266
 5152SOL    HW116355   2.325   5.107   0.357
 5152SOL    HW216356   2.298   4.991   0.245
 5153SOL     OW16357   2.365   0.329   6.869
 5153SOL    HW116358   2.366   0.406   6.804
 5153SOL    HW216359   2.459   0.308   6.896
 5154SOL     OW16360   0.911   3.718   6.378
 5154SOL    HW116361   0.996   3.669   6.394
 5154SOL    HW216362   0.932   3.814   6.357
 5155SOL     OW16363   4.308   6.574   2.086
 5155SOL    HW116364   4.229   6.521   2.055
 5155SOL    HW216365   4.277   6.655   2.137
 5156SOL     OW16366   6.489   3.501   6.007
 5156SOL    HW116367   6.466   3.404   6.021
 5156SOL    HW216368   6.445   3.533   5.923
 5157SOL     OW16369   4.230   1.942   3.665
 5157SOL    HW116370   4.187   2.026   3.697
 5157SOL    HW216371   4.293   1.908   3.735
 5158SOL     OW16372   3.741   0.838   1.745
 5158SOL    HW116373   3.779   0.852   1.837
 5158SOL    HW216374   3.783   0.757   1.704
 5159SOL     OW16375   6.878   3.570   3.753
 5159SOL    HW116376   6.863   3.536   3.661
 5159SOL    HW216377   6.819   3.522   3.818
 5160SOL     OW16378   6.992   4.629   3.175
 5160SOL    HW116379   6.896   4.629   3.149
 5160SOL    HW216380   7.000   4.636   3.274
 5161SOL     OW16381   1.470   4.162   5.201
 5161SOL    HW116382   1.518   4.156   5.113
 5161SOL    HW216383   1.534   4.143   5.275
 5162SOL     OW16384   0.952   5.331   3.354
 5162SOL    HW116385   0.984   5.259   3.292
 5162SOL    HW216386   0.852   5.326   3.363
 5163SOL     OW16387   3.905   6.179   0.407
 5163SOL    HW116388   3.919   6.080   0.406
 5163SOL    HW216389   3.809   6.199   0.389
 5164SOL     OW16390   4.585   2.296   6.806
 5164SOL    HW116391   4.578   2.196   6.809
 5164SOL    HW216392   4.549   2.329   6.719
 5165SOL     OW16393   5.850   4.334   6.034
 5165SOL    HW116394   5.799   4.299   6.112
 5165SOL    HW216395   5.841   4.434   6.030
 5166SOL     OW16396   0.551   5.354   3.182
 5166SOL    HW116397   0.601   5.300   3.114
 5166SOL    HW216398   0.458   5.319   3.189
 5167SOL     OW16399   6.198   5.891   5.516
 5167SOL    HW116400   6.155   5.981   5.522
 5167SOL    HW216401   6.280   5.898   5.458
 5168SOL     OW16402   4.937   3.739   2.850
 5168SOL    HW116403   4.921   3.683   2.769
 5168SOL    HW216404   4.850   3.778   2.881
 5169SOL     OW16405   4.392   1.719   4.731
 5169SOL    HW116406   4.460   1.647   4.715
 5169SOL    HW216407   4.407   1.793   4.665
 5170SOL     OW16408   0.507   4.336   5.372
 5170SOL    HW116409   0.581   4.402   5.359
 5170SOL    HW216410   0.423   4.383   5.396
 5171SOL     OW16411   1.347   5.893   4.195
 5171SOL    HW116412   1.274   5.955   4.222
 5171SOL    HW216413   1.338   5.871   4.097
 5172SOL     OW16414   0.494   2.539   2.340
 5172SOL    HW116415   0.495   2.538   2.440
 5172SOL    HW216416   0.526   2.628   2.308
 5173SOL     OW16417   5.731   5.011   6.110
 5173SOL    HW116418   5.738   5.108   6.088
 5173SOL    HW216419   5.701   4.960   6.029
 5174SOL     OW16420   2.204   4.335   2.669
 5174SOL    HW116421   2.236   4.422   2.705
 5174SOL    HW216422   2.147   4.289   2.738
 5175SOL     OW16423   2.274   3.657   0.028
 5175SOL    HW116424   2.323   3.742   0.047
 5175SOL    HW216425   2.206   3.673   6.980
 5176SOL     OW16426   4.773   3.139   6.467
 5176SOL    HW116427   4.753   3.207   6.537
 5176SOL    HW216428   4.758   3.047   6.503
 5177SOL     OW16429   5.191   0.157   0.038
 5177SOL    HW116430   5.261   0.201   0.093
 5177SOL    HW216431   5.138   0.226   7.011
 5178SOL     OW16432   1.292   3.703   1.493
 5178SOL    HW116433   1.352   3.693   1.414
 5178SOL    HW216434   1.291   3.798   1.523
 5179SOL     OW16435   4.195   5.885   4.344
 5179SOL    HW116436   4.153   5.944   4.275
 5179SOL    HW216437   4.132   5.874   4.421
 5180SOL     OW16438   3.367   2.781   0.466
 5180SOL    HW116439   3.422   2.861   0.443
 5180SOL    HW216440   3.315   2.799   0.550
 5181SOL     OW16441   5.240   2.008   2.169
 5181SOL    HW116442   5.158   1.968   2.209
 5181SOL    HW216443   5.219   2.099   2.134
 5182SOL     OW16444   3.907   4.429   1.687
 5182SOL    HW116445   3.874   4.516   1.651
 5182SOL    HW216446   4.007   4.429   1.689
 5183SOL     OW16447   4.172   1.636   2.656
 5183SOL    HW116448   4.077   1.644   2.685
 5183SOL    HW216449   4.203   1.722   2.616
 5184SOL     OW16450   0.299   2.420   4.532
 5184SOL    HW116451   0.367   2.386   4.468
 5184SOL    HW216452   0.308   2.520   4.541
 5185SOL     OW16453   5.170   0.846   2.308
 5185SOL    HW116454   5.212   0.774   2.363
 5185SOL    HW216455   5.128   0.806   2.227
 5186SOL     OW16456   5.898   2.758   0.512
 5186SOL    HW116457   5.903   2.853   0.481
 5186SOL    HW216458   5.981   2.709   0.483
 5187SOL     OW16459   0.441   0.332   4.028
 5187SOL    HW116460   0.448   0.345   4.127
 5187SOL    HW216461   0.376   0.259   4.009
 5188SOL     OW16462   0.463   5.920   0.417
 5188SOL    HW116463   0.536   5.926   0.349
 5188SOL    HW216464   0.489   5.971   0.498
 5189SOL     OW16465   4.884   4.898   0.858
 5189SOL    HW116466   4.927   4.808   0.856
 5189SOL    HW216467   4.920   4.954   0.783
 5190SOL     OW16468   6.917   3.206   4.270
 5190SOL    HW116469   6.912   3.294   4.222
 5190SOL    HW216470   6.976   3.144   4.219
 5191SOL     OW16471   3.775   0.489   1.805
 5191SOL    HW116472   3.811   0.409   1.756
 5191SOL    HW216473   3.724   0.458   1.885
 5192SOL     OW16474   2.833   5.264   2.830
 5192SOL    HW116475   2.772   5.194   2.867
 5192SOL    HW216476   2.925   5.251   2.867
 5193SOL     OW16477   5.286   4.333   4.699
 5193SOL    HW116478   5.188   4.315   4.687
 5193SOL    HW216479   5.335   4.310   4.616
 5194SOL     OW16480   3.672   1.030   0.084
 5194SOL    HW116481   3.597   0.965   0.096
 5194SOL    HW216482   3.727   1.034   0.167
 5195SOL     OW16483   6.496   5.760   4.419
 5195SOL    HW116484   6.503   5.814   4.335
 5195SOL    HW216485   6.588   5.736   4.451
 5196SOL     OW16486   2.211   4.205   0.658
 5196SOL    HW116487   2.134   4.264   0.632
 5196SOL    HW216488   2.232   4.142   0.582
 5197SOL     OW16489   2.209   5.441   4.895
 5197SOL    HW116490   2.135   5.397   4.945
 5197SOL    HW216491   2.296   5.422   4.940
 5198SOL     OW16492   4.421   6.758   3.360
 5198SOL    HW116493   4.404   6.788   3.454
 5198SOL    HW216494   4.508   6.708   3.356
 5199SOL     OW16495   1.356   6.193   0.203
 5199SOL    HW116496   1.285   6.248   0.158
 5199SOL    HW216497   1.444   6.240   0.194
 5200SOL     OW16498   1.453   1.563   5.647
 5200SOL    HW116499   1.462   1.468   5.675
 5200SOL    HW216500   1.418   1.618   5.722
 5201SOL     OW16501   6.053   6.097   4.286
 5201SOL    HW116502   6.095   6.173   4.336
 5201SOL    HW216503   5.963   6.124   4.254
 5202SOL     OW16504   5.786   4.622   5.820
 5202SOL    HW116505   5.807   4.627   5.722
 5202SOL    HW216506   5.870   4.636   5.873
 5203SOL     OW16507   2.310   0.659   0.130
 5203SOL    HW116508   2.327   0.727   0.059
 5203SOL    HW216509   2.266   0.704   0.208
 5204SOL     OW16510   4.359   6.617   6.939
 5204SOL    HW116511   4.438   6.678   6.929
 5204SOL    HW216512   4.391   6.525   6.963
 5205SOL     OW16513   6.670   5.739   0.055
 5205SOL    HW116514   6.661   5.712   6.983
 5205SOL    HW216515   6.743   5.685   0.098
 5206SOL     OW16516   0.532   4.742   6.795
 5206SOL    HW116517   0.557   4.837   6.814
 5206SOL    HW216518   0.516   4.694   6.882
 5207SOL     OW16519   1.227   6.932   3.876
 5207SOL    HW116520   1.310   6.883   3.848
 5207SOL    HW216521   1.177   6.879   3.944
 5208SOL     OW16522   4.809   2.149   6.949
 5208SOL    HW116523   4.890   2.207   6.959
 5208SOL    HW216524   4.727   2.201   6.976
 5209SOL     OW16525   5.766   0.510   1.458
 5209SOL    HW116526   5.714   0.504   1.543
 5209SOL    HW216527   5.811   0.599   1.452
 5210SOL     OW16528   4.637   3.452   0.481
 5210SOL    HW116529   4.577   3.403   0.544
 5210SOL    HW216530   4.693   3.386   0.430
 5211SOL     OW16531   4.253   1.947   5.167
 5211SOL    HW116532   4.206   1.925   5.253
 5211SOL    HW216533   4.217   2.032   5.129
 5212SOL     OW16534   1.431   3.673   1.001
 5212SOL    HW116535   1.429   3.585   0.953
 5212SOL    HW216536   1.474   3.742   0.941
 5213SOL     OW16537   4.801   3.362   0.785
 5213SOL    HW116538   4.702   3.350   0.780
 5213SOL    HW216539   4.831   3.421   0.711
 5214SOL     OW16540   5.795   2.636   6.145
 5214SOL    HW116541   5.706   2.665   6.108
 5214SOL    HW216542   5.781   2.557   6.204
 5215SOL     OW16543   1.183   4.803   3.963
 5215SOL    HW116544   1.108   4.736   3.960
 5215SOL    HW216545   1.238   4.788   4.045
 5216SOL     OW16546   4.683   4.714   1.503
 5216SOL    HW116547   4.768   4.662   1.494
 5216SOL    HW216548   4.606   4.654   1.484
 5217SOL     OW16549   3.338   5.626   4.748
 5217SOL    HW116550   3.245   5.622   4.712
 5217SOL    HW216551   3.371   5.533   4.765
 5218SOL     OW16552   0.809   1.288   1.320
 5218SOL    HW116553   0.810   1.254   1.226
 5218SOL    HW216554   0.849   1.380   1.322
 5219SOL     OW16555   3.478   1.531   4.997
 5219SOL    HW116556   3.560   1.557   5.047
 5219SOL    HW216557   3.468   1.590   4.917
 5220SOL     OW16558   1.152   5.571   2.756
 5220SOL    HW116559   1.184   5.511   2.830
 5220SOL    HW216560   1.170   5.527   2.668
 5221SOL     OW16561   6.399   0.950   3.215
 5221SOL    HW116562   6.476   0.941   3.151
 5221SOL    HW216563   6.313   0.939   3.166
 5222SOL     OW16564   3.722   6.589   2.268
 5222SOL    HW116565   3.724   6.535   2.184
 5222SOL    HW216566   3.754   6.532   2.344
 5223SOL     OW16567   0.137   2.555   0.191
 5223SOL    HW116568   0.084   2.639   0.200
 5223SOL    HW216569   0.130   2.521   0.097
 5224SOL     OW16570   6.590   3.350   4.525
 5224SOL    HW116571   6.531   3.277   4.559
 5224SOL    HW216572   6.541   3.404   4.457
 5225SOL     OW16573   6.647   1.096   3.949
 5225SOL    HW116574   6.642   1.135   4.041
 5225SOL    HW216575   6.697   1.158   3.888
 5226SOL     OW16576   0.183   6.768   4.555
 5226SOL    HW116577   0.100   6.822   4.561
 5226SOL    HW216578   0.195   6.736   4.461
 5227SOL     OW16579   0.662   3.890   5.862
 5227SOL    HW116580   0.757   3.895   5.892
 5227SOL    HW216581   0.659   3.862   5.766
 5228SOL     OW16582   0.624   2.433   0.057
 5228SOL    HW116583   0.689   2.397   7.013
 5228SOL    HW216584   0.541   2.377   0.057
 5229SOL     OW16585   2.981   6.778   0.653
 5229SOL    HW116586   2.908   6.846   0.649
 5229SOL    HW216587   3.048   6.804   0.723
 5230SOL     OW16588   6.964   6.119   2.037
 5230SOL    HW116589   6.881   6.152   1.992
 5230SOL    HW216590   6.950   6.120   2.137
 5231SOL     OW16591   4.297   2.293   4.015
 5231SOL    HW116592   4.390   2.268   3.989
 5231SOL    HW216593   4.237   2.213   4.005
 5232SOL     OW16594   1.192   3.827   6.156
 5232SOL    HW116595   1.152   3.747   6.201
 5232SOL    HW216596   1.132   3.906   6.170
 5233SOL     OW16597   3.798   1.401   2.792
 5233SOL    HW116598   3.721   1.411   2.729
 5233SOL    HW216599   3.820   1.304   2.802
 5234SOL     OW16600   2.790   2.788   5.986
 5234SOL    HW116601   2.746   2.759   5.901
 5234SOL    HW216602   2.888   2.772   5.981
 5235SOL     OW16603   1.659   2.448   0.785
 5235SOL    HW116604   1.755   2.463   0.759
 5235SOL    HW216605   1.655   2.416   0.879
 5236SOL     OW16606   3.885   5.779   2.303
 5236SOL    HW116607   3.892   5.790   2.204
 5236SOL    HW216608   3.897   5.683   2.328
 5237SOL     OW16609   0.698   0.805   4.936
 5237SOL    HW116610   0.673   0.835   5.028
 5237SOL    HW216611   0.794   0.826   4.919
 5238SOL     OW16612   0.929   5.102   0.429
 5238SOL    HW116613   0.908   5.007   0.406
 5238SOL    HW216614   0.857   5.162   0.396
 5239SOL     OW16615   3.720   2.646   6.421
 5239SOL    HW116616   3.775   2.576   6.465
 5239SOL    HW216617   3.634   2.657   6.470
 5240SOL     OW16618   3.352   2.314   5.421
 5240SOL    HW116619   3.445   2.295   5.389
 5240SOL    HW216620   3.296   2.346   5.345
 5241SOL     OW16621   0.420   5.965   4.192
 5241SOL    HW116622   0.331   5.994   4.156
 5241SOL    HW216623   0.454   6.035   4.254
 5242SOL     OW16624   6.359   0.094   1.070
 5242SOL    HW116625   6.274   0.138   1.043
 5242SOL    HW216626   6.344   0.038   1.152
 5243SOL     OW16627   2.134   5.931   1.573
 5243SOL    HW116628   2.037   5.951   1.584
 5243SOL    HW216629   2.144   5.849   1.516
 5244SOL     OW16630   3.586   4.409   6.459
 5244SOL    HW116631   3.507   4.348   6.465
 5244SOL    HW216632   3.669   4.360   6.488
 5245SOL     OW16633   3.866   4.343   0.300
 5245SOL    HW116634   3.850   4.279   0.375
 5245SOL    HW216635   3.963   4.370   0.301
 5246SOL     OW16636   6.245   2.736   1.435
 5246SOL    HW116637   6.160   2.726   1.487
 5246SOL    HW216638   6.261   2.832   1.414
 5247SOL     OW16639   2.865   0.027   6.476
 5247SOL    HW116640   2.810   7.019   6.553
 5247SOL    HW216641   2.947   0.073   6.511
 5248SOL     OW16642   6.369   1.755   3.252
 5248SOL    HW116643   6.423   1.770   3.334
 5248SOL    HW216644   6.428   1.760   3.172
 5249SOL     OW16645   0.547   5.354   6.338
 5249SOL    HW116646   0.524   5.269   6.385
 5249SOL    HW216647   0.564   5.426   6.406
 5250SOL     OW16648   1.803   6.072   6.788
 5250SOL    HW116649   1.720   6.022   6.811
 5250SOL    HW216650   1.789   6.123   6.703
 5251SOL     OW16651   0.743   3.292   6.762
 5251SOL    HW116652   0.682   3.257   6.691
 5251SOL    HW216653   0.795   3.369   6.726
 5252SOL     OW16654   2.850   6.538   0.723
 5252SOL    HW116655   2.899   6.624   0.711
 5252SOL    HW216656   2.753   6.552   0.707
 5253SOL     OW16657   0.137   3.556   4.771
 5253SOL    HW116658   0.176   3.645   4.751
 5253SOL    HW216659   0.039   3.565   4.788
 5254SOL     OW16660   4.834   1.063   2.978
 5254SOL    HW116661   4.847   1.151   3.023
 5254SOL    HW216662   4.855   0.989   3.042
 5255SOL     OW16663   5.564   2.523   4.945
 5255SOL    HW116664   5.503   2.589   4.989
 5255SOL    HW216665   5.602   2.563   4.861
 5256SOL     OW16666   5.190   1.640   3.969
 5256SOL    HW116667   5.103   1.624   3.922
 5256SOL    HW216668   5.192   1.590   4.055
 5257SOL     OW16669   5.567   6.851   1.786
 5257SOL    HW116670   5.469   6.869   1.795
 5257SOL    HW216671   5.599   6.884   1.698
 5258SOL     OW16672   5.916   3.169   1.782
 5258SOL    HW116673   5.834   3.162   1.839
 5258SOL    HW216674   5.911   3.102   1.708
 5259SOL     OW16675   5.154   6.529   2.348
 5259SOL    HW116676   5.136   6.626   2.367
 5259SOL    HW216677   5.085   6.494   2.285
 5260SOL     OW16678   5.111   3.557   0.885
 5260SOL    HW116679   5.165   3.606   0.953
 5260SOL    HW216680   5.023   3.604   0.872
 5261SOL     OW16681   0.159   4.050   5.838
 5261SOL    HW116682   0.251   4.079   5.810
 5261SOL    HW216683   0.131   3.972   5.782
 5262SOL     OW16684   2.402   1.266   4.042
 5262SOL    HW116685   2.414   1.288   4.139
 5262SOL    HW216686   2.305   1.272   4.019
 5263SOL     OW16687   1.732   1.404   3.308
 5263SOL    HW116688   1.720   1.420   3.210
 5263SOL    HW216689   1.649   1.362   3.345
 5264SOL     OW16690   6.852   2.206   2.224
 5264SOL    HW116691   6.791   2.259   2.284
 5264SOL    HW216692   6.868   2.258   2.140
 5265SOL     OW16693   6.225   3.943   3.885
 5265SOL    HW116694   6.153   3.877   3.864
 5265SOL    HW216695   6.271   3.970   3.800
 5266SOL     OW16696   3.624   4.940   6.735
 5266SOL    HW116697   3.667   4.925   6.645
 5266SOL    HW216698   3.667   4.880   6.802
 5267SOL     OW16699   5.361   2.659   5.122
 5267SOL    HW116700   5.360   2.568   5.163
 5267SOL    HW216701   5.291   2.665   5.051
 5268SOL     OW16702   5.635   1.170   0.494
 5268SOL    HW116703   5.544   1.154   0.456
 5268SOL    HW216704   5.630   1.240   0.565
 5269SOL     OW16705   0.540   6.230   2.608
 5269SOL    HW116706   0.550   6.134   2.634
 5269SOL    HW216707   0.591   6.288   2.673
 5270SOL     OW16708   5.667   0.954   1.625
 5270SOL    HW116709   5.728   0.950   1.545
 5270SOL    HW216710   5.590   1.014   1.605
 5271SOL     OW16711   6.470   5.473   5.867
 5271SOL    HW116712   6.466   5.375   5.886
 5271SOL    HW216713   6.380   5.514   5.882
 5272SOL     OW16714   3.184   6.182   1.917
 5272SOL    HW116715   3.257   6.226   1.864
 5272SOL    HW216716   3.096   6.206   1.878
 5273SOL     OW16717   0.406   3.129   3.788
 5273SOL    HW116718   0.421   3.103   3.692
 5273SOL    HW216719   0.323   3.184   3.794
 5274SOL     OW16720   5.833   0.374   2.686
 5274SOL    HW116721   5.793   0.283   2.677
 5274SOL    HW216722   5.886   0.396   2.604
 5275SOL     OW16723   3.453   1.793   0.903
 5275SOL    HW116724   3.371   1.809   0.847
 5275SOL    HW216725   3.493   1.880   0.930
 5276SOL     OW16726   1.621   0.224   0.766
 5276SOL    HW116727   1.525   0.198   0.776
 5276SOL    HW216728   1.661   0.174   0.690
 5277SOL     OW16729   2.365   1.253   1.767
 5277SOL    HW116730   2.438   1.186   1.784
 5277SOL    HW216731   2.370   1.284   1.672
 5278SOL     OW16732   6.167   6.188   3.715
 5278SOL    HW116733   6.112   6.134   3.651
 5278SOL    HW216734   6.118   6.197   3.802
 5279SOL     OW16735   2.658   5.083   6.445
 5279SOL    HW116736   2.586   5.014   6.448
 5279SOL    HW216737   2.745   5.040   6.420
 5280SOL     OW16738   3.078   5.616   4.745
 5280SOL    HW116739   2.985   5.587   4.722
 5280SOL    HW216740   3.103   5.579   4.835
 5281SOL     OW16741   0.281   2.039   2.411
 5281SOL    HW116742   0.330   1.955   2.438
 5281SOL    HW216743   0.239   2.080   2.492
 5282SOL     OW16744   3.449   1.460   3.865
 5282SOL    HW116745   3.431   1.497   3.775
 5282SOL    HW216746   3.544   1.477   3.890
 5283SOL     OW16747   4.414   5.952   1.399
 5283SOL    HW116748   4.372   5.861   1.397
 5283SOL    HW216749   4.343   6.022   1.405
 5284SOL     OW16750   4.897   3.927   3.229
 5284SOL    HW116751   4.962   3.976   3.171
 5284SOL    HW216752   4.898   3.830   3.206
 5285SOL     OW16753   2.085   5.007   3.821
 5285SOL    HW116754   2.137   5.016   3.736
 5285SOL    HW216755   2.144   5.031   3.899
 5286SOL     OW16756   1.882   4.669   0.650
 5286SOL    HW116757   1.808   4.636   0.591
 5286SOL    HW216758   1.950   4.717   0.596
 5287SOL     OW16759   3.304   0.414   6.917
 5287SOL    HW116760   3.243   0.466   6.857
 5287SOL    HW216761   3.399   0.431   6.890
 5288SOL     OW16762   2.950   6.998   2.083
 5288SOL    HW116763   2.859   0.016   2.078
 5288SOL    HW216764   3.017   0.045   2.110
 5289SOL     OW16765   2.308   5.098   6.596
 5289SOL    HW116766   2.342   5.027   6.657
 5289SOL    HW216767   2.260   5.168   6.649
 5290SOL     OW16768   2.588   5.948   4.718
 5290SOL    HW116769   2.537   5.952   4.804
 5290SOL    HW216770   2.551   5.876   4.660
 5291SOL     OW16771   2.482   5.897   5.782
 5291SOL    HW116772   2.413   5.898   5.854
 5291SOL    HW216773   2.570   5.871   5.821
 5292SOL     OW16774   6.313   2.953   6.813
 5292SOL    HW116775   6.364   2.872   6.784
 5292SOL    HW216776   6.263   2.990   6.734
 5293SOL     OW16777   0.399   0.858   5.060
 5293SOL    HW116778   0.473   0.907   5.106
 5293SOL    HW216779   0.338   0.923   5.015
 5294SOL     OW16780   4.658   3.439   5.942
 5294SOL    HW116781   4.650   3.474   5.849
 5294SOL    HW216782   4.745   3.467   5.981
 5295SOL     OW16783   6.464   1.067   2.617
 5295SOL    HW116784   6.562   1.086   2.618
 5295SOL    HW216785   6.414   1.148   2.588
 5296SOL     OW16786   2.075   5.656   6.687
 5296SOL    HW116787   1.990   5.639   6.636
 5296SOL    HW216788   2.071   5.610   6.775
 5297SOL     OW16789   1.788   2.168   1.221
 5297SOL    HW116790   1.772   2.071   1.242
 5297SOL    HW216791   1.713   2.222   1.258
 5298SOL     OW16792   6.989   6.029   1.672
 5298SOL    HW116793   7.014   6.114   1.720
 5298SOL    HW216794   0.049   5.981   1.644
 5299SOL     OW16795   2.948   1.818   0.328
 5299SOL    HW116796   2.926   1.874   0.407
 5299SOL    HW216797   2.994   1.874   0.259
 5300SOL     OW16798   0.018   5.481   2.652
 5300SOL    HW116799   0.009   5.390   2.611
 5300SOL    HW216800   0.098   5.527   2.613
 5301SOL     OW16801   4.619   1.406   0.387
 5301SOL    HW116802   4.679   1.353   0.446
 5301SOL    HW216803   4.535   1.430   0.436
 5302SOL     OW16804   5.705   4.860   3.455
 5302SOL    HW116805   5.622   4.913   3.474
 5302SOL    HW216806   5.736   4.878   3.362
 5303SOL     OW16807   0.122   6.732   3.763
 5303SOL    HW116808   0.095   6.820   3.725
 5303SOL    HW216809   0.140   6.741   3.861
 5304SOL     OW16810   6.515   2.703   6.391
 5304SOL    HW116811   6.435   2.652   6.360
 5304SOL    HW216812   6.534   2.777   6.326
 5305SOL     OW16813   1.359   6.791   4.181
 5305SOL    HW116814   1.369   6.891   4.176
 5305SOL    HW216815   1.447   6.748   4.159
 5306SOL     OW16816   1.805   6.395   4.828
 5306SOL    HW116817   1.836   6.330   4.759
 5306SOL    HW216818   1.728   6.355   4.879
 5307SOL     OW16819   4.147   6.488   6.772
 5307SOL    HW116820   4.162   6.488   6.871
 5307SOL    HW216821   4.060   6.442   6.752
 5308SOL     OW16822   0.385   0.176   4.825
 5308SOL    HW116823   0.394   0.090   4.776
 5308SOL    HW216824   0.476   0.217   4.835
 5309SOL     OW16825   4.034   3.838   3.483
 5309SOL    HW116826   4.083   3.910   3.532
 5309SOL    HW216827   3.940   3.868   3.464
 5310SOL     OW16828   5.055   2.524   2.183
 5310SOL    HW116829   4.975   2.464   2.175
 5310SOL    HW216830   5.026   2.619   2.190
 5311SOL     OW16831   0.220   5.853   0.337
 5311SOL    HW116832   0.200   5.869   0.241
 5311SOL    HW216833   0.313   5.883   0.358
 5312SOL     OW16834   6.932   4.485   2.287
 5312SOL    HW116835   6.954   4.391   2.262
 5312SOL    HW216836   6.943   4.497   2.385
 5313SOL     OW16837   1.041   5.441   6.961
 5313SOL    HW116838   1.006   5.523   6.916
 5313SOL    HW216839   0.990   5.426   0.022
 5314SOL     OW16840   4.660   5.036   0.873
 5314SOL    HW116841   4.596   4.977   0.824
 5314SOL    HW216842   4.735   4.980   0.909
 5315SOL     OW16843   4.558   4.571   1.841
 5315SOL    HW116844   4.517   4.580   1.932
 5315SOL    HW216845   4.492   4.530   1.778
 5316SOL     OW16846   6.558   5.339   4.473
 5316SOL    HW116847   6.498   5.418   4.480
 5316SOL    HW216848   6.647   5.367   4.439
 5317SOL     OW16849   6.035   1.461   4.452
 5317SOL    HW116850   6.122   1.509   4.445
 5317SOL    HW216851   5.976   1.508   4.518
 5318SOL     OW16852   6.946   1.745   5.132
 5318SOL    HW116853   6.969   1.701   5.045
 5318SOL    HW216854   7.023   1.736   5.195
 5319SOL     OW16855   4.608   6.732   6.901
 5319SOL    HW116856   4.686   6.793   6.890
 5319SOL    HW216857   4.582   6.728   6.998
 5320SOL     OW16858   5.852   5.243   6.517
 5320SOL    HW116859   5.949   5.264   6.503
 5320SOL    HW216860   5.835   5.225   6.614
 5321SOL     OW16861   0.828   4.915   2.702
 5321SOL    HW116862   0.922   4.880   2.702
 5321SOL    HW216863   0.795   4.922   2.608
 5322SOL     OW16864   3.700   6.919   6.278
 5322SOL    HW116865   3.761   6.911   6.199
 5322SOL    HW216866   3.605   6.921   6.246
 5323SOL     OW16867   4.158   3.026   0.968
 5323SOL    HW116868   4.082   3.049   0.907
 5323SOL    HW216869   4.215   2.956   0.926
 5324SOL     OW16870   3.538   2.385   1.418
 5324SOL    HW116871   3.595   2.303   1.430
 5324SOL    HW216872   3.477   2.395   1.496
 5325SOL     OW16873   5.549   0.071   3.620
 5325SOL    HW116874   5.624   0.026   3.670
 5325SOL    HW216875   5.481   0.103   3.685
 5326SOL     OW16876   5.947   5.177   2.701
 5326SOL    HW116877   5.907   5.140   2.617
 5326SOL    HW216878   6.046   5.162   2.700
 5327SOL     OW16879   0.568   5.983   5.726
 5327SOL    HW116880   0.581   6.040   5.808
 5327SOL    HW216881   0.471   5.961   5.716
 5328SOL     OW16882   3.618   2.384   5.570
 5328SOL    HW116883   3.592   2.453   5.637
 5328SOL    HW216884   3.617   2.293   5.613
 5329SOL     OW16885   0.335   3.622   0.513
 5329SOL    HW116886   0.259   3.566   0.547
 5329SOL    HW216887   0.363   3.688   0.583
 5330SOL     OW16888   3.424   3.951   6.782
 5330SOL    HW116889   3.492   4.001   6.836
 5330SOL    HW216890   3.370   4.015   6.728
 5331SOL     OW16891   5.301   1.533   1.104
 5331SOL    HW116892   5.351   1.558   1.187
 5331SOL    HW216893   5.342   1.451   1.065
 5332SOL     OW16894   6.096   4.325   0.071
 5332SOL    HW116895   6.057   4.324   0.163
 5332SOL    HW216896   6.121   4.232   0.044
 5333SOL     OW16897   1.324   1.017   3.992
 5333SOL    HW116898   1.242   0.988   3.943
 5333SOL    HW216899   1.303   1.098   4.048
 5334SOL     OW16900   4.279   5.297   4.857
 5334SOL    HW116901   4.305   5.271   4.764
 5334SOL    HW216902   4.250   5.393   4.859
 5335SOL     OW16903   0.128   4.319   1.937
 5335SOL    HW116904   0.047   4.357   1.983
 5335SOL    HW216905   0.203   4.385   1.940
 5336SOL     OW16906   2.482   1.804   3.447
 5336SOL    HW116907   2.456   1.901   3.453
 5336SOL    HW216908   2.488   1.778   3.351
 5337SOL     OW16909   5.622   4.978   2.178
 5337SOL    HW116910   5.707   5.015   2.140
 5337SOL    HW216911   5.643   4.920   2.256
 5338SOL     OW16912   5.779   2.391   6.767
 5338SOL    HW116913   5.701   2.397   6.706
 5338SOL    HW216914   5.864   2.384   6.714
 5339SOL     OW16915   5.582   1.956   1.766
 5339SOL    HW116916   5.482   1.958   1.757
 5339SOL    HW216917   5.612   1.862   1.779
 5340SOL     OW16918   5.646   3.399   1.315
 5340SOL    HW116919   5.643   3.492   1.277
 5340SOL    HW216920   5.555   3.359   1.312
 5341SOL     OW16921   3.844   4.887   4.470
 5341SOL    HW116922   3.834   4.831   4.552
 5341SOL    HW216923   3.818   4.981   4.490
 5342SOL     OW16924   4.891   6.534   4.811
 5342SOL    HW116925   4.861   6.439   4.806
 5342SOL    HW216926   4.943   6.549   4.895
 5343SOL     OW16927   3.811   3.476   4.839
 5343SOL    HW116928   3.769   3.407   4.898
 5343SOL    HW216929   3.863   3.432   4.767
 5344SOL     OW16930   0.832   1.433   6.849
 5344SOL    HW116931   0.755   1.495   6.865
 5344SOL    HW216932   0.798   1.348   6.809
 5345SOL     OW16933   4.688   1.057   0.256
 5345SOL    HW116934   4.620   1.130   0.255
 5345SOL    HW216935   4.652   0.978   0.206
 5346SOL     OW16936   2.948   4.968   4.058
 5346SOL    HW116937   2.910   4.901   3.994
 5346SOL    HW216938   2.965   4.923   4.146
 5347SOL     OW16939   0.169   3.265   3.777
 5347SOL    HW116940   0.129   3.256   3.686
 5347SOL    HW216941   0.167   3.361   3.804
 5348SOL     OW16942   0.147   1.142   5.759
 5348SOL    HW116943   0.196   1.220   5.798
 5348SOL    HW216944   0.082   1.174   5.690
 5349SOL     OW16945   2.533   2.999   1.683
 5349SOL    HW116946   2.629   3.017   1.708
 5349SOL    HW216947   2.500   3.073   1.625
 5350SOL     OW16948   2.322   6.333   5.665
 5350SOL    HW116949   2.396   6.338   5.733
 5350SOL    HW216950   2.339   6.256   5.604
 5351SOL     OW16951   0.139   4.564   1.479
 5351SOL    HW116952   0.212   4.513   1.524
 5351SOL    HW216953   0.175   4.649   1.441
 5352SOL     OW16954   2.207   4.135   3.292
 5352SOL    HW116955   2.201   4.061   3.225
 5352SOL    HW216956   2.133   4.126   3.358
 5353SOL     OW16957   3.622   5.112   3.111
 5353SOL    HW116958   3.715   5.116   3.075
 5353SOL    HW216959   3.604   5.193   3.167
 5354SOL     OW16960   2.985   4.114   6.532
 5354SOL    HW116961   2.916   4.043   6.521
 5354SOL    HW216962   2.942   4.204   6.530
 5355SOL     OW16963   5.136   4.857   5.158
 5355SOL    HW116964   5.222   4.811   5.134
 5355SOL    HW216965   5.088   4.885   5.075
 5356SOL     OW16966   6.737   3.472   1.716
 5356SOL    HW116967   6.770   3.378   1.730
 5356SOL    HW216968   6.793   3.535   1.769
 5357SOL     OW16969   4.224   4.500   1.700
 5357SOL    HW116970   4.300   4.489   1.635
 5357SOL    HW216971   4.245   4.574   1.764
 5358SOL     OW16972   4.556   1.941   0.951
 5358SOL    HW116973   4.648   1.980   0.953
 5358SOL    HW216974   4.543   1.891   0.864
 5359SOL     OW16975   2.204   2.043   6.814
 5359SOL    HW116976   2.218   2.048   6.715
 5359SOL    HW216977   2.121   1.991   6.833
 5360SOL     OW16978   5.548   5.398   3.204
 5360SOL    HW116979   5.528   5.485   3.159
 5360SOL    HW216980   5.640   5.402   3.244
 5361SOL     OW16981   2.703   6.518   3.494
 5361SOL    HW116982   2.641   6.586   3.456
 5361SOL    HW216983   2.729   6.452   3.423
 5362SOL     OW16984   6.032   6.992   2.868
 5362SOL    HW116985   6.003   6.957   2.957
 5362SOL    HW216986   6.077   6.920   2.816
 5363SOL     OW16987   5.159   6.207   5.010
 5363SOL    HW116988   5.191   6.245   5.096
 5363SOL    HW216989   5.202   6.118   4.994
 5364SOL     OW16990   5.645   0.572   2.782
 5364SOL    HW116991   5.692   0.505   2.724
 5364SOL    HW216992   5.675   0.664   2.758
 5365SOL     OW16993   3.060   3.441   2.300
 5365SOL    HW116994   3.022   3.455   2.208
 5365SOL    HW216995   2.988   3.453   2.368
 5366SOL     OW16996   6.958   0.471   2.255
 5366SOL    HW116997   0.022   0.436   2.289
 5366SOL    HW216998   6.934   0.554   2.305
 5367SOL     OW16999   6.146   0.434   0.973
 5367SOL    HW117000   6.131   0.336   0.987
 5367SOL    HW217001   6.065   0.474   0.928
 5368SOL     OW17002   0.036   5.844   2.031
 5368SOL    HW117003   7.010   5.932   2.034
 5368SOL    HW217004   0.132   5.859   2.052
 5369SOL     OW17005   2.664   6.068   1.496
 5369SOL    HW117006   2.586   6.040   1.441
 5369SOL    HW217007   2.731   5.994   1.498
 5370SOL     OW17008   4.305   3.485   1.775
 5370SOL    HW117009   4.313   3.579   1.743
 5370SOL    HW217010   4.260   3.485   1.865
 5371SOL     OW17011   0.106   5.230   5.198
 5371SOL    HW117012   0.185   5.270   5.244
 5371SOL    HW217013   0.072   5.293   5.129
 5372SOL     OW17014   0.911   6.774   2.817
 5372SOL    HW117015   0.973   6.852   2.825
 5372SOL    HW217016   0.849   6.788   2.740
 5373SOL     OW17017   3.800   0.218   6.074
 5373SOL    HW117018   3.844   0.305   6.052
 5373SOL    HW217019   3.761   0.223   6.167
 5374SOL     OW17020   2.085   4.122   1.056
 5374SOL    HW117021   2.073   4.113   1.155
 5374SOL    HW217022   2.142   4.047   1.023
 5375SOL     OW17023   0.631   5.915   5.462
 5375SOL    HW117024   0.731   5.908   5.462
 5375SOL    HW217025   0.600   5.943   5.553
 5376SOL     OW17026   1.444   2.680   1.684
 5376SOL    HW117027   1.387   2.619   1.739
 5376SOL    HW217028   1.472   2.758   1.739
 5377SOL     OW17029   1.630   1.240   2.873
 5377SOL    HW117030   1.645   1.161   2.933
 5377SOL    HW217031   1.619   1.322   2.928
 5378SOL     OW17032   6.553   0.628   1.526
 5378SOL    HW117033   6.617   0.662   1.595
 5378SOL    HW217034   6.596   0.632   1.436
 5379SOL     OW17035   1.324   3.293   5.102
 5379SOL    HW117036   1.241   3.305   5.157
 5379SOL    HW217037   1.349   3.381   5.061
 5380SOL     OW17038   3.392   6.972   1.172
 5380SOL    HW117039   3.355   0.008   1.101
 5380SOL    HW217040   3.360   7.002   1.261
 5381SOL     OW17041   5.773   5.778   2.647
 5381SOL    HW117042   5.856   5.797   2.594
 5381SOL    HW217043   5.694   5.815   2.598
 5382SOL     OW17044   3.217   2.077   2.429
 5382SOL    HW117045   3.200   2.176   2.428
 5382SOL    HW217046   3.209   2.042   2.336
 5383SOL     OW17047   1.382   3.236   4.454
 5383SOL    HW117048   1.322   3.304   4.497
 5383SOL    HW217049   1.475   3.273   4.449
 5384SOL     OW17050   4.341   5.675   5.023
 5384SOL    HW117051   4.409   5.626   5.077
 5384SOL    HW217052   4.253   5.627   5.029
 5385SOL     OW17053   6.449   2.747   5.288
 5385SOL    HW117054   6.471   2.655   5.254
 5385SOL    HW217055   6.427   2.806   5.210
 5386SOL     OW17056   6.192   1.601   3.917
 5386SOL    HW117057   6.178   1.531   3.986
 5386SOL    HW217058   6.118   1.668   3.921
 5387SOL     OW17059   3.010   6.318   3.650
 5387SOL    HW117060   3.010   6.241   3.585
 5387SOL    HW217061   3.013   6.283   3.743
 5388SOL     OW17062   1.655   6.369   3.028
 5388SOL    HW117063   1.720   6.366   3.104
 5388SOL    HW217064   1.704   6.378   2.942
 5389SOL     OW17065   4.188   2.316   4.560
 5389SOL    HW117066   4.214   2.220   4.560
 5389SOL    HW217067   4.216   2.358   4.473
 5390SOL     OW17068   5.078   3.998   4.214
 5390SOL    HW117069   5.154   3.936   4.193
 5390SOL    HW217070   5.103   4.057   4.290
 5391SOL     OW17071   3.071   2.037   0.178
 5391SOL    HW117072   3.057   2.122   0.128
 5391SOL    HW217073   3.147   2.047   0.241
 5392SOL     OW17074   4.865   3.058   2.558
 5392SOL    HW117075   4.961   3.068   2.581
 5392SOL    HW217076   4.852   3.075   2.460
 5393SOL     OW17077   4.695   1.024   5.293
 5393SOL    HW117078   4.635   0.990   5.221
 5393SOL    HW217079   4.651   1.011   5.382
 5394SOL     OW17080   0.586   6.191   0.905
 5394SOL    HW117081   0.531   6.131   0.964
 5394SOL    HW217082   0.580   6.285   0.939
 5395SOL     OW17083   5.002   1.131   1.069
 5395SOL    HW117084   5.054   1.046   1.064
 5395SOL    HW217085   5.030   1.184   1.149
 5396SOL     OW17086   5.263   5.890   2.021
 5396SOL    HW117087   5.358   5.914   2.044
 5396SOL    HW217088   5.263   5.818   1.951
 5397SOL     OW17089   7.022   2.132   1.882
 5397SOL    HW117090   7.022   2.190   1.801
 5397SOL    HW217091   0.071   2.162   1.945
 5398SOL     OW17092   3.456   2.121   3.833
 5398SOL    HW117093   3.392   2.136   3.909
 5398SOL    HW217094   3.473   2.023   3.824
 5399SOL     OW17095   2.590   6.597   5.742
 5399SOL    HW117096   2.633   6.636   5.660
 5399SOL    HW217097   2.504   6.645   5.760
 5400SOL     OW17098   3.761   3.225   0.963
 5400SOL    HW117099   3.840   3.200   0.907
 5400SOL    HW217100   3.789   3.292   1.032
 5401SOL     OW17101   5.315   4.094   2.945
 5401SOL    HW117102   5.349   4.178   2.901
 5401SOL    HW217103   5.333   4.017   2.885
 5402SOL     OW17104   3.525   6.107   0.724
 5402SOL    HW117105   3.574   6.122   0.810
 5402SOL    HW217106   3.590   6.085   0.652
 5403SOL     OW17107   5.347   2.726   6.587
 5403SOL    HW117108   5.303   2.816   6.589
 5403SOL    HW217109   5.430   2.728   6.642
 5404SOL     OW17110   0.425   0.295   0.732
 5404SOL    HW117111   0.422   0.382   0.682
 5404SOL    HW217112   0.514   0.252   0.720
 5405SOL     OW17113   5.880   4.891   0.039
 5405SOL    HW117114   5.916   4.818   7.004
 5405SOL    HW217115   5.952   4.922   0.101
 5406SOL     OW17116   1.961   1.019   5.157
 5406SOL    HW117117   1.992   1.047   5.248
 5406SOL    HW217118   1.867   0.985   5.162
 5407SOL     OW17119   2.821   1.436   1.149
 5407SOL    HW117120   2.817   1.471   1.056
 5407SOL    HW217121   2.768   1.496   1.209
 5408SOL     OW17122   3.482   1.958   4.821
 5408SOL    HW117123   3.535   2.018   4.762
 5408SOL    HW217124   3.385   1.977   4.809
 5409SOL     OW17125   6.515   1.811   2.500
 5409SOL    HW117126   6.595   1.761   2.533
 5409SOL    HW217127   6.470   1.855   2.577
 5410SOL     OW17128   0.472   2.968   0.073
 5410SOL    HW117129   0.557   2.999   0.115
 5410SOL    HW217130   0.480   2.870   0.051
 5411SOL     OW17131   5.140   4.408   0.022
 5411SOL    HW117132   5.134   4.508   0.023
 5411SOL    HW217133   5.067   4.370   0.079
 5412SOL     OW17134   2.006   1.352   6.461
 5412SOL    HW117135   2.030   1.257   6.442
 5412SOL    HW217136   1.975   1.396   6.377
 5413SOL     OW17137   0.186   6.909   5.752
 5413SOL    HW117138   0.188   6.974   5.676
 5413SOL    HW217139   0.184   6.958   5.838
 5414SOL     OW17140   6.628   4.667   5.423
 5414SOL    HW117141   6.561   4.609   5.470
 5414SOL    HW217142   6.600   4.679   5.328
 5415SOL     OW17143   2.840   5.736   0.666
 5415SOL    HW117144   2.866   5.700   0.576
 5415SOL    HW217145   2.768   5.678   0.705
 5416SOL     OW17146   3.007   5.423   4.952
 5416SOL    HW117147   3.078   5.362   4.986
 5416SOL    HW217148   2.945   5.373   4.892
 5417SOL     OW17149   3.946   6.667   4.240
 5417SOL    HW117150   4.032   6.715   4.254
 5417SOL    HW217151   3.870   6.726   4.266
 5418SOL     OW17152   5.591   5.329   4.852
 5418SOL    HW117153   5.679   5.298   4.889
 5418SOL    HW217154   5.570   5.278   4.769
 5419SOL     OW17155   3.957   6.465   0.375
 5419SOL    HW117156   4.012   6.486   0.456
 5419SOL    HW217157   3.944   6.366   0.368
 5420SOL     OW17158   1.723   1.920   1.363
 5420SOL    HW117159   1.634   1.943   1.404
 5420SOL    HW217160   1.713   1.839   1.306
 5421SOL     OW17161   3.059   5.513   2.065
 5421SOL    HW117162   3.086   5.426   2.024
 5421SOL    HW217163   3.016   5.571   1.996
 5422SOL     OW17164   1.956   5.788   4.114
 5422SOL    HW117165   1.889   5.857   4.141
 5422SOL    HW217166   2.044   5.808   4.157
 5423SOL     OW17167   6.416   5.174   1.662
 5423SOL    HW117168   6.451   5.137   1.576
 5423SOL    HW217169   6.421   5.103   1.733
 5424SOL     OW17170   4.851   3.828   4.307
 5424SOL    HW117171   4.774   3.765   4.301
 5424SOL    HW217172   4.896   3.817   4.396
 5425SOL     OW17173   6.674   2.988   4.706
 5425SOL    HW117174   6.616   3.011   4.784
 5425SOL    HW217175   6.726   3.069   4.678
 5426SOL     OW17176   4.681   5.752   2.294
 5426SOL    HW117177   4.594   5.738   2.246
 5426SOL    HW217178   4.665   5.749   2.392
 5427SOL     OW17179   4.566   2.778   0.168
 5427SOL    HW117180   4.647   2.827   0.199
 5427SOL    HW217181   4.594   2.692   0.126
 5428SOL     OW17182   5.041   6.342   2.746
 5428SOL    HW117183   4.993   6.256   2.734
 5428SOL    HW217184   5.102   6.357   2.668
 5429SOL     OW17185   2.497   6.754   5.175
 5429SOL    HW117186   2.494   6.779   5.078
 5429SOL    HW217187   2.501   6.837   5.231
 5430SOL     OW17188   1.603   2.922   5.763
 5430SOL    HW117189   1.518   2.882   5.728
 5430SOL    HW217190   1.619   3.010   5.719
 5431SOL     OW17191   3.561   4.700   6.488
 5431SOL    HW117192   3.505   4.728   6.410
 5431SOL    HW217193   3.567   4.600   6.489
 5432SOL     OW17194   5.578   5.598   0.323
 5432SOL    HW117195   5.601   5.695   0.318
 5432SOL    HW217196   5.638   5.553   0.389
 5433SOL     OW17197   0.919   6.895   0.798
 5433SOL    HW117198   0.991   6.947   0.753
 5433SOL    HW217199   0.959   6.821   0.852
 5434SOL     OW17200   5.101   1.539   4.950
 5434SOL    HW117201   5.189   1.534   4.902
 5434SOL    HW217202   5.119   1.547   5.049
 5435SOL     OW17203   6.324   3.546   0.879
 5435SOL    HW117204   6.394   3.531   0.948
 5435SOL    HW217205   6.233   3.533   0.919
 5436SOL     OW17206   0.140   5.594   4.099
 5436SOL    HW117207   0.046   5.593   4.134
 5436SOL    HW217208   0.171   5.689   4.093
 5437SOL     OW17209   3.058   4.431   5.952
 5437SOL    HW117210   3.009   4.484   6.021
 5437SOL    HW217211   3.015   4.444   5.862
 5438SOL     OW17212   5.265   5.196   1.858
 5438SOL    HW117213   5.198   5.122   1.852
 5438SOL    HW217214   5.237   5.261   1.929
 5439SOL     OW17215   1.312   4.039   0.439
 5439SOL    HW117216   1.346   3.960   0.390
 5439SOL    HW217217   1.264   4.100   0.376
 5440SOL     OW17218   5.667   6.952   3.260
 5440SOL    HW117219   5.720   0.010   3.237
 5440SOL    HW217220   5.574   6.961   3.224
 5441SOL     OW17221   5.541   3.289   3.520
 5441SOL    HW117222   5.507   3.343   3.596
 5441SOL    HW217223   5.491   3.313   3.437
 5442SOL     OW17224   3.722   0.284   3.358
 5442SOL    HW117225   3.797   0.253   3.300
 5442SOL    HW217226   3.695   0.376   3.330
 5443SOL     OW17227   4.274   6.571   4.037
 5443SOL    HW117228   4.277   6.524   4.125
 5443SOL    HW217229   4.308   6.510   3.966
 5444SOL     OW17230   6.925   2.269   3.969
 5444SOL    HW117231   6.905   2.175   3.942
 5444SOL    HW217232   6.970   2.317   3.894
 5445SOL     OW17233   5.229   4.417   4.439
 5445SOL    HW117234   5.137   4.414   4.477
 5445SOL    HW217235   5.252   4.327   4.401
 5446SOL     OW17236   6.652   4.604   4.494
 5446SOL    HW117237   6.605   4.516   4.503
 5446SOL    HW217238   6.676   4.619   4.398
 5447SOL     OW17239   2.408   1.331   1.015
 5447SOL    HW117240   2.374   1.392   0.943
 5447SOL    HW217241   2.409   1.381   1.102
 5448SOL     OW17242   4.662   5.443   4.152
 5448SOL    HW117243   4.637   5.524   4.099
 5448SOL    HW217244   4.713   5.380   4.093
 5449SOL     OW17245   2.642   1.717   1.811
 5449SOL    HW117246   2.702   1.693   1.734
 5449SOL    HW217247   2.587   1.797   1.786
 5450SOL     OW17248   3.963   6.066   1.216
 5450SOL    HW117249   3.916   6.011   1.147
 5450SOL    HW217250   3.904   6.142   1.243
 5451SOL     OW17251   1.721   6.632   3.247
 5451SOL    HW117252   1.669   6.599   3.327
 5451SOL    HW217253   1.657   6.660   3.176
 5452SOL     OW17254   2.259   4.573   0.882
 5452SOL    HW117255   2.251   4.485   0.929
 5452SOL    HW217256   2.210   4.643   0.935
 5453SOL     OW17257   5.061   4.255   1.749
 5453SOL    HW117258   5.034   4.233   1.656
 5453SOL    HW217259   4.980   4.267   1.806
 5454SOL     OW17260   5.574   6.235   1.946
 5454SOL    HW117261   5.626   6.304   1.997
 5454SOL    HW217262   5.595   6.243   1.849
 5455SOL     OW17263   0.692   1.455   3.107
 5455SOL    HW117264   0.692   1.499   3.018
 5455SOL    HW217265   0.684   1.356   3.096
 5456SOL     OW17266   4.494   0.883   6.864
 5456SOL    HW117267   4.521   0.893   6.768
 5456SOL    HW217268   4.462   0.971   6.899
 5457SOL     OW17269   6.441   1.749   0.297
 5457SOL    HW117270   6.440   1.650   0.315
 5457SOL    HW217271   6.528   1.775   0.256
 5458SOL     OW17272   6.726   4.996   1.232
 5458SOL    HW117273   6.809   4.971   1.281
 5458SOL    HW217274   6.749   5.052   1.153
 5459SOL     OW17275   1.969   4.359   5.181
 5459SOL    HW117276   1.912   4.299   5.125
 5459SOL    HW217277   1.973   4.449   5.139
 5460SOL     OW17278   2.414   0.774   1.731
 5460SOL    HW117279   2.441   0.862   1.769
 5460SOL    HW217280   2.316   0.762   1.741
 5461SOL     OW17281   1.159   1.599   5.791
 5461SOL    HW117282   1.118   1.683   5.757
 5461SOL    HW217283   1.259   1.610   5.797
 5462SOL     OW17284   5.121   6.299   6.798
 5462SOL    HW117285   5.211   6.328   6.766
 5462SOL    HW217286   5.103   6.338   6.888
 5463SOL     OW17287   6.344   2.187   6.917
 5463SOL    HW117288   6.293   2.115   6.870
 5463SOL    HW217289   6.338   2.173   7.016
 5464SOL     OW17290   6.814   5.470   5.528
 5464SOL    HW117291   6.844   5.491   5.621
 5464SOL    HW217292   6.890   5.432   5.476
 5465SOL     OW17293   0.003   6.978   2.943
 5465SOL    HW117294   0.100   7.000   2.938
 5465SOL    HW217295   6.972   0.030   2.905
 5466SOL     OW17296   5.847   2.610   5.509
 5466SOL    HW117297   5.837   2.671   5.588
 5466SOL    HW217298   5.928   2.553   5.520
 5467SOL     OW17299   5.640   3.897   3.721
 5467SOL    HW117300   5.699   3.923   3.797
 5467SOL    HW217301   5.693   3.894   3.636
 5468SOL     OW17302   6.741   2.709   3.694
 5468SOL    HW117303   6.793   2.634   3.651
 5468SOL    HW217304   6.775   2.797   3.660
 5469SOL     OW17305   2.769   6.483   6.410
 5469SOL    HW117306   2.685   6.535   6.394
 5469SOL    HW217307   2.783   6.418   6.336
 5470SOL     OW17308   4.045   5.524   3.682
 5470SOL    HW117309   3.964   5.566   3.722
 5470SOL    HW217310   4.058   5.433   3.722
 5471SOL     OW17311   5.576   0.275   2.460
 5471SOL    HW117312   5.631   0.283   2.377
 5471SOL    HW217313   5.479   0.266   2.436
 5472SOL     OW17314   3.734   2.929   6.612
 5472SOL    HW117315   3.764   2.939   6.517
 5472SOL    HW217316   3.742   2.833   6.639
 5473SOL     OW17317   2.322   4.759   0.146
 5473SOL    HW117318   2.253   4.739   0.216
 5473SOL    HW217319   2.404   4.706   0.165
 5474SOL     OW17320   0.539   5.828   3.798
 5474SOL    HW117321   0.552   5.897   3.869
 5474SOL    HW217322   0.462   5.768   3.825
 5475SOL     OW17323   1.975   1.754   1.011
 5475SOL    HW117324   1.944   1.801   0.929
 5475SOL    HW217325   1.902   1.755   1.080
 5476SOL     OW17326   2.588   4.974   5.554
 5476SOL    HW117327   2.578   5.036   5.632
 5476SOL    HW217328   2.685   4.953   5.541
 5477SOL     OW17329   1.795   3.635   3.142
 5477SOL    HW117330   1.757   3.726   3.158
 5477SOL    HW217331   1.736   3.584   3.079
 5478SOL     OW17332   5.192   5.860   5.727
 5478SOL    HW117333   5.122   5.830   5.662
 5478SOL    HW217334   5.173   5.953   5.757
 5479SOL     OW17335   4.866   1.574   4.820
 5479SOL    HW117336   4.896   1.586   4.726
 5479SOL    HW217337   4.945   1.565   4.880
 5480SOL     OW17338   5.846   5.132   4.698
 5480SOL    HW117339   5.934   5.086   4.706
 5480SOL    HW217340   5.845   5.212   4.758
 5481SOL     OW17341   4.818   1.120   4.659
 5481SOL    HW117342   4.822   1.022   4.638
 5481SOL    HW217343   4.803   1.133   4.757
 5482SOL     OW17344   3.087   3.994   2.888
 5482SOL    HW117345   3.137   4.074   2.922
 5482SOL    HW217346   3.149   3.935   2.836
 5483SOL     OW17347   6.189   2.438   5.300
 5483SOL    HW117348   6.249   2.458   5.378
 5483SOL    HW217349   6.144   2.523   5.270
 5484SOL     OW17350   6.242   0.509   3.596
 5484SOL    HW117351   6.159   0.525   3.650
 5484SOL    HW217352   6.323   0.525   3.653
 5485SOL     OW17353   3.190   6.638   4.729
 5485SOL    HW117354   3.195   6.546   4.691
 5485SOL    HW217355   3.094   6.661   4.749
 5486SOL     OW17356   2.189   6.506   3.671
 5486SOL    HW117357   2.103   6.461   3.696
 5486SOL    HW217358   2.190   6.522   3.573
 5487SOL     OW17359   5.472   3.769   6.327
 5487SOL    HW117360   5.476   3.854   6.275
 5487SOL    HW217361   5.512   3.783   6.418
 5488SOL     OW17362   5.547   1.389   1.175
 5488SOL    HW117363   5.617   1.452   1.142
 5488SOL    HW217364   5.576   1.349   1.262
 5489SOL     OW17365   0.760   4.156   1.712
 5489SOL    HW117366   0.703   4.232   1.681
 5489SOL    HW217367   0.757   4.082   1.644
 5490SOL     OW17368   3.491   6.973   0.843
 5490SOL    HW117369   3.478   6.927   0.755
 5490SOL    HW217370   3.468   6.909   0.917
 5491SOL     OW17371   1.251   3.921   5.832
 5491SOL    HW117372   1.164   3.964   5.805
 5491SOL    HW217373   1.284   3.964   5.916
 5492SOL     OW17374   1.163   1.644   6.296
 5492SOL    HW117375   1.196   1.738   6.310
 5492SOL    HW217376   1.240   1.581   6.294
 5493SOL     OW17377   3.979   3.704   4.478
 5493SOL    HW117378   4.009   3.695   4.383
 5493SOL    HW217379   4.012   3.625   4.530
 5494SOL     OW17380   6.065   2.880   0.081
 5494SOL    HW117381   6.109   2.793   0.059
 5494SOL    HW217382   6.075   2.898   0.179
 5495SOL     OW17383   2.998   2.681   1.711
 5495SOL    HW117384   2.928   2.675   1.640
 5495SOL    HW217385   2.973   2.620   1.787
 5496SOL     OW17386   2.850   6.797   3.278
 5496SOL    HW117387   2.915   6.739   3.229
 5496SOL    HW217388   2.860   6.781   3.377
 5497SOL     OW17389   0.155   1.864   3.308
 5497SOL    HW117390   0.203   1.780   3.283
 5497SOL    HW217391   0.141   1.866   3.407
 5498SOL     OW17392   5.312   0.166   1.408
 5498SOL    HW117393   5.410   0.177   1.391
 5498SOL    HW217394   5.292   0.071   1.430
 5499SOL     OW17395   1.062   0.867   3.930
 5499SOL    HW117396   0.987   0.932   3.920
 5499SOL    HW217397   1.031   0.790   3.985
 5500SOL     OW17398   2.173   5.928   0.287
 5500SOL    HW117399   2.132   6.000   0.232
 5500SOL    HW217400   2.268   5.914   0.260
 5501SOL     OW17401   3.619   0.373   1.092
 5501SOL    HW117402   3.600   0.334   1.002
 5501SOL    HW217403   3.548   0.438   1.116
 5502SOL     OW17404   5.195   4.332   6.260
 5502SOL    HW117405   5.292   4.327   6.235
 5502SOL    HW217406   5.174   4.423   6.295
 5503SOL     OW17407   0.261   4.718   3.045
 5503SOL    HW117408   0.170   4.748   3.016
 5503SOL    HW217409   0.258   4.621   3.070
 5504SOL     OW17410   4.146   1.780   5.598
 5504SOL    HW117411   4.214   1.829   5.652
 5504SOL    HW217412   4.096   1.717   5.658
 5505SOL     OW17413   2.532   5.158   4.374
 5505SOL    HW117414   2.435   5.137   4.362
 5505SOL    HW217415   2.581   5.077   4.406
 5506SOL     OW17416   0.030   0.968   5.971
 5506SOL    HW117417   0.051   1.066   5.973
 5506SOL    HW217418   6.982   0.952   5.902
 5507SOL     OW17419   1.879   6.754   2.534
 5507SOL    HW117420   1.857   6.704   2.618
 5507SOL    HW217421   1.919   6.843   2.557
 5508SOL     OW17422   1.938   1.305   0.175
 5508SOL    HW117423   1.906   1.232   0.235
 5508SOL    HW217424   1.861   1.363   0.149
 5509SOL     OW17425   1.052   6.383   0.337
 5509SOL    HW117426   1.001   6.460   0.375
 5509SOL    HW217427   0.992   6.304   0.326
 5510SOL     OW17428   5.232   6.206   0.726
 5510SOL    HW117429   5.274   6.119   0.700
 5510SOL    HW217430   5.240   6.271   0.650
 5511SOL     OW17431   2.477   0.011   4.390
 5511SOL    HW117432   2.550   6.993   4.445
 5511SOL    HW217433   2.500   0.004   4.293
 5512SOL     OW17434   5.843   2.000   1.357
 5512SOL    HW117435   5.869   1.949   1.438
 5512SOL    HW217436   5.838   2.098   1.379
 5513SOL     OW17437   3.445   4.006   5.945
 5513SOL    HW117438   3.384   3.984   6.020
 5513SOL    HW217439   3.392   4.023   5.862
 5514SOL     OW17440   4.422   5.519   2.329
 5514SOL    HW117441   4.357   5.454   2.290
 5514SOL    HW217442   4.417   5.516   2.429
 5515SOL     OW17443   0.456   4.349   1.175
 5515SOL    HW117444   0.399   4.315   1.100
 5515SOL    HW217445   0.401   4.356   1.258
 5516SOL     OW17446   1.352   3.396   6.865
 5516SOL    HW117447   1.427   3.443   6.818
 5516SOL    HW217448   1.265   3.435   6.834
 5517SOL     OW17449   2.400   2.664   2.441
 5517SOL    HW117450   2.360   2.752   2.414
 5517SOL    HW217451   2.417   2.609   2.359
 5518SOL     OW17452   6.413   6.804   6.463
 5518SOL    HW117453   6.330   6.759   6.494
 5518SOL    HW217454   6.408   6.902   6.482
 5519SOL     OW17455   5.183   3.323   3.068
 5519SOL    HW117456   5.191   3.270   3.153
 5519SOL    HW217457   5.093   3.366   3.064
 5520SOL     OW17458   6.589   5.377   2.534
 5520SOL    HW117459   6.629   5.301   2.483
 5520SOL    HW217460   6.595   5.357   2.632
 5521SOL     OW17461   3.890   6.683   2.606
 5521SOL    HW117462   3.845   6.767   2.576
 5521SOL    HW217463   3.971   6.707   2.661
 5522SOL     OW17464   0.662   4.939   0.600
 5522SOL    HW117465   0.668   5.007   0.673
 5522SOL    HW217466   0.652   4.848   0.640
 5523SOL     OW17467   3.148   0.116   3.086
 5523SOL    HW117468   3.230   0.116   3.144
 5523SOL    HW217469   3.072   0.072   3.136
 5524SOL     OW17470   6.331   5.087   4.537
 5524SOL    HW117471   6.372   5.159   4.592
 5524SOL    HW217472   6.248   5.054   4.583
 5525SOL     OW17473   0.114   3.598   0.105
 5525SOL    HW117474   0.050   3.630   0.175
 5525SOL    HW217475   0.090   3.505   0.078
 5526SOL     OW17476   5.249   4.401   4.958
 5526SOL    HW117477   5.289   4.341   4.889
 5526SOL    HW217478   5.179   4.351   5.009
 5527SOL     OW17479   0.871   3.786   3.875
 5527SOL    HW117480   0.840   3.881   3.871
 5527SOL    HW217481   0.821   3.739   3.948
 5528SOL     OW17482   1.008   1.683   6.826
 5528SOL    HW117483   0.923   1.647   6.787
 5528SOL    HW217484   1.042   1.757   6.768
 5529SOL     OW17485   2.247   0.144   4.419
 5529SOL    HW117486   2.193   0.184   4.344
 5529SOL    HW217487   2.337   0.117   4.384
 5530SOL     OW17488   0.240   2.665   2.653
 5530SOL    HW117489   0.154   2.668   2.703
 5530SOL    HW217490   0.259   2.754   2.612
 5531SOL     OW17491   4.012   3.834   2.592
 5531SOL    HW117492   3.978   3.887   2.670
 5531SOL    HW217493   3.953   3.850   2.513
 5532SOL     OW17494   1.502   1.667   0.881
 5532SOL    HW117495   1.448   1.665   0.796
 5532SOL    HW217496   1.572   1.596   0.878
 5533SOL     OW17497   3.175   1.074   2.852
 5533SOL    HW117498   3.173   1.041   2.947
 5533SOL    HW217499   3.231   1.012   2.797
 5534SOL     OW17500   0.867   2.304   5.649
 5534SOL    HW117501   0.809   2.291   5.569
 5534SOL    HW217502   0.869   2.401   5.674
 5535SOL     OW17503   0.484   3.295   4.084
 5535SOL    HW117504   0.576   3.306   4.047
 5535SOL    HW217505   0.421   3.353   4.032
 5536SOL     OW17506   3.549   0.967   4.284
 5536SOL    HW117507   3.543   1.006   4.375
 5536SOL    HW217508   3.533   1.038   4.215
 5537SOL     OW17509   3.250   0.979   4.514
 5537SOL    HW117510   3.274   0.887   4.483
 5537SOL    HW217511   3.323   1.015   4.572
 5538SOL     OW17512   3.238   6.914   4.781
 5538SOL    HW117513   3.187   6.828   4.777
 5538SOL    HW217514   3.174   6.991   4.787
 5539SOL     OW17515   1.507   2.925   0.309
 5539SOL    HW117516   1.564   3.006   0.291
 5539SOL    HW217517   1.528   2.891   0.401
 5540SOL     OW17518   6.239   3.572   3.218
 5540SOL    HW117519   6.159   3.540   3.169
 5540SOL    HW217520   6.297   3.626   3.157
 5541SOL     OW17521   5.666   1.870   6.680
 5541SOL    HW117522   5.759   1.907   6.681
 5541SOL    HW217523   5.641   1.841   6.773
 5542SOL     OW17524   5.468   6.618   6.200
 5542SOL    HW117525   5.399   6.556   6.238
 5542SOL    HW217526   5.471   6.701   6.255
 5543SOL     OW17527   2.709   5.302   6.288
 5543SOL    HW117528   2.770   5.375   6.319
 5543SOL    HW217529   2.708   5.229   6.357
 5544SOL     OW17530   5.406   5.716   6.296
 5544SOL    HW117531   5.343   5.662   6.241
 5544SOL    HW217532   5.394   5.813   6.275
 5545SOL     OW17533   4.532   1.369   3.407
 5545SOL    HW117534   4.555   1.462   3.436
 5545SOL    HW217535   4.434   1.354   3.419
 5546SOL     OW17536   1.451   6.823   3.843
 5546SOL    HW117537   1.471   6.725   3.846
 5546SOL    HW217538   1.533   6.873   3.815
 5547SOL     OW17539   3.862   0.695   4.756
 5547SOL    HW117540   3.961   0.686   4.766
 5547SOL    HW217541   3.823   0.608   4.726
 5548SOL     OW17542   5.503   3.383   4.814
 5548SOL    HW117543   5.538   3.469   4.851
 5548SOL    HW217544   5.574   3.339   4.760
 5549SOL     OW17545   3.654   4.808   0.940
 5549SOL    HW117546   3.673   4.721   0.895
 5549SOL    HW217547   3.652   4.881   0.871
 5550SOL     OW17548   2.284   4.321   2.201
 5550SOL    HW117549   2.244   4.272   2.124
 5550SOL    HW217550   2.216   4.332   2.273
 5551SOL     OW17551   1.302   6.154   3.117
 5551SOL    HW117552   1.351   6.218   3.176
 5551SOL    HW217553   1.362   6.077   3.095
 5552SOL     OW17554   7.012   6.932   6.586
 5552SOL    HW117555   7.021   6.847   6.638
 5552SOL    HW217556   6.957   6.915   6.504
 5553SOL     OW17557   4.779   6.262   0.203
 5553SOL    HW117558   4.802   6.296   0.294
 5553SOL    HW217559   4.863   6.243   0.152
 5554SOL     OW17560   4.794   1.998   6.740
 5554SOL    HW117561   4.850   2.045   6.672
 5554SOL    HW217562   4.795   2.049   6.826
 5555SOL     OW17563   1.319   4.291   2.883
 5555SOL    HW117564   1.225   4.322   2.899
 5555SOL    HW217565   1.360   4.346   2.810
 5556SOL     OW17566   6.839   1.627   3.729
 5556SOL    HW117567   6.911   1.559   3.717
 5556SOL    HW217568   6.850   1.700   3.662
 5557SOL     OW17569   3.415   6.966   2.872
 5557SOL    HW117570   3.459   6.904   2.808
 5557SOL    HW217571   3.466   6.967   2.958
 5558SOL     OW17572   3.481   3.401   5.448
 5558SOL    HW117573   3.425   3.467   5.498
 5558SOL    HW217574   3.577   3.421   5.463
 5559SOL     OW17575   1.153   0.515   1.379
 5559SOL    HW117576   1.171   0.419   1.403
 5559SOL    HW217577   1.094   0.556   1.449
 5560SOL     OW17578   0.457   5.285   2.435
 5560SOL    HW117579   0.511   5.273   2.519
 5560SOL    HW217580   0.516   5.270   2.356
 5561SOL     OW17581   1.847   1.462   4.121
 5561SOL    HW117582   1.879   1.452   4.026
 5561SOL    HW217583   1.789   1.543   4.128
 5562SOL     OW17584   4.162   2.425   6.559
 5562SOL    HW117585   4.207   2.423   6.470
 5562SOL    HW217586   4.226   2.392   6.629
 5563SOL     OW17587   3.554   5.167   2.048
 5563SOL    HW117588   3.489   5.195   1.978
 5563SOL    HW217589   3.547   5.227   2.127
 5564SOL     OW17590   4.742   0.363   1.208
 5564SOL    HW117591   4.772   0.276   1.168
 5564SOL    HW217592   4.647   0.354   1.238
 5565SOL     OW17593   4.605   1.729   6.073
 5565SOL    HW117594   4.703   1.715   6.089
 5565SOL    HW217595   4.563   1.768   6.155
 5566SOL     OW17596   1.610   4.554   6.419
 5566SOL    HW117597   1.707   4.530   6.433
 5566SOL    HW217598   1.584   4.624   6.485
 5567SOL     OW17599   0.183   1.911   1.183
 5567SOL    HW117600   0.164   2.008   1.169
 5567SOL    HW217601   0.261   1.884   1.128
 5568SOL     OW17602   4.629   1.874   3.591
 5568SOL    HW117603   4.617   1.887   3.689
 5568SOL    HW217604   4.711   1.923   3.561
 5569SOL     OW17605   1.745   2.340   2.527
 5569SOL    HW117606   1.720   2.255   2.480
 5569SOL    HW217607   1.698   2.417   2.483
 5570SOL     OW17608   6.310   4.540   5.134
 5570SOL    HW117609   6.370   4.483   5.078
 5570SOL    HW217610   6.242   4.584   5.075
 5571SOL     OW17611   0.122   6.088   0.464
 5571SOL    HW117612   0.100   6.121   0.372
 5571SOL    HW217613   0.151   5.992   0.459
 5572SOL     OW17614   1.444   2.110   5.255
 5572SOL    HW117615   1.450   2.161   5.341
 5572SOL    HW217616   1.395   2.165   5.188
 5573SOL     OW17617   2.414   4.589   4.453
 5573SOL    HW117618   2.330   4.644   4.457
 5573SOL    HW217619   2.433   4.564   4.358
 5574SOL     OW17620   0.560   2.154   2.692
 5574SOL    HW117621   0.499   2.167   2.613
 5574SOL    HW217622   0.578   2.243   2.735
 5575SOL     OW17623   6.729   1.035   1.481
 5575SOL    HW117624   6.777   1.123   1.475
 5575SOL    HW217625   6.700   1.006   1.390
 5576SOL     OW17626   1.132   5.125   1.668
 5576SOL    HW117627   1.055   5.090   1.616
 5576SOL    HW217628   1.183   5.190   1.613
 5577SOL     OW17629   3.498   3.721   5.816
 5577SOL    HW117630   3.442   3.676   5.746
 5577SOL    HW217631   3.543   3.801   5.776
 5578SOL     OW17632   3.768   3.574   0.897
 5578SOL    HW117633   3.833   3.643   0.863
 5578SOL    HW217634   3.810   3.523   0.972
 5579SOL     OW17635   0.598   3.500   0.225
 5579SOL    HW117636   0.647   3.451   0.153
 5579SOL    HW217637   0.505   3.522   0.194
 5580SOL     OW17638   5.568   2.552   5.454
 5580SOL    HW117639   5.661   2.563   5.488
 5580SOL    HW217640   5.554   2.457   5.425
 5581SOL     OW17641   1.041   6.943   1.561
 5581SOL    HW117642   1.137   6.936   1.532
 5581SOL    HW217643   1.008   0.013   1.542
 5582SOL     OW17644   2.798   3.865   5.180
 5582SOL    HW117645   2.827   3.786   5.235
 5582SOL    HW217646   2.709   3.845   5.139
 5583SOL     OW17647   4.724   0.269   2.668
 5583SOL    HW117648   4.782   0.194   2.638
 5583SOL    HW217649   4.764   0.313   2.748
 5584SOL     OW17650   5.684   4.547   4.124
 5584SOL    HW117651   5.769   4.598   4.110
 5584SOL    HW217652   5.610   4.610   4.147
 5585SOL     OW17653   5.361   6.115   3.969
 5585SOL    HW117654   5.328   6.196   3.922
 5585SOL    HW217655   5.312   6.034   3.936
 5586SOL     OW17656   0.385   2.372   6.839
 5586SOL    HW117657   0.445   2.446   6.809
 5586SOL    HW217658   0.389   2.364   6.938
 5587SOL     OW17659   4.113   6.281   1.735
 5587SOL    HW117660   4.138   6.339   1.658
 5587SOL    HW217661   4.117   6.185   1.707
 5588SOL     OW17662   1.616   5.774   2.860
 5588SOL    HW117663   1.555   5.850   2.837
 5588SOL    HW217664   1.669   5.797   2.942
 5589SOL     OW17665   6.239   3.847   5.317
 5589SOL    HW117666   6.171   3.914   5.348
 5589SOL    HW217667   6.305   3.891   5.256
 5590SOL     OW17668   6.861   5.952   4.072
 5590SOL    HW117669   6.819   5.935   3.983
 5590SOL    HW217670   6.808   6.021   4.122
 5591SOL     OW17671   5.141   1.889   0.217
 5591SOL    HW117672   5.203   1.936   0.154
 5591SOL    HW217673   5.191   1.860   0.298
 5592SOL     OW17674   0.016   4.712   2.689
 5592SOL    HW117675   0.070   4.786   2.650
 5592SOL    HW217676   0.018   4.719   2.789
 5593SOL     OW17677   0.647   3.151   6.175
 5593SOL    HW117678   0.674   3.092   6.251
 5593SOL    HW217679   0.642   3.246   6.207
 5594SOL     OW17680   3.675   1.294   6.736
 5594SOL    HW117681   3.576   1.281   6.739
 5594SOL    HW217682   3.712   1.290   6.828
 5595SOL     OW17683   6.349   0.623   5.045
 5595SOL    HW117684   6.444   0.647   5.028
 5595SOL    HW217685   6.333   0.618   5.144
 5596SOL     OW17686   4.804   0.350   3.154
 5596SOL    HW117687   4.847   0.261   3.137
 5596SOL    HW217688   4.714   0.352   3.112
 5597SOL     OW17689   5.556   2.854   4.888
 5597SOL    HW117690   5.563   2.947   4.852
 5597SOL    HW217691   5.542   2.858   4.987
 5598SOL     OW17692   6.072   3.727   3.816
 5598SOL    HW117693   6.150   3.705   3.758
 5598SOL    HW217694   6.001   3.657   3.805
 5599SOL     OW17695   0.454   2.704   1.370
 5599SOL    HW117696   0.501   2.793   1.368
 5599SOL    HW217697   0.493   2.648   1.443
 5600SOL     OW17698   2.460   0.359   1.866
 5600SOL    HW117699   2.460   0.417   1.947
 5600SOL    HW217700   2.404   0.400   1.794
 5601SOL     OW17701   2.680   1.016   6.809
 5601SOL    HW117702   2.582   1.000   6.803
 5601SOL    HW217703   2.700   1.111   6.786
 5602SOL     OW17704   0.111   1.351   1.429
 5602SOL    HW117705   0.019   1.361   1.390
 5602SOL    HW217706   0.178   1.385   1.363
 5603SOL     OW17707   5.766   2.659   0.169
 5603SOL    HW117708   5.708   2.732   0.206
 5603SOL    HW217709   5.775   2.671   0.070
 5604SOL     OW17710   6.440   1.841   4.227
 5604SOL    HW117711   6.483   1.759   4.265
 5604SOL    HW217712   6.481   1.862   4.139
 5605SOL     OW17713   6.566   1.477   4.999
 5605SOL    HW117714   6.644   1.415   5.004
 5605SOL    HW217715   6.481   1.424   5.005
 5606SOL     OW17716   4.591   6.429   0.455
 5606SOL    HW117717   4.638   6.458   0.371
 5606SOL    HW217718   4.550   6.508   0.499
 5607SOL     OW17719   6.162   1.033   3.038
 5607SOL    HW117720   6.093   0.998   2.975
 5607SOL    HW217721   6.243   1.061   2.987
 5608SOL     OW17722   6.034   0.347   3.978
 5608SOL    HW117723   5.946   0.300   3.973
 5608SOL    HW217724   6.040   0.416   3.905
 5609SOL     OW17725   3.567   5.739   1.406
 5609SOL    HW117726   3.475   5.728   1.368
 5609SOL    HW217727   3.599   5.651   1.443
 5610SOL     OW17728   4.710   5.398   0.954
 5610SOL    HW117729   4.627   5.433   0.910
 5610SOL    HW217730   4.687   5.313   1.003
 5611SOL     OW17731   0.766   5.788   3.174
 5611SOL    HW117732   0.735   5.699   3.140
 5611SOL    HW217733   0.825   5.774   3.254
 5612SOL     OW17734   4.244   2.490   5.917
 5612SOL    HW117735   4.167   2.540   5.958
 5612SOL    HW217736   4.323   2.495   5.977
 5613SOL     OW17737   6.356   5.785   4.723
 5613SOL    HW117738   6.415   5.766   4.644
 5613SOL    HW217739   6.286   5.714   4.729
 5614SOL     OW17740   4.514   2.514   4.723
 5614SOL    HW117741   4.583   2.456   4.680
 5614SOL    HW217742   4.441   2.457   4.759
 5615SOL     OW17743   6.623   1.478   4.168
 5615SOL    HW117744   6.667   1.497   4.081
 5615SOL    HW217745   6.645   1.385   4.198
 5616SOL     OW17746   2.801   2.259   5.162
 5616SOL    HW117747   2.780   2.348   5.202
 5616SOL    HW217748   2.897   2.237   5.180
 5617SOL     OW17749   2.693   5.560   5.721
 5617SOL    HW117750   2.749   5.546   5.639
 5617SOL    HW217751   2.604   5.517   5.709
 5618SOL     OW17752   6.992   4.363   4.245
 5618SOL    HW117753   6.903   4.401   4.219
 5618SOL    HW217754   6.980   4.304   4.325
 5619SOL     OW17755   3.825   4.100   4.754
 5619SOL    HW117756   3.824   4.185   4.700
 5619SOL    HW217757   3.889   4.035   4.713
 5620SOL     OW17758   4.091   3.433   1.229
 5620SOL    HW117759   4.137   3.363   1.174
 5620SOL    HW217760   4.102   3.412   1.326
 5621SOL     OW17761   2.695   2.502   7.004
 5621SOL    HW117762   2.612   2.554   0.002
 5621SOL    HW217763   2.772   2.541   0.032
 5622SOL     OW17764   4.929   0.698   5.692
 5622SOL    HW117765   4.949   0.659   5.603
 5622SOL    HW217766   4.899   0.626   5.755
 5623SOL     OW17767   4.238   5.948   5.434
 5623SOL    HW117768   4.287   5.988   5.512
 5623SOL    HW217769   4.287   5.867   5.402
 5624SOL     OW17770   0.589   4.194   3.431
 5624SOL    HW117771   0.668   4.175   3.372
 5624SOL    HW217772   0.603   4.282   3.478
 5625SOL     OW17773   6.724   6.771   5.502
 5625SOL    HW117774   6.625   6.763   5.492
 5625SOL    HW217775   6.745   6.835   5.577
 5626SOL     OW17776   2.211   5.765   4.683
 5626SOL    HW117777   2.216   5.806   4.774
 5626SOL    HW217778   2.203   5.837   4.615
 5627SOL     OW17779   0.811   4.675   6.743
 5627SOL    HW117780   0.850   4.741   6.808
 5627SOL    HW217781   0.727   4.637   6.780
 5628SOL     OW17782   1.897   2.331   2.753
 5628SOL    HW117783   1.945   2.243   2.755
 5628SOL    HW217784   1.825   2.328   2.684
 5629SOL     OW17785   3.803   3.593   1.850
 5629SOL    HW117786   3.725   3.531   1.858
 5629SOL    HW217787   3.772   3.687   1.866
 5630SOL     OW17788   1.813   3.877   5.989
 5630SOL    HW117789   1.799   3.846   5.895
 5630SOL    HW217790   1.835   3.798   6.047
 5631SOL     OW17791   4.612   1.978   2.141
 5631SOL    HW117792   4.633   1.998   2.237
 5631SOL    HW217793   4.641   2.055   2.084
 5632SOL     OW17794   3.022   2.463   6.056
 5632SOL    HW117795   3.051   2.501   5.969
 5632SOL    HW217796   3.080   2.497   6.129
 5633SOL     OW17797   6.032   5.017   4.221
 5633SOL    HW117798   6.062   4.974   4.306
 5633SOL    HW217799   6.104   5.007   4.152
 5634SOL     OW17800   2.254   5.074   4.370
 5634SOL    HW117801   2.220   5.126   4.291
 5634SOL    HW217802   2.177   5.053   4.431
 5635SOL     OW17803   1.849   5.350   6.399
 5635SOL    HW117804   1.914   5.274   6.409
 5635SOL    HW217805   1.791   5.334   6.319
 5636SOL     OW17806   4.878   6.931   4.779
 5636SOL    HW117807   4.944   6.901   4.848
 5636SOL    HW217808   4.892   0.005   4.760
 5637SOL     OW17809   5.315   6.944   3.040
 5637SOL    HW117810   5.408   6.916   3.014
 5637SOL    HW217811   5.274   6.872   3.097
 5638SOL     OW17812   6.451   4.126   1.065
 5638SOL    HW117813   6.391   4.171   0.999
 5638SOL    HW217814   6.397   4.068   1.126
 5639SOL     OW17815   1.540   0.633   2.617
 5639SOL    HW117816   1.480   0.619   2.538
 5639SOL    HW217817   1.529   0.557   2.681
 5640SOL     OW17818   3.443   0.562   3.950
 5640SOL    HW117819   3.348   0.593   3.952
 5640SOL    HW217820   3.449   0.470   3.988
 5641SOL     OW17821   0.715   5.125   5.035
 5641SOL    HW117822   0.641   5.179   5.075
 5641SOL    HW217823   0.798   5.138   5.089
 5642SOL     OW17824   1.567   6.629   4.394
 5642SOL    HW117825   1.599   6.619   4.300
 5642SOL    HW217826   1.604   6.554   4.450
 5643SOL     OW17827   4.435   1.523   4.499
 5643SOL    HW117828   4.395   1.516   4.590
 5643SOL    HW217829   4.384   1.590   4.445
 5644SOL     OW17830   3.054   0.086   5.089
 5644SOL    HW117831   3.077   0.138   5.171
 5644SOL    HW217832   3.026   7.017   5.114
 5645SOL     OW17833   6.443   4.978   3.654
 5645SOL    HW117834   6.535   4.987   3.616
 5645SOL    HW217835   6.376   5.002   3.583
 5646SOL     OW17836   1.438   5.576   3.762
 5646SOL    HW117837   1.365   5.508   3.774
 5646SOL    HW217838   1.480   5.597   3.850
 5647SOL     OW17839   4.559   5.734   0.659
 5647SOL    HW117840   4.580   5.637   0.668
 5647SOL    HW217841   4.643   5.785   0.645
 5648SOL     OW17842   1.745   0.092   3.017
 5648SOL    HW117843   1.707   0.145   2.941
 5648SOL    HW217844   1.825   0.139   3.053
 5649SOL     OW17845   0.835   0.838   4.559
 5649SOL    HW117846   0.923   0.808   4.596
 5649SOL    HW217847   0.773   0.857   4.634
 5650SOL     OW17848   0.627   5.685   0.450
 5650SOL    HW117849   0.558   5.756   0.437
 5650SOL    HW217850   0.584   5.595   0.447
 5651SOL     OW17851   1.690   0.914   1.632
 5651SOL    HW117852   1.757   0.931   1.560
 5651SOL    HW217853   1.610   0.867   1.594
 5652SOL     OW17854   6.218   0.259   2.113
 5652SOL    HW117855   6.124   0.225   2.117
 5652SOL    HW217856   6.276   0.193   2.065
 5653SOL     OW17857   6.205   6.447   6.740
 5653SOL    HW117858   6.218   6.407   6.831
 5653SOL    HW217859   6.239   6.541   6.740
 5654SOL     OW17860   0.067   6.740   5.407
 5654SOL    HW117861   0.077   6.642   5.389
 5654SOL    HW217862   0.007   6.754   5.485
 5655SOL     OW17863   0.816   3.819   4.221
 5655SOL    HW117864   0.797   3.724   4.197
 5655SOL    HW217865   0.877   3.822   4.300
 5656SOL     OW17866   0.201   3.915   6.527
 5656SOL    HW117867   0.113   3.899   6.572
 5656SOL    HW217868   0.267   3.951   6.593
 5657SOL     OW17869   5.797   2.231   0.286
 5657SOL    HW117870   5.849   2.312   0.257
 5657SOL    HW217871   5.759   2.247   0.377
 5658SOL     OW17872   3.517   3.650   6.605
 5658SOL    HW117873   3.452   3.600   6.548
 5658SOL    HW217874   3.528   3.743   6.569
 5659SOL     OW17875   3.767   3.309   5.455
 5659SOL    HW117876   3.738   3.338   5.364
 5659SOL    HW217877   3.805   3.387   5.505
 5660SOL     OW17878   4.979   6.508   0.130
 5660SOL    HW117879   4.990   6.581   0.063
 5660SOL    HW217880   5.031   6.428   0.099
 5661SOL     OW17881   1.413   6.204   5.087
 5661SOL    HW117882   1.342   6.224   5.019
 5661SOL    HW217883   1.378   6.225   5.179
 5662SOL     OW17884   2.860   5.729   3.254
 5662SOL    HW117885   2.947   5.752   3.210
 5662SOL    HW217886   2.786   5.743   3.188
 5663SOL     OW17887   1.758   3.029   6.749
 5663SOL    HW117888   1.712   3.005   6.834
 5663SOL    HW217889   1.788   2.945   6.702
 5664SOL     OW17890   6.815   3.860   4.527
 5664SOL    HW117891   6.768   3.918   4.593
 5664SOL    HW217892   6.785   3.765   4.538
 5665SOL     OW17893   1.851   1.062   0.431
 5665SOL    HW117894   1.898   1.019   0.355
 5665SOL    HW217895   1.916   1.114   0.486
 5666SOL     OW17896   5.889   0.076   3.161
 5666SOL    HW117897   5.950   0.129   3.220
 5666SOL    HW217898   5.934   7.013   3.136
 5667SOL     OW17899   1.162   5.191   4.634
 5667SOL    HW117900   1.113   5.105   4.624
 5667SOL    HW217901   1.255   5.173   4.668
 5668SOL     OW17902   5.283   2.620   3.976
 5668SOL    HW117903   5.346   2.665   3.913
 5668SOL    HW217904   5.209   2.577   3.924
 5669SOL     OW17905   0.246   3.260   0.502
 5669SOL    HW117906   0.299   3.297   0.577
 5669SOL    HW217907   0.298   3.266   0.417
 5670SOL     OW17908   0.867   3.615   3.672
 5670SOL    HW117909   0.881   3.682   3.744
 5670SOL    HW217910   0.816   3.657   3.596
 5671SOL     OW17911   5.984   6.308   6.630
 5671SOL    HW117912   6.048   6.371   6.674
 5671SOL    HW217913   5.891   6.330   6.659
 5672SOL     OW17914   4.681   3.948   0.114
 5672SOL    HW117915   4.619   3.878   0.080
 5672SOL    HW217916   4.744   3.908   0.181
 5673SOL     OW17917   1.422   0.103   1.415
 5673SOL    HW117918   1.476   0.144   1.489
 5673SOL    HW217919   1.445   0.147   1.329
 5674SOL     OW17920   0.037   4.744   4.987
 5674SOL    HW117921   6.977   4.799   4.978
 5674SOL    HW217922   0.020   4.669   5.052
 5675SOL     OW17923   4.079   2.867   6.538
 5675SOL    HW117924   4.066   2.795   6.470
 5675SOL    HW217925   4.137   2.939   6.500
 5676SOL     OW17926   2.721   2.384   2.398
 5676SOL    HW117927   2.794   2.323   2.367
 5676SOL    HW217928   2.695   2.445   2.324
 5677SOL     OW17929   0.675   1.578   0.453
 5677SOL    HW117930   0.605   1.575   0.382
 5677SOL    HW217931   0.644   1.526   0.533
 5678SOL     OW17932   4.028   6.359   2.705
 5678SOL    HW117933   4.025   6.458   2.689
 5678SOL    HW217934   4.011   6.341   2.802
 5679SOL     OW17935   6.596   0.817   4.107
 5679SOL    HW117936   6.596   0.897   4.046
 5679SOL    HW217937   6.688   0.779   4.112
 5680SOL     OW17938   1.735   5.192   6.167
 5680SOL    HW117939   1.698   5.121   6.106
 5680SOL    HW217940   1.831   5.208   6.145
 5681SOL     OW17941   0.631   4.050   0.940
 5681SOL    HW117942   0.663   3.969   0.989
 5681SOL    HW217943   0.685   4.062   0.857
 5682SOL     OW17944   1.985   5.297   5.009
 5682SOL    HW117945   1.994   5.269   5.105
 5682SOL    HW217946   1.888   5.305   4.986
 5683SOL     OW17947   4.557   1.156   5.922
 5683SOL    HW117948   4.477   1.098   5.935
 5683SOL    HW217949   4.558   1.190   5.828
 5684SOL     OW17950   2.703   3.782   5.831
 5684SOL    HW117951   2.664   3.691   5.815
 5684SOL    HW217952   2.778   3.797   5.766
 5685SOL     OW17953   1.771   1.915   3.144
 5685SOL    HW117954   1.817   1.938   3.229
 5685SOL    HW217955   1.792   1.820   3.118
 5686SOL     OW17956   2.799   1.931   6.682
 5686SOL    HW117957   2.775   1.862   6.613
 5686SOL    HW217958   2.896   1.924   6.703
 5687SOL     OW17959   1.079   5.050   0.156
 5687SOL    HW117960   1.095   5.065   0.059
 5687SOL    HW217961   1.041   5.133   0.197
 5688SOL     OW17962   0.565   2.574   1.575
 5688SOL    HW117963   0.621   2.491   1.575
 5688SOL    HW217964   0.546   2.601   1.669
 5689SOL     OW17965   3.195   1.415   1.031
 5689SOL    HW117966   3.196   1.357   1.112
 5689SOL    HW217967   3.287   1.451   1.015
 5690SOL     OW17968   2.371   5.867   6.859
 5690SOL    HW117969   2.459   5.909   6.882
 5690SOL    HW217970   2.380   5.815   6.774
 5691SOL     OW17971   3.381   0.134   2.416
 5691SOL    HW117972   3.377   0.036   2.439
 5691SOL    HW217973   3.470   0.156   2.378
 5692SOL     OW17974   5.727   3.634   0.633
 5692SOL    HW117975   5.799   3.573   0.600
 5692SOL    HW217976   5.751   3.728   0.610
 5693SOL     OW17977   5.075   1.591   3.222
 5693SOL    HW117978   4.993   1.563   3.172
 5693SOL    HW217979   5.153   1.535   3.194
 5694SOL     OW17980   1.249   1.270   3.096
 5694SOL    HW117981   1.262   1.255   3.194
 5694SOL    HW217982   1.250   1.181   3.049
 5695SOL     OW17983   1.599   1.825   3.670
 5695SOL    HW117984   1.566   1.819   3.576
 5695SOL    HW217985   1.583   1.917   3.706
 5696SOL     OW17986   0.901   1.093   3.517
 5696SOL    HW117987   0.842   1.034   3.461
 5696SOL    HW217988   0.975   1.129   3.460
 5697SOL     OW17989   5.917   2.591   1.253
 5697SOL    HW117990   6.017   2.591   1.250
 5697SOL    HW217991   5.881   2.606   1.161
 5698SOL     OW17992   1.461   4.900   4.375
 5698SOL    HW117993   1.369   4.915   4.338
 5698SOL    HW217994   1.527   4.900   4.300
 5699SOL     OW17995   0.729   2.455   3.077
 5699SOL    HW117996   0.822   2.440   3.045
 5699SOL    HW217997   0.715   2.552   3.096
 5700SOL     OW17998   6.481   7.023   3.321
 5700SOL    HW117999   6.470   0.094   3.287
 5700SOL    HW218000   6.568   6.987   3.290
 5701SOL     OW18001   1.186   0.270   1.448
 5701SOL    HW118002   1.251   0.195   1.440
 5701SOL    HW218003   1.097   0.235   1.477
 5702SOL     OW18004   2.658   5.521   4.096
 5702SOL    HW118005   2.605   5.559   4.020
 5702SOL    HW218006   2.690   5.595   4.155
 5703SOL     OW18007   6.164   4.770   1.790
 5703SOL    HW118008   6.222   4.689   1.789
 5703SOL    HW218009   6.069   4.744   1.806
 5704SOL     OW18010   4.877   4.158   2.982
 5704SOL    HW118011   4.884   4.150   2.883
 5704SOL    HW218012   4.966   4.137   3.024
 5705SOL     OW18013   5.213   6.816   0.009
 5705SOL    HW118014   5.176   6.724   0.002
 5705SOL    HW218015   5.159   6.870   0.073
 5706SOL     OW18016   0.254   3.866   1.584
 5706SOL    HW118017   0.332   3.896   1.530
 5706SOL    HW218018   0.220   3.941   1.640
 5707SOL     OW18019   0.208   6.191   0.018
 5707SOL    HW118020   0.229   6.178   6.944
 5707SOL    HW218021   0.273   6.257   0.057
 5708SOL     OW18022   5.209   5.415   2.018
 5708SOL    HW118023   5.147   5.492   2.027
 5708SOL    HW218024   5.243   5.388   2.108
 5709SOL     OW18025   1.378   0.837   2.390
 5709SOL    HW118026   1.403   0.933   2.377
 5709SOL    HW218027   1.287   0.821   2.352
 5710SOL     OW18028   2.964   2.957   1.001
 5710SOL    HW118029   2.881   3.003   0.967
 5710SOL    HW218030   2.951   2.932   1.097
 5711SOL     OW18031   4.831   0.605   3.078
 5711SOL    HW118032   4.790   0.519   3.108
 5711SOL    HW218033   4.929   0.604   3.101
 5712SOL     OW18034   6.521   0.584   6.698
 5712SOL    HW118035   6.601   0.592   6.639
 5712SOL    HW218036   6.449   0.645   6.666
 5713SOL     OW18037   3.693   3.159   1.820
 5713SOL    HW118038   3.651   3.250   1.818
 5713SOL    HW218039   3.785   3.166   1.857
 5714SOL     OW18040   0.175   5.181   0.471
 5714SOL    HW118041   0.214   5.209   0.384
 5714SOL    HW218042   0.221   5.229   0.546
 5715SOL     OW18043   1.029   0.622   2.550
 5715SOL    HW118044   1.076   0.536   2.530
 5715SOL    HW218045   1.033   0.640   2.648
 5716SOL     OW18046   1.619   4.949   5.994
 5716SOL    HW118047   1.601   4.887   6.071
 5716SOL    HW218048   1.636   4.896   5.911
 5717SOL     OW18049   1.588   4.875   0.857
 5717SOL    HW118050   1.663   4.903   0.917
 5717SOL    HW218051   1.504   4.924   0.884
 5718SOL     OW18052   0.294   3.345   6.275
 5718SOL    HW118053   0.229   3.345   6.198
 5718SOL    HW218054   0.302   3.252   6.312
 5719SOL     OW18055   2.513   2.680   6.594
 5719SOL    HW118056   2.574   2.760   6.590
 5719SOL    HW218057   2.566   2.597   6.579
 5720SOL     OW18058   2.276   6.047   4.776
 5720SOL    HW118059   2.228   6.111   4.717
 5720SOL    HW218060   2.364   6.087   4.805
 5721SOL     OW18061   6.823   3.596   0.772
 5721SOL    HW118062   6.775   3.574   0.857
 5721SOL    HW218063   6.759   3.634   0.705
 5722SOL     OW18064   0.181   1.888   5.060
 5722SOL    HW118065   0.095   1.934   5.044
 5722SOL    HW218066   0.195   1.817   4.990
 5723SOL     OW18067   4.973   3.316   0.003
 5723SOL    HW118068   4.898   3.250   7.019
 5723SOL    HW218069   4.945   3.403   6.984
 5724SOL     OW18070   5.258   3.112   4.294
 5724SOL    HW118071   5.215   3.024   4.312
 5724SOL    HW218072   5.308   3.108   4.207
 5725SOL     OW18073   5.519   5.390   4.288
 5725SOL    HW118074   5.430   5.373   4.331
 5725SOL    HW218075   5.544   5.486   4.299
 5726SOL     OW18076   6.856   5.393   3.931
 5726SOL    HW118077   6.800   5.401   4.014
 5726SOL    HW218078   6.911   5.310   3.936
 5727SOL     OW18079   0.290   2.105   4.358
 5727SOL    HW118080   0.196   2.107   4.323
 5727SOL    HW218081   0.343   2.179   4.317
 5728SOL     OW18082   4.032   0.630   6.192
 5728SOL    HW118083   3.985   0.712   6.226
 5728SOL    HW218084   4.126   0.629   6.226
 5729SOL     OW18085   1.320   0.407   0.885
 5729SOL    HW118086   1.301   0.405   0.983
 5729SOL    HW218087   1.410   0.449   0.870
 5730SOL     OW18088   5.198   4.895   6.487
 5730SOL    HW118089   5.282   4.949   6.484
 5730SOL    HW218090   5.178   4.860   6.395
 5731SOL     OW18091   0.393   6.857   3.585
 5731SOL    HW118092   0.322   6.787   3.578
 5731SOL    HW218093   0.352   6.948   3.584
 5732SOL     OW18094   6.850   5.148   4.427
 5732SOL    HW118095   6.859   5.245   4.450
 5732SOL    HW218096   6.759   5.131   4.389
 5733SOL     OW18097   4.332   6.581   5.762
 5733SOL    HW118098   4.351   6.654   5.696
 5733SOL    HW218099   4.243   6.541   5.743
 5734SOL     OW18100   1.027   6.916   5.493
 5734SOL    HW118101   1.023   6.928   5.394
 5734SOL    HW218102   1.120   6.935   5.525
 5735SOL     OW18103   4.252   1.726   1.523
 5735SOL    HW118104   4.289   1.665   1.453
 5735SOL    HW218105   4.167   1.767   1.491
 5736SOL     OW18106   6.303   3.537   0.354
 5736SOL    HW118107   6.377   3.474   0.380
 5736SOL    HW218108   6.252   3.565   0.436
 5737SOL     OW18109   5.807   6.672   1.204
 5737SOL    HW118110   5.768   6.632   1.122
 5737SOL    HW218111   5.793   6.610   1.282
 5738SOL     OW18112   2.493   2.549   5.699
 5738SOL    HW118113   2.436   2.618   5.653
 5738SOL    HW218114   2.437   2.498   5.764
 5739SOL     OW18115   1.427   0.223   6.006
 5739SOL    HW118116   1.349   0.248   6.063
 5739SOL    HW218117   1.402   0.146   5.946
 5740SOL     OW18118   4.511   3.804   0.908
 5740SOL    HW118119   4.577   3.841   0.843
 5740SOL    HW218120   4.559   3.747   0.975
 5741SOL     OW18121   0.917   4.709   4.505
 5741SOL    HW118122   1.008   4.677   4.480
 5741SOL    HW218123   0.861   4.632   4.535
 5742SOL     OW18124   5.445   6.647   2.240
 5742SOL    HW118125   5.388   6.694   2.172
 5742SOL    HW218126   5.424   6.684   2.331
 5743SOL     OW18127   2.792   5.560   5.114
 5743SOL    HW118128   2.810   5.637   5.175
 5743SOL    HW218129   2.870   5.546   5.053
 5744SOL     OW18130   5.015   0.432   2.052
 5744SOL    HW118131   4.977   0.350   2.097
 5744SOL    HW218132   4.985   0.513   2.102
 5745SOL     OW18133   2.850   0.812   4.061
 5745SOL    HW118134   2.785   0.877   4.101
 5745SOL    HW218135   2.848   0.727   4.113
 5746SOL     OW18136   6.093   6.814   1.526
 5746SOL    HW118137   6.048   6.751   1.589
 5746SOL    HW218138   6.177   6.849   1.568
 5747SOL     OW18139   6.485   4.663   2.894
 5747SOL    HW118140   6.440   4.658   2.805
 5747SOL    HW218141   6.512   4.571   2.923
 5748SOL     OW18142   2.004   6.171   0.915
 5748SOL    HW118143   1.910   6.185   0.945
 5748SOL    HW218144   2.067   6.202   0.986
 5749SOL     OW18145   1.489   0.577   4.673
 5749SOL    HW118146   1.476   0.552   4.769
 5749SOL    HW218147   1.524   0.498   4.622
 5750SOL     OW18148   5.358   5.867   4.565
 5750SOL    HW118149   5.349   5.959   4.604
 5750SOL    HW218150   5.281   5.811   4.595
 5751SOL     OW18151   2.277   2.777   4.512
 5751SOL    HW118152   2.332   2.706   4.469
 5751SOL    HW218153   2.288   2.772   4.612
 5752SOL     OW18154   6.108   0.807   6.539
 5752SOL    HW118155   6.045   0.814   6.616
 5752SOL    HW218156   6.057   0.817   6.453
 5753SOL     OW18157   3.574   3.940   5.663
 5753SOL    HW118158   3.477   3.949   5.637
 5753SOL    HW218159   3.624   3.897   5.588
 5754SOL     OW18160   5.606   4.615   1.686
 5754SOL    HW118161   5.530   4.626   1.750
 5754SOL    HW218162   5.628   4.703   1.644
 5755SOL     OW18163   2.173   3.666   5.995
 5755SOL    HW118164   2.143   3.680   6.089
 5755SOL    HW218165   2.114   3.718   5.933
 5756SOL     OW18166   5.962   6.307   3.342
 5756SOL    HW118167   5.980   6.262   3.255
 5756SOL    HW218168   5.914   6.244   3.403
 5757SOL     OW18169   6.444   6.569   2.764
 5757SOL    HW118170   6.455   6.519   2.678
 5757SOL    HW218171   6.532   6.575   2.810
 5758SOL     OW18172   2.693   1.019   4.209
 5758SOL    HW118173   2.595   1.015   4.228
 5758SOL    HW218174   2.743   1.022   4.295
 5759SOL     OW18175   5.192   1.891   6.851
 5759SOL    HW118176   5.261   1.900   6.923
 5759SOL    HW218177   5.156   1.982   6.827
 5760SOL     OW18178   0.869   4.528   1.093
 5760SOL    HW118179   0.916   4.616   1.103
 5760SOL    HW218180   0.915   4.474   1.023
 5761SOL     OW18181   5.615   6.954   6.155
 5761SOL    HW118182   5.547   6.902   6.207
 5761SOL    HW218183   5.678   6.892   6.109
 5762SOL     OW18184   4.495   6.637   0.603
 5762SOL    HW118185   4.517   6.734   0.604
 5762SOL    HW218186   4.485   6.604   0.697
 5763SOL     OW18187   6.895   0.522   0.291
 5763SOL    HW118188   6.798   0.527   0.317
 5763SOL    HW218189   6.937   0.443   0.336
 5764SOL     OW18190   4.518   4.723   6.540
 5764SOL    HW118191   4.543   4.671   6.458
 5764SOL    HW218192   4.451   4.670   6.593
 5765SOL     OW18193   6.627   4.286   6.658
 5765SOL    HW118194   6.613   4.378   6.620
 5765SOL    HW218195   6.710   4.247   6.618
 5766SOL     OW18196   2.790   2.466   0.555
 5766SOL    HW118197   2.821   2.485   0.462
 5766SOL    HW218198   2.703   2.512   0.572
 5767SOL     OW18199   2.225   6.433   0.351
 5767SOL    HW118200   2.130   6.454   0.329
 5767SOL    HW218201   2.270   6.395   0.270
 5768SOL     OW18202   0.019   6.754   2.805
 5768SOL    HW118203   0.077   6.761   2.724
 5768SOL    HW218204   0.026   6.838   2.859
 5769SOL     OW18205   2.319   6.307   4.466
 5769SOL    HW118206   2.379   6.385   4.447
 5769SOL    HW218207   2.239   6.311   4.406
 5770SOL     OW18208   6.520   0.415   6.942
 5770SOL    HW118209   6.536   0.481   7.015
 5770SOL    HW218210   6.524   0.461   6.853
 5771SOL     OW18211   0.589   5.991   2.778
 5771SOL    HW118212   0.662   5.965   2.715
 5771SOL    HW218213   0.505   5.943   2.754
 5772SOL     OW18214   6.465   2.534   0.531
 5772SOL    HW118215   6.389   2.475   0.561
 5772SOL    HW218216   6.441   2.580   0.446
 5773SOL     OW18217   4.964   0.674   4.159
 5773SOL    HW118218   4.904   0.646   4.084
 5773SOL    HW218219   4.909   0.703   4.238
 5774SOL     OW18220   2.746   5.416   3.691
 5774SOL    HW118221   2.751   5.341   3.757
 5774SOL    HW218222   2.650   5.439   3.673
 5775SOL     OW18223   1.695   0.133   1.861
 5775SOL    HW118224   1.629   0.074   1.907
 5775SOL    HW218225   1.713   0.213   1.918
 5776SOL     OW18226   6.569   1.220   6.226
 5776SOL    HW118227   6.609   1.267   6.305
 5776SOL    HW218228   6.642   1.191   6.164
 5777SOL     OW18229   5.938   0.440   4.322
 5777SOL    HW118230   5.973   0.496   4.397
 5777SOL    HW218231   6.006   0.437   4.248
 5778SOL     OW18232   1.246   0.092   1.043
 5778SOL    HW118233   1.325   0.140   1.082
 5778SOL    HW218234   1.162   0.132   1.079
 5779SOL     OW18235   4.331   1.184   0.904
 5779SOL    HW118236   4.364   1.094   0.933
 5779SOL    HW218237   4.409   1.245   0.888
 5780SOL     OW18238   5.772   5.694   2.907
 5780SOL    HW118239   5.771   5.736   2.816
 5780SOL    HW218240   5.690   5.720   2.957
 5781SOL     OW18241   1.398   4.096   4.470
 5781SOL    HW118242   1.384   4.066   4.376
 5781SOL    HW218243   1.452   4.027   4.519
 5782SOL     OW18244   1.502   1.089   0.935
 5782SOL    HW118245   1.426   1.106   0.872
 5782SOL    HW218246   1.583   1.138   0.903
 5783SOL     OW18247   1.870   1.411   1.019
 5783SOL    HW118248   1.891   1.477   1.091
 5783SOL    HW218249   1.884   1.318   1.054
 5784SOL     OW18250   7.008   6.506   6.850
 5784SOL    HW118251   0.023   6.568   6.781
 5784SOL    HW218252   0.009   6.540   6.941
 5785SOL     OW18253   2.004   2.296   1.344
 5785SOL    HW118254   1.924   2.259   1.297
 5785SOL    HW218255   1.990   2.292   1.443
 5786SOL     OW18256   1.189   4.556   0.601
 5786SOL    HW118257   1.112   4.497   0.576
 5786SOL    HW218258   1.270   4.499   0.617
 5787SOL     OW18259   4.808   2.397   4.865
 5787SOL    HW118260   4.783   2.384   4.769
 5787SOL    HW218261   4.731   2.371   4.924
 5788SOL     OW18262   2.941   0.438   1.526
 5788SOL    HW118263   2.892   0.468   1.444
 5788SOL    HW218264   2.878   0.437   1.603
 5789SOL     OW18265   2.678   3.131   6.681
 5789SOL    HW118266   2.661   3.161   6.588
 5789SOL    HW218267   2.638   3.196   6.746
 5790SOL     OW18268   6.796   5.449   5.112
 5790SOL    HW118269   6.735   5.495   5.176
 5790SOL    HW218270   6.766   5.354   5.100
 5791SOL     OW18271   2.572   2.059   2.221
 5791SOL    HW118272   2.508   2.114   2.275
 5791SOL    HW218273   2.666   2.077   2.251
 5792SOL     OW18274   5.101   3.689   3.083
 5792SOL    HW118275   5.200   3.690   3.070
 5792SOL    HW218276   5.057   3.738   3.007
 5793SOL     OW18277   5.670   0.762   5.353
 5793SOL    HW118278   5.630   0.852   5.344
 5793SOL    HW218279   5.753   0.756   5.297
 5794SOL     OW18280   3.673   0.294   7.011
 5794SOL    HW118281   3.731   0.243   6.947
 5794SOL    HW218282   3.696   0.268   0.081
 5795SOL     OW18283   0.312   6.943   0.706
 5795SOL    HW118284   0.309   6.972   0.610
 5795SOL    HW218285   0.238   6.879   0.724
 5796SOL     OW18286   4.719   0.731   6.535
 5796SOL    HW118287   4.688   0.703   6.444
 5796SOL    HW218288   4.817   0.715   6.543
 5797SOL     OW18289   5.324   1.105   0.866
 5797SOL    HW118290   5.230   1.127   0.895
 5797SOL    HW218291   5.346   1.156   0.783
 5798SOL     OW18292   0.387   3.563   4.308
 5798SOL    HW118293   0.468   3.545   4.364
 5798SOL    HW218294   0.341   3.476   4.287
 5799SOL     OW18295   0.247   0.175   3.878
 5799SOL    HW118296   0.200   0.160   3.791
 5799SOL    HW218297   0.187   0.225   3.941
 5800SOL     OW18298   0.684   0.180   1.574
 5800SOL    HW118299   0.682   0.257   1.637
 5800SOL    HW218300   0.675   0.095   1.626
 5801SOL     OW18301   2.372   2.523   3.478
 5801SOL    HW118302   2.391   2.538   3.575
 5801SOL    HW218303   2.332   2.432   3.465
 5802SOL     OW18304   6.171   3.379   2.518
 5802SOL    HW118305   6.089   3.407   2.468
 5802SOL    HW218306   6.188   3.282   2.503
 5803SOL     OW18307   1.054   4.478   3.897
 5803SOL    HW118308   0.986   4.549   3.877
 5803SOL    HW218309   1.042   4.445   3.990
 5804SOL     OW18310   6.435   6.120   3.793
 5804SOL    HW118311   6.496   6.165   3.728
 5804SOL    HW218312   6.342   6.119   3.757
 5805SOL     OW18313   1.694   2.798   0.707
 5805SOL    HW118314   1.727   2.892   0.703
 5805SOL    HW218315   1.766   2.736   0.675
 5806SOL     OW18316   6.924   4.674   5.425
 5806SOL    HW118317   6.828   4.683   5.400
 5806SOL    HW218318   6.943   4.579   5.453
 5807SOL     OW18319   1.457   5.616   1.192
 5807SOL    HW118320   1.406   5.677   1.253
 5807SOL    HW218321   1.468   5.661   1.103
 5808SOL     OW18322   6.784   7.018   5.348
 5808SOL    HW118323   6.777   6.995   5.251
 5808SOL    HW218324   6.776   6.934   5.403
 5809SOL     OW18325   6.412   2.443   5.502
 5809SOL    HW118326   6.502   2.487   5.502
 5809SOL    HW218327   6.424   2.344   5.502
 5810SOL     OW18328   3.769   1.328   5.282
 5810SOL    HW118329   3.781   1.329   5.382
 5810SOL    HW218330   3.750   1.421   5.250
 5811SOL     OW18331   2.900   2.022   5.513
 5811SOL    HW118332   2.809   2.058   5.494
 5811SOL    HW218333   2.918   1.944   5.452
 5812SOL     OW18334   5.408   3.989   5.976
 5812SOL    HW118335   5.495   4.039   5.975
 5812SOL    HW218336   5.359   4.010   6.061
 5813SOL     OW18337   3.046   6.509   0.935
 5813SOL    HW118338   3.031   6.474   1.028
 5813SOL    HW218339   2.986   6.459   0.872
 5814SOL     OW18340   6.909   2.821   1.962
 5814SOL    HW118341   6.939   2.841   2.055
 5814SOL    HW218342   6.960   2.743   1.926
 5815SOL     OW18343   4.910   1.757   4.228
 5815SOL    HW118344   4.816   1.737   4.197
 5815SOL    HW218345   4.912   1.846   4.272
 5816SOL     OW18346   6.181   4.951   1.259
 5816SOL    HW118347   6.143   4.997   1.179
 5816SOL    HW218348   6.142   4.992   1.342
 5817SOL     OW18349   6.232   5.637   5.916
 5817SOL    HW118350   6.143   5.601   5.889
 5817SOL    HW218351   6.241   5.633   6.016
 5818SOL     OW18352   0.199   5.854   4.886
 5818SOL    HW118353   0.239   5.892   4.802
 5818SOL    HW218354   0.264   5.864   4.961
 5819SOL     OW18355   3.039   5.150   6.538
 5819SOL    HW118356   3.123   5.197   6.567
 5819SOL    HW218357   3.011   5.086   6.609
 5820SOL     OW18358   3.944   4.789   2.704
 5820SOL    HW118359   4.014   4.791   2.775
 5820SOL    HW218360   3.987   4.791   2.614
 5821SOL     OW18361   6.475   1.061   1.603
 5821SOL    HW118362   6.467   0.964   1.629
 5821SOL    HW218363   6.536   1.069   1.524
 5822SOL     OW18364   1.655   2.690   2.059
 5822SOL    HW118365   1.557   2.670   2.067
 5822SOL    HW218366   1.669   2.763   1.993
 5823SOL     OW18367   2.502   6.654   4.647
 5823SOL    HW118368   2.579   6.705   4.685
 5823SOL    HW218369   2.446   6.714   4.589
 5824SOL     OW18370   0.705   6.765   3.514
 5824SOL    HW118371   0.642   6.690   3.494
 5824SOL    HW218372   0.774   6.733   3.579
 5825SOL     OW18373   0.050   5.795   5.121
 5825SOL    HW118374   0.063   5.841   5.034
 5825SOL    HW218375   6.996   5.836   5.169
 5826SOL     OW18376   0.689   6.820   6.183
 5826SOL    HW118377   0.652   6.898   6.234
 5826SOL    HW218378   0.633   6.804   6.102
 5827SOL     OW18379   1.017   3.726   4.748
 5827SOL    HW118380   1.114   3.748   4.758
 5827SOL    HW218381   0.965   3.775   4.818
 5828SOL     OW18382   4.767   0.775   3.385
 5828SOL    HW118383   4.814   0.687   3.381
 5828SOL    HW218384   4.830   0.846   3.416
 5829SOL     OW18385   1.454   0.469   4.943
 5829SOL    HW118386   1.364   0.424   4.937
 5829SOL    HW218387   1.462   0.514   5.032
 5830SOL     OW18388   4.353   6.870   5.375
 5830SOL    HW118389   4.364   6.961   5.336
 5830SOL    HW218390   4.419   6.807   5.333
 5831SOL     OW18391   1.489   1.752   6.166
 5831SOL    HW118392   1.459   1.846   6.183
 5831SOL    HW218393   1.588   1.748   6.168
 5832SOL     OW18394   3.458   4.162   0.563
 5832SOL    HW118395   3.499   4.102   0.632
 5832SOL    HW218396   3.386   4.113   0.514
 5833SOL     OW18397   3.738   3.022   5.431
 5833SOL    HW118398   3.658   2.965   5.448
 5833SOL    HW218399   3.716   3.117   5.452
 5834SOL     OW18400   6.653   4.047   6.407
 5834SOL    HW118401   6.652   3.948   6.414
 5834SOL    HW218402   6.709   4.086   6.479
 5835SOL     OW18403   6.127   1.829   2.586
 5835SOL    HW118404   6.193   1.811   2.659
 5835SOL    HW218405   6.045   1.872   2.625
 5836SOL     OW18406   2.759   6.759   2.024
 5836SOL    HW118407   2.759   6.859   2.022
 5836SOL    HW218408   2.669   6.725   1.999
 5837SOL     OW18409   4.088   3.247   6.650
 5837SOL    HW118410   4.141   3.331   6.649
 5837SOL    HW218411   4.104   3.199   6.736
 5838SOL     OW18412   3.567   1.278   1.383
 5838SOL    HW118413   3.531   1.197   1.338
 5838SOL    HW218414   3.578   1.260   1.481
 5839SOL     OW18415   0.403   2.433   0.742
 5839SOL    HW118416   0.386   2.531   0.754
 5839SOL    HW218417   0.354   2.401   0.661
 5840SOL     OW18418   0.458   3.775   0.698
 5840SOL    HW118419   0.520   3.731   0.762
 5840SOL    HW218420   0.373   3.800   0.746
 5841SOL     OW18421   5.115   0.355   1.481
 5841SOL    HW118422   5.064   0.306   1.551
 5841SOL    HW218423   5.199   0.304   1.459
 5842SOL     OW18424   4.442   2.279   1.711
 5842SOL    HW118425   4.365   2.255   1.652
 5842SOL    HW218426   4.437   2.376   1.733
 5843SOL     OW18427   1.477   3.666   1.287
 5843SOL    HW118428   1.530   3.593   1.330
 5843SOL    HW218429   1.485   3.659   1.188
 5844SOL     OW18430   1.292   6.280   5.321
 5844SOL    HW118431   1.291   6.372   5.360
 5844SOL    HW218432   1.201   6.238   5.333
 5845SOL     OW18433   0.930   0.246   2.187
 5845SOL    HW118434   0.888   0.196   2.112
 5845SOL    HW218435   0.867   0.248   2.265
 5846SOL     OW18436   5.945   3.923   5.548
 5846SOL    HW118437   6.036   3.926   5.589
 5846SOL    HW218438   5.952   3.948   5.451
 5847SOL     OW18439   2.626   2.434   1.845
 5847SOL    HW118440   2.563   2.498   1.889
 5847SOL    HW218441   2.714   2.435   1.893
 5848SOL     OW18442   1.781   5.777   3.822
 5848SOL    HW118443   1.880   5.772   3.835
 5848SOL    HW218444   1.749   5.694   3.777
 5849SOL     OW18445   1.957   6.846   4.976
 5849SOL    HW118446   1.976   6.781   4.902
 5849SOL    HW218447   2.035   6.908   4.987
 5850SOL     OW18448   0.211   3.316   1.689
 5850SOL    HW118449   0.173   3.408   1.698
 5850SOL    HW218450   0.256   3.308   1.600
 5851SOL     OW18451   5.203   3.326   3.703
 5851SOL    HW118452   5.246   3.258   3.762
 5851SOL    HW218453   5.261   3.408   3.700
 5852SOL     OW18454   4.751   6.136   2.411
 5852SOL    HW118455   4.687   6.135   2.334
 5852SOL    HW218456   4.700   6.153   2.496
 5853SOL     OW18457   4.244   5.773   6.024
 5853SOL    HW118458   4.297   5.812   6.099
 5853SOL    HW218459   4.204   5.686   6.054
 5854SOL     OW18460   4.074   4.371   5.658
 5854SOL    HW118461   4.166   4.336   5.641
 5854SOL    HW218462   4.010   4.329   5.594
 5855SOL     OW18463   1.410   2.264   4.727
 5855SOL    HW118464   1.459   2.182   4.698
 5855SOL    HW218465   1.472   2.343   4.724
 5856SOL     OW18466   1.016   6.490   2.842
 5856SOL    HW118467   1.023   6.590   2.837
 5856SOL    HW218468   1.062   6.458   2.924
 5857SOL     OW18469   6.514   3.289   5.231
 5857SOL    HW118470   6.481   3.309   5.323
 5857SOL    HW218471   6.604   3.331   5.218
 5858SOL     OW18472   2.219   2.580   3.008
 5858SOL    HW118473   2.260   2.574   2.917
 5858SOL    HW218474   2.291   2.588   3.076
 5859SOL     OW18475   6.278   6.204   1.446
 5859SOL    HW118476   6.268   6.162   1.356
 5859SOL    HW218477   6.225   6.289   1.449
 5860SOL     OW18478   0.735   4.893   2.954
 5860SOL    HW118479   0.650   4.844   2.937
 5860SOL    HW218480   0.777   4.917   2.867
 5861SOL     OW18481   4.628   0.608   4.785
 5861SOL    HW118482   4.602   0.563   4.871
 5861SOL    HW218483   4.714   0.656   4.797
 5862SOL     OW18484   6.252   5.482   1.644
 5862SOL    HW118485   6.285   5.388   1.654
 5862SOL    HW218486   6.301   5.541   1.708
 5863SOL     OW18487   3.131   1.907   4.943
 5863SOL    HW118488   3.189   1.984   4.916
 5863SOL    HW218489   3.055   1.941   4.998
 5864SOL     OW18490   3.847   3.629   2.248
 5864SOL    HW118491   3.815   3.535   2.260
 5864SOL    HW218492   3.882   3.640   2.155
 5865SOL     OW18493   5.389   0.760   5.109
 5865SOL    HW118494   5.462   0.828   5.104
 5865SOL    HW218495   5.317   0.793   5.170
 5866SOL     OW18496   3.196   2.694   1.190
 5866SOL    HW118497   3.275   2.633   1.196
 5866SOL    HW218498   3.225   2.789   1.199
 5867SOL     OW18499   1.822   2.895   1.624
 5867SOL    HW118500   1.754   2.932   1.561
 5867SOL    HW218501   1.904   2.952   1.622
 5868SOL     OW18502   1.418   1.692   5.887
 5868SOL    HW118503   1.453   1.673   5.979
 5868SOL    HW218504   1.415   1.791   5.873
 5869SOL     OW18505   2.016   4.234   3.138
 5869SOL    HW118506   2.102   4.205   3.179
 5869SOL    HW218507   1.942   4.173   3.170
 5870SOL     OW18508   4.372   5.744   5.365
 5870SOL    HW118509   4.372   5.727   5.266
 5870SOL    HW218510   4.452   5.701   5.406
 5871SOL     OW18511   4.042   3.225   2.043
 5871SOL    HW118512   4.068   3.206   1.948
 5871SOL    HW218513   3.944   3.210   2.055
 5872SOL     OW18514   4.198   6.750   0.995
 5872SOL    HW118515   4.101   6.729   0.994
 5872SOL    HW218516   4.250   6.667   1.016
 5873SOL     OW18517   3.043   6.615   2.454
 5873SOL    HW118518   3.062   6.579   2.362
 5873SOL    HW218519   3.123   6.600   2.512
 5874SOL     OW18520   2.095   4.401   4.498
 5874SOL    HW118521   2.113   4.345   4.417
 5874SOL    HW218522   2.180   4.416   4.549
 5875SOL     OW18523   3.739   2.175   0.554
 5875SOL    HW118524   3.790   2.119   0.489
 5875SOL    HW218525   3.671   2.117   0.600
 5876SOL     OW18526   4.132   3.509   1.990
 5876SOL    HW118527   4.107   3.414   2.005
 5876SOL    HW218528   4.129   3.558   2.077
 5877SOL     OW18529   6.115   6.243   0.984
 5877SOL    HW118530   6.095   6.261   0.888
 5877SOL    HW218531   6.213   6.225   0.995
 5878SOL     OW18532   0.341   6.355   4.111
 5878SOL    HW118533   0.439   6.363   4.090
 5878SOL    HW218534   0.289   6.350   4.026
 5879SOL     OW18535   1.493   3.671   6.918
 5879SOL    HW118536   1.488   3.765   6.952
 5879SOL    HW218537   1.447   3.665   6.830
 5880SOL     OW18538   3.776   4.236   0.077
 5880SOL    HW118539   3.782   4.137   0.088
 5880SOL    HW218540   3.817   4.280   0.157
 5881SOL     OW18541   6.941   5.574   2.910
 5881SOL    HW118542   6.854   5.525   2.916
 5881SOL    HW218543   6.979   5.563   2.819
 5882SOL     OW18544   6.975   6.207   1.009
 5882SOL    HW118545   6.994   6.170   1.100
 5882SOL    HW218546   6.906   6.279   1.015
 5883SOL     OW18547   0.693   1.943   6.827
 5883SOL    HW118548   0.782   1.969   6.790
 5883SOL    HW218549   0.632   1.917   6.752
 5884SOL     OW18550   2.752   1.671   3.828
 5884SOL    HW118551   2.703   1.602   3.882
 5884SOL    HW218552   2.685   1.732   3.785
 5885SOL     OW18553   0.050   0.666   2.696
 5885SOL    HW118554   0.001   0.708   2.772
 5885SOL    HW218555   7.018   0.591   2.658
 5886SOL     OW18556   0.649   2.129   5.111
 5886SOL    HW118557   0.708   2.190   5.058
 5886SOL    HW218558   0.613   2.058   5.051
 5887SOL     OW18559   3.128   1.216   3.672
 5887SOL    HW118560   3.114   1.129   3.627
 5887SOL    HW218561   3.212   1.214   3.725
 5888SOL     OW18562   3.075   0.855   2.120
 5888SOL    HW118563   3.014   0.808   2.056
 5888SOL    HW218564   3.072   0.807   2.208
 5889SOL     OW18565   0.949   6.425   1.150
 5889SOL    HW118566   0.919   6.442   1.057
 5889SOL    HW218567   1.036   6.472   1.166
 5890SOL     OW18568   1.387   0.084   4.741
 5890SOL    HW118569   1.381   7.021   4.792
 5890SOL    HW218570   1.298   0.129   4.741
 5891SOL     OW18571   2.827   3.215   6.150
 5891SOL    HW118572   2.751   3.250   6.204
 5891SOL    HW218573   2.818   3.116   6.138
 5892SOL     OW18574   0.516   5.621   1.097
 5892SOL    HW118575   0.454   5.582   1.166
 5892SOL    HW218576   0.598   5.655   1.143
 5893SOL     OW18577   1.606   4.234   4.200
 5893SOL    HW118578   1.520   4.278   4.226
 5893SOL    HW218579   1.680   4.270   4.257
 5894SOL     OW18580   0.303   5.746   4.368
 5894SOL    HW118581   0.358   5.799   4.304
 5894SOL    HW218582   0.344   5.751   4.459
 5895SOL     OW18583   5.327   3.529   4.191
 5895SOL    HW118584   5.408   3.472   4.200
 5895SOL    HW218585   5.247   3.472   4.172
 5896SOL     OW18586   4.340   1.140   0.481
 5896SOL    HW118587   4.434   1.143   0.515
 5896SOL    HW218588   4.340   1.127   0.382
 5897SOL     OW18589   4.100   0.609   1.213
 5897SOL    HW118590   4.104   0.564   1.124
 5897SOL    HW218591   4.157   0.691   1.211
 5898SOL     OW18592   2.471   6.437   3.088
 5898SOL    HW118593   2.488   6.341   3.069
 5898SOL    HW218594   2.525   6.494   3.025
 5899SOL     OW18595   4.908   6.555   5.820
 5899SOL    HW118596   4.924   6.627   5.887
 5899SOL    HW218597   4.976   6.483   5.831
 5900SOL     OW18598   5.049   5.106   3.535
 5900SOL    HW118599   5.088   5.092   3.445
 5900SOL    HW218600   5.033   5.204   3.550
 5901SOL     OW18601   2.851   0.205   0.145
 5901SOL    HW118602   2.844   0.105   0.146
 5901SOL    HW218603   2.936   0.233   0.189
 5902SOL     OW18604   7.001   2.300   6.555
 5902SOL    HW118605   0.031   2.329   6.635
 5902SOL    HW218606   0.034   2.310   6.473
 5903SOL     OW18607   4.251   3.260   1.039
 5903SOL    HW118608   4.210   3.171   1.018
 5903SOL    HW218609   4.279   3.305   0.954
 5904SOL     OW18610   1.035   3.317   1.539
 5904SOL    HW118611   0.979   3.302   1.458
 5904SOL    HW218612   0.982   3.368   1.607
 5905SOL     OW18613   5.869   6.266   2.983
 5905SOL    HW118614   5.891   6.249   2.886
 5905SOL    HW218615   5.870   6.180   3.033
 5906SOL     OW18616   4.415   1.976   3.887
 5906SOL    HW118617   4.436   2.049   3.822
 5906SOL    HW218618   4.367   2.015   3.966
 5907SOL     OW18619   1.725   5.250   1.452
 5907SOL    HW118620   1.659   5.266   1.525
 5907SOL    HW218621   1.743   5.335   1.404
 5908SOL     OW18622   0.563   2.585   6.799
 5908SOL    HW118623   0.653   2.542   6.789
 5908SOL    HW218624   0.547   2.647   6.721
 5909SOL     OW18625   6.856   5.145   1.052
 5909SOL    HW118626   6.926   5.117   0.987
 5909SOL    HW218627   6.896   5.205   1.121
 5910SOL     OW18628   0.776   3.035   3.431
 5910SOL    HW118629   0.855   2.988   3.391
 5910SOL    HW218630   0.795   3.058   3.526
 5911SOL     OW18631   6.153   6.696   6.488
 5911SOL    HW118632   6.082   6.691   6.558
 5911SOL    HW218633   6.129   6.768   6.422
 5912SOL     OW18634   6.969   0.504   5.777
 5912SOL    HW118635   6.954   0.551   5.691
 5912SOL    HW218636   6.893   0.522   5.839
 5913SOL     OW18637   4.802   2.624   6.497
 5913SOL    HW118638   4.862   2.558   6.542
 5913SOL    HW218639   4.708   2.613   6.531
 5914SOL     OW18640   1.331   5.457   6.899
 5914SOL    HW118641   1.243   5.424   6.934
 5914SOL    HW218642   1.358   5.401   6.820
 5915SOL     OW18643   4.726   5.786   1.586
 5915SOL    HW118644   4.682   5.869   1.619
 5915SOL    HW218645   4.729   5.787   1.486
 5916SOL     OW18646   6.177   6.219   3.127
 5916SOL    HW118647   6.275   6.204   3.121
 5916SOL    HW218648   6.159   6.315   3.150
 5917SOL     OW18649   3.190   4.090   4.436
 5917SOL    HW118650   3.156   4.126   4.524
 5917SOL    HW218651   3.128   4.019   4.403
 5918SOL     OW18652   2.226   4.617   5.260
 5918SOL    HW118653   2.268   4.541   5.211
 5918SOL    HW218654   2.294   4.688   5.277
 5919SOL     OW18655   3.028   3.129   3.064
 5919SOL    HW118656   3.009   3.106   2.968
 5919SOL    HW218657   3.103   3.195   3.068
 5920SOL     OW18658   5.081   0.848   6.303
 5920SOL    HW118659   5.025   0.918   6.259
 5920SOL    HW218660   5.087   0.866   6.401
 5921SOL     OW18661   4.251   5.159   6.637
 5921SOL    HW118662   4.269   5.066   6.607
 5921SOL    HW218663   4.266   5.223   6.561
 5922SOL     OW18664   5.843   4.051   4.334
 5922SOL    HW118665   5.873   4.131   4.387
 5922SOL    HW218666   5.746   4.061   4.312
 5923SOL     OW18667   6.916   1.872   1.953
 5923SOL    HW118668   6.954   1.960   1.927
 5923SOL    HW218669   6.900   1.817   1.871
 5924SOL     OW18670   6.114   0.154   2.675
 5924SOL    HW118671   6.072   0.107   2.753
 5924SOL    HW218672   6.182   0.094   2.633
 5925SOL     OW18673   3.186   6.540   1.945
 5925SOL    HW118674   3.129   6.611   1.987
 5925SOL    HW218675   3.160   6.531   1.849
 5926SOL     OW18676   3.649   5.031   2.408
 5926SOL    HW118677   3.565   5.079   2.432
 5926SOL    HW218678   3.680   4.976   2.485
 5927SOL     OW18679   0.805   5.054   2.208
 5927SOL    HW118680   0.863   5.134   2.195
 5927SOL    HW218681   0.825   4.987   2.136
 5928SOL     OW18682   3.452   6.768   0.632
 5928SOL    HW118683   3.422   6.689   0.579
 5928SOL    HW218684   3.384   6.841   0.624
 5929SOL     OW18685   6.236   0.403   5.932
 5929SOL    HW118686   6.302   0.331   5.952
 5929SOL    HW218687   6.145   0.375   5.963
 5930SOL     OW18688   0.059   3.612   3.557
 5930SOL    HW118689   0.101   3.687   3.507
 5930SOL    HW218690   6.993   3.641   3.593
 5931SOL     OW18691   6.292   6.481   3.291
 5931SOL    HW118692   6.338   6.527   3.367
 5931SOL    HW218693   6.207   6.528   3.269
 5932SOL     OW18694   3.420   0.173   0.491
 5932SOL    HW118695   3.517   0.163   0.513
 5932SOL    HW218696   3.403   0.265   0.455
 5933SOL     OW18697   6.599   5.113   4.329
 5933SOL    HW118698   6.536   5.036   4.317
 5933SOL    HW218699   6.556   5.183   4.387
 5934SOL     OW18700   3.859   2.934   4.983
 5934SOL    HW118701   3.818   2.952   4.894
 5934SOL    HW218702   3.928   2.861   4.973
 5935SOL     OW18703   7.021   4.804   6.353
 5935SOL    HW118704   7.000   4.805   6.451
 5935SOL    HW218705   0.096   4.817   6.340
 5936SOL     OW18706   3.351   3.122   1.464
 5936SOL    HW118707   3.426   3.135   1.399
 5936SOL    HW218708   3.385   3.071   1.543
 5937SOL     OW18709   5.915   3.445   1.746
 5937SOL    HW118710   5.920   3.466   1.649
 5937SOL    HW218711   5.950   3.352   1.762
 5938SOL     OW18712   6.107   5.587   3.578
 5938SOL    HW118713   6.051   5.505   3.591
 5938SOL    HW218714   6.097   5.647   3.657
 5939SOL     OW18715   2.554   5.736   3.945
 5939SOL    HW118716   2.512   5.774   4.027
 5939SOL    HW218717   2.632   5.792   3.918
 5940SOL     OW18718   4.652   5.168   3.013
 5940SOL    HW118719   4.691   5.153   2.922
 5940SOL    HW218720   4.594   5.091   3.038
 5941SOL     OW18721   5.828   3.414   2.119
 5941SOL    HW118722   5.864   3.484   2.058
 5941SOL    HW218723   5.728   3.417   2.118
 5942SOL     OW18724   5.213   3.893   6.571
 5942SOL    HW118725   5.213   3.819   6.504
 5942SOL    HW218726   5.172   3.975   6.530
 5943SOL     OW18727   3.283   3.910   6.137
 5943SOL    HW118728   3.224   3.933   6.214
 5943SOL    HW218729   3.301   3.812   6.136
 5944SOL     OW18730   0.160   2.187   0.141
 5944SOL    HW118731   0.103   2.171   0.061
 5944SOL    HW218732   0.174   2.101   0.190
 5945SOL     OW18733   6.824   4.855   4.999
 5945SOL    HW118734   6.817   4.928   4.931
 5945SOL    HW218735   6.879   4.887   5.076
 5946SOL     OW18736   3.316   3.551   6.306
 5946SOL    HW118737   3.339   3.586   6.215
 5946SOL    HW218738   3.285   3.627   6.363
 5947SOL     OW18739   3.195   3.669   3.209
 5947SOL    HW118740   3.160   3.759   3.186
 5947SOL    HW218741   3.265   3.642   3.142
 5948SOL     OW18742   3.483   4.970   2.752
 5948SOL    HW118743   3.457   4.952   2.847
 5948SOL    HW218744   3.416   4.928   2.691
 5949SOL     OW18745   4.942   4.565   1.567
 5949SOL    HW118746   4.859   4.521   1.602
 5949SOL    HW218747   5.021   4.531   1.618
 5950SOL     OW18748   5.719   2.005   4.646
 5950SOL    HW118749   5.816   1.984   4.645
 5950SOL    HW218750   5.675   1.964   4.566
 5951SOL     OW18751   1.128   5.333   4.379
 5951SOL    HW118752   1.032   5.342   4.351
 5951SOL    HW218753   1.136   5.262   4.448
 5952SOL     OW18754   5.008   5.870   3.420
 5952SOL    HW118755   4.952   5.945   3.456
 5952SOL    HW218756   4.948   5.799   3.383
 5953SOL     OW18757   6.770   4.226   5.228
 5953SOL    HW118758   6.758   4.284   5.148
 5953SOL    HW218759   6.844   4.161   5.211
 5954SOL     OW18760   6.994   5.204   5.437
 5954SOL    HW118761   6.974   5.107   5.432
 5954SOL    HW218762   0.025   5.232   5.357
 5955SOL     OW18763   4.653   5.552   1.949
 5955SOL    HW118764   4.612   5.616   2.014
 5955SOL    HW218765   4.582   5.518   1.887
 5956SOL     OW18766   5.437   1.756   3.916
 5956SOL    HW118767   5.521   1.808   3.931
 5956SOL    HW218768   5.386   1.749   4.001
 5957SOL     OW18769   3.128   1.694   4.538
 5957SOL    HW118770   3.131   1.611   4.483
 5957SOL    HW218771   3.208   1.751   4.517
 5958SOL     OW18772   4.277   6.987   2.432
 5958SOL    HW118773   4.229   0.051   2.441
 5958SOL    HW218774   4.294   6.948   2.522
 5959SOL     OW18775   4.555   2.844   5.543
 5959SOL    HW118776   4.480   2.810   5.600
 5959SOL    HW218777   4.627   2.880   5.601
 5960SOL     OW18778   3.508   5.696   4.954
 5960SOL    HW118779   3.591   5.743   4.923
 5960SOL    HW218780   3.431   5.723   4.896
 5961SOL     OW18781   4.717   1.808   3.109
 5961SOL    HW118782   4.650   1.761   3.166
 5961SOL    HW218783   4.786   1.743   3.078
 5962SOL     OW18784   5.663   6.314   6.658
 5962SOL    HW118785   5.684   6.398   6.609
 5962SOL    HW218786   5.671   6.236   6.595
 5963SOL     OW18787   2.824   3.493   6.406
 5963SOL    HW118788   2.779   3.579   6.381
 5963SOL    HW218789   2.909   3.483   6.356
 5964SOL     OW18790   1.349   6.654   4.817
 5964SOL    HW118791   1.355   6.624   4.912
 5964SOL    HW218792   1.316   6.579   4.760
 5965SOL     OW18793   2.075   1.251   6.815
 5965SOL    HW118794   1.978   1.272   6.804
 5965SOL    HW218795   2.112   1.302   6.893
 5966SOL     OW18796   2.562   6.188   6.542
 5966SOL    HW118797   2.522   6.279   6.529
 5966SOL    HW218798   2.657   6.197   6.572
 5967SOL     OW18799   2.422   0.405   5.684
 5967SOL    HW118800   2.492   0.435   5.620
 5967SOL    HW218801   2.459   0.406   5.777
 5968SOL     OW18802   5.498   2.363   0.436
 5968SOL    HW118803   5.431   2.436   0.447
 5968SOL    HW218804   5.585   2.390   0.477
 5969SOL     OW18805   5.935   0.433   6.532
 5969SOL    HW118806   5.911   0.510   6.473
 5969SOL    HW218807   6.029   0.404   6.513
 5970SOL     OW18808   6.796   4.612   1.959
 5970SOL    HW118809   6.867   4.640   1.895
 5970SOL    HW218810   6.802   4.667   2.042
 5971SOL     OW18811   7.010   0.835   1.772
 5971SOL    HW118812   0.032   0.821   1.860
 5971SOL    HW218813   0.050   0.876   1.707
 5972SOL     OW18814   4.720   5.884   6.422
 5972SOL    HW118815   4.745   5.906   6.328
 5972SOL    HW218816   4.762   5.798   6.449
 5973SOL     OW18817   1.792   2.709   2.323
 5973SOL    HW118818   1.839   2.795   2.299
 5973SOL    HW218819   1.723   2.689   2.255
 5974SOL     OW18820   5.098   6.248   0.331
 5974SOL    HW118821   5.186   6.261   0.376
 5974SOL    HW218822   5.111   6.242   0.232
 5975SOL     OW18823   3.752   7.009   0.890
 5975SOL    HW118824   3.793   6.918   0.898
 5975SOL    HW218825   3.655   7.000   0.872
 5976SOL     OW18826   3.951   2.860   5.587
 5976SOL    HW118827   3.918   2.869   5.493
 5976SOL    HW218828   3.999   2.773   5.597
 5977SOL     OW18829   1.174   6.111   0.692
 5977SOL    HW118830   1.075   6.096   0.683
 5977SOL    HW218831   1.206   6.168   0.616
 5978SOL     OW18832   3.390   5.447   1.543
 5978SOL    HW118833   3.483   5.462   1.509
 5978SOL    HW218834   3.374   5.349   1.554
 5979SOL     OW18835   6.822   0.766   3.060
 5979SOL    HW118836   6.752   0.694   3.061
 5979SOL    HW218837   6.778   0.855   3.061
 5980SOL     OW18838   3.938   4.101   1.704
 5980SOL    HW118839   3.919   4.199   1.709
 5980SOL    HW218840   3.854   4.053   1.678
 5981SOL     OW18841   5.047   1.606   0.663
 5981SOL    HW118842   5.017   1.626   0.570
 5981SOL    HW218843   5.133   1.651   0.682
 5982SOL     OW18844   6.578   2.115   2.650
 5982SOL    HW118845   6.509   2.117   2.577
 5982SOL    HW218846   6.632   2.199   2.646
 5983SOL     OW18847   0.972   1.322   4.730
 5983SOL    HW118848   0.986   1.332   4.631
 5983SOL    HW218849   0.874   1.322   4.750
 5984SOL     OW18850   5.443   6.092   3.359
 5984SOL    HW118851   5.521   6.065   3.415
 5984SOL    HW218852   5.469   6.168   3.299
 5985SOL     OW18853   6.940   2.921   3.628
 5985SOL    HW118854   6.958   2.831   3.589
 5985SOL    HW218855   6.918   2.985   3.554
 5986SOL     OW18856   2.924   3.924   4.911
 5986SOL    HW118857   2.877   3.986   4.848
 5986SOL    HW218858   2.886   3.935   5.003
 5987SOL     OW18859   5.121   0.390   4.703
 5987SOL    HW118860   5.147   0.303   4.746
 5987SOL    HW218861   5.202   0.436   4.669
 5988SOL     OW18862   4.569   0.926   5.507
 5988SOL    HW118863   4.541   0.833   5.483
 5988SOL    HW218864   4.496   0.969   5.560
 5989SOL     OW18865   2.007   5.583   6.155
 5989SOL    HW118866   1.948   5.663   6.168
 5989SOL    HW218867   1.964   5.521   6.090
 5990SOL     OW18868   3.928   3.265   0.470
 5990SOL    HW118869   3.866   3.331   0.511
 5990SOL    HW218870   3.876   3.201   0.414
 5991SOL     OW18871   3.922   5.449   6.899
 5991SOL    HW118872   3.957   5.508   6.826
 5991SOL    HW218873   3.853   5.498   6.951
 5992SOL     OW18874   3.237   0.150   1.855
 5992SOL    HW118875   3.169   0.128   1.785
 5992SOL    HW218876   3.196   0.213   1.922
 5993SOL     OW18877   3.947   4.056   5.793
 5993SOL    HW118878   3.969   4.149   5.825
 5993SOL    HW218879   3.872   4.019   5.849
 5994SOL     OW18880   6.853   2.185   0.353
 5994SOL    HW118881   6.775   2.222   0.402
 5994SOL    HW218882   6.890   2.107   0.403
 5995SOL     OW18883   4.918   3.069   2.204
 5995SOL    HW118884   4.989   3.131   2.171
 5995SOL    HW218885   4.852   3.053   2.130
 5996SOL     OW18886   0.315   6.476   0.466
 5996SOL    HW118887   0.278   6.406   0.527
 5996SOL    HW218888   0.392   6.522   0.512
 5997SOL     OW18889   0.500   5.033   2.586
 5997SOL    HW118890   0.566   4.958   2.578
 5997SOL    HW218891   0.541   5.108   2.639
 5998SOL     OW18892   6.345   1.599   2.280
 5998SOL    HW118893   6.356   1.689   2.238
 5998SOL    HW218894   6.263   1.599   2.338
 5999SOL     OW18895   2.886   3.601   1.517
 5999SOL    HW118896   2.922   3.627   1.607
 5999SOL    HW218897   2.920   3.664   1.448
 6000SOL     OW18898   2.089   6.122   6.793
 6000SOL    HW118899   2.005   6.077   6.823
 6000SOL    HW218900   2.162   6.101   6.858
 6001SOL     OW18901   0.024   5.015   6.712
 6001SOL    HW118902   6.990   5.005   6.794
 6001SOL    HW218903   7.003   5.078   6.648
 6002SOL     OW18904   5.629   0.164   0.003
 6002SOL    HW118905   5.565   0.088   0.006
 6002SOL    HW218906   5.671   0.169   6.936
 6003SOL     OW18907   5.496   2.360   4.695
 6003SOL    HW118908   5.530   2.396   4.782
 6003SOL    HW218909   5.571   2.316   4.646
 6004SOL     OW18910   6.700   3.862   3.220
 6004SOL    HW118911   6.717   3.936   3.285
 6004SOL    HW218912   6.722   3.774   3.264
 6005SOL     OW18913   5.323   5.557   4.677
 6005SOL    HW118914   5.227   5.576   4.657
 6005SOL    HW218915   5.337   5.458   4.682
 6006SOL     OW18916   2.242   0.798   5.310
 6006SOL    HW118917   2.251   0.753   5.399
 6006SOL    HW218918   2.303   0.753   5.244
 6007SOL     OW18919   6.131   3.788   5.925
 6007SOL    HW118920   6.222   3.779   5.964
 6007SOL    HW218921   6.096   3.880   5.942
 6008SOL     OW18922   2.757   5.315   5.585
 6008SOL    HW118923   2.812   5.232   5.576
 6008SOL    HW218924   2.664   5.291   5.611
 6009SOL     OW18925   3.490   0.462   3.674
 6009SOL    HW118926   3.577   0.423   3.704
 6009SOL    HW218927   3.435   0.486   3.753
 6010SOL     OW18928   1.400   5.069   3.862
 6010SOL    HW118929   1.462   5.093   3.937
 6010SOL    HW218930   1.322   5.017   3.899
 6011SOL     OW18931   5.851   3.057   3.616
 6011SOL    HW118932   5.814   3.109   3.692
 6011SOL    HW218933   5.880   2.967   3.649
 6012SOL     OW18934   6.040   1.072   0.969
 6012SOL    HW118935   6.014   1.160   1.010
 6012SOL    HW218936   6.000   1.065   0.878
 6013SOL     OW18937   4.685   0.904   2.707
 6013SOL    HW118938   4.696   0.984   2.766
 6013SOL    HW218939   4.587   0.887   2.692
 6014SOL     OW18940   3.791   3.943   3.482
 6014SOL    HW118941   3.715   3.941   3.417
 6014SOL    HW218942   3.756   3.949   3.575
 6015SOL     OW18943   5.553   4.119   4.329
 6015SOL    HW118944   5.533   4.213   4.300
 6015SOL    HW218945   5.499   4.097   4.410
 6016SOL     OW18946   6.784   2.125   6.103
 6016SOL    HW118947   6.757   2.029   6.105
 6016SOL    HW218948   6.834   2.148   6.187
 6017SOL     OW18949   6.184   4.912   3.976
 6017SOL    HW118950   6.108   4.856   3.942
 6017SOL    HW218951   6.270   4.866   3.955
 6018SOL     OW18952   3.706   1.312   6.223
 6018SOL    HW118953   3.697   1.255   6.305
 6018SOL    HW218954   3.691   1.407   6.247
 6019SOL     OW18955   0.685   2.781   5.020
 6019SOL    HW118956   0.753   2.727   5.069
 6019SOL    HW218957   0.723   2.871   4.999
 6020SOL     OW18958   0.412   4.929   0.202
 6020SOL    HW118959   0.493   4.902   0.149
 6020SOL    HW218960   0.342   4.966   0.140
 6021SOL     OW18961   4.550   0.782   3.215
 6021SOL    HW118962   4.643   0.782   3.252
 6021SOL    HW218963   4.552   0.750   3.120
 6022SOL     OW18964   6.834   1.929   3.590
 6022SOL    HW118965   6.769   1.987   3.541
 6022SOL    HW218966   6.905   1.986   3.631
 6023SOL     OW18967   5.366   1.265   1.889
 6023SOL    HW118968   5.427   1.234   1.816
 6023SOL    HW218969   5.359   1.365   1.886
 6024SOL     OW18970   1.358   4.208   1.859
 6024SOL    HW118971   1.300   4.131   1.884
 6024SOL    HW218972   1.304   4.275   1.808
 6025SOL     OW18973   3.173   1.761   3.195
 6025SOL    HW118974   3.209   1.698   3.126
 6025SOL    HW218975   3.239   1.768   3.270
 6026SOL     OW18976   0.331   5.075   5.643
 6026SOL    HW118977   0.290   5.166   5.632
 6026SOL    HW218978   0.283   5.026   5.716
 6027SOL     OW18979   0.150   3.355   6.050
 6027SOL    HW118980   0.180   3.449   6.066
 6027SOL    HW218981   0.124   3.344   5.954
 6028SOL     OW18982   5.814   4.804   0.845
 6028SOL    HW118983   5.898   4.853   0.824
 6028SOL    HW218984   5.816   4.771   0.939
 6029SOL     OW18985   2.815   6.211   4.092
 6029SOL    HW118986   2.777   6.189   4.002
 6029SOL    HW218987   2.909   6.178   4.097
 6030SOL     OW18988   4.243   5.031   3.051
 6030SOL    HW118989   4.284   5.121   3.040
 6030SOL    HW218990   4.160   5.038   3.106
 6031SOL     OW18991   3.297   5.427   4.402
 6031SOL    HW118992   3.360   5.504   4.390
 6031SOL    HW218993   3.319   5.356   4.335
 6032SOL     OW18994   2.207   4.841   2.214
 6032SOL    HW118995   2.254   4.810   2.132
 6032SOL    HW218996   2.258   4.812   2.295
 6033SOL     OW18997   2.168   2.329   3.461
 6033SOL    HW118998   2.137   2.299   3.551
 6033SOL    HW218999   2.091   2.366   3.410
 6034SOL     OW19000   1.022   0.941   5.182
 6034SOL    HW119001   1.011   0.907   5.089
 6034SOL    HW219002   1.104   0.999   5.187
 6035SOL     OW19003   1.215   0.933   1.736
 6035SOL    HW119004   1.302   0.887   1.753
 6035SOL    HW219005   1.217   1.024   1.777
 6036SOL     OW19006   4.950   5.549   2.483
 6036SOL    HW119007   5.036   5.594   2.461
 6036SOL    HW219008   4.912   5.508   2.400
 6037SOL     OW19009   3.885   0.378   0.628
 6037SOL    HW119010   3.905   0.323   0.709
 6037SOL    HW219011   3.809   0.337   0.578
 6038SOL     OW19012   1.403   3.138   5.926
 6038SOL    HW119013   1.442   3.200   5.857
 6038SOL    HW219014   1.429   3.044   5.905
 6039SOL     OW19015   3.578   2.934   3.193
 6039SOL    HW119016   3.611   2.885   3.113
 6039SOL    HW219017   3.584   3.033   3.178
 6040SOL     OW19018   1.629   2.367   1.038
 6040SOL    HW119019   1.588   2.389   1.126
 6040SOL    HW219020   1.582   2.289   0.997
 6041SOL     OW19021   3.141   1.358   5.407
 6041SOL    HW119022   3.217   1.317   5.458
 6041SOL    HW219023   3.062   1.370   5.467
 6042SOL     OW19024   4.408   6.800   2.643
 6042SOL    HW119025   4.438   6.712   2.606
 6042SOL    HW219026   4.372   6.787   2.736
 6043SOL     OW19027   0.968   6.618   5.440
 6043SOL    HW119028   0.913   6.578   5.366
 6043SOL    HW219029   0.944   6.714   5.451
 6044SOL     OW19030   1.805   2.690   1.211
 6044SOL    HW119031   1.844   2.695   1.303
 6044SOL    HW219032   1.725   2.629   1.213
 6045SOL     OW19033   5.948   3.755   3.116
 6045SOL    HW119034   5.900   3.705   3.044
 6045SOL    HW219035   6.010   3.693   3.164
 6046SOL     OW19036   3.441   2.689   1.574
 6046SOL    HW119037   3.363   2.630   1.557
 6046SOL    HW219038   3.493   2.653   1.652
 6047SOL     OW19039   5.130   2.130   1.828
 6047SOL    HW119040   5.151   2.170   1.918
 6047SOL    HW219041   5.031   2.124   1.817
 6048SOL     OW19042   4.776   5.194   5.288
 6048SOL    HW119043   4.853   5.257   5.285
 6048SOL    HW219044   4.809   5.101   5.301
 6049SOL     OW19045   4.602   3.509   6.932
 6049SOL    HW119046   4.581   3.596   6.976
 6049SOL    HW219047   4.517   3.458   6.916
 6050SOL     OW19048   2.786   4.488   5.931
 6050SOL    HW119049   2.839   4.531   6.004
 6050SOL    HW219050   2.784   4.549   5.852
 6051SOL     OW19051   1.969   0.247   3.110
 6051SOL    HW119052   2.047   0.185   3.096
 6051SOL    HW219053   2.002   0.332   3.152
 6052SOL     OW19054   5.415   1.109   1.129
 6052SOL    HW119055   5.417   1.207   1.144
 6052SOL    HW219056   5.381   1.089   1.037
 6053SOL     OW19057   4.135   1.244   6.002
 6053SOL    HW119058   4.146   1.247   6.101
 6053SOL    HW219059   4.040   1.266   5.978
 6054SOL     OW19060   2.651   3.139   0.109
 6054SOL    HW119061   2.739   3.115   0.068
 6054SOL    HW219062   2.654   3.235   0.138
 6055SOL     OW19063   5.341   6.883   5.554
 6055SOL    HW119064   5.300   6.890   5.645
 6055SOL    HW219065   5.388   6.795   5.546
 6056SOL     OW19066   4.980   3.516   5.250
 6056SOL    HW119067   4.957   3.437   5.307
 6056SOL    HW219068   4.912   3.525   5.177
 6057SOL     OW19069   0.042   1.109   2.469
 6057SOL    HW119070   6.968   1.132   2.465
 6057SOL    HW219071   0.097   1.190   2.452
 6058SOL     OW19072   5.547   4.034   1.177
 6058SOL    HW119073   5.541   4.037   1.077
 6058SOL    HW219074   5.516   3.945   1.210
 6059SOL     OW19075   4.606   5.400   6.308
 6059SOL    HW119076   4.660   5.413   6.225
 6059SOL    HW219077   4.645   5.325   6.362
 6060SOL     OW19078   2.669   3.298   5.847
 6060SOL    HW119079   2.670   3.328   5.942
 6060SOL    HW219080   2.710   3.207   5.839
 6061SOL     OW19081   5.218   3.314   0.589
 6061SOL    HW119082   5.190   3.270   0.674
 6061SOL    HW219083   5.137   3.334   0.534
 6062SOL     OW19084   2.679   1.363   5.805
 6062SOL    HW119085   2.722   1.426   5.870
 6062SOL    HW219086   2.614   1.305   5.854
 6063SOL     OW19087   4.464   2.276   6.514
 6063SOL    HW119088   4.401   2.199   6.526
 6063SOL    HW219089   4.546   2.244   6.465
 6064SOL     OW19090   0.939   0.499   0.877
 6064SOL    HW119091   0.911   0.483   0.782
 6064SOL    HW219092   0.870   0.554   0.923
 6065SOL     OW19093   1.015   6.011   2.786
 6065SOL    HW119094   1.104   5.970   2.805
 6065SOL    HW219095   0.952   5.989   2.861
 6066SOL     OW19096   5.326   1.878   5.287
 6066SOL    HW119097   5.370   1.788   5.280
 6066SOL    HW219098   5.282   1.887   5.377
 6067SOL     OW19099   5.228   0.790   6.007
 6067SOL    HW119100   5.218   0.889   6.016
 6067SOL    HW219101   5.250   0.750   6.096
 6068SOL     OW19102   4.660   2.677   4.540
 6068SOL    HW119103   4.605   2.656   4.621
 6068SOL    HW219104   4.757   2.665   4.562
 6069SOL     OW19105   5.789   3.169   4.937
 6069SOL    HW119106   5.745   3.160   4.848
 6069SOL    HW219107   5.769   3.259   4.976
 6070SOL     OW19108   2.755   2.457   1.352
 6070SOL    HW119109   2.709   2.528   1.298
 6070SOL    HW219110   2.731   2.367   1.316
 6071SOL     OW19111   6.822   5.862   5.208
 6071SOL    HW119112   6.803   5.958   5.185
 6071SOL    HW219113   6.738   5.820   5.244
 6072SOL     OW19114   0.041   0.233   1.838
 6072SOL    HW119115   0.084   0.231   1.748
 6072SOL    HW219116   0.058   0.147   1.885
 6073SOL     OW19117   5.367   3.075   0.695
 6073SOL    HW119118   5.427   3.155   0.706
 6073SOL    HW219119   5.350   3.034   0.785
 6074SOL     OW19120   0.865   5.708   2.289
 6074SOL    HW119121   0.785   5.650   2.308
 6074SOL    HW219122   0.908   5.679   2.204
 6075SOL     OW19123   4.625   0.137   5.883
 6075SOL    HW119124   4.638   0.079   5.804
 6075SOL    HW219125   4.572   0.218   5.858
 6076SOL     OW19126   3.583   5.354   3.216
 6076SOL    HW119127   3.487   5.356   3.187
 6076SOL    HW219128   3.630   5.435   3.181
 6077SOL     OW19129   6.537   5.174   1.395
 6077SOL    HW119130   6.564   5.269   1.411
 6077SOL    HW219131   6.593   5.135   1.322
 6078SOL     OW19132   5.114   5.389   0.535
 6078SOL    HW119133   5.200   5.416   0.493
 6078SOL    HW219134   5.073   5.315   0.482
 6079SOL     OW19135   4.925   3.757   5.394
 6079SOL    HW119136   4.913   3.684   5.327
 6079SOL    HW219137   5.002   3.736   5.454
 6080SOL     OW19138   0.208   6.172   0.885
 6080SOL    HW119139   0.281   6.116   0.925
 6080SOL    HW219140   0.136   6.187   0.953
 6081SOL     OW19141   6.696   2.880   5.360
 6081SOL    HW119142   6.626   2.811   5.380
 6081SOL    HW219143   6.755   2.848   5.287
 6082SOL     OW19144   2.686   0.361   3.138
 6082SOL    HW119145   2.623   0.364   3.061
 6082SOL    HW219146   2.757   0.294   3.121
 6083SOL     OW19147   6.104   6.178   0.504
 6083SOL    HW119148   6.163   6.116   0.453
 6083SOL    HW219149   6.084   6.259   0.448
 6084SOL     OW19150   0.759   6.647   3.009
 6084SOL    HW119151   0.800   6.674   2.921
 6084SOL    HW219152   0.721   6.727   3.054
 6085SOL     OW19153   0.392   6.999   0.081
 6085SOL    HW119154   0.339   0.027   0.149
 6085SOL    HW219155   0.360   7.021   7.013
 6086SOL     OW19156   2.943   1.379   5.609
 6086SOL    HW119157   2.858   1.370   5.662
 6086SOL    HW219158   3.000   1.450   5.650
 6087SOL     OW19159   3.727   5.722   1.191
 6087SOL    HW119160   3.659   5.670   1.138
 6087SOL    HW219161   3.681   5.770   1.266
 6088SOL     OW19162   5.465   6.338   4.784
 6088SOL    HW119163   5.436   6.255   4.833
 6088SOL    HW219164   5.542   6.316   4.725
 6089SOL     OW19165   5.383   2.326   2.657
 6089SOL    HW119166   5.344   2.259   2.594
 6089SOL    HW219167   5.318   2.401   2.670
 6090SOL     OW19168   2.768   5.663   4.654
 6090SOL    HW119169   2.674   5.694   4.650
 6090SOL    HW219170   2.784   5.596   4.581
 6091SOL     OW19171   2.146   1.480   7.003
 6091SOL    HW119172   2.048   1.459   7.009
 6091SOL    HW219173   2.159   1.567   6.954
 6092SOL     OW19174   4.211   0.541   2.669
 6092SOL    HW119175   4.135   0.578   2.617
 6092SOL    HW219176   4.296   0.552   2.617
 6093SOL     OW19177   2.164   3.035   2.049
 6093SOL    HW119178   2.149   3.134   2.048
 6093SOL    HW219179   2.136   2.996   1.961
 6094SOL     OW19180   1.447   5.989   2.726
 6094SOL    HW119181   1.477   5.977   2.631
 6094SOL    HW219182   1.471   6.081   2.757
 6095SOL     OW19183   4.951   4.709   0.172
 6095SOL    HW119184   5.018   4.739   0.104
 6095SOL    HW219185   4.871   4.672   0.125
 6096SOL     OW19186   5.973   0.245   3.606
 6096SOL    HW119187   6.000   0.226   3.512
 6096SOL    HW219188   5.874   0.243   3.613
 6097SOL     OW19189   1.970   5.752   1.914
 6097SOL    HW119190   2.061   5.775   1.878
 6097SOL    HW219191   1.964   5.653   1.927
 6098SOL     OW19192   0.448   1.282   5.606
 6098SOL    HW119193   0.475   1.265   5.512
 6098SOL    HW219194   0.524   1.321   5.657
 6099SOL     OW19195   5.380   6.348   6.720
 6099SOL    HW119196   5.464   6.352   6.665
 6099SOL    HW219197   5.371   6.258   6.761
 6100SOL     OW19198   5.257   6.224   1.434
 6100SOL    HW119199   5.325   6.227   1.506
 6100SOL    HW219200   5.212   6.313   1.427
 6101SOL     OW19201   0.099   3.197   3.528
 6101SOL    HW119202   0.153   3.258   3.469
 6101SOL    HW219203   0.041   3.138   3.471
 6102SOL     OW19204   3.449   5.810   3.171
 6102SOL    HW119205   3.406   5.898   3.190
 6102SOL    HW219206   3.394   5.761   3.103
 6103SOL     OW19207   5.910   1.735   2.179
 6103SOL    HW119208   5.890   1.638   2.192
 6103SOL    HW219209   5.983   1.763   2.241
 6104SOL     OW19210   5.443   0.335   5.471
 6104SOL    HW119211   5.521   0.355   5.412
 6104SOL    HW219212   5.446   0.239   5.499
 6105SOL     OW19213   3.049   5.752   6.528
 6105SOL    HW119214   3.130   5.786   6.575
 6105SOL    HW219215   3.021   5.665   6.568
 6106SOL     OW19216   1.259   4.803   6.227
 6106SOL    HW119217   1.180   4.853   6.263
 6106SOL    HW219218   1.256   4.708   6.260
 6107SOL     OW19219   4.595   6.471   4.975
 6107SOL    HW119220   4.641   6.391   4.935
 6107SOL    HW219221   4.604   6.549   4.914
 6108SOL     OW19222   2.123   2.862   2.250
 6108SOL    HW119223   2.173   2.898   2.329
 6108SOL    HW219224   2.131   2.926   2.173
 6109SOL     OW19225   5.952   1.982   5.030
 6109SOL    HW119226   5.977   2.032   5.112
 6109SOL    HW219227   5.885   1.912   5.052
 6110SOL     OW19228   2.735   4.149   1.060
 6110SOL    HW119229   2.758   4.053   1.049
 6110SOL    HW219230   2.738   4.195   0.971
 6111SOL     OW19231   1.348   3.152   2.616
 6111SOL    HW119232   1.286   3.078   2.642
 6111SOL    HW219233   1.356   3.156   2.517
 6112SOL     OW19234   3.042   0.042   2.857
 6112SOL    HW119235   2.942   0.048   2.852
 6112SOL    HW219236   3.073   0.074   2.946
 6113SOL     OW19237   3.433   2.423   6.084
 6113SOL    HW119238   3.370   2.447   6.158
 6113SOL    HW219239   3.503   2.495   6.076
 6114SOL     OW19240   5.065   4.645   2.419
 6114SOL    HW119241   5.032   4.738   2.432
 6114SOL    HW219242   4.997   4.580   2.452
 6115SOL     OW19243   5.760   0.365   4.507
 6115SOL    HW119244   5.835   0.384   4.444
 6115SOL    HW219245   5.790   0.303   4.578
 6116SOL     OW19246   4.795   1.892   6.407
 6116SOL    HW119247   4.872   1.897   6.344
 6116SOL    HW219248   4.816   1.826   6.480
 6117SOL     OW19249   1.460   1.176   3.470
 6117SOL    HW119250   1.457   1.091   3.523
 6117SOL    HW219251   1.452   1.254   3.532
 6118SOL     OW19252   6.609   0.963   1.243
 6118SOL    HW119253   6.518   0.950   1.282
 6118SOL    HW219254   6.600   0.996   1.149
 6119SOL     OW19255   0.851   3.616   0.017
 6119SOL    HW119256   0.871   3.652   6.949
 6119SOL    HW219257   0.800   3.684   0.069
 6120SOL     OW19258   3.557   6.467   5.732
 6120SOL    HW119259   3.624   6.397   5.755
 6120SOL    HW219260   3.471   6.448   5.780
 6121SOL     OW19261   0.891   3.555   5.281
 6121SOL    HW119262   0.971   3.531   5.226
 6121SOL    HW219263   0.818   3.490   5.265
 6122SOL     OW19264   4.149   5.093   0.344
 6122SOL    HW119265   4.211   5.131   0.275
 6122SOL    HW219266   4.054   5.113   0.319
 6123SOL     OW19267   5.206   6.998   6.345
 6123SOL    HW119268   5.112   6.972   6.364
 6123SOL    HW219269   5.209   0.042   6.272
 6124SOL     OW19270   1.403   0.023   5.827
 6124SOL    HW119271   1.483   0.021   5.768
 6124SOL    HW219272   1.383   6.954   5.861
 6125SOL     OW19273   2.486   4.226   0.343
 6125SOL    HW119274   2.537   4.175   0.274
 6125SOL    HW219275   2.524   4.318   0.351
 6126SOL     OW19276   0.484   0.593   4.042
 6126SOL    HW119277   0.447   0.637   3.960
 6126SOL    HW219278   0.491   0.495   4.026
 6127SOL     OW19279   3.361   6.708   1.060
 6127SOL    HW119280   3.298   6.659   1.120
 6127SOL    HW219281   3.368   6.803   1.090
 6128SOL     OW19282   6.357   4.600   0.778
 6128SOL    HW119283   6.379   4.569   0.686
 6128SOL    HW219284   6.261   4.582   0.797
 6129SOL     OW19285   0.175   3.569   2.181
 6129SOL    HW119286   0.208   3.528   2.266
 6129SOL    HW219287   0.188   3.504   2.106
 6130SOL     OW19288   5.324   2.843   2.555
 6130SOL    HW119289   5.279   2.817   2.470
 6130SOL    HW219290   5.274   2.919   2.598
 6131SOL     OW19291   0.436   1.521   3.697
 6131SOL    HW119292   0.431   1.426   3.666
 6131SOL    HW219293   0.531   1.551   3.700
 6132SOL     OW19294   4.585   1.831   6.723
 6132SOL    HW119295   4.609   1.734   6.712
 6132SOL    HW219296   4.667   1.887   6.712
 6133SOL     OW19297   2.094   3.392   3.168
 6133SOL    HW119298   2.046   3.392   3.255
 6133SOL    HW219299   2.164   3.321   3.168
 6134SOL     OW19300   4.326   5.431   6.848
 6134SOL    HW119301   4.278   5.515   6.872
 6134SOL    HW219302   4.421   5.453   6.825
 6135SOL     OW19303   6.901   0.050   0.060
 6135SOL    HW119304   6.833   0.117   0.030
 6135SOL    HW219305   6.864   7.022   0.138
 6136SOL     OW19306   1.186   3.167   2.031
 6136SOL    HW119307   1.267   3.221   2.051
 6136SOL    HW219308   1.210   3.089   1.973
 6137SOL     OW19309   6.826   3.893   2.120
 6137SOL    HW119310   6.750   3.883   2.184
 6137SOL    HW219311   6.913   3.880   2.167
 6138SOL     OW19312   3.705   6.987   2.647
 6138SOL    HW119313   3.644   0.040   2.667
 6138SOL    HW219314   3.790   7.021   2.607
 6139SOL     OW19315   1.629   6.743   5.945
 6139SOL    HW119316   1.650   6.828   5.992
 6139SOL    HW219317   1.537   6.749   5.906
 6140SOL     OW19318   0.864   0.102   1.944
 6140SOL    HW119319   0.927   0.157   1.890
 6140SOL    HW219320   0.876   0.005   1.922
 6141SOL     OW19321   0.627   0.013   6.361
 6141SOL    HW119322   0.614   6.970   6.435
 6141SOL    HW219323   0.645   0.103   6.400
 6142SOL     OW19324   0.523   6.050   6.579
 6142SOL    HW119325   0.527   5.990   6.500
 6142SOL    HW219326   0.551   6.142   6.552
 6143SOL     OW19327   6.550   3.012   1.095
 6143SOL    HW119328   6.560   3.013   1.195
 6143SOL    HW219329   6.609   3.083   1.056
 6144SOL     OW19330   4.859   4.815   4.537
 6144SOL    HW119331   4.767   4.840   4.508
 6144SOL    HW219332   4.914   4.898   4.548
 6145SOL     OW19333   5.348   5.026   4.381
 6145SOL    HW119334   5.432   4.971   4.386
 6145SOL    HW219335   5.373   5.123   4.375
 6146SOL     OW19336   3.323   5.489   3.657
 6146SOL    HW119337   3.422   5.479   3.649
 6146SOL    HW219338   3.300   5.585   3.676
 6147SOL     OW19339   2.397   2.218   4.981
 6147SOL    HW119340   2.403   2.244   5.078
 6147SOL    HW219341   2.308   2.244   4.945
 6148SOL     OW19342   4.587   0.046   5.087
 6148SOL    HW119343   4.549   6.984   5.122
 6148SOL    HW219344   4.525   0.084   5.017
 6149SOL     OW19345   2.487   6.769   1.578
 6149SOL    HW119346   2.402   6.821   1.570
 6149SOL    HW219347   2.478   6.682   1.530
 6150SOL     OW19348   5.728   5.574   0.782
 6150SOL    HW119349   5.725   5.674   0.790
 6150SOL    HW219350   5.812   5.540   0.823
 6151SOL     OW19351   6.501   5.111   6.368
 6151SOL    HW119352   6.483   5.181   6.299
 6151SOL    HW219353   6.525   5.025   6.322
 6152SOL     OW19354   6.956   5.902   4.792
 6152SOL    HW119355   6.901   5.820   4.772
 6152SOL    HW219356   0.020   5.873   4.832
 6153SOL     OW19357   5.272   4.578   1.033
 6153SOL    HW119358   5.318   4.620   1.111
 6153SOL    HW219359   5.292   4.630   0.951
 6154SOL     OW19360   6.376   2.535   2.574
 6154SOL    HW119361   6.323   2.473   2.516
 6154SOL    HW219362   6.316   2.607   2.609
 6155SOL     OW19363   1.511   1.432   3.079
 6155SOL    HW119364   1.481   1.459   3.171
 6155SOL    HW219365   1.448   1.364   3.042
 6156SOL     OW19366   4.322   4.667   2.132
 6156SOL    HW119367   4.395   4.603   2.154
 6156SOL    HW219368   4.297   4.719   2.214
 6157SOL     OW19369   0.017   1.926   4.354
 6157SOL    HW119370   0.060   1.909   4.442
 6157SOL    HW219371   7.022   2.024   4.344
 6158SOL     OW19372   3.653   1.965   6.662
 6158SOL    HW119373   3.612   2.037   6.717
 6158SOL    HW219374   3.588   1.889   6.651
 6159SOL     OW19375   4.371   2.001   1.411
 6159SOL    HW119376   4.385   1.972   1.316
 6159SOL    HW219377   4.366   1.921   1.470
 6160SOL     OW19378   5.266   0.946   6.811
 6160SOL    HW119379   5.202   1.020   6.830
 6160SOL    HW219380   5.338   0.945   6.881
 6161SOL     OW19381   5.671   1.644   5.758
 6161SOL    HW119382   5.619   1.725   5.786
 6161SOL    HW219383   5.624   1.600   5.681
 6162SOL     OW19384   6.606   6.232   3.625
 6162SOL    HW119385   6.595   6.282   3.538
 6162SOL    HW219386   6.664   6.285   3.686
 6163SOL     OW19387   6.158   6.462   1.505
 6163SOL    HW119388   6.121   6.501   1.421
 6163SOL    HW219389   6.199   6.535   1.560
 6164SOL     OW19390   3.491   3.706   3.696
 6164SOL    HW119391   3.531   3.798   3.698
 6164SOL    HW219392   3.486   3.671   3.790
 6165SOL     OW19393   4.588   1.555   6.691
 6165SOL    HW119394   4.664   1.538   6.629
 6165SOL    HW219395   4.547   1.469   6.720
 6166SOL     OW19396   5.727   1.944   6.308
 6166SOL    HW119397   5.638   1.956   6.351
 6166SOL    HW219398   5.740   1.847   6.286
 6167SOL     OW19399   1.052   5.152   3.185
 6167SOL    HW119400   0.988   5.087   3.144
 6167SOL    HW219401   1.140   5.145   3.138
 6168SOL     OW19402   1.553   3.514   2.567
 6168SOL    HW119403   1.485   3.506   2.494
 6168SOL    HW219404   1.521   3.465   2.648
 6169SOL     OW19405   1.249   2.215   0.209
 6169SOL    HW119406   1.282   2.271   0.132
 6169SOL    HW219407   1.149   2.214   0.209
 6170SOL     OW19408   2.322   4.092   5.345
 6170SOL    HW119409   2.362   4.031   5.276
 6170SOL    HW219410   2.302   4.039   5.427
 6171SOL     OW19411   1.724   3.618   1.086
 6171SOL    HW119412   1.761   3.529   1.109
 6171SOL    HW219413   1.795   3.688   1.097
 6172SOL     OW19414   1.759   1.669   3.354
 6172SOL    HW119415   1.770   1.570   3.364
 6172SOL    HW219416   1.843   1.715   3.383
 6173SOL     OW19417   6.266   5.160   2.031
 6173SOL    HW119418   6.311   5.092   1.973
 6173SOL    HW219419   6.181   5.190   1.987
 6174SOL     OW19420   5.278   5.027   3.716
 6174SOL    HW119421   5.198   5.070   3.674
 6174SOL    HW219422   5.251   4.940   3.757
 6175SOL     OW19423   4.487   0.896   3.502
 6175SOL    HW119424   4.537   0.875   3.418
 6175SOL    HW219425   4.411   0.832   3.513
 6176SOL     OW19426   5.809   3.101   6.532
 6176SOL    HW119427   5.873   3.173   6.556
 6176SOL    HW219428   5.721   3.119   6.576
 6177SOL     OW19429   5.895   0.906   1.159
 6177SOL    HW119430   5.820   0.850   1.124
 6177SOL    HW219431   5.944   0.947   1.082
 6178SOL     OW19432   4.503   4.617   3.273
 6178SOL    HW119433   4.530   4.522   3.292
 6178SOL    HW219434   4.578   4.665   3.228
 6179SOL     OW19435   6.879   4.716   4.241
 6179SOL    HW119436   6.953   4.717   4.309
 6179SOL    HW219437   6.877   4.804   4.194
 6180SOL     OW19438   3.919   4.883   0.261
 6180SOL    HW119439   4.018   4.873   0.273
 6180SOL    HW219440   3.892   4.976   0.285
 6181SOL     OW19441   3.677   6.635   0.543
 6181SOL    HW119442   3.675   6.645   0.443
 6181SOL    HW219443   3.612   6.699   0.584
 6182SOL     OW19444   5.302   3.405   5.769
 6182SOL    HW119445   5.343   3.495   5.758
 6182SOL    HW219446   5.321   3.349   5.688
 6183SOL     OW19447   2.422   1.227   2.927
 6183SOL    HW119448   2.348   1.293   2.916
 6183SOL    HW219449   2.444   1.218   3.024
 6184SOL     OW19450   1.959   6.900   5.867
 6184SOL    HW119451   1.898   6.871   5.941
 6184SOL    HW219452   2.039   6.946   5.906
 6185SOL     OW19453   0.075   4.215   6.669
 6185SOL    HW119454   0.050   4.156   6.592
 6185SOL    HW219455   0.166   4.191   6.701
 6186SOL     OW19456   6.858   6.691   5.819
 6186SOL    HW119457   6.807   6.612   5.852
 6186SOL    HW219458   6.826   6.773   5.865
 6187SOL     OW19459   4.518   4.929   2.942
 6187SOL    HW119460   4.510   4.839   2.899
 6187SOL    HW219461   4.427   4.968   2.954
 6188SOL     OW19462   2.500   6.904   0.751
 6188SOL    HW119463   2.515   7.003   0.748
 6188SOL    HW219464   2.472   6.877   0.843
 6189SOL     OW19465   4.948   4.251   3.842
 6189SOL    HW119466   5.044   4.222   3.839
 6189SOL    HW219467   4.944   4.351   3.836
 6190SOL     OW19468   0.058   3.874   5.650
 6190SOL    HW119469   0.123   3.798   5.645
 6190SOL    HW219470   7.004   3.856   5.589
 6191SOL     OW19471   4.108   1.978   6.960
 6191SOL    HW119472   4.046   2.040   6.912
 6191SOL    HW219473   4.076   1.964   0.030
 6192SOL     OW19474   4.261   2.646   6.727
 6192SOL    HW119475   4.216   2.562   6.757
 6192SOL    HW219476   4.196   2.701   6.674
 6193SOL     OW19477   5.039   1.426   2.410
 6193SOL    HW119478   4.984   1.379   2.479
 6193SOL    HW219479   5.054   1.366   2.331
 6194SOL     OW19480   1.350   0.168   0.759
 6194SOL    HW119481   1.267   0.113   0.756
 6194SOL    HW219482   1.333   0.252   0.810
 6195SOL     OW19483   4.618   6.622   5.421
 6195SOL    HW119484   4.671   6.653   5.500
 6195SOL    HW219485   4.618   6.522   5.419
 6196SOL     OW19486   5.706   2.521   1.733
 6196SOL    HW119487   5.610   2.493   1.729
 6196SOL    HW219488   5.765   2.440   1.733
 6197SOL     OW19489   4.461   4.613   0.662
 6197SOL    HW119490   4.482   4.571   0.750
 6197SOL    HW219491   4.534   4.592   0.597
 6198SOL     OW19492   3.789   6.259   2.277
 6198SOL    HW119493   3.876   6.229   2.238
 6198SOL    HW219494   3.807   6.318   2.356
 6199SOL     OW19495   0.646   0.493   0.985
 6199SOL    HW119496   0.623   0.399   1.007
 6199SOL    HW219497   0.641   0.549   1.068
 6200SOL     OW19498   1.529   0.980   5.511
 6200SOL    HW119499   1.493   0.947   5.598
 6200SOL    HW219500   1.575   1.068   5.525
 6201SOL     OW19501   0.805   3.154   5.357
 6201SOL    HW119502   0.705   3.143   5.358
 6201SOL    HW219503   0.831   3.229   5.417
 6202SOL     OW19504   3.938   1.759   2.457
 6202SOL    HW119505   3.839   1.767   2.472
 6202SOL    HW219506   3.984   1.743   2.543
 6203SOL     OW19507   6.272   6.934   3.168
 6203SOL    HW119508   6.302   6.995   3.241
 6203SOL    HW219509   6.352   6.889   3.127
 6204SOL     OW19510   0.690   5.626   5.030
 6204SOL    HW119511   0.786   5.599   5.015
 6204SOL    HW219512   0.662   5.691   4.960
 6205SOL     OW19513   6.085   6.352   0.731
 6205SOL    HW119514   6.080   6.317   0.637
 6205SOL    HW219515   6.009   6.415   0.747
 6206SOL     OW19516   0.180   1.312   3.268
 6206SOL    HW119517   0.254   1.319   3.336
 6206SOL    HW219518   0.109   1.251   3.303
 6207SOL     OW19519   1.420   5.107   4.808
 6207SOL    HW119520   1.493   5.123   4.875
 6207SOL    HW219521   1.455   5.128   4.716
 6208SOL     OW19522   5.706   1.661   6.256
 6208SOL    HW119523   5.681   1.630   6.348
 6208SOL    HW219524   5.738   1.583   6.202
 6209SOL     OW19525   4.687   5.693   7.002
 6209SOL    HW119526   4.727   5.753   0.048
 6209SOL    HW219527   4.609   5.645   0.018
 6210SOL     OW19528   4.886   3.307   3.369
 6210SOL    HW119529   4.980   3.278   3.384
 6210SOL    HW219530   4.824   3.229   3.382
 6211SOL     OW19531   3.236   6.173   5.443
 6211SOL    HW119532   3.292   6.229   5.503
 6211SOL    HW219533   3.162   6.228   5.405
 6212SOL     OW19534   1.777   5.160   3.831
 6212SOL    HW119535   1.761   5.254   3.800
 6212SOL    HW219536   1.698   5.127   3.882
 6213SOL     OW19537   5.674   0.410   0.103
 6213SOL    HW119538   5.667   0.316   0.069
 6213SOL    HW219539   5.756   0.453   0.067
 6214SOL     OW19540   5.029   4.809   4.748
 6214SOL    HW119541   5.044   4.721   4.792
 6214SOL    HW219542   4.955   4.800   4.681
 6215SOL     OW19543   4.405   1.423   0.598
 6215SOL    HW119544   4.339   1.353   0.626
 6215SOL    HW219545   4.465   1.445   0.675
 6216SOL     OW19546   5.976   1.469   2.165
 6216SOL    HW119547   6.062   1.450   2.118
 6216SOL    HW219548   5.966   1.407   2.243
 6217SOL     OW19549   0.156   3.559   2.535
 6217SOL    HW119550   0.135   3.657   2.532
 6217SOL    HW219551   0.071   3.507   2.528
 6218SOL     OW19552   3.786   5.529   6.316
 6218SOL    HW119553   3.858   5.588   6.352
 6218SOL    HW219554   3.827   5.446   6.279
 6219SOL     OW19555   0.617   2.915   4.120
 6219SOL    HW119556   0.658   2.982   4.182
 6219SOL    HW219557   0.592   2.833   4.172
 6220SOL     OW19558   1.708   2.013   5.197
 6220SOL    HW119559   1.625   2.060   5.226
 6220SOL    HW219560   1.746   1.961   5.274
 6221SOL     OW19561   5.846   5.521   6.867
 6221SOL    HW119562   5.762   5.495   6.820
 6221SOL    HW219563   5.824   5.574   6.949
 6222SOL     OW19564   0.528   6.930   1.726
 6222SOL    HW119565   0.475   6.929   1.642
 6222SOL    HW219566   0.467   6.927   1.805
 6223SOL     OW19567   0.450   5.265   4.116
 6223SOL    HW119568   0.350   5.265   4.110
 6223SOL    HW219569   0.486   5.184   4.070
 6224SOL     OW19570   2.526   1.933   6.282
 6224SOL    HW119571   2.599   2.001   6.297
 6224SOL    HW219572   2.563   1.856   6.231
 6225SOL     OW19573   3.692   4.017   6.629
 6225SOL    HW119574   3.632   3.976   6.561
 6225SOL    HW219575   3.764   4.070   6.583
 6226SOL     OW19576   6.708   1.531   5.250
 6226SOL    HW119577   6.644   1.498   5.180
 6226SOL    HW219578   6.708   1.631   5.251
 6227SOL     OW19579   3.625   6.074   5.465
 6227SOL    HW119580   3.648   6.009   5.537
 6227SOL    HW219581   3.543   6.042   5.417
 6228SOL     OW19582   1.199   2.499   3.272
 6228SOL    HW119583   1.289   2.469   3.241
 6228SOL    HW219584   1.155   2.425   3.323
 6229SOL     OW19585   0.248   2.159   3.161
 6229SOL    HW119586   0.152   2.149   3.184
 6229SOL    HW219587   0.304   2.126   3.237
 6230SOL     OW19588   1.144   1.731   3.771
 6230SOL    HW119589   1.122   1.718   3.675
 6230SOL    HW219590   1.139   1.643   3.819
 6231SOL     OW19591   6.143   5.729   1.359
 6231SOL    HW119592   6.206   5.724   1.437
 6231SOL    HW219593   6.060   5.778   1.387
 6232SOL     OW19594   6.792   0.443   1.041
 6232SOL    HW119595   6.851   0.461   0.961
 6232SOL    HW219596   6.740   0.525   1.063
 6233SOL     OW19597   6.585   0.629   1.117
 6233SOL    HW119598   6.607   0.664   1.209
 6233SOL    HW219599   6.518   0.556   1.125
 6234SOL     OW19600   6.124   1.233   5.722
 6234SOL    HW119601   6.221   1.255   5.710
 6234SOL    HW219602   6.116   1.139   5.757
 6235SOL     OW19603   1.175   6.535   1.437
 6235SOL    HW119604   1.257   6.482   1.463
 6235SOL    HW219605   1.190   6.577   1.348
 6236SOL     OW19606   0.616   3.632   0.862
 6236SOL    HW119607   0.524   3.599   0.886
 6236SOL    HW219608   0.662   3.564   0.806
 6237SOL     OW19609   3.458   6.913   6.692
 6237SOL    HW119610   3.483   6.871   6.779
 6237SOL    HW219611   3.417   6.844   6.632
 6238SOL     OW19612   3.743   4.973   2.649
 6238SOL    HW119613   3.648   4.962   2.679
 6238SOL    HW219614   3.798   4.900   2.690
 6239SOL     OW19615   2.153   0.746   1.813
 6239SOL    HW119616   2.116   0.839   1.807
 6239SOL    HW219617   2.159   0.718   1.909
 6240SOL     OW19618   1.961   3.052   5.561
 6240SOL    HW119619   1.948   2.965   5.609
 6240SOL    HW219620   2.056   3.081   5.570
 6241SOL     OW19621   3.905   0.050   1.616
 6241SOL    HW119622   3.880   0.145   1.634
 6241SOL    HW219623   3.823   7.017   1.614
 6242SOL     OW19624   4.550   0.295   3.552
 6242SOL    HW119625   4.646   0.279   3.533
 6242SOL    HW219626   4.513   0.219   3.605
 6243SOL     OW19627   6.459   6.477   4.270
 6243SOL    HW119628   6.468   6.455   4.173
 6243SOL    HW219629   6.372   6.523   4.286
 6244SOL     OW19630   0.070   2.644   1.840
 6244SOL    HW119631   0.084   2.545   1.828
 6244SOL    HW219632   0.118   2.693   1.767
 6245SOL     OW19633   1.682   3.844   0.221
 6245SOL    HW119634   1.630   3.859   0.137
 6245SOL    HW219635   1.759   3.908   0.224
 6246SOL     OW19636   2.533   2.101   5.706
 6246SOL    HW119637   2.475   2.166   5.754
 6246SOL    HW219638   2.524   2.010   5.749
 6247SOL     OW19639   0.997   6.196   4.678
 6247SOL    HW119640   1.038   6.111   4.711
 6247SOL    HW219641   0.969   6.252   4.757
 6248SOL     OW19642   4.062   2.914   0.440
 6248SOL    HW119643   3.993   2.950   0.502
 6248SOL    HW219644   4.095   2.826   0.475
 6249SOL     OW19645   1.169   3.982   0.977
 6249SOL    HW119646   1.104   3.932   1.034
 6249SOL    HW219647   1.140   3.977   0.881
 6250SOL     OW19648   6.582   6.709   0.223
 6250SOL    HW119649   6.532   6.795   0.229
 6250SOL    HW219650   6.677   6.727   0.198
 6251SOL     OW19651   4.238   5.570   6.498
 6251SOL    HW119652   4.283   5.480   6.501
 6251SOL    HW219653   4.308   5.642   6.492
 6252SOL     OW19654   1.822   6.329   5.697
 6252SOL    HW119655   1.772   6.252   5.737
 6252SOL    HW219656   1.814   6.408   5.757
 6253SOL     OW19657   2.064   4.450   3.298
 6253SOL    HW119658   2.028   4.388   3.228
 6253SOL    HW219659   2.024   4.541   3.287
 6254SOL     OW19660   5.456   1.693   1.324
 6254SOL    HW119661   5.488   1.625   1.389
 6254SOL    HW219662   5.493   1.783   1.349
 6255SOL     OW19663   3.383   0.515   1.186
 6255SOL    HW119664   3.373   0.600   1.135
 6255SOL    HW219665   3.294   0.469   1.192
 6256SOL     OW19666   3.366   5.231   1.804
 6256SOL    HW119667   3.381   5.328   1.820
 6256SOL    HW219668   3.399   5.207   1.713
 6257SOL     OW19669   5.158   1.979   0.849
 6257SOL    HW119670   5.076   1.961   0.795
 6257SOL    HW219671   5.228   1.910   0.829
 6258SOL     OW19672   3.836   7.019   3.947
 6258SOL    HW119673   3.782   0.056   4.006
 6258SOL    HW219674   3.932   0.000   3.975
 6259SOL     OW19675   2.484   2.605   0.157
 6259SOL    HW119676   2.455   2.692   0.116
 6259SOL    HW219677   2.417   2.577   0.226
 6260SOL     OW19678   3.237   5.224   7.015
 6260SOL    HW119679   3.295   5.145   0.012
 6260SOL    HW219680   3.212   5.270   0.076
 6261SOL     OW19681   3.530   0.998   6.748
 6261SOL    HW119682   3.468   1.002   6.670
 6261SOL    HW219683   3.502   1.064   6.817
 6262SOL     OW19684   2.620   6.339   1.078
 6262SOL    HW119685   2.674   6.254   1.082
 6262SOL    HW219686   2.641   6.394   1.159
 6263SOL     OW19687   6.613   0.753   5.305
 6263SOL    HW119688   6.619   0.710   5.215
 6263SOL    HW219689   6.692   0.812   5.319
 6264SOL     OW19690   1.404   6.826   2.307
 6264SOL    HW119691   1.344   6.838   2.386
 6264SOL    HW219692   1.497   6.854   2.331
 6265SOL     OW19693   3.817   3.840   0.358
 6265SOL    HW119694   3.893   3.826   0.421
 6265SOL    HW219695   3.735   3.862   0.410
 6266SOL     OW19696   3.959   1.118   4.751
 6266SOL    HW119697   3.925   1.024   4.743
 6266SOL    HW219698   3.913   1.164   4.828
 6267SOL     OW19699   2.469   0.314   6.246
 6267SOL    HW119700   2.459   0.400   6.297
 6267SOL    HW219701   2.558   0.273   6.266
 6268SOL     OW19702   2.564   0.343   3.374
 6268SOL    HW119703   2.607   0.343   3.283
 6268SOL    HW219704   2.512   0.427   3.386
 6269SOL     OW19705   6.958   6.602   1.740
 6269SOL    HW119706   0.032   6.587   1.723
 6269SOL    HW219707   6.905   6.530   1.695
 6270SOL     OW19708   1.937   0.174   5.180
 6270SOL    HW119709   2.012   0.153   5.117
 6270SOL    HW219710   1.972   0.182   5.273
 6271SOL     OW19711   6.585   2.314   6.954
 6271SOL    HW119712   6.512   2.255   6.922
 6271SOL    HW219713   6.643   2.264   7.018
 6272SOL     OW19714   0.400   2.735   0.291
 6272SOL    HW119715   0.427   2.725   0.195
 6272SOL    HW219716   0.366   2.647   0.325
 6273SOL     OW19717   1.081   6.397   2.407
 6273SOL    HW119718   1.053   6.479   2.357
 6273SOL    HW219719   1.003   6.335   2.417
 6274SOL     OW19720   3.304   5.435   5.835
 6274SOL    HW119721   3.393   5.433   5.790
 6274SOL    HW219722   3.302   5.507   5.904
 6275SOL     OW19723   2.368   6.327   6.225
 6275SOL    HW119724   2.431   6.278   6.164
 6275SOL    HW219725   2.333   6.408   6.178
 6276SOL     OW19726   1.472   4.038   3.163
 6276SOL    HW119727   1.477   3.989   3.076
 6276SOL    HW219728   1.390   4.009   3.212
 6277SOL     OW19729   5.707   3.750   2.170
 6277SOL    HW119730   5.764   3.682   2.124
 6277SOL    HW219731   5.641   3.787   2.104
 6278SOL     OW19732   5.085   6.329   4.784
 6278SOL    HW119733   5.115   6.279   4.865
 6278SOL    HW219734   5.089   6.427   4.802
 6279SOL     OW19735   3.881   0.148   6.855
 6279SOL    HW119736   3.973   0.145   6.893
 6279SOL    HW219737   3.884   0.120   6.759
 6280SOL     OW19738   1.136   2.073   5.341
 6280SOL    HW119739   1.057   2.015   5.360
 6280SOL    HW219740   1.148   2.081   5.242
 6281SOL     OW19741   0.897   5.400   3.970
 6281SOL    HW119742   0.991   5.432   3.953
 6281SOL    HW219743   0.837   5.479   3.984
 6282SOL     OW19744   1.040   6.177   5.393
 6282SOL    HW119745   1.004   6.135   5.477
 6282SOL    HW219746   0.969   6.236   5.353
 6283SOL     OW19747   6.086   3.430   5.586
 6283SOL    HW119748   6.130   3.340   5.586
 6283SOL    HW219749   6.144   3.495   5.537
 6284SOL     OW19750   0.925   5.522   4.949
 6284SOL    HW119751   0.985   5.530   5.029
 6284SOL    HW219752   0.951   5.442   4.896
 6285SOL     OW19753   0.553   3.550   4.755
 6285SOL    HW119754   0.626   3.499   4.801
 6285SOL    HW219755   0.465   3.525   4.796
 6286SOL     OW19756   5.871   1.577   3.632
 6286SOL    HW119757   5.955   1.527   3.652
 6286SOL    HW219758   5.799   1.550   3.696
 6287SOL     OW19759   3.765   5.181   4.000
 6287SOL    HW119760   3.850   5.136   3.972
 6287SOL    HW219761   3.689   5.117   3.989
 6288SOL     OW19762   4.712   4.382   3.038
 6288SOL    HW119763   4.784   4.313   3.040
 6288SOL    HW219764   4.718   4.440   3.120
 6289SOL     OW19765   2.189   4.775   1.150
 6289SOL    HW119766   2.100   4.730   1.160
 6289SOL    HW219767   2.261   4.714   1.182
 6290SOL     OW19768   6.713   4.869   5.677
 6290SOL    HW119769   6.704   4.819   5.591
 6290SOL    HW219770   6.700   4.967   5.660
 6291SOL     OW19771   4.109   3.531   4.636
 6291SOL    HW119772   4.133   3.565   4.727
 6291SOL    HW219773   4.118   3.431   4.635
 6292SOL     OW19774   1.708   2.081   4.569
 6292SOL    HW119775   1.779   2.139   4.608
 6292SOL    HW219776   1.657   2.132   4.500
 6293SOL     OW19777   3.461   1.011   0.359
 6293SOL    HW119778   3.474   0.974   0.267
 6293SOL    HW219779   3.488   1.107   0.360
 6294SOL     OW19780   4.326   5.637   4.311
 6294SOL    HW119781   4.292   5.730   4.299
 6294SOL    HW219782   4.314   5.586   4.226
 6295SOL     OW19783   5.103   4.587   6.385
 6295SOL    HW119784   5.161   4.608   6.464
 6295SOL    HW219785   5.106   4.663   6.320
 6296SOL     OW19786   0.687   6.578   5.979
 6296SOL    HW119787   0.710   6.622   5.892
 6296SOL    HW219788   0.771   6.562   6.031
 6297SOL     OW19789   4.574   0.001   3.827
 6297SOL    HW119790   4.648   6.967   3.863
 6297SOL    HW219791   4.572   0.088   3.878
 6298SOL     OW19792   1.365   2.455   6.667
 6298SOL    HW119793   1.284   2.499   6.706
 6298SOL    HW219794   1.445   2.512   6.684
 6299SOL     OW19795   5.545   2.418   0.172
 6299SOL    HW119796   5.532   2.512   0.204
 6299SOL    HW219797   5.588   2.364   0.244
 6300SOL     OW19798   6.154   0.719   0.388
 6300SOL    HW119799   6.154   0.623   0.415
 6300SOL    HW219800   6.079   0.735   0.324
 6301SOL     OW19801   3.763   6.925   0.155
 6301SOL    HW119802   3.736   7.013   0.192
 6301SOL    HW219803   3.685   6.885   0.105
 6302SOL     OW19804   1.840   0.966   3.179
 6302SOL    HW119805   1.903   1.030   3.137
 6302SOL    HW219806   1.751   0.971   3.134
 6303SOL     OW19807   1.983   1.624   4.299
 6303SOL    HW119808   2.013   1.709   4.255
 6303SOL    HW219809   1.970   1.553   4.230
 6304SOL     OW19810   2.277   0.492   1.412
 6304SOL    HW119811   2.185   0.483   1.374
 6304SOL    HW219812   2.276   0.463   1.508
 6305SOL     OW19813   6.562   6.803   1.271
 6305SOL    HW119814   6.476   6.777   1.228
 6305SOL    HW219815   6.605   6.877   1.218
 6306SOL     OW19816   0.764   4.319   4.009
 6306SOL    HW119817   0.755   4.252   4.083
 6306SOL    HW219818   0.749   4.411   4.045
 6307SOL     OW19819   3.649   4.251   5.237
 6307SOL    HW119820   3.632   4.191   5.159
 6307SOL    HW219821   3.566   4.303   5.257
 6308SOL     OW19822   2.191   2.135   4.662
 6308SOL    HW119823   2.262   2.205   4.653
 6308SOL    HW219824   2.228   2.056   4.711
 6309SOL     OW19825   5.374   4.684   5.563
 6309SOL    HW119826   5.386   4.589   5.592
 6309SOL    HW219827   5.456   4.716   5.516
 6310SOL     OW19828   1.879   6.150   2.416
 6310SOL    HW119829   1.782   6.147   2.391
 6310SOL    HW219830   1.929   6.083   2.362
 6311SOL     OW19831   4.711   0.939   5.963
 6311SOL    HW119832   4.662   1.022   5.935
 6311SOL    HW219833   4.767   0.906   5.888
 6312SOL     OW19834   6.053   6.120   5.572
 6312SOL    HW119835   5.963   6.122   5.615
 6312SOL    HW219836   6.084   6.213   5.555
 6313SOL     OW19837   0.815   6.315   4.857
 6313SOL    HW119838   0.822   6.393   4.919
 6313SOL    HW219839   0.731   6.264   4.877
 6314SOL     OW19840   3.708   6.674   1.793
 6314SOL    HW119841   3.638   6.644   1.858
 6314SOL    HW219842   3.783   6.718   1.843
 6315SOL     OW19843   1.922   2.490   5.416
 6315SOL    HW119844   1.886   2.558   5.353
 6315SOL    HW219845   1.937   2.403   5.368
 6316SOL     OW19846   4.957   1.653   6.927
 6316SOL    HW119847   5.052   1.659   6.896
 6316SOL    HW219848   4.920   1.563   6.905
 6317SOL     OW19849   4.481   5.405   1.799
 6317SOL    HW119850   4.397   5.375   1.752
 6317SOL    HW219851   4.538   5.325   1.818
 6318SOL     OW19852   3.643   1.080   5.518
 6318SOL    HW119853   3.666   1.071   5.421
 6318SOL    HW219854   3.622   0.989   5.555
 6319SOL     OW19855   6.239   1.161   4.783
 6319SOL    HW119856   6.295   1.081   4.761
 6319SOL    HW219857   6.206   1.203   4.699
 6320SOL     OW19858   5.732   6.018   5.177
 6320SOL    HW119859   5.712   6.094   5.115
 6320SOL    HW219860   5.675   6.026   5.259
 6321SOL     OW19861   3.076   3.273   1.172
 6321SOL    HW119862   3.090   3.205   1.243
 6321SOL    HW219863   3.142   3.348   1.183
 6322SOL     OW19864   1.735   2.369   0.319
 6322SOL    HW119865   1.764   2.337   0.229
 6322SOL    HW219866   1.790   2.448   0.346
 6323SOL     OW19867   3.101   2.938   1.761
 6323SOL    HW119868   3.062   2.849   1.738
 6323SOL    HW219869   3.069   3.005   1.693
 6324SOL     OW19870   5.315   0.169   6.816
 6324SOL    HW119871   5.348   0.100   6.752
 6324SOL    HW219872   5.268   0.125   6.893
 6325SOL     OW19873   1.904   2.066   2.319
 6325SOL    HW119874   1.865   2.005   2.389
 6325SOL    HW219875   1.832   2.128   2.286
 6326SOL     OW19876   4.631   5.183   1.532
 6326SOL    HW119877   4.685   5.114   1.485
 6326SOL    HW219878   4.618   5.155   1.627
 6327SOL     OW19879   6.682   0.592   4.745
 6327SOL    HW119880   6.687   0.638   4.656
 6327SOL    HW219881   6.649   0.499   4.732
 6328SOL     OW19882   3.366   3.378   0.607
 6328SOL    HW119883   3.299   3.416   0.671
 6328SOL    HW219884   3.432   3.322   0.657
 6329SOL     OW19885   2.076   2.315   3.749
 6329SOL    HW119886   2.031   2.392   3.703
 6329SOL    HW219887   2.138   2.350   3.820
 6330SOL     OW19888   5.059   0.743   1.294
 6330SOL    HW119889   5.002   0.663   1.312
 6330SOL    HW219890   5.096   0.778   1.380
 6331SOL     OW19891   6.521   3.027   5.633
 6331SOL    HW119892   6.537   2.966   5.711
 6331SOL    HW219893   6.609   3.057   5.596
 6332SOL     OW19894   0.019   3.589   1.375
 6332SOL    HW119895   6.946   3.611   1.389
 6332SOL    HW219896   0.032   3.490   1.387
 6333SOL     OW19897   4.603   5.946   5.188
 6333SOL    HW119898   4.701   5.956   5.198
 6333SOL    HW219899   4.558   5.964   5.275
 6334SOL     OW19900   2.983   0.494   2.144
 6334SOL    HW119901   3.012   0.555   2.218
 6334SOL    HW219902   2.930   0.546   2.077
 6335SOL     OW19903   3.772   0.835   0.557
 6335SOL    HW119904   3.786   0.931   0.582
 6335SOL    HW219905   3.676   0.819   0.537
 6336SOL     OW19906   0.709   2.048   5.990
 6336SOL    HW119907   0.614   2.080   5.997
 6336SOL    HW219908   0.770   2.127   5.987
 6337SOL     OW19909   5.132   4.682   5.877
 6337SOL    HW119910   5.191   4.744   5.929
 6337SOL    HW219911   5.148   4.696   5.780
 6338SOL     OW19912   3.627   1.869   4.490
 6338SOL    HW119913   3.645   1.901   4.583
 6338SOL    HW219914   3.690   1.795   4.468
 6339SOL     OW19915   1.267   3.721   3.015
 6339SOL    HW119916   1.175   3.753   3.035
 6339SOL    HW219917   1.303   3.769   2.935
 6340SOL     OW19918   1.436   5.045   2.485
 6340SOL    HW119919   1.474   4.963   2.527
 6340SOL    HW219920   1.503   5.085   2.422
 6341SOL     OW19921   0.974   4.337   4.473
 6341SOL    HW119922   0.941   4.399   4.545
 6341SOL    HW219923   1.073   4.344   4.466
 6342SOL     OW19924   1.886   1.693   1.851
 6342SOL    HW119925   1.831   1.687   1.767
 6342SOL    HW219926   1.972   1.643   1.838
 6343SOL     OW19927   5.061   2.297   7.020
 6343SOL    HW119928   5.028   2.382   0.037
 6343SOL    HW219929   5.159   2.287   0.016
 6344SOL     OW19930   5.882   3.314   4.502
 6344SOL    HW119931   5.874   3.352   4.410
 6344SOL    HW219932   5.971   3.270   4.512
 6345SOL     OW19933   5.821   2.783   2.105
 6345SOL    HW119934   5.848   2.868   2.152
 6345SOL    HW219935   5.847   2.788   2.009
 6346SOL     OW19936   6.491   5.451   3.928
 6346SOL    HW119937   6.525   5.382   3.864
 6346SOL    HW219938   6.463   5.406   4.013
 6347SOL     OW19939   2.089   0.023   0.387
 6347SOL    HW119940   2.057   6.964   0.433
 6347SOL    HW219941   2.043   0.033   0.299
 6348SOL     OW19942   0.685   3.873   5.586
 6348SOL    HW119943   0.757   3.809   5.557
 6348SOL    HW219944   0.684   3.952   5.526
 6349SOL     OW19945   2.253   0.402   1.683
 6349SOL    HW119946   2.233   0.307   1.658
 6349SOL    HW219947   2.169   0.446   1.713
 6350SOL     OW19948   1.186   5.500   3.977
 6350SOL    HW119949   1.225   5.461   4.062
 6350SOL    HW219950   1.224   5.451   3.899
 6351SOL     OW19951   6.312   4.031   3.619
 6351SOL    HW119952   6.274   4.123   3.629
 6351SOL    HW219953   6.285   3.993   3.530
 6352SOL     OW19954   3.899   6.165   4.614
 6352SOL    HW119955   3.946   6.241   4.658
 6352SOL    HW219956   3.818   6.199   4.567
 6353SOL     OW19957   0.707   0.069   5.881
 6353SOL    HW119958   0.660   0.139   5.935
 6353SOL    HW219959   0.781   0.029   5.936
 6354SOL     OW19960   1.961   5.751   2.877
 6354SOL    HW119961   2.053   5.760   2.838
 6354SOL    HW219962   1.923   5.841   2.896
 6355SOL     OW19963   0.955   5.261   6.571
 6355SOL    HW119964   0.898   5.289   6.649
 6355SOL    HW219965   0.899   5.260   6.488
 6356SOL     OW19966   4.473   5.689   2.098
 6356SOL    HW119967   4.390   5.740   2.076
 6356SOL    HW219968   4.453   5.621   2.168
 6357SOL     OW19969   5.923   3.324   2.904
 6357SOL    HW119970   5.833   3.342   2.864
 6357SOL    HW219971   5.973   3.410   2.913
 6358SOL     OW19972   0.740   2.084   6.441
 6358SOL    HW119973   0.652   2.108   6.399
 6358SOL    HW219974   0.746   1.985   6.452
 6359SOL     OW19975   5.552   6.758   6.612
 6359SOL    HW119976   5.607   6.681   6.578
 6359SOL    HW219977   5.612   6.835   6.632
 6360SOL     OW19978   1.146   4.192   3.772
 6360SOL    HW119979   1.110   4.284   3.782
 6360SOL    HW219980   1.233   4.195   3.722
 6361SOL     OW19981   0.253   0.075   1.615
 6361SOL    HW119982   0.335   0.028   1.583
 6361SOL    HW219983   0.237   0.156   1.558
 6362SOL     OW19984   6.741   6.262   0.131
 6362SOL    HW119985   6.747   6.333   0.060
 6362SOL    HW219986   6.739   6.172   0.089
 6363SOL     OW19987   1.717   4.490   3.420
 6363SOL    HW119988   1.648   4.557   3.447
 6363SOL    HW219989   1.804   4.513   3.464
 6364SOL     OW19990   2.822   1.171   6.266
 6364SOL    HW119991   2.743   1.187   6.325
 6364SOL    HW219992   2.817   1.078   6.229
 6365SOL     OW19993   5.549   0.127   4.103
 6365SOL    HW119994   5.570   0.209   4.156
 6365SOL    HW219995   5.451   0.123   4.084
 6366SOL     OW19996   0.567   6.197   6.071
 6366SOL    HW119997   0.597   6.249   5.991
 6366SOL    HW219998   0.510   6.255   6.129
 6367SOL     OW19999   4.585   1.468   5.408
 6367SOL    HW120000   4.551   1.499   5.497
 6367SOL    HW220001   4.538   1.384   5.382
 6368SOL     OW20002   3.870   4.860   3.354
 6368SOL    HW120003   3.901   4.955   3.355
 6368SOL    HW220004   3.782   4.854   3.307
 6369SOL     OW20005   2.133   5.676   3.264
 6369SOL    HW120006   2.121   5.749   3.197
 6369SOL    HW220007   2.231   5.660   3.279
 6370SOL     OW20008   0.481   3.267   3.252
 6370SOL    HW120009   0.538   3.292   3.330
 6370SOL    HW220010   0.531   3.204   3.193
 6371SOL     OW20011   4.946   4.517   3.992
 6371SOL    HW120012   5.042   4.489   3.998
 6371SOL    HW220013   4.916   4.513   3.896
 6372SOL     OW20014   2.075   0.755   2.237
 6372SOL    HW120015   2.154   0.718   2.189
 6372SOL    HW220016   2.033   0.826   2.181
 6373SOL     OW20017   4.888   3.602   2.629
 6373SOL    HW120018   4.900   3.527   2.564
 6373SOL    HW220019   4.885   3.689   2.579
 6374SOL     OW20020   3.149   4.052   3.633
 6374SOL    HW120021   3.058   4.060   3.594
 6374SOL    HW220022   3.148   3.986   3.707
 6375SOL     OW20023   0.087   2.128   3.712
 6375SOL    HW120024   0.030   2.207   3.691
 6375SOL    HW220025   0.048   2.078   3.789
 6376SOL     OW20026   6.217   2.444   4.775
 6376SOL    HW120027   6.173   2.451   4.865
 6376SOL    HW220028   6.148   2.429   4.705
 6377SOL     OW20029   6.173   2.098   5.564
 6377SOL    HW120030   6.197   2.123   5.470
 6377SOL    HW220031   6.102   2.161   5.597
 6378SOL     OW20032   4.474   5.305   3.997
 6378SOL    HW120033   4.542   5.361   4.044
 6378SOL    HW220034   4.514   5.265   3.915
 6379SOL     OW20035   1.626   3.975   4.093
 6379SOL    HW120036   1.633   4.074   4.104
 6379SOL    HW220037   1.532   3.945   4.107
 6380SOL     OW20038   0.140   1.604   5.826
 6380SOL    HW120039   0.086   1.598   5.741
 6380SOL    HW220040   0.121   1.691   5.871
 6381SOL     OW20041   3.982   3.322   1.755
 6381SOL    HW120042   3.985   3.226   1.785
 6381SOL    HW220043   3.920   3.330   1.678
 6382SOL     OW20044   1.522   2.136   0.959
 6382SOL    HW120045   1.560   2.045   0.977
 6382SOL    HW220046   1.429   2.127   0.924
 6383SOL     OW20047   1.549   1.718   2.676
 6383SOL    HW120048   1.518   1.624   2.688
 6383SOL    HW220049   1.532   1.770   2.760
 6384SOL     OW20050   5.934   4.187   1.787
 6384SOL    HW120051   5.898   4.094   1.797
 6384SOL    HW220052   6.014   4.198   1.847
 6385SOL     OW20053   0.270   4.555   3.959
 6385SOL    HW120054   0.184   4.558   3.908
 6385SOL    HW220055   0.337   4.500   3.908
 6386SOL     OW20056   2.215   4.284   6.124
 6386SOL    HW120057   2.265   4.356   6.075
 6386SOL    HW220058   2.147   4.243   6.063
 6387SOL     OW20059   0.217   1.819   6.515
 6387SOL    HW120060   0.126   1.778   6.514
 6387SOL    HW220061   0.264   1.798   6.429
 6388SOL     OW20062   3.591   4.958   1.582
 6388SOL    HW120063   3.618   4.899   1.505
 6388SOL    HW220064   3.642   5.045   1.576
 6389SOL     OW20065   0.539   5.750   2.388
 6389SOL    HW120066   0.455   5.788   2.427
 6389SOL    HW220067   0.539   5.765   2.289
 6390SOL     OW20068   0.796   1.104   5.982
 6390SOL    HW120069   0.806   1.169   5.907
 6390SOL    HW220070   0.789   1.154   6.068
 6391SOL     OW20071   2.206   0.042   5.860
 6391SOL    HW120072   2.211   7.016   5.947
 6391SOL    HW220073   2.179   0.137   5.878
 6392SOL     OW20074   2.562   5.682   2.514
 6392SOL    HW120075   2.590   5.705   2.421
 6392SOL    HW220076   2.603   5.746   2.579
 6393SOL     OW20077   6.577   0.185   2.315
 6393SOL    HW120078   6.674   0.158   2.313
 6393SOL    HW220079   6.520   0.104   2.305
 6394SOL     OW20080   2.039   5.246   0.909
 6394SOL    HW120081   2.051   5.277   1.004
 6394SOL    HW220082   2.064   5.319   0.846
 6395SOL     OW20083   6.897   1.907   1.043
 6395SOL    HW120084   6.941   1.950   1.123
 6395SOL    HW220085   6.954   1.922   0.962
 6396SOL     OW20086   4.526   3.202   6.058
 6396SOL    HW120087   4.491   3.138   5.990
 6396SOL    HW220088   4.588   3.267   6.013
 6397SOL     OW20089   5.437   2.385   6.886
 6397SOL    HW120090   5.463   2.375   6.983
 6397SOL    HW220091   5.363   2.452   6.879
 6398SOL     OW20092   2.250   6.822   1.484
 6398SOL    HW120093   2.250   6.872   1.397
 6398SOL    HW220094   2.169   6.764   1.489
 6399SOL     OW20095   1.480   6.161   6.613
 6399SOL    HW120096   1.412   6.190   6.546
 6399SOL    HW220097   1.550   6.105   6.569
 6400SOL     OW20098   2.496   6.845   2.209
 6400SOL    HW120099   2.584   6.829   2.256
 6400SOL    HW220100   2.464   6.759   2.170
 6401SOL     OW20101   5.898   4.912   3.630
 6401SOL    HW120102   5.950   4.996   3.616
 6401SOL    HW220103   5.833   4.900   3.555
 6402SOL     OW20104   3.565   1.910   3.110
 6402SOL    HW120105   3.555   1.975   3.185
 6402SOL    HW220106   3.480   1.858   3.099
 6403SOL     OW20107   6.698   6.129   6.607
 6403SOL    HW120108   6.752   6.211   6.626
 6403SOL    HW220109   6.759   6.049   6.606
 6404SOL     OW20110   4.296   1.675   2.183
 6404SOL    HW120111   4.351   1.667   2.100
 6404SOL    HW220112   4.342   1.734   2.249
 6405SOL     OW20113   2.982   0.428   3.828
 6405SOL    HW120114   2.903   0.412   3.768
 6405SOL    HW220115   2.983   0.358   3.899
 6406SOL     OW20116   1.142   2.625   2.937
 6406SOL    HW120117   1.056   2.669   2.963
 6406SOL    HW220118   1.163   2.552   3.001
 6407SOL     OW20119   2.967   5.875   4.147
 6407SOL    HW120120   3.059   5.861   4.184
 6407SOL    HW220121   2.969   5.947   4.078
 6408SOL     OW20122   5.912   2.073   0.102
 6408SOL    HW120123   5.904   2.112   0.194
 6408SOL    HW220124   5.856   2.126   0.039
 6409SOL     OW20125   7.011   4.681   3.435
 6409SOL    HW120126   0.084   4.662   3.453
 6409SOL    HW220127   6.996   4.780   3.436
 6410SOL     OW20128   1.346   1.898   0.441
 6410SOL    HW120129   1.373   1.984   0.398
 6410SOL    HW220130   1.377   1.821   0.385
 6411SOL     OW20131   0.924   2.603   3.412
 6411SOL    HW120132   1.002   2.638   3.360
 6411SOL    HW220133   0.957   2.553   3.492
 6412SOL     OW20134   0.925   2.297   5.370
 6412SOL    HW120135   0.977   2.322   5.288
 6412SOL    HW220136   0.987   2.285   5.446
 6413SOL     OW20137   4.240   4.701   3.922
 6413SOL    HW120138   4.205   4.641   3.994
 6413SOL    HW220139   4.164   4.751   3.880
 6414SOL     OW20140   5.925   1.041   0.730
 6414SOL    HW120141   5.890   1.103   0.661
 6414SOL    HW220142   5.983   0.972   0.687
 6415SOL     OW20143   1.884   2.750   3.263
 6415SOL    HW120144   1.939   2.817   3.313
 6415SOL    HW220145   1.944   2.684   3.218
 6416SOL     OW20146   0.992   1.248   6.439
 6416SOL    HW120147   0.977   1.305   6.519
 6416SOL    HW220148   1.087   1.256   6.408
 6417SOL     OW20149   6.778   5.213   1.647
 6417SOL    HW120150   6.703   5.249   1.590
 6417SOL    HW220151   6.741   5.153   1.717
 6418SOL     OW20152   4.636   4.111   1.710
 6418SOL    HW120153   4.697   4.180   1.749
 6418SOL    HW220154   4.543   4.127   1.742
 6419SOL     OW20155   1.973   4.703   3.229
 6419SOL    HW120156   1.970   4.778   3.295
 6419SOL    HW220157   1.894   4.707   3.169
 6420SOL     OW20158   3.246   4.966   4.651
 6420SOL    HW120159   3.275   4.916   4.570
 6420SOL    HW220160   3.321   5.025   4.682
 6421SOL     OW20161   4.874   0.442   2.845
 6421SOL    HW120162   4.875   0.502   2.925
 6421SOL    HW220163   4.957   0.457   2.791
 6422SOL     OW20164   0.126   0.894   4.294
 6422SOL    HW120165   0.062   0.824   4.325
 6422SOL    HW220166   0.148   0.878   4.198
 6423SOL     OW20167   4.446   5.538   2.612
 6423SOL    HW120168   4.539   5.542   2.576
 6423SOL    HW220169   4.439   5.596   2.693
 6424SOL     OW20170   6.977   5.989   6.227
 6424SOL    HW120171   6.916   5.933   6.283
 6424SOL    HW220172   0.027   6.026   6.285
 6425SOL     OW20173   6.436   6.193   3.017
 6425SOL    HW120174   6.526   6.230   2.997
 6425SOL    HW220175   6.392   6.166   2.931
 6426SOL     OW20176   1.155   5.063   2.847
 6426SOL    HW120177   1.224   4.996   2.874
 6426SOL    HW220178   1.142   5.060   2.747
 6427SOL     OW20179   3.438   3.292   4.811
 6427SOL    HW120180   3.387   3.370   4.776
 6427SOL    HW220181   3.513   3.323   4.869
 6428SOL     OW20182   5.814   3.509   6.368
 6428SOL    HW120183   5.831   3.604   6.341
 6428SOL    HW220184   5.851   3.448   6.298
 6429SOL     OW20185   2.018   1.940   6.130
 6429SOL    HW120186   2.109   1.981   6.124
 6429SOL    HW220187   2.005   1.901   6.221
 6430SOL     OW20188   5.863   0.960   2.129
 6430SOL    HW120189   5.892   0.880   2.076
 6430SOL    HW220190   5.769   0.948   2.159
 6431SOL     OW20191   5.270   6.916   3.790
 6431SOL    HW120192   5.182   6.895   3.834
 6431SOL    HW220193   5.274   7.014   3.771
 6432SOL     OW20194   4.178   3.978   6.620
 6432SOL    HW120195   4.241   3.992   6.544
 6432SOL    HW220196   4.119   3.900   6.600
 6433SOL     OW20197   2.568   4.523   6.623
 6433SOL    HW120198   2.511   4.445   6.598
 6433SOL    HW220199   2.636   4.539   6.551
 6434SOL     OW20200   2.222   4.608   0.369
 6434SOL    HW120201   2.263   4.568   0.451
 6434SOL    HW220202   2.214   4.537   0.298
 6435SOL     OW20203   4.546   6.731   0.138
 6435SOL    HW120204   4.587   6.642   0.155
 6435SOL    HW220205   4.450   6.730   0.167
 6436SOL     OW20206   2.173   3.155   3.438
 6436SOL    HW120207   2.171   3.106   3.350
 6436SOL    HW220208   2.164   3.089   3.512
 6437SOL     OW20209   2.542   1.897   0.982
 6437SOL    HW120210   2.448   1.872   1.004
 6437SOL    HW220211   2.585   1.938   1.063
 6438SOL     OW20212   6.875   4.473   6.339
 6438SOL    HW120213   6.923   4.518   6.264
 6438SOL    HW220214   6.805   4.534   6.375
 6439SOL     OW20215   5.353   1.103   1.633
 6439SOL    HW120216   5.298   1.143   1.706
 6439SOL    HW220217   5.372   1.007   1.654
 6440SOL     OW20218   2.264   1.424   6.496
 6440SOL    HW120219   2.164   1.415   6.496
 6440SOL    HW220220   2.303   1.363   6.428
 6441SOL     OW20221   0.249   6.560   1.747
 6441SOL    HW120222   0.222   6.506   1.827
 6441SOL    HW220223   0.348   6.568   1.745
 6442SOL     OW20224   2.343   0.784   4.368
 6442SOL    HW120225   2.408   0.744   4.304
 6442SOL    HW220226   2.391   0.846   4.431
 6443SOL     OW20227   4.115   2.481   5.415
 6443SOL    HW120228   4.131   2.532   5.330
 6443SOL    HW220229   4.054   2.405   5.397
 6444SOL     OW20230   6.460   3.121   4.164
 6444SOL    HW120231   6.521   3.090   4.092
 6444SOL    HW220232   6.450   3.048   4.232
 6445SOL     OW20233   4.230   3.386   5.468
 6445SOL    HW120234   4.209   3.394   5.565
 6445SOL    HW220235   4.305   3.449   5.445
 6446SOL     OW20236   1.623   1.297   6.414
 6446SOL    HW120237   1.652   1.207   6.448
 6446SOL    HW220238   1.685   1.328   6.343
 6447SOL     OW20239   5.535   4.937   3.025
 6447SOL    HW120240   5.608   4.913   2.961
 6447SOL    HW220241   5.511   5.034   3.015
 6448SOL     OW20242   4.215   5.821   2.208
 6448SOL    HW120243   4.232   5.789   2.301
 6448SOL    HW220244   4.121   5.800   2.182
 6449SOL     OW20245   2.805   4.990   0.666
 6449SOL    HW120246   2.716   4.964   0.705
 6449SOL    HW220247   2.862   5.031   0.738
 6450SOL     OW20248   1.442   4.036   0.928
 6450SOL    HW120249   1.476   4.123   0.893
 6450SOL    HW220250   1.345   4.046   0.953
 6451SOL     OW20251   2.869   0.373   4.755
 6451SOL    HW120252   2.836   0.293   4.804
 6451SOL    HW220253   2.929   0.427   4.815
 6452SOL     OW20254   3.867   6.490   4.555
 6452SOL    HW120255   3.930   6.428   4.601
 6452SOL    HW220256   3.868   6.579   4.600
 6453SOL     OW20257   2.679   6.047   1.058
 6453SOL    HW120258   2.777   6.038   1.077
 6453SOL    HW220259   2.655   5.991   0.979
 6454SOL     OW20260   2.137   1.992   3.392
 6454SOL    HW120261   2.233   1.988   3.421
 6454SOL    HW220262   2.087   1.916   3.435
 6455SOL     OW20263   0.310   2.874   3.827
 6455SOL    HW120264   0.366   2.954   3.849
 6455SOL    HW220265   0.214   2.902   3.820
 6456SOL     OW20266   1.497   0.947   3.627
 6456SOL    HW120267   1.588   0.909   3.608
 6456SOL    HW220268   1.437   0.874   3.661
 6457SOL     OW20269   5.515   1.510   0.842
 6457SOL    HW120270   5.604   1.465   0.845
 6457SOL    HW220271   5.524   1.604   0.874
 6458SOL     OW20272   0.886   6.754   3.709
 6458SOL    HW120273   0.957   6.822   3.694
 6458SOL    HW220274   0.917   6.687   3.776
 6459SOL     OW20275   6.136   4.009   0.582
 6459SOL    HW120276   6.226   4.052   0.589
 6459SOL    HW220277   6.071   4.074   0.541
 6460SOL     OW20278   4.987   6.335   5.971
 6460SOL    HW120279   4.924   6.259   5.951
 6460SOL    HW220280   5.019   6.328   6.065
 6461SOL     OW20281   2.306   4.815   5.800
 6461SOL    HW120282   2.290   4.910   5.774
 6461SOL    HW220283   2.404   4.796   5.796
 6462SOL     OW20284   2.397   2.527   4.832
 6462SOL    HW120285   2.492   2.514   4.862
 6462SOL    HW220286   2.358   2.440   4.803
 6463SOL     OW20287   6.519   3.551   6.644
 6463SOL    HW120288   6.442   3.573   6.704
 6463SOL    HW220289   6.523   3.452   6.629
 6464SOL     OW20290   1.340   5.769   4.458
 6464SOL    HW120291   1.355   5.826   4.540
 6464SOL    HW220292   1.398   5.802   4.384
 6465SOL     OW20293   6.557   2.860   3.065
 6465SOL    HW120294   6.559   2.761   3.078
 6465SOL    HW220295   6.480   2.885   3.006
 6466SOL     OW20296   1.424   1.529   6.296
 6466SOL    HW120297   1.475   1.567   6.219
 6466SOL    HW220298   1.468   1.445   6.327
 6467SOL     OW20299   2.854   1.460   6.907
 6467SOL    HW120300   2.906   1.499   6.830
 6467SOL    HW220301   2.893   1.493   6.993
 6468SOL     OW20302   3.541   6.127   0.285
 6468SOL    HW120303   3.524   6.225   0.290
 6468SOL    HW220304   3.580   6.105   0.195
 6469SOL     OW20305   5.104   0.882   4.817
 6469SOL    HW120306   5.128   0.945   4.891
 6469SOL    HW220307   5.139   0.917   4.730
 6470SOL     OW20308   6.242   4.399   0.575
 6470SOL    HW120309   6.209   4.362   0.488
 6470SOL    HW220310   6.337   4.373   0.589
 6471SOL     OW20311   6.362   6.628   5.668
 6471SOL    HW120312   6.313   6.693   5.727
 6471SOL    HW220313   6.361   6.538   5.712
 6472SOL     OW20314   0.746   5.948   1.092
 6472SOL    HW120315   0.744   6.018   1.164
 6472SOL    HW220316   0.836   5.947   1.049
 6473SOL     OW20317   3.408   1.333   4.636
 6473SOL    HW120318   3.481   1.399   4.654
 6473SOL    HW220319   3.337   1.343   4.705
 6474SOL     OW20320   2.136   4.511   5.802
 6474SOL    HW120321   2.081   4.445   5.853
 6474SOL    HW220322   2.097   4.524   5.711
 6475SOL     OW20323   6.245   5.185   3.989
 6475SOL    HW120324   6.266   5.191   4.087
 6475SOL    HW220325   6.201   5.098   3.969
 6476SOL     OW20326   4.687   3.666   1.073
 6476SOL    HW120327   4.716   3.573   1.048
 6476SOL    HW220328   4.764   3.715   1.113
 6477SOL     OW20329   6.245   5.228   1.428
 6477SOL    HW120330   6.331   5.176   1.431
 6477SOL    HW220331   6.191   5.207   1.510
 6478SOL     OW20332   3.421   6.528   2.287
 6478SOL    HW120333   3.507   6.524   2.235
 6478SOL    HW220334   3.365   6.603   2.252
 6479SOL     OW20335   4.283   5.516   4.076
 6479SOL    HW120336   4.329   5.432   4.048
 6479SOL    HW220337   4.188   5.514   4.048
 6480SOL     OW20338   2.670   2.742   5.759
 6480SOL    HW120339   2.611   2.669   5.723
 6480SOL    HW220340   2.765   2.720   5.737
 6481SOL     OW20341   3.666   2.083   1.743
 6481SOL    HW120342   3.666   2.146   1.821
 6481SOL    HW220343   3.594   2.109   1.679
 6482SOL     OW20344   0.241   0.728   5.907
 6482SOL    HW120345   0.146   0.720   5.879
 6482SOL    HW220346   0.281   0.637   5.916
 6483SOL     OW20347   0.563   6.204   1.386
 6483SOL    HW120348   0.581   6.287   1.333
 6483SOL    HW220349   0.475   6.165   1.359
 6484SOL     OW20350   3.225   6.832   1.792
 6484SOL    HW120351   3.266   6.922   1.798
 6484SOL    HW220352   3.177   6.811   1.877
 6485SOL     OW20353   2.056   5.300   3.708
 6485SOL    HW120354   2.128   5.262   3.650
 6485SOL    HW220355   2.010   5.227   3.758
 6486SOL     OW20356   2.446   5.058   3.786
 6486SOL    HW120357   2.410   5.025   3.873
 6486SOL    HW220358   2.540   5.091   3.800
 6487SOL     OW20359   6.975   6.532   4.865
 6487SOL    HW120360   7.010   6.591   4.793
 6487SOL    HW220361   0.006   6.546   4.948
 6488SOL     OW20362   3.715   6.310   4.374
 6488SOL    HW120363   3.797   6.310   4.317
 6488SOL    HW220364   3.721   6.385   4.441
 6489SOL     OW20365   3.103   2.299   7.016
 6489SOL    HW120366   3.118   2.382   0.046
 6489SOL    HW220367   3.007   2.272   0.000
 6490SOL     OW20368   4.189   1.223   6.365
 6490SOL    HW120369   4.176   1.322   6.362
 6490SOL    HW220370   4.128   1.184   6.434
 6491SOL     OW20371   3.866   1.090   0.544
 6491SOL    HW120372   3.959   1.053   0.548
 6491SOL    HW220373   3.860   1.170   0.603
 6492SOL     OW20374   4.980   5.033   0.657
 6492SOL    HW120375   5.002   5.024   0.560
 6492SOL    HW220376   4.896   5.085   0.668
 6493SOL     OW20377   0.983   5.306   4.797
 6493SOL    HW120378   1.043   5.277   4.722
 6493SOL    HW220379   0.893   5.328   4.762
 6494SOL     OW20380   0.248   0.969   3.239
 6494SOL    HW120381   0.272   1.053   3.288
 6494SOL    HW220382   0.166   0.929   3.280
 6495SOL     OW20383   5.309   6.461   4.590
 6495SOL    HW120384   5.353   6.440   4.678
 6495SOL    HW220385   5.322   6.385   4.527
 6496SOL     OW20386   0.001   0.658   3.211
 6496SOL    HW120387   0.069   0.661   3.138
 6496SOL    HW220388   6.934   0.680   3.174
 6497SOL     OW20389   2.346   2.895   1.242
 6497SOL    HW120390   2.365   2.825   1.174
 6497SOL    HW220391   2.295   2.855   1.318
 6498SOL     OW20392   2.324   4.217   3.547
 6498SOL    HW120393   2.318   4.155   3.468
 6498SOL    HW220394   2.298   4.309   3.519
 6499SOL     OW20395   5.163   2.719   4.919
 6499SOL    HW120396   5.193   2.814   4.914
 6499SOL    HW220397   5.064   2.715   4.927
 6500SOL     OW20398   6.917   4.137   4.010
 6500SOL    HW120399   6.893   4.055   4.062
 6500SOL    HW220400   7.015   4.136   3.989
 6501SOL     OW20401   6.758   2.167   0.082
 6501SOL    HW120402   6.799   2.164   0.173
 6501SOL    HW220403   6.800   2.097   0.024
 6502SOL     OW20404   6.344   2.932   1.730
 6502SOL    HW120405   6.437   2.901   1.747
 6502SOL    HW220406   6.280   2.875   1.782
 6503SOL     OW20407   4.682   1.300   3.141
 6503SOL    HW120408   4.747   1.254   3.201
 6503SOL    HW220409   4.598   1.320   3.192
 6504SOL     OW20410   4.663   6.164   5.653
 6504SOL    HW120411   4.594   6.235   5.640
 6504SOL    HW220412   4.737   6.176   5.587
 6505SOL     OW20413   5.463   6.325   1.633
 6505SOL    HW120414   5.405   6.385   1.688
 6505SOL    HW220415   5.444   6.230   1.654
 6506SOL     OW20416   6.447   2.651   1.978
 6506SOL    HW120417   6.529   2.651   1.922
 6506SOL    HW220418   6.374   2.600   1.932
 6507SOL     OW20419   2.273   5.151   5.430
 6507SOL    HW120420   2.333   5.225   5.460
 6507SOL    HW220421   2.328   5.071   5.408
 6508SOL     OW20422   1.719   0.814   2.658
 6508SOL    HW120423   1.660   0.894   2.652
 6508SOL    HW220424   1.665   0.731   2.642
 6509SOL     OW20425   3.339   2.116   4.559
 6509SOL    HW120426   3.275   2.170   4.503
 6509SOL    HW220427   3.429   2.115   4.514
 6510SOL     OW20428   0.051   4.666   0.118
 6510SOL    HW120429   6.986   4.704   0.092
 6510SOL    HW220430   0.099   4.730   0.177
 6511SOL     OW20431   4.452   1.278   4.388
 6511SOL    HW120432   4.441   1.368   4.430
 6511SOL    HW220433   4.548   1.262   4.368
 6512SOL     OW20434   4.826   6.447   1.555
 6512SOL    HW120435   4.858   6.525   1.610
 6512SOL    HW220436   4.745   6.408   1.598
 6513SOL     OW20437   3.312   5.323   3.130
 6513SOL    HW120438   3.328   5.287   3.038
 6513SOL    HW220439   3.216   5.347   3.140
 6514SOL     OW20440   5.465   0.953   3.979
 6514SOL    HW120441   5.411   0.872   3.999
 6514SOL    HW220442   5.418   1.008   3.910
 6515SOL     OW20443   0.331   5.333   4.441
 6515SOL    HW120444   0.240   5.371   4.424
 6515SOL    HW220445   0.380   5.324   4.354
 6516SOL     OW20446   0.264   3.140   1.883
 6516SOL    HW120447   0.359   3.109   1.881
 6516SOL    HW220448   0.248   3.203   1.806
 6517SOL     OW20449   6.137   0.488   0.528
 6517SOL    HW120450   6.117   0.393   0.549
 6517SOL    HW220451   6.074   0.547   0.579
 6518SOL     OW20452   6.647   6.501   6.627
 6518SOL    HW120453   6.734   6.527   6.585
 6518SOL    HW220454   6.664   6.461   6.717
 6519SOL     OW20455   2.130   1.499   3.502
 6519SOL    HW120456   2.181   1.509   3.588
 6519SOL    HW220457   2.164   1.419   3.452
 6520SOL     OW20458   5.214   5.591   2.431
 6520SOL    HW120459   5.264   5.572   2.516
 6520SOL    HW220460   5.245   5.678   2.393
 6521SOL     OW20461   2.118   3.289   4.572
 6521SOL    HW120462   2.130   3.315   4.476
 6521SOL    HW220463   2.151   3.195   4.585
 6522SOL     OW20464   4.158   4.365   0.264
 6522SOL    HW120465   4.151   4.438   0.197
 6522SOL    HW220466   4.195   4.401   0.350
 6523SOL     OW20467   3.962   1.061   6.464
 6523SOL    HW120468   3.865   1.085   6.465
 6523SOL    HW220469   3.997   1.060   6.557
 6524SOL     OW20470   2.664   4.024   1.681
 6524SOL    HW120471   2.647   4.077   1.598
 6524SOL    HW220472   2.757   3.988   1.679
 6525SOL     OW20473   1.989   4.790   2.529
 6525SOL    HW120474   1.980   4.740   2.443
 6525SOL    HW220475   1.948   4.881   2.518
 6526SOL     OW20476   2.096   6.882   6.561
 6526SOL    HW120477   2.128   6.803   6.508
 6526SOL    HW220478   2.166   6.908   6.627
 6527SOL     OW20479   0.679   2.609   4.475
 6527SOL    HW120480   0.679   2.510   4.488
 6527SOL    HW220481   0.684   2.654   4.564
 6528SOL     OW20482   6.950   0.745   4.431
 6528SOL    HW120483   6.915   0.827   4.476
 6528SOL    HW220484   6.880   0.674   4.433
 6529SOL     OW20485   1.039   1.597   2.741
 6529SOL    HW120486   1.045   1.679   2.683
 6529SOL    HW220487   1.002   1.623   2.830
 6530SOL     OW20488   0.166   3.461   0.684
 6530SOL    HW120489   0.159   3.420   0.775
 6530SOL    HW220490   0.159   3.389   0.615
 6531SOL     OW20491   5.767   3.549   4.648
 6531SOL    HW120492   5.774   3.632   4.593
 6531SOL    HW220493   5.821   3.476   4.607
 6532SOL     OW20494   6.113   0.643   0.019
 6532SOL    HW120495   6.189   0.707   0.008
 6532SOL    HW220496   6.076   0.652   0.112
 6533SOL     OW20497   4.500   6.852   1.350
 6533SOL    HW120498   4.549   6.808   1.274
 6533SOL    HW220499   4.464   6.782   1.412
 6534SOL     OW20500   3.416   4.266   1.414
 6534SOL    HW120501   3.386   4.172   1.431
 6534SOL    HW220502   3.347   4.313   1.359
 6535SOL     OW20503   6.478   3.964   4.585
 6535SOL    HW120504   6.495   3.973   4.487
 6535SOL    HW220505   6.442   3.873   4.605
 6536SOL     OW20506   1.050   1.335   5.728
 6536SOL    HW120507   0.967   1.344   5.673
 6536SOL    HW220508   1.091   1.425   5.743
 6537SOL     OW20509   6.643   5.050   0.137
 6537SOL    HW120510   6.601   5.132   0.098
 6537SOL    HW220511   6.743   5.055   0.125
 6538SOL     OW20512   2.581   3.291   6.903
 6538SOL    HW120513   2.591   3.204   6.952
 6538SOL    HW220514   2.484   3.311   6.889
 6539SOL     OW20515   3.308   0.782   6.506
 6539SOL    HW120516   3.405   0.756   6.509
 6539SOL    HW220517   3.294   0.866   6.559
 6540SOL     OW20518   5.026   1.491   5.231
 6540SOL    HW120519   4.973   1.430   5.172
 6540SOL    HW220520   5.061   1.440   5.309
 6541SOL     OW20521   4.728   1.697   5.494
 6541SOL    HW120522   4.685   1.641   5.423
 6541SOL    HW220523   4.756   1.785   5.454
 6542SOL     OW20524   6.411   4.315   4.132
 6542SOL    HW120525   6.485   4.355   4.078
 6542SOL    HW220526   6.340   4.279   4.072
 6543SOL     OW20527   5.729   3.138   5.878
 6543SOL    HW120528   5.735   3.237   5.859
 6543SOL    HW220529   5.706   3.090   5.794
 6544SOL     OW20530   0.238   6.060   2.668
 6544SOL    HW120531   0.295   6.126   2.717
 6544SOL    HW220532   0.176   6.015   2.732
 6545SOL     OW20533   4.920   1.999   0.369
 6545SOL    HW120534   4.842   2.025   0.314
 6545SOL    HW220535   4.975   1.932   0.319
 6546SOL     OW20536   3.798   4.440   6.926
 6546SOL    HW120537   3.724   4.504   6.947
 6546SOL    HW220538   3.786   4.357   6.982
 6547SOL     OW20539   4.720   1.383   5.981
 6547SOL    HW120540   4.632   1.337   5.980
 6547SOL    HW220541   4.738   1.424   5.892
 6548SOL     OW20542   0.986   4.326   6.901
 6548SOL    HW120543   1.057   4.257   6.889
 6548SOL    HW220544   1.007   4.406   6.845
 6549SOL     OW20545   4.626   0.618   1.117
 6549SOL    HW120546   4.579   0.643   1.201
 6549SOL    HW220547   4.703   0.558   1.138
 6550SOL     OW20548   0.565   6.759   4.263
 6550SOL    HW120549   0.559   6.812   4.179
 6550SOL    HW220550   0.614   6.673   4.245
 6551SOL     OW20551   1.046   4.771   2.859
 6551SOL    HW120552   1.084   4.717   2.784
 6551SOL    HW220553   1.076   4.866   2.851
 6552SOL     OW20554   2.138   0.032   5.459
 6552SOL    HW120555   2.076   0.108   5.436
 6552SOL    HW220556   2.111   7.016   5.546
 6553SOL     OW20557   0.324   1.738   3.017
 6553SOL    HW120558   0.344   1.677   2.941
 6553SOL    HW220559   0.409   1.781   3.048
 6554SOL     OW20560   6.121   1.019   5.140
 6554SOL    HW120561   6.130   0.939   5.199
 6554SOL    HW220562   6.206   1.071   5.140
 6555SOL     OW20563   0.102   2.200   2.262
 6555SOL    HW120564   0.003   2.189   2.271
 6555SOL    HW220565   0.149   2.123   2.304
 6556SOL     OW20566   5.056   4.267   5.086
 6556SOL    HW120567   4.970   4.269   5.035
 6556SOL    HW220568   5.037   4.271   5.184
 6557SOL     OW20569   3.231   5.868   1.207
 6557SOL    HW120570   3.291   5.929   1.259
 6557SOL    HW220571   3.208   5.909   1.119
 6558SOL     OW20572   6.184   4.612   0.216
 6558SOL    HW120573   6.134   4.585   0.134
 6558SOL    HW220574   6.183   4.712   0.224
 6559SOL     OW20575   0.902   4.133   5.972
 6559SOL    HW120576   0.896   4.050   5.916
 6559SOL    HW220577   0.833   4.199   5.942
 6560SOL     OW20578   4.235   4.694   0.969
 6560SOL    HW120579   4.170   4.638   1.021
 6560SOL    HW220580   4.208   4.695   0.873
 6561SOL     OW20581   3.849   3.896   2.339
 6561SOL    HW120582   3.809   3.809   2.312
 6561SOL    HW220583   3.790   3.971   2.309
 6562SOL     OW20584   5.648   3.972   0.848
 6562SOL    HW120585   5.631   4.064   0.883
 6562SOL    HW220586   5.714   3.976   0.773
 6563SOL     OW20587   6.257   6.632   0.413
 6563SOL    HW120588   6.166   6.671   0.423
 6563SOL    HW220589   6.317   6.698   0.369
 6564SOL     OW20590   7.010   4.155   3.006
 6564SOL    HW120591   0.080   4.190   3.017
 6564SOL    HW220592   6.979   4.172   2.913
 6565SOL     OW20593   6.586   2.744   3.917
 6565SOL    HW120594   6.644   2.717   3.839
 6565SOL    HW220595   6.613   2.693   3.998
 6566SOL     OW20596   3.219   6.118   2.961
 6566SOL    HW120597   3.129   6.158   2.944
 6566SOL    HW220598   3.240   6.052   2.888
 6567SOL     OW20599   3.904   1.480   1.784
 6567SOL    HW120600   3.999   1.508   1.804
 6567SOL    HW220601   3.905   1.400   1.724
 6568SOL     OW20602   4.289   0.724   3.542
 6568SOL    HW120603   4.282   0.627   3.561
 6568SOL    HW220604   4.233   0.746   3.461
 6569SOL     OW20605   2.944   3.459   6.655
 6569SOL    HW120606   2.907   3.455   6.562
 6569SOL    HW220607   2.963   3.366   6.687
 6570SOL     OW20608   3.912   7.010   2.481
 6570SOL    HW120609   3.898   6.946   2.405
 6570SOL    HW220610   3.918   0.080   2.445
 6571SOL     OW20611   2.498   5.382   2.104
 6571SOL    HW120612   2.506   5.362   2.006
 6571SOL    HW220613   2.534   5.305   2.157
 6572SOL     OW20614   6.652   5.141   5.652
 6572SOL    HW120615   6.618   5.194   5.575
 6572SOL    HW220616   6.586   5.145   5.727
 6573SOL     OW20617   2.629   1.426   1.922
 6573SOL    HW120618   2.532   1.410   1.943
 6573SOL    HW220619   2.639   1.516   1.878
 6574SOL     OW20620   3.362   5.997   2.759
 6574SOL    HW120621   3.410   5.916   2.728
 6574SOL    HW220622   3.353   6.062   2.684
 6575SOL     OW20623   1.185   0.312   2.177
 6575SOL    HW120624   1.194   0.411   2.164
 6575SOL    HW220625   1.088   0.289   2.190
 6576SOL     OW20626   2.356   6.012   6.488
 6576SOL    HW120627   2.419   6.075   6.535
 6576SOL    HW220628   2.374   6.015   6.389
 6577SOL     OW20629   0.955   1.124   4.166
 6577SOL    HW120630   0.892   1.049   4.146
 6577SOL    HW220631   0.937   1.200   4.104
 6578SOL     OW20632   0.798   4.178   3.247
 6578SOL    HW120633   0.806   4.236   3.166
 6578SOL    HW220634   0.889   4.157   3.281
 6579SOL     OW20635   0.343   3.445   4.890
 6579SOL    HW120636   0.325   3.347   4.883
 6579SOL    HW220637   0.270   3.495   4.843
 6580SOL     OW20638   6.299   1.996   1.012
 6580SOL    HW120639   6.317   2.016   0.916
 6580SOL    HW220640   6.286   2.082   1.062
 6581SOL     OW20641   2.324   1.357   0.278
 6581SOL    HW120642   2.267   1.281   0.246
 6581SOL    HW220643   2.325   1.358   0.378
 6582SOL     OW20644   1.343   1.243   1.592
 6582SOL    HW120645   1.372   1.332   1.628
 6582SOL    HW220646   1.292   1.193   1.662
 6583SOL     OW20647   3.753   6.927   4.885
 6583SOL    HW120648   3.756   6.945   4.983
 6583SOL    HW220649   3.661   6.946   4.850
 6584SOL     OW20650   4.591   1.778   0.141
 6584SOL    HW120651   4.681   1.787   0.100
 6584SOL    HW220652   4.526   1.837   0.092
 6585SOL     OW20653   6.554   6.676   0.511
 6585SOL    HW120654   6.506   6.597   0.549
 6585SOL    HW220655   6.578   6.658   0.415
 6586SOL     OW20656   6.465   2.023   5.895
 6586SOL    HW120657   6.430   1.964   5.967
 6586SOL    HW220658   6.522   1.969   5.833
 6587SOL     OW20659   2.895   5.932   5.054
 6587SOL    HW120660   2.806   5.977   5.062
 6587SOL    HW220661   2.925   5.933   4.958
 6588SOL     OW20662   1.176   3.975   1.947
 6588SOL    HW120663   1.266   3.935   1.931
 6588SOL    HW220664   1.134   3.932   2.027
 6589SOL     OW20665   5.220   0.065   0.703
 6589SOL    HW120666   5.203   0.154   0.745
 6589SOL    HW220667   5.164   0.056   0.620
 6590SOL     OW20668   1.034   1.254   5.442
 6590SOL    HW120669   1.014   1.352   5.446
 6590SOL    HW220670   1.123   1.235   5.483
 6591SOL     OW20671   5.413   6.068   1.732
 6591SOL    HW120672   5.348   6.119   1.790
 6591SOL    HW220673   5.449   5.990   1.784
 6592SOL     OW20674   6.200   6.872   4.040
 6592SOL    HW120675   6.247   6.809   3.978
 6592SOL    HW220676   6.156   6.819   4.113
 6593SOL     OW20677   2.695   1.966   2.947
 6593SOL    HW120678   2.658   1.996   3.034
 6593SOL    HW220679   2.793   1.949   2.956
 6594SOL     OW20680   4.052   1.871   0.169
 6594SOL    HW120681   4.099   1.783   0.162
 6594SOL    HW220682   3.988   1.868   0.245
 6595SOL     OW20683   0.789   3.219   0.214
 6595SOL    HW120684   0.883   3.243   0.238
 6595SOL    HW220685   0.759   3.272   0.135
 6596SOL     OW20686   3.383   6.493   4.309
 6596SOL    HW120687   3.315   6.565   4.302
 6596SOL    HW220688   3.474   6.530   4.288
 6597SOL     OW20689   2.431   6.450   2.318
 6597SOL    HW120690   2.372   6.509   2.263
 6597SOL    HW220691   2.493   6.506   2.373
 6598SOL     OW20692   1.110   6.726   4.038
 6598SOL    HW120693   1.063   6.647   3.999
 6598SOL    HW220694   1.192   6.696   4.087
 6599SOL     OW20695   4.995   6.541   5.527
 6599SOL    HW120696   5.083   6.537   5.574
 6599SOL    HW220697   4.925   6.573   5.590
 6600SOL     OW20698   5.111   5.033   6.105
 6600SOL    HW120699   5.045   5.106   6.087
 6600SOL    HW220700   5.166   5.017   6.023
 6601SOL     OW20701   1.072   1.857   5.681
 6601SOL    HW120702   0.975   1.849   5.656
 6601SOL    HW220703   1.081   1.908   5.766
 6602SOL     OW20704   0.733   1.865   1.528
 6602SOL    HW120705   0.804   1.817   1.475
 6602SOL    HW220706   0.655   1.804   1.542
 6603SOL     OW20707   0.629   3.015   3.874
 6603SOL    HW120708   0.600   2.961   3.953
 6603SOL    HW220709   0.552   3.069   3.841
 6604SOL     OW20710   2.234   6.806   0.973
 6604SOL    HW120711   2.265   6.735   1.035
 6604SOL    HW220712   2.153   6.774   0.923
 6605SOL     OW20713   5.928   4.169   1.517
 6605SOL    HW120714   5.854   4.223   1.475
 6605SOL    HW220715   5.935   4.192   1.614
 6606SOL     OW20716   6.613   6.210   2.642
 6606SOL    HW120717   6.708   6.195   2.618
 6606SOL    HW220718   6.578   6.131   2.692
 6607SOL     OW20719   1.443   2.864   2.459
 6607SOL    HW120720   1.495   2.929   2.404
 6607SOL    HW220721   1.505   2.813   2.518
 6608SOL     OW20722   5.967   6.394   1.886
 6608SOL    HW120723   6.061   6.368   1.867
 6608SOL    HW220724   5.931   6.336   1.960
 6609SOL     OW20725   4.840   1.180   5.796
 6609SOL    HW120726   4.791   1.103   5.756
 6609SOL    HW220727   4.775   1.253   5.817
 6610SOL     OW20728   2.388   0.724   6.873
 6610SOL    HW120729   2.296   0.701   6.842
 6610SOL    HW220730   2.405   0.822   6.859
 6611SOL     OW20731   6.232   2.992   3.752
 6611SOL    HW120732   6.193   2.983   3.661
 6611SOL    HW220733   6.326   3.027   3.746
 6612SOL     OW20734   6.197   2.017   6.748
 6612SOL    HW120735   6.205   2.028   6.649
 6612SOL    HW220736   6.100   2.023   6.775
 6613SOL     OW20737   6.617   6.591   5.263
 6613SOL    HW120738   6.565   6.659   5.316
 6613SOL    HW220739   6.673   6.536   5.324
 6614SOL     OW20740   5.475   6.002   0.692
 6614SOL    HW120741   5.480   5.961   0.783
 6614SOL    HW220742   5.565   6.040   0.667
 6615SOL     OW20743   1.060   4.689   2.583
 6615SOL    HW120744   0.968   4.648   2.590
 6615SOL    HW220745   1.064   4.748   2.503
 6616SOL     OW20746   3.863   1.289   5.990
 6616SOL    HW120747   3.826   1.317   6.079
 6616SOL    HW220748   3.797   1.231   5.943
 6617SOL     OW20749   3.427   5.432   2.716
 6617SOL    HW120750   3.458   5.497   2.786
 6617SOL    HW220751   3.373   5.481   2.648
 6618SOL     OW20752   1.143   3.083   2.833
 6618SOL    HW120753   1.184   3.027   2.761
 6618SOL    HW220754   1.046   3.058   2.843
 6619SOL     OW20755   6.159   0.100   4.513
 6619SOL    HW120756   6.086   0.167   4.500
 6619SOL    HW220757   6.201   0.114   4.603
 6620SOL     OW20758   1.719   2.781   5.479
 6620SOL    HW120759   1.807   2.794   5.434
 6620SOL    HW220760   1.727   2.806   5.576
 6621SOL     OW20761   2.237   3.401   6.249
 6621SOL    HW120762   2.277   3.351   6.172
 6621SOL    HW220763   2.289   3.379   6.332
 6622SOL     OW20764   6.046   7.003   1.775
 6622SOL    HW120765   6.000   0.025   1.698
 6622SOL    HW220766   6.127   6.955   1.742
 6623SOL     OW20767   2.247   3.008   6.267
 6623SOL    HW120768   2.296   3.050   6.191
 6623SOL    HW220769   2.312   2.982   6.338
 6624SOL     OW20770   0.953   6.085   4.437
 6624SOL    HW120771   0.976   5.989   4.418
 6624SOL    HW220772   0.985   6.109   4.529
 6625SOL     OW20773   5.135   1.887   5.503
 6625SOL    HW120774   5.090   1.932   5.580
 6625SOL    HW220775   5.068   1.835   5.450
 6626SOL     OW20776   4.544   5.589   5.665
 6626SOL    HW120777   4.465   5.645   5.692
 6626SOL    HW220778   4.513   5.508   5.616
 6627SOL     OW20779   2.563   0.307   5.442
 6627SOL    HW120780   2.580   0.263   5.531
 6627SOL    HW220781   2.468   0.337   5.438
 6628SOL     OW20782   4.465   4.537   4.515
 6628SOL    HW120783   4.475   4.493   4.604
 6628SOL    HW220784   4.555   4.565   4.481
 6629SOL     OW20785   4.241   6.116   0.280
 6629SOL    HW120786   4.257   6.122   0.379
 6629SOL    HW220787   4.255   6.206   0.238
 6630SOL     OW20788   4.022   1.029   1.755
 6630SOL    HW120789   3.926   1.037   1.781
 6630SOL    HW220790   4.074   1.102   1.798
 6631SOL     OW20791   2.670   6.181   2.787
 6631SOL    HW120792   2.639   6.268   2.748
 6631SOL    HW220793   2.768   6.185   2.803
 6632SOL     OW20794   0.545   5.872   1.377
 6632SOL    HW120795   0.486   5.953   1.374
 6632SOL    HW220796   0.581   5.860   1.470
 6633SOL     OW20797   0.866   4.343   6.595
 6633SOL    HW120798   0.871   4.245   6.575
 6633SOL    HW220799   0.953   4.373   6.635
 6634SOL     OW20800   6.144   2.160   4.016
 6634SOL    HW120801   6.061   2.181   3.964
 6634SOL    HW220802   6.193   2.085   3.971
 6635SOL     OW20803   3.847   4.861   2.984
 6635SOL    HW120804   3.824   4.957   2.969
 6635SOL    HW220805   3.843   4.812   2.897
 6636SOL     OW20806   5.003   2.305   5.569
 6636SOL    HW120807   5.019   2.222   5.624
 6636SOL    HW220808   4.925   2.355   5.607
 6637SOL     OW20809   1.455   6.931   6.308
 6637SOL    HW120810   1.384   6.938   6.238
 6637SOL    HW220811   1.434   6.996   6.382
 6638SOL     OW20812   3.326   4.007   4.007
 6638SOL    HW120813   3.288   3.954   4.082
 6638SOL    HW220814   3.410   4.053   4.038
 6639SOL     OW20815   5.924   4.794   6.452
 6639SOL    HW120816   5.946   4.868   6.389
 6639SOL    HW220817   5.983   4.800   6.533
 6640SOL     OW20818   1.337   1.872   5.295
 6640SOL    HW120819   1.389   1.826   5.367
 6640SOL    HW220820   1.363   1.968   5.291
 6641SOL     OW20821   2.315   2.331   0.084
 6641SOL    HW120822   2.367   2.376   0.156
 6641SOL    HW220823   2.373   2.266   0.036
 6642SOL     OW20824   3.050   4.902   6.054
 6642SOL    HW120825   3.148   4.909   6.037
 6642SOL    HW220826   3.031   4.909   6.152
 6643SOL     OW20827   6.632   5.380   0.309
 6643SOL    HW120828   6.651   5.469   0.266
 6643SOL    HW220829   6.583   5.322   0.244
 6644SOL     OW20830   2.690   4.698   2.183
 6644SOL    HW120831   2.765   4.689   2.118
 6644SOL    HW220832   2.647   4.609   2.197
 6645SOL     OW20833   6.381   4.995   0.502
 6645SOL    HW120834   6.470   4.950   0.507
 6645SOL    HW220835   6.373   5.043   0.414
 6646SOL     OW20836   3.863   0.263   5.101
 6646SOL    HW120837   3.917   0.283   5.019
 6646SOL    HW220838   3.852   0.164   5.110
 6647SOL     OW20839   4.104   0.969   2.112
 6647SOL    HW120840   4.148   0.880   2.117
 6647SOL    HW220841   4.173   1.041   2.108
 6648SOL     OW20842   4.057   6.800   2.796
 6648SOL    HW120843   4.069   6.896   2.769
 6648SOL    HW220844   4.037   6.796   2.894
 6649SOL     OW20845   5.636   0.941   6.716
 6649SOL    HW120846   5.583   0.946   6.801
 6649SOL    HW220847   5.586   0.887   6.649
 6650SOL     OW20848   3.306   1.614   5.353
 6650SOL    HW120849   3.247   1.549   5.402
 6650SOL    HW220850   3.401   1.597   5.377
 6651SOL     OW20851   2.024   1.569   5.995
 6651SOL    HW120852   2.006   1.643   6.059
 6651SOL    HW220853   2.110   1.587   5.947
 6652SOL     OW20854   6.977   3.988   0.627
 6652SOL    HW120855   7.016   3.917   0.686
 6652SOL    HW220856   6.895   3.952   0.583
 6653SOL     OW20857   3.430   2.834   2.427
 6653SOL    HW120858   3.428   2.851   2.329
 6653SOL    HW220859   3.340   2.856   2.466
 6654SOL     OW20860   1.610   3.664   1.814
 6654SOL    HW120861   1.658   3.623   1.892
 6654SOL    HW220862   1.677   3.686   1.742
 6655SOL     OW20863   1.845   0.069   2.343
 6655SOL    HW120864   1.926   0.054   2.399
 6655SOL    HW220865   1.801   0.155   2.370
 6656SOL     OW20866   5.487   1.721   2.235
 6656SOL    HW120867   5.403   1.677   2.202
 6656SOL    HW220868   5.495   1.813   2.196
 6657SOL     OW20869   5.953   6.083   6.443
 6657SOL    HW120870   5.997   6.154   6.498
 6657SOL    HW220871   5.940   6.001   6.499
 6658SOL     OW20872   5.929   1.315   5.125
 6658SOL    HW120873   5.854   1.381   5.130
 6658SOL    HW220874   5.891   1.223   5.110
 6659SOL     OW20875   2.328   2.608   0.645
 6659SOL    HW120876   2.282   2.694   0.622
 6659SOL    HW220877   2.283   2.567   0.724
 6660SOL     OW20878   0.961   5.606   0.383
 6660SOL    HW120879   1.052   5.604   0.425
 6660SOL    HW220880   0.904   5.674   0.430
 6661SOL     OW20881   1.196   6.278   4.938
 6661SOL    HW120882   1.133   6.336   4.990
 6661SOL    HW220883   1.205   6.313   4.845
 6662SOL     OW20884   0.801   1.373   0.295
 6662SOL    HW120885   0.791   1.445   0.364
 6662SOL    HW220886   0.896   1.370   0.263
 6663SOL     OW20887   0.080   5.490   3.844
 6663SOL    HW120888   0.004   5.429   3.865
 6663SOL    HW220889   0.112   5.533   3.929
 6664SOL     OW20890   2.643   6.172   0.093
 6664SOL    HW120891   2.661   6.210   0.184
 6664SOL    HW220892   2.639   6.246   0.026
 6665SOL     OW20893   1.663   6.931   3.706
 6665SOL    HW120894   1.724   6.860   3.669
 6665SOL    HW220895   1.642   6.998   3.635
 6666SOL     OW20896   5.463   0.044   5.865
 6666SOL    HW120897   5.367   0.038   5.837
 6666SOL    HW220898   5.471   0.019   5.961
 6667SOL     OW20899   6.422   6.025   6.505
 6667SOL    HW120900   6.489   6.081   6.554
 6667SOL    HW220901   6.403   5.942   6.558
 6668SOL     OW20902   6.812   5.714   2.010
 6668SOL    HW120903   6.847   5.632   2.054
 6668SOL    HW220904   6.888   5.775   1.988
 6669SOL     OW20905   1.874   2.672   4.042
 6669SOL    HW120906   1.945   2.686   3.973
 6669SOL    HW220907   1.791   2.638   3.998
 6670SOL     OW20908   3.988   2.582   5.636
 6670SOL    HW120909   3.996   2.506   5.700
 6670SOL    HW220910   4.050   2.566   5.559
 6671SOL     OW20911   5.620   5.693   1.300
 6671SOL    HW120912   5.593   5.779   1.258
 6671SOL    HW220913   5.541   5.631   1.304
 6672SOL     OW20914   6.642   1.827   6.367
 6672SOL    HW120915   6.558   1.882   6.368
 6672SOL    HW220916   6.622   1.736   6.330
 6673SOL     OW20917   5.223   5.805   3.560
 6673SOL    HW120918   5.159   5.794   3.484
 6673SOL    HW220919   5.184   5.869   3.626
 6674SOL     OW20920   0.809   4.853   5.482
 6674SOL    HW120921   0.854   4.764   5.484
 6674SOL    HW220922   0.750   4.859   5.401
 6675SOL     OW20923   4.633   3.487   1.738
 6675SOL    HW120924   4.537   3.487   1.712
 6675SOL    HW220925   4.673   3.398   1.719
 6676SOL     OW20926   6.683   4.620   5.786
 6676SOL    HW120927   6.592   4.585   5.764
 6676SOL    HW220928   6.692   4.714   5.753
 6677SOL     OW20929   0.795   1.849   6.154
 6677SOL    HW120930   0.741   1.902   6.089
 6677SOL    HW220931   0.862   1.909   6.199
 6678SOL     OW20932   2.927   3.186   6.795
 6678SOL    HW120933   2.836   3.187   6.753
 6678SOL    HW220934   2.980   3.112   6.754
 6679SOL     OW20935   2.329   1.877   3.874
 6679SOL    HW120936   2.297   1.791   3.835
 6679SOL    HW220937   2.311   1.951   3.809
 6680SOL     OW20938   4.592   0.404   6.356
 6680SOL    HW120939   4.530   0.446   6.423
 6680SOL    HW220940   4.634   0.475   6.300
 6681SOL     OW20941   4.437   5.245   0.721
 6681SOL    HW120942   4.446   5.158   0.672
 6681SOL    HW220943   4.420   5.227   0.818
 6682SOL     OW20944   1.657   4.238   3.356
 6682SOL    HW120945   1.676   4.323   3.405
 6682SOL    HW220946   1.586   4.254   3.287
 6683SOL     OW20947   5.975   3.106   5.188
 6683SOL    HW120948   5.890   3.123   5.138
 6683SOL    HW220949   5.970   3.149   5.278
 6684SOL     OW20950   2.568   6.491   1.494
 6684SOL    HW120951   2.475   6.456   1.499
 6684SOL    HW220952   2.626   6.426   1.444
 6685SOL     OW20953   5.927   2.956   6.177
 6685SOL    HW120954   5.874   3.020   6.232
 6685SOL    HW220955   5.865   2.895   6.127
 6686SOL     OW20956   5.266   5.799   4.815
 6686SOL    HW120957   5.340   5.858   4.847
 6686SOL    HW220958   5.296   5.704   4.819
 6687SOL     OW20959   1.174   2.787   0.087
 6687SOL    HW120960   1.125   2.776   0.173
 6687SOL    HW220961   1.269   2.758   0.098
 6688SOL     OW20962   6.885   4.480   1.557
 6688SOL    HW120963   6.977   4.516   1.544
 6688SOL    HW220964   6.853   4.440   1.471
 6689SOL     OW20965   4.498   3.116   6.960
 6689SOL    HW120966   4.456   3.038   7.007
 6689SOL    HW220967   4.438   3.196   6.968
 6690SOL     OW20968   2.317   0.725   1.247
 6690SOL    HW120969   2.379   0.699   1.173
 6690SOL    HW220970   2.325   0.658   1.321
 6691SOL     OW20971   2.986   6.470   1.213
 6691SOL    HW120972   2.899   6.520   1.216
 6691SOL    HW220973   3.054   6.519   1.268
 6692SOL     OW20974   3.972   3.884   5.456
 6692SOL    HW120975   4.048   3.915   5.514
 6692SOL    HW220976   3.992   3.905   5.361
 6693SOL     OW20977   4.394   3.909   5.803
 6693SOL    HW120978   4.427   3.899   5.709
 6693SOL    HW220979   4.466   3.882   5.867
 6694SOL     OW20980   5.230   4.995   0.861
 6694SOL    HW120981   5.173   5.014   0.781
 6694SOL    HW220982   5.245   4.896   0.868
 6695SOL     OW20983   2.434   1.466   6.717
 6695SOL    HW120984   2.370   1.437   6.646
 6695SOL    HW220985   2.524   1.427   6.699
 6696SOL     OW20986   0.925   3.003   6.090
 6696SOL    HW120987   0.990   3.065   6.134
 6696SOL    HW220988   0.870   3.054   6.025
 6697SOL     OW20989   4.702   2.685   2.772
 6697SOL    HW120990   4.665   2.708   2.683
 6697SOL    HW220991   4.799   2.664   2.764
 6698SOL     OW20992   3.056   2.744   0.859
 6698SOL    HW120993   3.086   2.666   0.913
 6698SOL    HW220994   3.004   2.807   0.917
 6699SOL     OW20995   3.329   5.133   6.043
 6699SOL    HW120996   3.280   5.154   6.128
 6699SOL    HW220997   3.281   5.175   5.966
 6700SOL     OW20998   6.946   6.916   0.689
 6700SOL    HW120999   6.946   7.012   0.716
 6700SOL    HW221000   6.885   6.864   0.749
 6701SOL     OW21001   5.570   2.739   1.573
 6701SOL    HW121002   5.483   2.738   1.622
 6701SOL    HW221003   5.639   2.689   1.627
 6702SOL     OW21004   2.574   2.434   1.592
 6702SOL    HW121005   2.654   2.393   1.547
 6702SOL    HW221006   2.590   2.435   1.691
 6703SOL     OW21007   6.329   2.101   0.148
 6703SOL    HW121008   6.415   2.103   0.200
 6703SOL    HW221009   6.252   2.120   0.210
 6704SOL     OW21010   3.584   2.102   2.899
 6704SOL    HW121011   3.498   2.087   2.850
 6704SOL    HW221012   3.588   2.044   2.980
 6705SOL     OW21013   6.582   1.999   1.122
 6705SOL    HW121014   6.552   1.928   1.058
 6705SOL    HW221015   6.676   1.980   1.151
 6706SOL     OW21016   1.072   3.856   2.174
 6706SOL    HW121017   1.029   3.946   2.184
 6706SOL    HW221018   1.005   3.785   2.195
 6707SOL     OW21019   0.168   6.066   3.695
 6707SOL    HW121020   0.080   6.112   3.702
 6707SOL    HW221021   0.158   5.971   3.724
 6708SOL     OW21022   0.250   5.528   2.084
 6708SOL    HW121023   0.274   5.548   2.180
 6708SOL    HW221024   0.325   5.556   2.025
 6709SOL     OW21025   2.694   0.026   2.058
 6709SOL    HW121026   2.696   0.107   1.998
 6709SOL    HW221027   2.671   0.054   2.151
 6710SOL     OW21028   2.926   0.862   5.568
 6710SOL    HW121029   2.963   0.810   5.645
 6710SOL    HW221030   2.858   0.807   5.520
 6711SOL     OW21031   5.005   5.255   0.309
 6711SOL    HW121032   4.940   5.193   0.266
 6711SOL    HW221033   5.070   5.287   0.239
 6712SOL     OW21034   4.619   5.121   0.438
 6712SOL    HW121035   4.694   5.146   0.499
 6712SOL    HW221036   4.656   5.089   0.350
 6713SOL     OW21037   2.636   1.151   1.775
 6713SOL    HW121038   2.672   1.227   1.828
 6713SOL    HW221039   2.652   1.168   1.678
 6714SOL     OW21040   6.131   1.132   6.850
 6714SOL    HW121041   6.189   1.058   6.814
 6714SOL    HW221042   6.118   1.119   6.948
 6715SOL     OW21043   0.115   0.166   6.310
 6715SOL    HW121044   0.153   0.109   6.383
 6715SOL    HW221045   0.160   0.145   6.224
 6716SOL     OW21046   0.519   5.754   1.691
 6716SOL    HW121047   0.571   5.822   1.744
 6716SOL    HW221048   0.583   5.690   1.649
 6717SOL     OW21049   4.542   2.673   0.583
 6717SOL    HW121050   4.517   2.747   0.521
 6717SOL    HW221051   4.463   2.612   0.595
 6718SOL     OW21052   4.820   0.156   6.103
 6718SOL    HW121053   4.913   0.149   6.068
 6718SOL    HW221054   4.755   0.151   6.027
 6719SOL     OW21055   1.667   6.737   6.359
 6719SOL    HW121056   1.602   6.803   6.322
 6719SOL    HW221057   1.733   6.784   6.417
 6720SOL     OW21058   0.651   5.556   3.661
 6720SOL    HW121059   0.605   5.586   3.578
 6720SOL    HW221060   0.670   5.635   3.719
 6721SOL     OW21061   6.291   0.508   5.682
 6721SOL    HW121062   6.220   0.577   5.670
 6721SOL    HW221063   6.275   0.456   5.766
 6722SOL     OW21064   6.758   3.634   1.301
 6722SOL    HW121065   6.705   3.619   1.384
 6722SOL    HW221066   6.754   3.730   1.275
 6723SOL     OW21067   1.691   6.867   2.955
 6723SOL    HW121068   1.592   6.857   2.965
 6723SOL    HW221069   1.717   6.961   2.973
 6724SOL     OW21070   1.059   4.008   5.563
 6724SOL    HW121071   0.980   4.063   5.535
 6724SOL    HW221072   1.141   4.065   5.563
 6725SOL     OW21073   1.263   3.964   1.272
 6725SOL    HW121074   1.274   3.976   1.174
 6725SOL    HW221075   1.321   4.030   1.320
 6726SOL     OW21076   0.551   2.409   4.848
 6726SOL    HW121077   0.467   2.360   4.871
 6726SOL    HW221078   0.573   2.396   4.752
 6727SOL     OW21079   6.348   3.585   5.758
 6727SOL    HW121080   6.423   3.592   5.692
 6727SOL    HW221081   6.295   3.670   5.757
 6728SOL     OW21082   4.492   1.217   4.001
 6728SOL    HW121083   4.447   1.195   4.087
 6728SOL    HW221084   4.558   1.291   4.015
 6729SOL     OW21085   0.058   1.696   2.323
 6729SOL    HW121086   0.131   1.699   2.392
 6729SOL    HW221087   7.005   1.753   2.352
 6730SOL     OW21088   2.612   6.294   6.850
 6730SOL    HW121089   2.680   6.279   6.778
 6730SOL    HW221090   2.569   6.383   6.837
 6731SOL     OW21091   1.293   5.038   1.373
 6731SOL    HW121092   1.329   5.023   1.281
 6731SOL    HW221093   1.238   4.960   1.401
 6732SOL     OW21094   4.539   5.197   5.701
 6732SOL    HW121095   4.462   5.235   5.752
 6732SOL    HW221096   4.596   5.271   5.665
 6733SOL     OW21097   4.030   4.974   0.840
 6733SOL    HW121098   4.053   4.900   0.778
 6733SOL    HW221099   4.048   4.946   0.935
 6734SOL     OW21100   6.719   2.557   4.797
 6734SOL    HW121101   6.643   2.622   4.794
 6734SOL    HW221102   6.778   2.572   4.718
 6735SOL     OW21103   0.072   4.758   4.409
 6735SOL    HW121104   0.156   4.734   4.458
 6735SOL    HW221105   0.021   4.826   4.462
 6736SOL     OW21106   3.227   3.613   0.130
 6736SOL    HW121107   3.141   3.631   0.179
 6736SOL    HW221108   3.296   3.580   0.194
 6737SOL     OW21109   2.377   2.833   0.958
 6737SOL    HW121110   2.360   2.931   0.970
 6737SOL    HW221111   2.459   2.821   0.901
 6738SOL     OW21112   2.012   4.007   2.762
 6738SOL    HW121113   2.108   4.019   2.739
 6738SOL    HW221114   2.001   3.922   2.815
 6739SOL     OW21115   3.552   4.565   5.691
 6739SOL    HW121116   3.541   4.477   5.644
 6739SOL    HW221117   3.645   4.572   5.728
 6740SOL     OW21118   1.780   1.462   4.692
 6740SOL    HW121119   1.744   1.519   4.766
 6740SOL    HW221120   1.865   1.501   4.658
 6741SOL     OW21121   4.516   1.297   5.697
 6741SOL    HW121122   4.589   1.345   5.647
 6741SOL    HW221123   4.447   1.363   5.726
 6742SOL     OW21124   6.261   5.698   2.637
 6742SOL    HW121125   6.209   5.649   2.708
 6742SOL    HW221126   6.288   5.634   2.566
 6743SOL     OW21127   4.279   4.344   0.831
 6743SOL    HW121128   4.211   4.308   0.896
 6743SOL    HW221129   4.340   4.407   0.879
 6744SOL     OW21130   5.021   5.642   5.978
 6744SOL    HW121131   4.988   5.728   5.940
 6744SOL    HW221132   4.960   5.567   5.950
 6745SOL     OW21133   0.809   6.516   2.168
 6745SOL    HW121134   0.743   6.589   2.152
 6745SOL    HW221135   0.787   6.471   2.255
 6746SOL     OW21136   0.852   1.091   3.226
 6746SOL    HW121137   0.882   1.156   3.156
 6746SOL    HW221138   0.753   1.080   3.221
 6747SOL     OW21139   5.342   0.420   4.892
 6747SOL    HW121140   5.300   0.459   4.973
 6747SOL    HW221141   5.337   0.320   4.896
 6748SOL     OW21142   1.163   0.360   3.228
 6748SOL    HW121143   1.176   0.445   3.281
 6748SOL    HW221144   1.066   0.344   3.215
 6749SOL     OW21145   3.057   5.718   0.482
 6749SOL    HW121146   3.061   5.684   0.388
 6749SOL    HW221147   3.099   5.809   0.486
 6750SOL     OW21148   4.482   1.098   5.087
 6750SOL    HW121149   4.405   1.136   5.036
 6750SOL    HW221150   4.568   1.123   5.043
 6751SOL     OW21151   3.663   1.376   3.668
 6751SOL    HW121152   3.722   1.379   3.748
 6751SOL    HW221153   3.648   1.469   3.634
 6752SOL     OW21154   6.943   2.966   3.038
 6752SOL    HW121155   7.014   2.991   2.973
 6752SOL    HW221156   6.855   3.004   3.008
 6753SOL     OW21157   4.510   0.869   6.181
 6753SOL    HW121158   4.488   0.939   6.250
 6753SOL    HW221159   4.573   0.908   6.114
 6754SOL     OW21160   6.755   1.295   6.841
 6754SOL    HW121161   6.663   1.330   6.823
 6754SOL    HW221162   6.816   1.325   6.767
 6755SOL     OW21163   4.510   1.687   3.237
 6755SOL    HW121164   4.453   1.751   3.290
 6755SOL    HW221165   4.451   1.629   3.181
 6756SOL     OW21166   4.415   4.565   4.257
 6756SOL    HW121167   4.349   4.640   4.254
 6756SOL    HW221168   4.424   4.532   4.351
 6757SOL     OW21169   4.523   0.071   1.657
 6757SOL    HW121170   4.489   0.093   1.566
 6757SOL    HW221171   4.522   0.153   1.714
 6758SOL     OW21172   6.645   3.512   0.973
 6758SOL    HW121173   6.653   3.413   0.957
 6758SOL    HW221174   6.582   3.528   1.049
 6759SOL     OW21175   0.947   3.524   4.574
 6759SOL    HW121176   0.974   3.593   4.641
 6759SOL    HW221177   0.962   3.559   4.482
 6760SOL     OW21178   6.789   4.957   4.114
 6760SOL    HW121179   6.816   5.034   4.057
 6760SOL    HW221180   6.715   4.984   4.175
 6761SOL     OW21181   6.197   2.615   6.534
 6761SOL    HW121182   6.174   2.694   6.477
 6761SOL    HW221183   6.288   2.628   6.573
 6762SOL     OW21184   6.672   5.415   3.217
 6762SOL    HW121185   6.733   5.337   3.231
 6762SOL    HW221186   6.727   5.499   3.209
 6763SOL     OW21187   6.641   5.936   3.862
 6763SOL    HW121188   6.574   6.008   3.847
 6763SOL    HW221189   6.599   5.847   3.846
 6764SOL     OW21190   3.131   4.931   6.354
 6764SOL    HW121191   3.155   4.903   6.447
 6764SOL    HW221192   3.210   4.977   6.312
 6765SOL     OW21193   4.928   4.923   3.665
 6765SOL    HW121194   4.991   4.879   3.729
 6765SOL    HW221195   4.977   4.993   3.612
 6766SOL     OW21196   4.304   0.060   6.427
 6766SOL    HW121197   4.216   0.021   6.401
 6766SOL    HW221198   4.298   0.098   6.519
 6767SOL     OW21199   0.811   2.632   0.661
 6767SOL    HW121200   0.756   2.670   0.736
 6767SOL    HW221201   0.752   2.578   0.601
 6768SOL     OW21202   0.621   6.345   4.058
 6768SOL    HW121203   0.647   6.398   3.977
 6768SOL    HW221204   0.702   6.301   4.097
 6769SOL     OW21205   2.952   0.739   5.140
 6769SOL    HW121206   2.974   0.700   5.051
 6769SOL    HW221207   3.018   0.810   5.163
 6770SOL     OW21208   6.686   2.367   3.395
 6770SOL    HW121209   6.643   2.280   3.420
 6770SOL    HW221210   6.699   2.371   3.296
 6771SOL     OW21211   3.337   1.579   3.017
 6771SOL    HW121212   3.355   1.654   2.954
 6771SOL    HW221213   3.304   1.499   2.966
 6772SOL     OW21214   5.497   1.859   2.821
 6772SOL    HW121215   5.400   1.878   2.831
 6772SOL    HW221216   5.513   1.808   2.736
 6773SOL     OW21217   0.046   6.908   1.427
 6773SOL    HW121218   0.046   7.002   1.460
 6773SOL    HW221219   0.073   6.907   1.330
 6774SOL     OW21220   1.934   2.200   4.646
 6774SOL    HW121221   2.028   2.166   4.643
 6774SOL    HW221222   1.931   2.285   4.699
 6775SOL     OW21223   0.411   2.158   3.367
 6775SOL    HW121224   0.442   2.244   3.326
 6775SOL    HW221225   0.392   2.173   3.464
 6776SOL     OW21226   3.925   3.392   1.459
 6776SOL    HW121227   3.845   3.399   1.399
 6776SOL    HW221228   3.961   3.299   1.456
 6777SOL     OW21229   4.242   5.370   1.117
 6777SOL    HW121230   4.308   5.300   1.091
 6777SOL    HW221231   4.288   5.459   1.124
 6778SOL     OW21232   5.919   3.155   2.405
 6778SOL    HW121233   5.827   3.141   2.442
 6778SOL    HW221234   5.956   3.240   2.441
 6779SOL     OW21235   5.194   4.844   6.754
 6779SOL    HW121236   5.259   4.905   6.798
 6779SOL    HW221237   5.204   4.850   6.655
 6780SOL     OW21238   2.015   3.456   2.678
 6780SOL    HW121239   1.925   3.418   2.658
 6780SOL    HW221240   2.070   3.389   2.729
 6781SOL     OW21241   6.751   1.211   3.445
 6781SOL    HW121242   6.665   1.161   3.460
 6781SOL    HW221243   6.733   1.309   3.448
 6782SOL     OW21244   0.722   0.781   3.802
 6782SOL    HW121245   0.630   0.755   3.832
 6782SOL    HW221246   0.756   0.713   3.738
 6783SOL     OW21247   0.581   3.645   5.097
 6783SOL    HW121248   0.669   3.684   5.066
 6783SOL    HW221249   0.565   3.672   5.192
 6784SOL     OW21250   2.158   4.177   1.986
 6784SOL    HW121251   2.215   4.172   1.903
 6784SOL    HW221252   2.062   4.173   1.960
 6785SOL     OW21253   5.712   5.304   5.672
 6785SOL    HW121254   5.683   5.395   5.641
 6785SOL    HW221255   5.654   5.275   5.748
 6786SOL     OW21256   6.636   3.281   6.684
 6786SOL    HW121257   6.644   3.195   6.734
 6786SOL    HW221258   6.727   3.311   6.654
 6787SOL     OW21259   2.713   2.431   1.046
 6787SOL    HW121260   2.679   2.354   0.992
 6787SOL    HW221261   2.645   2.504   1.047
 6788SOL     OW21262   0.052   4.012   2.607
 6788SOL    HW121263   0.034   4.104   2.644
 6788SOL    HW221264   0.077   3.951   2.682
 6789SOL     OW21265   0.166   4.875   4.164
 6789SOL    HW121266   0.157   4.972   4.188
 6789SOL    HW221267   0.143   4.819   4.243
 6790SOL     OW21268   0.272   4.352   6.864
 6790SOL    HW121269   0.267   4.400   6.952
 6790SOL    HW221270   0.236   4.411   6.792
 6791SOL     OW21271   3.958   1.729   3.322
 6791SOL    HW121272   3.892   1.768   3.257
 6791SOL    HW221273   4.051   1.745   3.289
 6792SOL     OW21274   4.461   0.164   5.501
 6792SOL    HW121275   4.430   0.108   5.578
 6792SOL    HW221276   4.388   0.225   5.472
 6793SOL     OW21277   3.338   1.886   0.031
 6793SOL    HW121278   3.292   1.901   0.118
 6793SOL    HW221279   3.280   1.920   6.980
 6794SOL     OW21280   4.722   1.471   5.716
 6794SOL    HW121281   4.816   1.489   5.687
 6794SOL    HW221282   4.666   1.553   5.700
 6795SOL     OW21283   0.840   6.841   0.126
 6795SOL    HW121284   0.819   6.936   0.103
 6795SOL    HW221285   0.769   6.781   0.088
 6796SOL     OW21286   5.665   0.811   2.689
 6796SOL    HW121287   5.702   0.900   2.717
 6796SOL    HW221288   5.568   0.807   2.713
 6797SOL     OW21289   6.836   1.605   0.846
 6797SOL    HW121290   6.826   1.586   0.748
 6797SOL    HW221291   6.923   1.568   0.878
 6798SOL     OW21292   6.274   6.916   1.694
 6798SOL    HW121293   6.290   6.859   1.775
 6798SOL    HW221294   6.357   6.968   1.673
 6799SOL     OW21295   5.110   0.586   2.642
 6799SOL    HW121296   5.138   0.505   2.693
 6799SOL    HW221297   5.070   0.653   2.705
 6800SOL     OW21298   2.140   2.575   1.520
 6800SOL    HW121299   2.176   2.609   1.607
 6800SOL    HW221300   2.052   2.619   1.502
 6801SOL     OW21301   0.602   6.907   3.756
 6801SOL    HW121302   0.524   6.910   3.694
 6801SOL    HW221303   0.677   6.858   3.712
 6802SOL     OW21304   3.482   5.763   0.219
 6802SOL    HW121305   3.448   5.814   0.299
 6802SOL    HW221306   3.405   5.728   0.167
 6803SOL     OW21307   4.944   3.738   0.194
 6803SOL    HW121308   4.992   3.650   0.195
 6803SOL    HW221309   4.862   3.732   0.249
 6804SOL     OW21310   2.987   4.828   2.652
 6804SOL    HW121311   2.931   4.801   2.573
 6804SOL    HW221312   3.062   4.763   2.663
 6805SOL     OW21313   0.753   5.208   7.011
 6805SOL    HW121314   0.699   5.266   6.950
 6805SOL    HW221315   0.848   5.206   6.979
 6806SOL     OW21316   6.826   0.618   4.204
 6806SOL    HW121317   6.897   0.654   4.144
 6806SOL    HW221318   6.807   0.523   4.180
 6807SOL     OW21319   3.383   3.641   3.005
 6807SOL    HW121320   3.431   3.709   2.950
 6807SOL    HW221321   3.435   3.556   3.005
 6808SOL     OW21322   5.566   0.971   5.084
 6808SOL    HW121323   5.664   0.990   5.082
 6808SOL    HW221324   5.518   1.047   5.127
 6809SOL     OW21325   6.347   3.900   1.177
 6809SOL    HW121326   6.355   3.863   1.269
 6809SOL    HW221327   6.263   3.867   1.134
 6810SOL     OW21328   3.590   1.082   3.283
 6810SOL    HW121329   3.636   1.123   3.205
 6810SOL    HW221330   3.601   0.983   3.280
 6811SOL     OW21331   6.719   3.061   2.369
 6811SOL    HW121332   6.716   3.114   2.453
 6811SOL    HW221333   6.767   2.975   2.385
 6812SOL     OW21334   3.531   3.676   4.587
 6812SOL    HW121335   3.599   3.712   4.651
 6812SOL    HW221336   3.533   3.576   4.590
 6813SOL     OW21337   5.661   3.380   2.842
 6813SOL    HW121338   5.670   3.480   2.848
 6813SOL    HW221339   5.574   3.358   2.799
 6814SOL     OW21340   4.849   1.535   6.607
 6814SOL    HW121341   4.907   1.453   6.606
 6814SOL    HW221342   4.905   1.616   6.591
 6815SOL     OW21343   1.583   5.568   6.629
 6815SOL    HW121344   1.555   5.647   6.683
 6815SOL    HW221345   1.558   5.484   6.677
 6816SOL     OW21346   7.000   1.297   4.233
 6816SOL    HW121347   6.944   1.368   4.277
 6816SOL    HW221348   0.044   1.340   4.173
 6817SOL     OW21349   2.687   2.423   4.311
 6817SOL    HW121350   2.603   2.382   4.275
 6817SOL    HW221351   2.694   2.403   4.409
 6818SOL     OW21352   1.755   6.531   6.914
 6818SOL    HW121353   1.731   6.435   6.933
 6818SOL    HW221354   1.766   6.543   6.816
 6819SOL     OW21355   4.342   7.021   2.038
 6819SOL    HW121356   4.428   0.028   2.078
 6819SOL    HW221357   4.282   0.077   2.025
 6820SOL     OW21358   1.281   5.763   1.353
 6820SOL    HW121359   1.289   5.686   1.417
 6820SOL    HW221360   1.186   5.775   1.327
 6821SOL     OW21361   4.434   2.764   6.024
 6821SOL    HW121362   4.510   2.760   6.090
 6821SOL    HW221363   4.420   2.859   5.997
 6822SOL     OW21364   6.891   2.673   6.828
 6822SOL    HW121365   6.952   2.748   6.805
 6822SOL    HW221366   6.945   2.591   6.849
 6823SOL     OW21367   4.917   4.272   6.264
 6823SOL    HW121368   5.013   4.295   6.275
 6823SOL    HW221369   4.861   4.343   6.307
 6824SOL     OW21370   1.679   1.380   0.130
 6824SOL    HW121371   1.633   1.311   0.186
 6824SOL    HW221372   1.631   1.391   0.043
 6825SOL     OW21373   6.392   5.971   0.709
 6825SOL    HW121374   6.479   6.007   0.675
 6825SOL    HW221375   6.369   5.887   0.660
 6826SOL     OW21376   0.911   3.456   3.413
 6826SOL    HW121377   0.995   3.490   3.454
 6826SOL    HW221378   0.851   3.420   3.484
 6827SOL     OW21379   4.813   5.346   5.618
 6827SOL    HW121380   4.759   5.358   5.535
 6827SOL    HW221381   4.888   5.283   5.600
 6828SOL     OW21382   3.676   1.737   2.537
 6828SOL    HW121383   3.587   1.700   2.511
 6828SOL    HW221384   3.664   1.829   2.576
 6829SOL     OW21385   5.526   0.097   5.523
 6829SOL    HW121386   5.488   0.005   5.538
 6829SOL    HW221387   5.624   0.096   5.540
 6830SOL     OW21388   6.243   1.267   3.575
 6830SOL    HW121389   6.225   1.358   3.612
 6830SOL    HW221390   6.215   1.198   3.642
 6831SOL     OW21391   1.311   1.201   5.935
 6831SOL    HW121392   1.298   1.124   5.998
 6831SOL    HW221393   1.241   1.270   5.953
 6832SOL     OW21394   2.435   3.361   0.326
 6832SOL    HW121395   2.414   3.409   0.411
 6832SOL    HW221396   2.511   3.407   0.280
 6833SOL     OW21397   3.622   5.104   5.915
 6833SOL    HW121398   3.681   5.183   5.937
 6833SOL    HW221399   3.553   5.094   5.986
 6834SOL     OW21400   5.267   0.051   1.061
 6834SOL    HW121401   5.328   0.047   0.982
 6834SOL    HW221402   5.236   6.982   1.084
 6835SOL     OW21403   4.095   1.698   4.806
 6835SOL    HW121404   4.191   1.720   4.793
 6835SOL    HW221405   4.044   1.720   4.722
 6836SOL     OW21406   1.735   4.298   6.290
 6836SOL    HW121407   1.639   4.276   6.311
 6836SOL    HW221408   1.795   4.229   6.332
 6837SOL     OW21409   0.437   1.252   2.663
 6837SOL    HW121410   0.414   1.340   2.620
 6837SOL    HW221411   0.532   1.254   2.693
 6838SOL     OW21412   2.496   4.354   5.298
 6838SOL    HW121413   2.471   4.424   5.365
 6838SOL    HW221414   2.446   4.270   5.319
 6839SOL     OW21415   5.816   2.093   3.501
 6839SOL    HW121416   5.766   2.140   3.574
 6839SOL    HW221417   5.806   1.994   3.513
 6840SOL     OW21418   2.802   6.312   5.460
 6840SOL    HW121419   2.846   6.253   5.528
 6840SOL    HW221420   2.710   6.279   5.441
 6841SOL     OW21421   3.797   4.882   1.176
 6841SOL    HW121422   3.738   4.947   1.225
 6841SOL    HW221423   3.758   4.864   1.085
 6842SOL     OW21424   1.744   2.096   6.605
 6842SOL    HW121425   1.815   2.158   6.638
 6842SOL    HW221426   1.710   2.040   6.681
 6843SOL     OW21427   4.979   0.976   1.728
 6843SOL    HW121428   4.918   0.960   1.805
 6843SOL    HW221429   5.017   1.068   1.735
 6844SOL     OW21430   5.371   5.807   3.968
 6844SOL    HW121431   5.416   5.803   3.879
 6844SOL    HW221432   5.291   5.747   3.968
 6845SOL     OW21433   5.139   4.033   2.256
 6845SOL    HW121434   5.209   4.025   2.326
 6845SOL    HW221435   5.059   3.978   2.281
 6846SOL     OW21436   3.970   3.119   1.515
 6846SOL    HW121437   4.020   3.074   1.589
 6846SOL    HW221438   3.985   3.069   1.430
 6847SOL     OW21439   5.836   3.992   2.132
 6847SOL    HW121440   5.815   3.905   2.177
 6847SOL    HW221441   5.856   4.061   2.201
 6848SOL     OW21442   2.088   5.944   3.088
 6848SOL    HW121443   2.093   5.994   3.174
 6848SOL    HW221444   1.992   5.924   3.066
 6849SOL     OW21445   3.381   5.222   3.962
 6849SOL    HW121446   3.419   5.284   3.893
 6849SOL    HW221447   3.427   5.133   3.956
 6850SOL     OW21448   5.502   2.852   2.766
 6850SOL    HW121449   5.504   2.917   2.842
 6850SOL    HW221450   5.420   2.866   2.712
 6851SOL     OW21451   1.507   3.863   4.573
 6851SOL    HW121452   1.486   3.834   4.667
 6851SOL    HW221453   1.604   3.851   4.555
 6852SOL     OW21454   1.035   5.041   0.698
 6852SOL    HW121455   1.009   5.083   0.611
 6852SOL    HW221456   1.087   4.957   0.680
 6853SOL     OW21457   6.515   3.792   6.976
 6853SOL    HW121458   6.529   3.865   6.909
 6853SOL    HW221459   6.544   3.705   6.936
 6854SOL     OW21460   5.781   0.849   5.955
 6854SOL    HW121461   5.824   0.861   6.045
 6854SOL    HW221462   5.682   0.862   5.964
 6855SOL     OW21463   3.578   6.316   2.658
 6855SOL    HW121464   3.513   6.262   2.604
 6855SOL    HW221465   3.665   6.267   2.665
 6856SOL     OW21466   4.674   4.271   5.482
 6856SOL    HW121467   4.669   4.178   5.517
 6856SOL    HW221468   4.603   4.327   5.524
 6857SOL     OW21469   3.219   1.385   6.785
 6857SOL    HW121470   3.227   1.484   6.774
 6857SOL    HW221471   3.301   1.349   6.830
 6858SOL     OW21472   4.179   3.603   4.905
 6858SOL    HW121473   4.154   3.517   4.950
 6858SOL    HW221474   4.278   3.615   4.910
 6859SOL     OW21475   1.106   6.706   0.924
 6859SOL    HW121476   1.113   6.626   0.865
 6859SOL    HW221477   1.194   6.754   0.927
 6860SOL     OW21478   5.584   5.224   1.679
 6860SOL    HW121479   5.494   5.212   1.636
 6860SOL    HW221480   5.577   5.202   1.776
 6861SOL     OW21481   5.699   4.310   1.822
 6861SOL    HW121482   5.687   4.402   1.858
 6861SOL    HW221483   5.795   4.284   1.824
 6862SOL     OW21484   2.362   4.392   4.679
 6862SOL    HW121485   2.388   4.487   4.664
 6862SOL    HW221486   2.322   4.383   4.771
 6863SOL     OW21487   5.585   1.599   4.201
 6863SOL    HW121488   5.607   1.695   4.183
 6863SOL    HW221489   5.670   1.548   4.217
 6864SOL     OW21490   3.476   5.815   3.658
 6864SOL    HW121491   3.474   5.775   3.566
 6864SOL    HW221492   3.390   5.795   3.705
 6865SOL     OW21493   6.300   5.338   2.947
 6865SOL    HW121494   6.335   5.384   3.029
 6865SOL    HW221495   6.247   5.403   2.893
 6866SOL     OW21496   6.142   4.035   2.522
 6866SOL    HW121497   6.205   4.084   2.461
 6866SOL    HW221498   6.048   4.064   2.502
 6867SOL     OW21499   1.112   4.811   1.477
 6867SOL    HW121500   1.049   4.881   1.508
 6867SOL    HW221501   1.069   4.721   1.485
 6868SOL     OW21502   1.700   5.403   5.091
 6868SOL    HW121503   1.682   5.456   5.174
 6868SOL    HW221504   1.780   5.442   5.044
 6869SOL     OW21505   6.037   2.691   5.217
 6869SOL    HW121506   6.078   2.755   5.282
 6869SOL    HW221507   5.940   2.713   5.205
 6870SOL     OW21508   6.538   3.372   2.554
 6870SOL    HW121509   6.512   3.303   2.486
 6870SOL    HW221510   6.478   3.452   2.545
 6871SOL     OW21511   5.976   4.873   2.567
 6871SOL    HW121512   5.981   4.792   2.509
 6871SOL    HW221513   6.006   4.850   2.659
 6872SOL     OW21514   1.660   3.322   0.810
 6872SOL    HW121515   1.673   3.270   0.894
 6872SOL    HW221516   1.595   3.274   0.750
 6873SOL     OW21517   5.929   3.803   5.020
 6873SOL    HW121518   5.970   3.719   4.986
 6873SOL    HW221519   5.829   3.795   5.016
 6874SOL     OW21520   0.288   4.624   3.396
 6874SOL    HW121521   0.361   4.685   3.365
 6874SOL    HW221522   0.259   4.565   3.321
 6875SOL     OW21523   1.540   2.382   3.454
 6875SOL    HW121524   1.581   2.318   3.389
 6875SOL    HW221525   1.582   2.472   3.443
 6876SOL     OW21526   4.370   5.001   5.891
 6876SOL    HW121527   4.321   5.088   5.895
 6876SOL    HW221528   4.469   5.019   5.889
 6877SOL     OW21529   2.433   4.293   6.444
 6877SOL    HW121530   2.490   4.217   6.414
 6877SOL    HW221531   2.338   4.276   6.418
 6878SOL     OW21532   2.156   2.449   5.239
 6878SOL    HW121533   2.248   2.468   5.207
 6878SOL    HW221534   2.161   2.404   5.328
 6879SOL     OW21535   1.076   1.443   0.263
 6879SOL    HW121536   1.038   1.480   0.178
 6879SOL    HW221537   1.080   1.515   0.332
 6880SOL     OW21538   2.114   3.350   5.088
 6880SOL    HW121539   2.043   3.310   5.147
 6880SOL    HW221540   2.134   3.287   5.013
 6881SOL     OW21541   6.958   3.740   2.523
 6881SOL    HW121542   6.869   3.770   2.558
 6881SOL    HW221543   6.945   3.670   2.453
 6882SOL     OW21544   2.554   0.082   5.910
 6882SOL    HW121545   2.536   0.180   5.915
 6882SOL    HW221546   2.524   0.039   5.995
 6883SOL     OW21547   3.608   1.298   1.678
 6883SOL    HW121548   3.627   1.338   1.768
 6883SOL    HW221549   3.649   1.206   1.673
 6884SOL     OW21550   1.646   3.271   4.448
 6884SOL    HW121551   1.700   3.268   4.532
 6884SOL    HW221552   1.644   3.364   4.413
 6885SOL     OW21553   3.815   5.560   4.589
 6885SOL    HW121554   3.780   5.476   4.548
 6885SOL    HW221555   3.885   5.537   4.657
 6886SOL     OW21556   0.176   1.014   2.962
 6886SOL    HW121557   0.251   1.017   2.897
 6886SOL    HW221558   0.207   0.970   3.046
 6887SOL     OW21559   4.736   6.983   5.657
 6887SOL    HW121560   4.827   6.967   5.694
 6887SOL    HW221561   4.740   0.034   5.590
 6888SOL     OW21562   5.705   6.534   6.506
 6888SOL    HW121563   5.699   6.533   6.406
 6888SOL    HW221564   5.789   6.582   6.533
 6889SOL     OW21565   0.666   2.377   6.214
 6889SOL    HW121566   0.635   2.469   6.190
 6889SOL    HW221567   0.624   2.350   6.301
 6890SOL     OW21568   2.984   6.208   1.070
 6890SOL    HW121569   2.958   6.288   1.123
 6890SOL    HW221570   2.975   6.126   1.126
 6891SOL     OW21571   2.024   3.740   4.669
 6891SOL    HW121572   2.024   3.645   4.700
 6891SOL    HW221573   2.041   3.800   4.747
 6892SOL     OW21574   3.355   0.931   3.703
 6892SOL    HW121575   3.380   1.026   3.719
 6892SOL    HW221576   3.433   0.882   3.663
 6893SOL     OW21577   5.524   5.818   0.928
 6893SOL    HW121578   5.622   5.805   0.915
 6893SOL    HW221579   5.509   5.870   1.013
 6894SOL     OW21580   6.321   5.418   6.646
 6894SOL    HW121581   6.355   5.325   6.659
 6894SOL    HW221582   6.352   5.475   6.721
 6895SOL     OW21583   3.083   5.059   6.807
 6895SOL    HW121584   3.027   4.994   6.859
 6895SOL    HW221585   3.146   5.105   6.869
 6896SOL     OW21586   2.935   6.881   4.241
 6896SOL    HW121587   2.966   6.975   4.256
 6896SOL    HW221588   2.861   6.881   4.174
 6897SOL     OW21589   2.206   3.570   0.323
 6897SOL    HW121590   2.241   3.587   0.231
 6897SOL    HW221591   2.127   3.509   0.319
 6898SOL     OW21592   3.523   1.796   1.755
 6898SOL    HW121593   3.601   1.850   1.723
 6898SOL    HW221594   3.522   1.708   1.707
 6899SOL     OW21595   4.861   6.714   0.647
 6899SOL    HW121596   4.788   6.681   0.706
 6899SOL    HW221597   4.861   6.814   0.646
 6900SOL     OW21598   6.117   0.509   6.259
 6900SOL    HW121599   6.040   0.568   6.284
 6900SOL    HW221600   6.087   0.443   6.190
 6901SOL     OW21601   0.781   0.372   6.285
 6901SOL    HW121602   0.689   0.373   6.325
 6901SOL    HW221603   0.773   0.363   6.186
 6902SOL     OW21604   0.169   6.302   0.632
 6902SOL    HW121605   0.188   6.269   0.724
 6902SOL    HW221606   0.154   6.224   0.571
 6903SOL     OW21607   4.168   4.640   5.656
 6903SOL    HW121608   4.264   4.668   5.662
 6903SOL    HW221609   4.162   4.540   5.656
 6904SOL     OW21610   6.226   1.184   4.184
 6904SOL    HW121611   6.205   1.099   4.135
 6904SOL    HW221612   6.195   1.262   4.130
 6905SOL     OW21613   6.300   6.721   0.110
 6905SOL    HW121614   6.365   6.755   0.178
 6905SOL    HW221615   6.276   6.794   0.047
 6906SOL     OW21616   4.304   0.887   3.744
 6906SOL    HW121617   4.309   0.836   3.658
 6906SOL    HW221618   4.210   0.917   3.761
 6907SOL     OW21619   4.868   0.764   0.991
 6907SOL    HW121620   4.926   0.682   0.988
 6907SOL    HW221621   4.772   0.736   0.999
 6908SOL     OW21622   1.243   6.536   5.394
 6908SOL    HW121623   1.162   6.580   5.434
 6908SOL    HW221624   1.314   6.605   5.378
 6909SOL     OW21625   5.455   4.694   1.205
 6909SOL    HW121626   5.436   4.703   1.303
 6909SOL    HW221627   5.536   4.748   1.182
 6910SOL     OW21628   6.542   2.609   3.170
 6910SOL    HW121629   6.574   2.514   3.170
 6910SOL    HW221630   6.510   2.634   3.261
 6911SOL     OW21631   3.811   6.715   3.151
 6911SOL    HW121632   3.725   6.706   3.202
 6911SOL    HW221633   3.802   6.669   3.062
 6912SOL     OW21634   4.723   4.437   1.644
 6912SOL    HW121635   4.682   4.461   1.732
 6912SOL    HW221636   4.651   4.416   1.578
 6913SOL     OW21637   4.767   5.083   5.897
 6913SOL    HW121638   4.800   4.993   5.869
 6913SOL    HW221639   4.745   5.137   5.816
 6914SOL     OW21640   6.221   4.732   6.875
 6914SOL    HW121641   6.178   4.754   6.787
 6914SOL    HW221642   6.157   4.680   6.931
 6915SOL     OW21643   6.757   4.389   1.787
 6915SOL    HW121644   6.802   4.435   1.710
 6915SOL    HW221645   6.747   4.453   1.863
 6916SOL     OW21646   6.021   4.187   0.419
 6916SOL    HW121647   6.007   4.286   0.407
 6916SOL    HW221648   5.947   4.138   0.373
 6917SOL     OW21649   3.236   5.011   0.329
 6917SOL    HW121650   3.304   5.084   0.328
 6917SOL    HW221651   3.237   4.967   0.419
 6918SOL     OW21652   1.109   4.033   4.569
 6918SOL    HW121653   1.206   4.058   4.565
 6918SOL    HW221654   1.065   4.055   4.481
 6919SOL     OW21655   0.570   5.644   3.407
 6919SOL    HW121656   0.515   5.616   3.328
 6919SOL    HW221657   0.533   5.729   3.444
 6920SOL     OW21658   3.785   5.899   5.957
 6920SOL    HW121659   3.697   5.942   5.979
 6920SOL    HW221660   3.851   5.919   6.029
 6921SOL     OW21661   4.759   5.520   3.161
 6921SOL    HW121662   4.807   5.526   3.248
 6921SOL    HW221663   4.817   5.473   3.094
 6922SOL     OW21664   1.956   5.908   0.010
 6922SOL    HW121665   1.892   5.907   0.087
 6922SOL    HW221666   1.909   5.941   6.952
 6923SOL     OW21667   5.672   6.484   3.359
 6923SOL    HW121668   5.586   6.530   3.335
 6923SOL    HW221669   5.673   6.468   3.458
 6924SOL     OW21670   0.484   4.158   6.904
 6924SOL    HW121671   0.573   4.201   6.893
 6924SOL    HW221672   0.412   4.222   6.879
 6925SOL     OW21673   3.599   6.064   4.396
 6925SOL    HW121674   3.653   6.148   4.392
 6925SOL    HW221675   3.581   6.040   4.492
 6926SOL     OW21676   3.161   3.309   2.001
 6926SOL    HW121677   3.201   3.399   2.016
 6926SOL    HW221678   3.067   3.319   1.971
 6927SOL     OW21679   5.685   3.938   5.626
 6927SOL    HW121680   5.723   3.983   5.707
 6927SOL    HW221681   5.759   3.894   5.575
 6928SOL     OW21682   6.453   6.412   0.531
 6928SOL    HW121683   6.410   6.363   0.606
 6928SOL    HW221684   6.382   6.445   0.468
 6929SOL     OW21685   4.918   5.700   0.878
 6929SOL    HW121686   4.836   5.660   0.920
 6929SOL    HW221687   4.900   5.797   0.858
 6930SOL     OW21688   6.867   6.807   1.586
 6930SOL    HW121689   6.895   6.740   1.655
 6930SOL    HW221690   6.947   6.837   1.535
 6931SOL     OW21691   1.264   0.574   2.169
 6931SOL    HW121692   1.218   0.650   2.216
 6931SOL    HW221693   1.363   0.585   2.178
 6932SOL     OW21694   3.998   0.964   1.063
 6932SOL    HW121695   3.960   1.055   1.045
 6932SOL    HW221696   3.955   0.898   1.001
 6933SOL     OW21697   4.046   6.379   4.765
 6933SOL    HW121698   4.135   6.348   4.798
 6933SOL    HW221699   4.020   6.462   4.815
 6934SOL     OW21700   4.782   4.225   5.779
 6934SOL    HW121701   4.729   4.149   5.740
 6934SOL    HW221702   4.879   4.214   5.755
 6935SOL     OW21703   4.195   6.001   3.257
 6935SOL    HW121704   4.226   6.083   3.209
 6935SOL    HW221705   4.254   5.984   3.336
 6936SOL     OW21706   6.836   2.836   2.455
 6936SOL    HW121707   6.856   2.831   2.553
 6936SOL    HW221708   6.742   2.807   2.437
 6937SOL     OW21709   6.254   6.188   0.117
 6937SOL    HW121710   6.270   6.119   0.188
 6937SOL    HW221711   6.326   6.181   0.047
 6938SOL     OW21712   5.134   3.886   5.160
 6938SOL    HW121713   5.091   3.873   5.249
 6938SOL    HW221714   5.066   3.918   5.094
 6939SOL     OW21715   6.842   4.576   1.162
 6939SOL    HW121716   6.784   4.578   1.081
 6939SOL    HW221717   6.828   4.490   1.211
 6940SOL     OW21718   5.176   1.363   0.547
 6940SOL    HW121719   5.169   1.278   0.495
 6940SOL    HW221720   5.130   1.352   0.636
 6941SOL     OW21721   3.660   2.896   2.921
 6941SOL    HW121722   3.738   2.933   2.973
 6941SOL    HW221723   3.684   2.891   2.824
 6942SOL     OW21724   6.641   2.639   0.732
 6942SOL    HW121725   6.622   2.737   0.724
 6942SOL    HW221726   6.584   2.588   0.668
 6943SOL     OW21727   4.606   6.459   0.095
 6943SOL    HW121728   4.683   6.413   0.138
 6943SOL    HW221729   4.544   6.391   0.054
 6944SOL     OW21730   1.261   4.480   5.837
 6944SOL    HW121731   1.338   4.538   5.811
 6944SOL    HW221732   1.205   4.461   5.757
 6945SOL     OW21733   6.292   3.005   6.277
 6945SOL    HW121734   6.273   3.076   6.209
 6945SOL    HW221735   6.378   2.959   6.255
 6946SOL     OW21736   6.423   5.965   2.446
 6946SOL    HW121737   6.497   6.012   2.399
 6946SOL    HW221738   6.370   5.912   2.379
 6947SOL     OW21739   3.207   6.739   5.089
 6947SOL    HW121740   3.145   6.811   5.121
 6947SOL    HW221741   3.169   6.650   5.113
 6948SOL     OW21742   6.335   0.813   0.071
 6948SOL    HW121743   6.421   0.762   0.068
 6948SOL    HW221744   6.327   0.860   0.159
 6949SOL     OW21745   5.277   0.192   4.063
 6949SOL    HW121746   5.189   0.146   4.074
 6949SOL    HW221747   5.301   0.238   4.149
 6950SOL     OW21748   2.184   0.464   3.591
 6950SOL    HW121749   2.221   0.380   3.553
 6950SOL    HW221750   2.256   0.534   3.594
 6951SOL     OW21751   5.942   6.285   5.919
 6951SOL    HW121752   5.919   6.225   5.842
 6951SOL    HW221753   5.954   6.230   6.002
 6952SOL     OW21754   6.877   5.859   3.732
 6952SOL    HW121755   6.871   5.760   3.726
 6952SOL    HW221756   6.805   5.893   3.794
 6953SOL     OW21757   5.012   0.347   6.929
 6953SOL    HW121758   5.035   0.382   6.838
 6953SOL    HW221759   4.912   0.335   6.936
 6954SOL     OW21760   0.726   3.597   4.069
 6954SOL    HW121761   0.640   3.645   4.052
 6954SOL    HW221762   0.724   3.508   4.024
 6955SOL     OW21763   6.844   0.368   2.995
 6955SOL    HW121764   6.753   0.396   3.022
 6955SOL    HW221765   6.892   0.445   2.954
 6956SOL     OW21766   4.962   6.596   2.138
 6956SOL    HW121767   4.897   6.612   2.213
 6956SOL    HW221768   4.922   6.531   2.073
 6957SOL     OW21769   5.648   4.899   1.654
 6957SOL    HW121770   5.553   4.880   1.630
 6957SOL    HW221771   5.660   4.996   1.672
 6958SOL     OW21772   2.941   4.077   5.299
 6958SOL    HW121773   2.867   4.121   5.350
 6958SOL    HW221774   2.904   3.999   5.247
 6959SOL     OW21775   2.769   1.063   4.493
 6959SOL    HW121776   2.767   1.037   4.590
 6959SOL    HW221777   2.823   1.146   4.482
 6960SOL     OW21778   1.195   5.226   1.115
 6960SOL    HW121779   1.224   5.188   1.203
 6960SOL    HW221780   1.128   5.165   1.073
 6961SOL     OW21781   6.638   2.639   4.332
 6961SOL    HW121782   6.668   2.615   4.240
 6961SOL    HW221783   6.646   2.738   4.345
 6962SOL     OW21784   4.811   5.515   2.227
 6962SOL    HW121785   4.786   5.611   2.234
 6962SOL    HW221786   4.864   5.500   2.143
 6963SOL     OW21787   6.750   5.479   0.797
 6963SOL    HW121788   6.712   5.422   0.724
 6963SOL    HW221789   6.725   5.441   0.886
 6964SOL     OW21790   4.504   4.852   4.192
 6964SOL    HW121791   4.409   4.855   4.224
 6964SOL    HW221792   4.507   4.817   4.099
 6965SOL     OW21793   0.786   3.522   6.208
 6965SOL    HW121794   0.701   3.495   6.252
 6965SOL    HW221795   0.834   3.589   6.266
 6966SOL     OW21796   6.546   2.160   3.052
 6966SOL    HW121797   6.557   2.091   2.981
 6966SOL    HW221798   6.449   2.184   3.060
 6967SOL     OW21799   1.912   0.694   5.608
 6967SOL    HW121800   1.829   0.701   5.663
 6967SOL    HW221801   1.910   0.763   5.535
 6968SOL     OW21802   3.322   6.814   2.211
 6968SOL    HW121803   3.322   6.834   2.309
 6968SOL    HW221804   3.369   6.887   2.162
 6969SOL     OW21805   3.441   2.051   1.547
 6969SOL    HW121806   3.402   2.125   1.602
 6969SOL    HW221807   3.410   1.963   1.583
 6970SOL     OW21808   4.566   3.964   0.493
 6970SOL    HW121809   4.546   4.062   0.500
 6970SOL    HW221810   4.479   3.913   0.493
 6971SOL     OW21811   6.936   4.145   1.892
 6971SOL    HW121812   7.011   4.211   1.898
 6971SOL    HW221813   6.955   4.081   1.818
 6972SOL     OW21814   5.123   5.326   4.130
 6972SOL    HW121815   5.148   5.297   4.037
 6972SOL    HW221816   5.030   5.295   4.150
 6973SOL     OW21817   0.850   3.736   5.086
 6973SOL    HW121818   0.907   3.697   5.158
 6973SOL    HW221819   0.898   3.814   5.045
 6974SOL     OW21820   3.312   2.893   3.318
 6974SOL    HW121821   3.399   2.915   3.274
 6974SOL    HW221822   3.308   2.795   3.336
 6975SOL     OW21823   2.462   6.297   5.936
 6975SOL    HW121824   2.536   6.364   5.927
 6975SOL    HW221825   2.499   6.212   5.975
 6976SOL     OW21826   4.246   5.058   5.538
 6976SOL    HW121827   4.337   5.015   5.543
 6976SOL    HW221828   4.203   5.055   5.628
 6977SOL     OW21829   4.421   2.487   1.887
 6977SOL    HW121830   4.378   2.416   1.943
 6977SOL    HW221831   4.353   2.556   1.863
 6978SOL     OW21832   6.043   2.414   1.617
 6978SOL    HW121833   5.999   2.363   1.544
 6978SOL    HW221834   6.143   2.411   1.606
 6979SOL     OW21835   1.514   5.182   0.509
 6979SOL    HW121836   1.551   5.127   0.434
 6979SOL    HW221837   1.447   5.128   0.560
 6980SOL     OW21838   1.788   0.974   3.598
 6980SOL    HW121839   1.845   0.955   3.678
 6980SOL    HW221840   1.820   1.059   3.554
 6981SOL     OW21841   2.702   2.862   6.661
 6981SOL    HW121842   2.701   2.962   6.668
 6981SOL    HW221843   2.787   2.827   6.699
 6982SOL     OW21844   1.203   1.248   4.287
 6982SOL    HW121845   1.125   1.212   4.237
 6982SOL    HW221846   1.238   1.177   4.349
 6983SOL     OW21847   5.052   1.856   3.209
 6983SOL    HW121848   5.044   1.759   3.232
 6983SOL    HW221849   5.098   1.904   3.284
 6984SOL     OW21850   2.455   2.281   4.264
 6984SOL    HW121851   2.377   2.266   4.203
 6984SOL    HW221852   2.443   2.227   4.348
 6985SOL     OW21853   3.821   5.503   1.743
 6985SOL    HW121854   3.774   5.527   1.828
 6985SOL    HW221855   3.838   5.586   1.690
 6986SOL     OW21856   1.900   6.391   6.411
 6986SOL    HW121857   1.952   6.321   6.363
 6986SOL    HW221858   1.882   6.468   6.349
 6987SOL     OW21859   0.204   1.808   6.085
 6987SOL    HW121860   0.104   1.811   6.086
 6987SOL    HW221861   0.235   1.715   6.070
 6988SOL     OW21862   6.497   0.969   5.788
 6988SOL    HW121863   6.515   0.926   5.699
 6988SOL    HW221864   6.557   0.930   5.857
 6989SOL     OW21865   0.350   3.665   3.103
 6989SOL    HW121866   0.361   3.723   3.023
 6989SOL    HW221867   0.363   3.569   3.078
 6990SOL     OW21868   5.261   2.142   1.046
 6990SOL    HW121869   5.227   2.080   0.975
 6990SOL    HW221870   5.204   2.224   1.048
 6991SOL     OW21871   2.856   4.814   3.848
 6991SOL    HW121872   2.923   4.826   3.775
 6991SOL    HW221873   2.790   4.743   3.821
 6992SOL     OW21874   5.529   6.488   5.117
 6992SOL    HW121875   5.468   6.567   5.126
 6992SOL    HW221876   5.624   6.519   5.117
 6993SOL     OW21877   0.040   0.778   2.957
 6993SOL    HW121878   6.964   0.778   2.971
 6993SOL    HW221879   0.071   0.872   2.942
 6994SOL     OW21880   0.971   3.383   4.925
 6994SOL    HW121881   1.014   3.460   4.973
 6994SOL    HW221882   1.037   3.343   4.861
 6995SOL     OW21883   6.440   5.373   6.192
 6995SOL    HW121884   6.368   5.322   6.147
 6995SOL    HW221885   6.523   5.370   6.136
 6996SOL     OW21886   2.396   0.718   5.957
 6996SOL    HW121887   2.460   0.724   6.033
 6996SOL    HW221888   2.434   0.766   5.878
 6997SOL     OW21889   5.979   5.914   5.109
 6997SOL    HW121890   6.055   5.979   5.113
 6997SOL    HW221891   5.896   5.959   5.142
 6998SOL     OW21892   2.395   2.562   1.421
 6998SOL    HW121893   2.303   2.572   1.458
 6998SOL    HW221894   2.457   2.535   1.495
 6999SOL     OW21895   2.229   2.396   6.246
 6999SOL    HW121896   2.245   2.468   6.314
 6999SOL    HW221897   2.249   2.307   6.288
 7000SOL     OW21898   6.032   5.537   2.052
 7000SOL    HW121899   6.129   5.563   2.058
 7000SOL    HW221900   5.989   5.550   2.141
 7001SOL     OW21901   2.765   3.131   5.307
 7001SOL    HW121902   2.677   3.106   5.266
 7001SOL    HW221903   2.825   3.051   5.309
 7002SOL     OW21904   1.849   5.096   2.751
 7002SOL    HW121905   1.869   5.192   2.773
 7002SOL    HW221906   1.763   5.069   2.795
 7003SOL     OW21907   3.843   5.179   6.943
 7003SOL    HW121908   3.882   5.266   6.912
 7003SOL    HW221909   3.913   5.108   6.939
 7004SOL     OW21910   1.781   4.980   1.496
 7004SOL    HW121911   1.736   5.069   1.498
 7004SOL    HW221912   1.857   4.979   1.561
 7005SOL     OW21913   1.431   6.653   6.577
 7005SOL    HW121914   1.487   6.658   6.494
 7005SOL    HW221915   1.460   6.575   6.632
 7006SOL     OW21916   5.065   4.594   4.900
 7006SOL    HW121917   5.036   4.557   4.988
 7006SOL    HW221918   5.139   4.538   4.863
 7007SOL     OW21919   4.777   6.793   3.526
 7007SOL    HW121920   4.747   6.728   3.456
 7007SOL    HW221921   4.718   6.786   3.606
 7008SOL     OW21922   1.608   5.140   5.046
 7008SOL    HW121923   1.655   5.219   5.085
 7008SOL    HW221924   1.519   5.128   5.091
 7009SOL     OW21925   6.050   5.411   2.403
 7009SOL    HW121926   6.058   5.436   2.500
 7009SOL    HW221927   5.956   5.424   2.373
 7010SOL     OW21928   4.368   4.185   6.099
 7010SOL    HW121929   4.271   4.159   6.096
 7010SOL    HW221930   4.423   4.102   6.112
 7011SOL     OW21931   2.533   0.546   6.390
 7011SOL    HW121932   2.486   0.518   6.473
 7011SOL    HW221933   2.632   0.539   6.403
 7012SOL     OW21934   1.939   1.161   2.248
 7012SOL    HW121935   1.857   1.179   2.304
 7012SOL    HW221936   1.994   1.244   2.243
 7013SOL     OW21937   0.241   6.988   0.400
 7013SOL    HW121938   0.153   6.941   0.386
 7013SOL    HW221939   0.236   0.057   0.362
 7014SOL     OW21940   5.071   3.104   1.624
 7014SOL    HW121941   5.010   3.037   1.667
 7014SOL    HW221942   5.135   3.056   1.564
 7015SOL     OW21943   5.704   4.915   2.781
 7015SOL    HW121944   5.742   4.827   2.754
 7015SOL    HW221945   5.720   4.982   2.708
 7016SOL     OW21946   3.713   4.644   1.594
 7016SOL    HW121947   3.676   4.573   1.533
 7016SOL    HW221948   3.648   4.661   1.668
 7017SOL     OW21949   2.153   6.848   2.337
 7017SOL    HW121950   2.170   6.865   2.240
 7017SOL    HW221951   2.099   6.765   2.347
 7018SOL     OW21952   6.051   4.625   5.056
 7018SOL    HW121953   6.034   4.535   5.016
 7018SOL    HW221954   5.999   4.635   5.141
 7019SOL     OW21955   2.529   3.565   6.580
 7019SOL    HW121956   2.566   3.634   6.519
 7019SOL    HW221957   2.566   3.577   6.672
 7020SOL     OW21958   6.273   0.140   6.909
 7020SOL    HW121959   6.245   0.231   6.940
 7020SOL    HW221960   6.299   0.143   6.813
 7021SOL     OW21961   2.050   1.352   5.690
 7021SOL    HW121962   2.146   1.351   5.717
 7021SOL    HW221963   2.025   1.264   5.651
 7022SOL     OW21964   4.600   5.467   0.684
 7022SOL    HW121965   4.555   5.393   0.634
 7022SOL    HW221966   4.697   5.470   0.659
 7023SOL     OW21967   0.482   1.887   3.464
 7023SOL    HW121968   0.470   1.875   3.562
 7023SOL    HW221969   0.466   1.982   3.439
 7024SOL     OW21970   1.279   4.947   5.492
 7024SOL    HW121971   1.234   4.962   5.404
 7024SOL    HW221972   1.362   5.004   5.497
 7025SOL     OW21973   2.551   1.167   0.076
 7025SOL    HW121974   2.509   1.245   0.029
 7025SOL    HW221975   2.523   1.167   0.172
 7026SOL     OW21976   2.829   1.719   2.024
 7026SOL    HW121977   2.748   1.731   1.966
 7026SOL    HW221978   2.856   1.622   2.024
 7027SOL     OW21979   2.520   4.754   3.688
 7027SOL    HW121980   2.486   4.833   3.739
 7027SOL    HW221981   2.446   4.687   3.678
 7028SOL     OW21982   5.571   6.384   4.346
 7028SOL    HW121983   5.484   6.347   4.380
 7028SOL    HW221984   5.642   6.314   4.356
 7029SOL     OW21985   4.211   6.140   6.219
 7029SOL    HW121986   4.168   6.179   6.137
 7029SOL    HW221987   4.295   6.190   6.240
 7030SOL     OW21988   6.662   2.545   5.522
 7030SOL    HW121989   6.704   2.455   5.531
 7030SOL    HW221990   6.722   2.614   5.562
 7031SOL     OW21991   2.289   6.624   4.948
 7031SOL    HW121992   2.236   6.610   4.864
 7031SOL    HW221993   2.368   6.562   4.948
 7032SOL     OW21994   3.617   6.665   3.801
 7032SOL    HW121995   3.634   6.761   3.781
 7032SOL    HW221996   3.527   6.655   3.843
 7033SOL     OW21997   0.436   1.708   3.899
 7033SOL    HW121998   0.476   1.636   3.842
 7033SOL    HW221999   0.337   1.695   3.903
 7034SOL     OW22000   5.725   0.274   3.131
 7034SOL    HW122001   5.772   0.187   3.122
 7034SOL    HW222002   5.702   0.290   3.227
 7035SOL     OW22003   1.245   6.594   1.802
 7035SOL    HW122004   1.300   6.537   1.741
 7035SOL    HW222005   1.163   6.626   1.754
 7036SOL     OW22006   0.120   0.836   2.317
 7036SOL    HW122007   0.091   0.837   2.221
 7036SOL    HW222008   0.153   0.927   2.342
 7037SOL     OW22009   1.497   0.536   6.401
 7037SOL    HW122010   1.573   0.601   6.404
 7037SOL    HW222011   1.426   0.570   6.339
 7038SOL     OW22012   1.540   2.975   4.105
 7038SOL    HW122013   1.555   3.073   4.118
 7038SOL    HW222014   1.447   2.960   4.071
 7039SOL     OW22015   2.949   5.437   1.435
 7039SOL    HW122016   2.903   5.369   1.492
 7039SOL    HW222017   2.932   5.418   1.339
 7040SOL     OW22018   6.077   2.108   4.622
 7040SOL    HW122019   6.174   2.128   4.638
 7040SOL    HW222020   6.060   2.012   4.642
 7041SOL     OW22021   0.721   2.407   2.217
 7041SOL    HW122022   0.727   2.328   2.156
 7041SOL    HW222023   0.629   2.412   2.256
 7042SOL     OW22024   5.645   5.463   6.715
 7042SOL    HW122025   5.597   5.485   6.630
 7042SOL    HW222026   5.630   5.367   6.737
 7043SOL     OW22027   2.317   2.835   3.256
 7043SOL    HW122028   2.346   2.740   3.254
 7043SOL    HW222029   2.281   2.858   3.347
 7044SOL     OW22030   4.642   5.088   2.259
 7044SOL    HW122031   4.618   5.166   2.317
 7044SOL    HW222032   4.715   5.114   2.197
 7045SOL     OW22033   4.642   5.741   2.564
 7045SOL    HW122034   4.736   5.766   2.588
 7045SOL    HW222035   4.583   5.754   2.644
 7046SOL     OW22036   3.823   1.816   3.079
 7046SOL    HW122037   3.727   1.845   3.086
 7046SOL    HW222038   3.832   1.752   3.002
 7047SOL     OW22039   0.874   2.718   2.455
 7047SOL    HW122040   0.947   2.787   2.460
 7047SOL    HW222041   0.915   2.626   2.455
 7048SOL     OW22042   0.336   5.873   1.964
 7048SOL    HW122043   0.344   5.950   1.901
 7048SOL    HW222044   0.279   5.802   1.923
 7049SOL     OW22045   2.360   1.504   1.206
 7049SOL    HW122046   2.273   1.483   1.251
 7049SOL    HW222047   2.355   1.596   1.166
 7050SOL     OW22048   4.101   3.342   2.571
 7050SOL    HW122049   4.105   3.299   2.481
 7050SOL    HW222050   4.126   3.438   2.564
 7051SOL     OW22051   6.963   0.502   1.245
 7051SOL    HW122052   6.903   0.473   1.171
 7051SOL    HW222053   6.927   0.468   1.332
 7052SOL     OW22054   5.857   2.619   3.538
 7052SOL    HW122055   5.854   2.701   3.480
 7052SOL    HW222056   5.875   2.646   3.633
 7053SOL     OW22057   0.595   3.544   4.476
 7053SOL    HW122058   0.680   3.587   4.507
 7053SOL    HW222059   0.536   3.525   4.555
 7054SOL     OW22060   0.573   6.463   1.020
 7054SOL    HW122061   0.482   6.484   1.056
 7054SOL    HW222062   0.586   6.511   0.933
 7055SOL     OW22063   3.730   5.811   5.348
 7055SOL    HW122064   3.825   5.842   5.360
 7055SOL    HW222065   3.697   5.773   5.435
 7056SOL     OW22066   5.251   5.851   2.304
 7056SOL    HW122067   5.229   5.822   2.211
 7056SOL    HW222068   5.311   5.931   2.301
 7057SOL     OW22069   1.231   6.217   3.610
 7057SOL    HW122070   1.206   6.313   3.624
 7057SOL    HW222071   1.195   6.186   3.522
 7058SOL     OW22072   6.818   5.554   6.231
 7058SOL    HW122073   6.917   5.547   6.238
 7058SOL    HW222074   6.781   5.590   6.316
 7059SOL     OW22075   0.032   0.873   3.354
 7059SOL    HW122076   0.033   0.778   3.321
 7059SOL    HW222077   7.011   0.876   3.444
 7060SOL     OW22078   4.251   0.289   1.943
 7060SOL    HW122079   4.229   0.261   1.849
 7060SOL    HW222080   4.166   0.307   1.993
 7061SOL     OW22081   0.073   3.057   4.116
 7061SOL    HW122082   0.077   3.043   4.017
 7061SOL    HW222083   0.159   3.027   4.157
 7062SOL     OW22084   5.393   1.608   5.370
 7062SOL    HW122085   5.453   1.589   5.448
 7062SOL    HW222086   5.436   1.575   5.286
 7063SOL     OW22087   0.479   0.405   1.421
 7063SOL    HW122088   0.421   0.413   1.502
 7063SOL    HW222089   0.422   0.386   1.341
 7064SOL     OW22090   4.291   2.005   2.298
 7064SOL    HW122091   4.307   2.019   2.200
 7064SOL    HW222092   4.350   1.931   2.331
 7065SOL     OW22093   3.886   2.885   5.970
 7065SOL    HW122094   3.887   2.857   6.066
 7065SOL    HW222095   3.855   2.980   5.963
 7066SOL     OW22096   4.358   0.428   0.462
 7066SOL    HW122097   4.345   0.513   0.411
 7066SOL    HW222098   4.278   0.369   0.449
 7067SOL     OW22099   1.782   1.551   5.898
 7067SOL    HW122100   1.879   1.570   5.910
 7067SOL    HW222101   1.737   1.630   5.857
 7068SOL     OW22102   0.775   4.285   4.306
 7068SOL    HW122103   0.703   4.353   4.297
 7068SOL    HW222104   0.834   4.309   4.383
 7069SOL     OW22105   6.256   2.097   3.676
 7069SOL    HW122106   6.349   2.134   3.673
 7069SOL    HW222107   6.254   2.018   3.737
 7070SOL     OW22108   6.984   6.514   4.274
 7070SOL    HW122109   6.986   6.562   4.187
 7070SOL    HW222110   6.889   6.495   4.300
 7071SOL     OW22111   1.815   6.578   5.804
 7071SOL    HW122112   1.887   6.629   5.758
 7071SOL    HW222113   1.759   6.641   5.858
 7072SOL     OW22114   0.636   6.273   6.477
 7072SOL    HW122115   0.666   6.341   6.410
 7072SOL    HW222116   0.646   6.310   6.569
 7073SOL     OW22117   5.671   6.838   4.896
 7073SOL    HW122118   5.648   6.741   4.885
 7073SOL    HW222119   5.712   6.872   4.812
 7074SOL     OW22120   4.227   2.218   1.535
 7074SOL    HW122121   4.273   2.137   1.500
 7074SOL    HW222122   4.161   2.191   1.605
 7075SOL     OW22123   1.567   5.442   5.510
 7075SOL    HW122124   1.612   5.531   5.508
 7075SOL    HW222125   1.581   5.396   5.422
 7076SOL     OW22126   5.328   2.307   6.220
 7076SOL    HW122127   5.284   2.394   6.195
 7076SOL    HW222128   5.418   2.303   6.176
 7077SOL     OW22129   2.204   4.250   4.274
 7077SOL    HW122130   2.232   4.201   4.356
 7077SOL    HW222131   2.187   4.184   4.200
 7078SOL     OW22132   6.282   0.696   1.550
 7078SOL    HW122133   6.234   0.624   1.600
 7078SOL    HW222134   6.380   0.676   1.550
 7079SOL     OW22135   6.501   6.405   5.096
 7079SOL    HW122136   6.469   6.326   5.148
 7079SOL    HW222137   6.522   6.479   5.160
 7080SOL     OW22138   3.118   2.211   4.404
 7080SOL    HW122139   3.090   2.191   4.310
 7080SOL    HW222140   3.040   2.196   4.466
 7081SOL     OW22141   2.605   1.912   6.884
 7081SOL    HW122142   2.674   1.932   6.816
 7081SOL    HW222143   2.605   1.814   6.905
 7082SOL     OW22144   6.192   4.373   6.773
 7082SOL    HW122145   6.189   4.342   6.868
 7082SOL    HW222146   6.099   4.371   6.735
 7083SOL     OW22147   2.924   0.664   0.359
 7083SOL    HW122148   2.846   0.678   0.421
 7083SOL    HW222149   2.977   0.586   0.390
 7084SOL     OW22150   0.338   6.259   5.831
 7084SOL    HW122151   0.305   6.175   5.873
 7084SOL    HW222152   0.347   6.331   5.900
 7085SOL     OW22153   1.215   2.095   1.869
 7085SOL    HW122154   1.291   2.137   1.820
 7085SOL    HW222155   1.188   2.153   1.946
 7086SOL     OW22156   5.190   1.452   5.471
 7086SOL    HW122157   5.221   1.363   5.506
 7086SOL    HW222158   5.265   1.497   5.423
 7087SOL     OW22159   5.844   4.379   3.664
 7087SOL    HW122160   5.751   4.343   3.673
 7087SOL    HW222161   5.841   4.479   3.671
 7088SOL     OW22162   5.622   2.503   3.646
 7088SOL    HW122163   5.714   2.535   3.621
 7088SOL    HW222164   5.558   2.527   3.574
 7089SOL     OW22165   3.315   2.090   5.161
 7089SOL    HW122166   3.292   2.079   5.258
 7089SOL    HW222167   3.252   2.155   5.118
 7090SOL     OW22168   2.141   0.989   6.804
 7090SOL    HW122169   2.078   0.937   6.746
 7090SOL    HW222170   2.117   1.086   6.799
 7091SOL     OW22171   0.366   1.736   6.816
 7091SOL    HW122172   0.284   1.715   6.762
 7091SOL    HW222173   0.426   1.796   6.763
 7092SOL     OW22174   4.396   2.535   6.354
 7092SOL    HW122175   4.373   2.627   6.385
 7092SOL    HW222176   4.455   2.491   6.422
 7093SOL     OW22177   2.930   3.659   3.102
 7093SOL    HW122178   2.878   3.628   3.182
 7093SOL    HW222179   2.976   3.745   3.124
 7094SOL     OW22180   0.812   5.553   5.685
 7094SOL    HW122181   0.786   5.642   5.723
 7094SOL    HW222182   0.824   5.487   5.759
 7095SOL     OW22183   2.811   3.938   6.056
 7095SOL    HW122184   2.779   3.860   6.003
 7095SOL    HW222185   2.873   3.906   6.129
 7096SOL     OW22186   6.011   0.549   3.812
 7096SOL    HW122187   5.960   0.560   3.727
 7096SOL    HW222188   6.009   0.635   3.863
 7097SOL     OW22189   6.065   1.478   1.372
 7097SOL    HW122190   6.160   1.489   1.403
 7097SOL    HW222191   6.004   1.515   1.442
 7098SOL     OW22192   0.663   0.520   4.884
 7098SOL    HW122193   0.701   0.607   4.914
 7098SOL    HW222194   0.638   0.526   4.787
 7099SOL     OW22195   2.634   0.962   4.827
 7099SOL    HW122196   2.639   1.061   4.842
 7099SOL    HW222197   2.541   0.930   4.844
 7100SOL     OW22198   5.532   2.971   0.917
 7100SOL    HW122199   5.574   2.965   0.826
 7100SOL    HW222200   5.563   2.894   0.973
 7101SOL     OW22201   2.270   0.740   4.652
 7101SOL    HW122202   2.332   0.773   4.723
 7101SOL    HW222203   2.257   0.641   4.662
 7102SOL     OW22204   4.515   0.494   0.907
 7102SOL    HW122205   4.594   0.483   0.846
 7102SOL    HW222206   4.539   0.559   0.980
 7103SOL     OW22207   4.126   5.006   1.652
 7103SOL    HW122208   4.182   5.057   1.718
 7103SOL    HW222209   4.063   4.946   1.701
 7104SOL     OW22210   1.212   3.435   4.570
 7104SOL    HW122211   1.244   3.488   4.649
 7104SOL    HW222212   1.115   3.453   4.555
 7105SOL     OW22213   3.157   2.843   5.270
 7105SOL    HW122214   3.179   2.746   5.260
 7105SOL    HW222215   3.211   2.881   5.345
 7106SOL     OW22216   3.055   3.900   3.138
 7106SOL    HW122217   3.066   3.974   3.204
 7106SOL    HW222218   3.077   3.933   3.046
 7107SOL     OW22219   2.853   2.077   0.485
 7107SOL    HW122220   2.877   2.162   0.532
 7107SOL    HW222221   2.848   2.003   0.552
 7108SOL     OW22222   3.751   6.655   2.879
 7108SOL    HW122223   3.793   6.599   2.808
 7108SOL    HW222224   3.733   6.747   2.843
 7109SOL     OW22225   3.384   0.422   6.602
 7109SOL    HW122226   3.429   0.490   6.659
 7109SOL    HW222227   3.451   0.354   6.573
 7110SOL     OW22228   3.610   5.924   3.923
 7110SOL    HW122229   3.590   6.020   3.903
 7110SOL    HW222230   3.572   5.866   3.851
 7111SOL     OW22231   2.279   1.931   4.237
 7111SOL    HW122232   2.257   1.882   4.322
 7111SOL    HW222233   2.353   1.883   4.189
 7112SOL     OW22234   1.557   5.630   4.023
 7112SOL    HW122235   1.630   5.690   3.989
 7112SOL    HW222236   1.538   5.652   4.119
 7113SOL     OW22237   3.387   4.154   4.804
 7113SOL    HW122238   3.396   4.194   4.713
 7113SOL    HW222239   3.308   4.092   4.805
 7114SOL     OW22240   3.987   6.396   1.420
 7114SOL    HW122241   3.929   6.314   1.415
 7114SOL    HW222242   3.936   6.475   1.388
 7115SOL     OW22243   5.208   3.512   2.187
 7115SOL    HW122244   5.176   3.557   2.103
 7115SOL    HW222245   5.258   3.578   2.243
 7116SOL     OW22246   5.676   3.871   3.172
 7116SOL    HW122247   5.629   3.958   3.156
 7116SOL    HW222248   5.771   3.879   3.142
 7117SOL     OW22249   6.739   6.288   4.634
 7117SOL    HW122250   6.728   6.322   4.727
 7117SOL    HW222251   6.835   6.274   4.614
 7118SOL     OW22252   2.792   3.723   1.146
 7118SOL    HW122253   2.693   3.711   1.134
 7118SOL    HW222254   2.834   3.635   1.166
 7119SOL     OW22255   4.841   1.545   3.070
 7119SOL    HW122256   4.786   1.465   3.093
 7119SOL    HW222257   4.892   1.527   2.986
 7120SOL     OW22258   4.025   2.151   2.585
 7120SOL    HW122259   4.031   2.169   2.683
 7120SOL    HW222260   3.932   2.170   2.553
 7121SOL     OW22261   1.644   6.912   2.419
 7121SOL    HW122262   1.711   6.840   2.435
 7121SOL    HW222263   1.688   6.988   2.371
 7122SOL     OW22264   0.905   0.501   5.775
 7122SOL    HW122265   0.944   0.456   5.695
 7122SOL    HW222266   0.872   0.592   5.749
 7123SOL     OW22267   2.202   4.638   3.077
 7123SOL    HW122268   2.142   4.688   3.139
 7123SOL    HW222269   2.232   4.698   3.004
 7124SOL     OW22270   0.038   2.311   0.834
 7124SOL    HW122271   0.027   2.370   0.754
 7124SOL    HW222272   7.005   2.347   0.909
 7125SOL     OW22273   6.341   6.668   0.809
 7125SOL    HW122274   6.363   6.763   0.790
 7125SOL    HW222275   6.418   6.610   0.782
 7126SOL     OW22276   3.490   4.338   0.181
 7126SOL    HW122277   3.496   4.245   0.217
 7126SOL    HW222278   3.580   4.382   0.184
 7127SOL     OW22279   1.714   6.011   4.682
 7127SOL    HW122280   1.733   5.985   4.777
 7127SOL    HW222281   1.768   6.093   4.659
 7128SOL     OW22282   3.145   4.728   7.007
 7128SOL    HW122283   3.165   4.633   0.009
 7128SOL    HW222284   3.220   4.765   6.952
 7129SOL     OW22285   2.049   1.535   0.341
 7129SOL    HW122286   2.033   1.465   0.271
 7129SOL    HW222287   1.989   1.518   0.419
 7130SOL     OW22288   3.815   5.338   5.470
 7130SOL    HW122289   3.798   5.398   5.392
 7130SOL    HW222290   3.883   5.381   5.530
 7131SOL     OW22291   2.321   1.136   0.613
 7131SOL    HW122292   2.349   1.071   0.683
 7131SOL    HW222293   2.395   1.200   0.595
 7132SOL     OW22294   3.836   3.551   6.878
 7132SOL    HW122295   3.749   3.552   6.928
 7132SOL    HW222296   3.818   3.558   6.780
 7133SOL     OW22297   5.130   5.578   4.995
 7133SOL    HW122298   5.128   5.556   4.898
 7133SOL    HW222299   5.148   5.496   5.048
 7134SOL     OW22300   5.722   6.741   2.124
 7134SOL    HW122301   5.628   6.709   2.113
 7134SOL    HW222302   5.725   6.809   2.198
 7135SOL     OW22303   1.084   3.364   2.839
 7135SOL    HW122304   1.123   3.272   2.845
 7135SOL    HW222305   1.150   3.430   2.873
 7136SOL     OW22306   1.903   2.752   0.947
 7136SOL    HW122307   1.811   2.732   0.914
 7136SOL    HW222308   1.911   2.722   1.042
 7137SOL     OW22309   4.256   0.443   6.969
 7137SOL    HW122310   4.222   0.446   6.875
 7137SOL    HW222311   4.189   0.397   0.004
 7138SOL     OW22312   1.602   2.980   6.971
 7138SOL    HW122313   1.553   2.901   6.936
 7138SOL    HW222314   1.552   3.064   6.949
 7139SOL     OW22315   5.586   3.759   2.425
 7139SOL    HW122316   5.646   3.738   2.347
 7139SOL    HW222317   5.512   3.693   2.429
 7140SOL     OW22318   5.498   4.815   4.656
 7140SOL    HW122319   5.511   4.776   4.747
 7140SOL    HW222320   5.401   4.808   4.631
 7141SOL     OW22321   3.383   6.066   1.338
 7141SOL    HW122322   3.398   6.162   1.314
 7141SOL    HW222323   3.461   6.033   1.391
 7142SOL     OW22324   3.871   6.978   3.385
 7142SOL    HW122325   3.963   6.984   3.424
 7142SOL    HW222326   3.869   6.909   3.313
 7143SOL     OW22327   1.415   3.210   6.261
 7143SOL    HW122328   1.422   3.183   6.165
 7143SOL    HW222329   1.408   3.128   6.318
 7144SOL     OW22330   1.906   1.720   2.900
 7144SOL    HW122331   2.003   1.703   2.915
 7144SOL    HW222332   1.852   1.674   2.970
 7145SOL     OW22333   4.255   6.929   6.893
 7145SOL    HW122334   4.169   6.880   6.905
 7145SOL    HW222335   4.298   6.900   6.807
 7146SOL     OW22336   2.468   0.592   0.476
 7146SOL    HW122337   2.486   0.513   0.419
 7146SOL    HW222338   2.385   0.638   0.444
 7147SOL     OW22339   6.829   6.504   3.055
 7147SOL    HW122340   6.790   6.575   2.998
 7147SOL    HW222341   6.929   6.513   3.057
 7148SOL     OW22342   0.803   6.587   6.851
 7148SOL    HW122343   0.772   6.569   6.944
 7148SOL    HW222344   0.811   6.686   6.837
 7149SOL     OW22345   6.015   6.704   2.798
 7149SOL    HW122346   5.917   6.723   2.809
 7149SOL    HW222347   6.055   6.681   2.887
 7150SOL     OW22348   3.099   1.546   2.030
 7150SOL    HW122349   3.097   1.620   1.963
 7150SOL    HW222350   3.046   1.468   1.997
 7151SOL     OW22351   1.898   6.241   0.543
 7151SOL    HW122352   1.856   6.179   0.610
 7151SOL    HW222353   1.992   6.212   0.524
 7152SOL     OW22354   1.134   1.507   4.835
 7152SOL    HW122355   1.085   1.425   4.806
 7152SOL    HW222356   1.180   1.548   4.757
 7153SOL     OW22357   3.468   5.485   1.946
 7153SOL    HW122358   3.565   5.504   1.963
 7153SOL    HW222359   3.422   5.468   2.033
 7154SOL     OW22360   3.424   0.826   4.051
 7154SOL    HW122361   3.384   0.791   4.136
 7154SOL    HW222362   3.407   0.761   3.977
 7155SOL     OW22363   2.155   3.700   1.854
 7155SOL    HW122364   2.236   3.759   1.862
 7155SOL    HW222365   2.175   3.611   1.895
 7156SOL     OW22366   0.468   4.233   4.518
 7156SOL    HW122367   0.493   4.301   4.449
 7156SOL    HW222368   0.398   4.172   4.482
 7157SOL     OW22369   6.049   4.439   1.980
 7157SOL    HW122370   6.093   4.397   2.059
 7157SOL    HW222371   5.952   4.456   2.000
 7158SOL     OW22372   1.271   0.132   2.648
 7158SOL    HW122373   1.336   0.083   2.590
 7158SOL    HW222374   1.307   0.136   2.742
 7159SOL     OW22375   0.520   4.723   2.625
 7159SOL    HW122376   0.456   4.766   2.562
 7159SOL    HW222377   0.499   4.626   2.633
 7160SOL     OW22378   5.094   0.597   3.118
 7160SOL    HW122379   5.145   0.634   3.195
 7160SOL    HW222380   5.125   0.504   3.099
 7161SOL     OW22381   2.876   3.401   5.132
 7161SOL    HW122382   2.866   3.314   5.085
 7161SOL    HW222383   2.906   3.385   5.226
 7162SOL     OW22384   2.177   5.649   5.744
 7162SOL    HW122385   2.263   5.668   5.696
 7162SOL    HW222386   2.196   5.637   5.842
 7163SOL     OW22387   2.961   6.645   3.074
 7163SOL    HW122388   3.032   6.689   3.019
 7163SOL    HW222389   2.879   6.631   3.017
 7164SOL     OW22390   1.591   0.941   4.242
 7164SOL    HW122391   1.687   0.947   4.218
 7164SOL    HW222392   1.535   0.946   4.158
 7165SOL     OW22393   6.865   1.410   2.021
 7165SOL    HW122394   6.873   1.310   2.013
 7165SOL    HW222395   6.957   1.450   2.021
 7166SOL     OW22396   5.731   3.317   0.432
 7166SOL    HW122397   5.650   3.362   0.393
 7166SOL    HW222398   5.720   3.217   0.423
 7167SOL     OW22399   4.924   3.612   4.053
 7167SOL    HW122400   5.002   3.610   3.990
 7167SOL    HW222401   4.923   3.528   4.107
 7168SOL     OW22402   1.723   2.489   3.891
 7168SOL    HW122403   1.791   2.457   3.824
 7168SOL    HW222404   1.647   2.531   3.843
 7169SOL     OW22405   6.857   3.219   4.962
 7169SOL    HW122406   6.906   3.171   4.889
 7169SOL    HW222407   6.821   3.153   5.027
 7170SOL     OW22408   4.918   5.772   3.160
 7170SOL    HW122409   5.006   5.819   3.151
 7170SOL    HW222410   4.918   5.690   3.103
 7171SOL     OW22411   4.751   4.221   6.684
 7171SOL    HW122412   4.700   4.232   6.769
 7171SOL    HW222413   4.822   4.291   6.678
 7172SOL     OW22414   1.430   0.871   5.267
 7172SOL    HW122415   1.428   0.924   5.352
 7172SOL    HW222416   1.466   0.927   5.193
 7173SOL     OW22417   0.171   4.390   5.793
 7173SOL    HW122418   0.080   4.430   5.790
 7173SOL    HW222419   0.165   4.291   5.776
 7174SOL     OW22420   0.684   4.236   0.633
 7174SOL    HW122421   0.646   4.298   0.703
 7174SOL    HW222422   0.628   4.242   0.550
 7175SOL     OW22423   4.769   2.886   6.598
 7175SOL    HW122424   4.710   2.866   6.676
 7175SOL    HW222425   4.776   2.805   6.539
 7176SOL     OW22426   1.233   5.846   2.820
 7176SOL    HW122427   1.214   5.757   2.779
 7176SOL    HW222428   1.318   5.882   2.783
 7177SOL     OW22429   2.001   6.117   4.368
 7177SOL    HW122430   2.065   6.054   4.413
 7177SOL    HW222431   2.052   6.183   4.313
 7178SOL     OW22432   2.166   2.698   5.427
 7178SOL    HW122433   2.211   2.700   5.337
 7178SOL    HW222434   2.088   2.635   5.423
 7179SOL     OW22435   1.745   3.760   4.261
 7179SOL    HW122436   1.720   3.796   4.351
 7179SOL    HW222437   1.727   3.830   4.191
 7180SOL     OW22438   1.592   4.599   0.167
 7180SOL    HW122439   1.615   4.528   0.233
 7180SOL    HW222440   1.546   4.675   0.214
 7181SOL     OW22441   2.155   6.181   0.474
 7181SOL    HW122442   2.187   6.267   0.435
 7181SOL    HW222443   2.231   6.115   0.477
 7182SOL     OW22444   1.659   2.641   5.061
 7182SOL    HW122445   1.751   2.664   5.093
 7182SOL    HW222446   1.593   2.702   5.104
 7183SOL     OW22447   2.452   5.930   0.218
 7183SOL    HW122448   2.412   5.966   0.302
 7183SOL    HW222449   2.507   6.000   0.174
 7184SOL     OW22450   0.333   1.280   3.015
 7184SOL    HW122451   0.278   1.342   3.070
 7184SOL    HW222452   0.283   1.194   3.003
 7185SOL     OW22453   5.661   0.425   5.353
 7185SOL    HW122454   5.698   0.493   5.416
 7185SOL    HW222455   5.630   0.471   5.269
 7186SOL     OW22456   6.204   0.358   0.019
 7186SOL    HW122457   6.262   0.314   0.088
 7186SOL    HW222458   6.212   0.457   0.028
 7187SOL     OW22459   3.509   3.877   0.091
 7187SOL    HW122460   3.452   3.898   0.011
 7187SOL    HW222461   3.507   3.954   0.155
 7188SOL     OW22462   6.078   0.152   0.959
 7188SOL    HW122463   6.061   0.089   0.884
 7188SOL    HW222464   6.007   0.141   1.029
 7189SOL     OW22465   0.335   0.991   5.854
 7189SOL    HW122466   0.269   1.040   5.798
 7189SOL    HW222467   0.302   0.898   5.870
 7190SOL     OW22468   6.758   3.617   3.358
 7190SOL    HW122469   6.737   3.590   3.264
 7190SOL    HW222470   6.751   3.537   3.418
 7191SOL     OW22471   0.200   4.459   3.208
 7191SOL    HW122472   0.223   4.403   3.288
 7191SOL    HW222473   0.103   4.452   3.188
 7192SOL     OW22474   3.271   4.535   5.793
 7192SOL    HW122475   3.366   4.504   5.806
 7192SOL    HW222476   3.215   4.502   5.869
 7193SOL     OW22477   2.046   2.653   2.416
 7193SOL    HW122478   1.946   2.645   2.412
 7193SOL    HW222479   2.078   2.711   2.342
 7194SOL     OW22480   3.014   2.349   0.950
 7194SOL    HW122481   2.956   2.351   1.032
 7194SOL    HW222482   3.111   2.354   0.978
 7195SOL     OW22483   6.947   4.423   6.741
 7195SOL    HW122484   6.862   4.391   6.698
 7195SOL    HW222485   0.001   4.376   6.699
 7196SOL     OW22486   3.053   4.175   1.198
 7196SOL    HW122487   3.019   4.192   1.105
 7196SOL    HW222488   2.978   4.181   1.263
 7197SOL     OW22489   6.967   2.093   5.896
 7197SOL    HW122490   6.996   2.171   5.839
 7197SOL    HW222491   6.918   2.128   5.976
 7198SOL     OW22492   0.972   0.897   6.500
 7198SOL    HW122493   0.887   0.908   6.551
 7198SOL    HW222494   0.967   0.950   6.415
 7199SOL     OW22495   2.231   1.189   2.318
 7199SOL    HW122496   2.180   1.105   2.335
 7199SOL    HW222497   2.254   1.195   2.221
 7200SOL     OW22498   2.924   2.275   0.696
 7200SOL    HW122499   2.884   2.351   0.644
 7200SOL    HW222500   2.966   2.310   0.780
 7201SOL     OW22501   1.038   5.818   4.423
 7201SOL    HW122502   1.131   5.792   4.394
 7201SOL    HW222503   1.014   5.768   4.506
 7202SOL     OW22504   4.340   0.555   6.080
 7202SOL    HW122505   4.425   0.540   6.029
 7202SOL    HW222506   4.264   0.564   6.015
 7203SOL     OW22507   0.136   1.655   1.045
 7203SOL    HW122508   0.183   1.695   0.966
 7203SOL    HW222509   0.081   1.725   1.091
 7204SOL     OW22510   0.324   6.747   5.459
 7204SOL    HW122511   0.361   6.810   5.390
 7204SOL    HW222512   0.227   6.767   5.474
 7205SOL     OW22513   0.727   5.539   3.091
 7205SOL    HW122514   0.823   5.513   3.082
 7205SOL    HW222515   0.680   5.472   3.149
 7206SOL     OW22516   2.214   0.148   0.912
 7206SOL    HW122517   2.124   0.152   0.868
 7206SOL    HW222518   2.280   0.107   0.850
 7207SOL     OW22519   3.618   0.175   1.998
 7207SOL    HW122520   3.697   0.170   1.938
 7207SOL    HW222521   3.612   0.265   2.039
 7208SOL     OW22522   4.020   6.587   3.476
 7208SOL    HW122523   3.937   6.642   3.471
 7208SOL    HW222524   4.078   6.621   3.550
 7209SOL     OW22525   3.067   3.934   2.409
 7209SOL    HW122526   3.011   4.017   2.407
 7209SOL    HW222527   3.046   3.879   2.328
 7210SOL     OW22528   4.356   0.474   4.005
 7210SOL    HW122529   4.403   0.442   4.086
 7210SOL    HW222530   4.398   0.559   3.973
 7211SOL     OW22531   2.222   5.471   4.167
 7211SOL    HW122532   2.283   5.541   4.205
 7211SOL    HW222533   2.224   5.476   4.067
 7212SOL     OW22534   0.300   6.752   4.313
 7212SOL    HW122535   0.268   6.725   4.222
 7212SOL    HW222536   0.400   6.750   4.315
 7213SOL     OW22537   5.503   0.392   6.612
 7213SOL    HW122538   5.594   0.351   6.617
 7213SOL    HW222539   5.473   0.417   6.704
 7214SOL     OW22540   0.475   5.248   5.159
 7214SOL    HW122541   0.418   5.322   5.196
 7214SOL    HW222542   0.465   5.167   5.216
 7215SOL     OW22543   0.440   3.108   5.165
 7215SOL    HW122544   0.516   3.132   5.105
 7215SOL    HW222545   0.354   3.132   5.121
 7216SOL     OW22546   2.854   5.959   0.081
 7216SOL    HW122547   2.790   6.033   0.058
 7216SOL    HW222548   2.918   5.991   0.151
 7217SOL     OW22549   2.229   4.085   2.607
 7217SOL    HW122550   2.259   4.062   2.515
 7217SOL    HW222551   2.238   4.184   2.621
 7218SOL     OW22552   5.084   2.511   5.170
 7218SOL    HW122553   5.117   2.581   5.235
 7218SOL    HW222554   5.160   2.453   5.142
 7219SOL     OW22555   4.665   6.660   4.645
 7219SOL    HW122556   4.589   6.675   4.708
 7219SOL    HW222557   4.737   6.607   4.691
 7220SOL     OW22558   0.776   6.001   4.680
 7220SOL    HW122559   0.862   6.047   4.660
 7220SOL    HW222560   0.780   5.906   4.648
 7221SOL     OW22561   4.270   5.198   4.588
 7221SOL    HW122562   4.238   5.114   4.544
 7221SOL    HW222563   4.289   5.266   4.517
 7222SOL     OW22564   6.172   0.477   3.042
 7222SOL    HW122565   6.078   0.444   3.048
 7222SOL    HW222566   6.186   0.526   2.956
 7223SOL     OW22567   2.643   2.140   1.497
 7223SOL    HW122568   2.565   2.114   1.441
 7223SOL    HW222569   2.620   2.127   1.594
 7224SOL     OW22570   5.940   2.153   4.208
 7224SOL    HW122571   5.976   2.149   4.301
 7224SOL    HW222572   6.010   2.189   4.146
 7225SOL     OW22573   0.956   6.125   6.440
 7225SOL    HW122574   0.900   6.135   6.523
 7225SOL    HW222575   1.003   6.037   6.443
 7226SOL     OW22576   0.181   0.836   0.382
 7226SOL    HW122577   0.093   0.827   0.335
 7226SOL    HW222578   0.238   0.756   0.362
 7227SOL     OW22579   0.463   2.618   1.097
 7227SOL    HW122580   0.481   2.610   1.195
 7227SOL    HW222581   0.379   2.569   1.073
 7228SOL     OW22582   0.901   1.230   2.148
 7228SOL    HW122583   0.818   1.246   2.201
 7228SOL    HW222584   0.946   1.147   2.181
 7229SOL     OW22585   1.265   6.910   4.882
 7229SOL    HW122586   1.275   6.825   4.831
 7229SOL    HW222587   1.208   6.894   4.963
 7230SOL     OW22588   5.066   5.002   4.493
 7230SOL    HW122589   5.158   5.002   4.454
 7230SOL    HW222590   5.037   5.096   4.510
 7231SOL     OW22591   4.849   0.066   0.206
 7231SOL    HW122592   4.804   0.004   0.270
 7231SOL    HW222593   4.807   0.157   0.213
 7232SOL     OW22594   5.171   5.376   3.000
 7232SOL    HW122595   5.235   5.424   3.060
 7232SOL    HW222596   5.113   5.316   3.055
 7233SOL     OW22597   0.428   2.526   4.107
 7233SOL    HW122598   0.454   2.603   4.165
 7233SOL    HW222599   0.466   2.538   4.015
 7234SOL     OW22600   5.312   2.973   3.850
 7234SOL    HW122601   5.356   3.034   3.916
 7234SOL    HW222602   5.357   2.983   3.761
 7235SOL     OW22603   6.908   3.988   2.406
 7235SOL    HW122604   6.954   4.012   2.492
 7235SOL    HW222605   6.919   3.890   2.389
 7236SOL     OW22606   2.639   1.391   2.269
 7236SOL    HW122607   2.568   1.421   2.206
 7236SOL    HW222608   2.597   1.337   2.342
 7237SOL     OW22609   6.104   6.676   5.301
 7237SOL    HW122610   6.123   6.580   5.319
 7237SOL    HW222611   6.020   6.704   5.348
 7238SOL     OW22612   2.938   2.027   1.214
 7238SOL    HW122613   3.006   2.021   1.141
 7238SOL    HW222614   2.975   2.081   1.289
 7239SOL     OW22615   2.396   1.689   2.860
 7239SOL    HW122616   2.475   1.691   2.920
 7239SOL    HW222617   2.390   1.776   2.810
 7240SOL     OW22618   2.001   4.890   6.124
 7240SOL    HW122619   2.005   4.989   6.113
 7240SOL    HW222620   2.090   4.850   6.099
 7241SOL     OW22621   3.074   0.873   0.335
 7241SOL    HW122622   3.081   0.913   0.426
 7241SOL    HW222623   3.018   0.790   0.340
 7242SOL     OW22624   6.250   6.011   0.374
 7242SOL    HW122625   6.344   5.977   0.379
 7242SOL    HW222626   6.192   5.943   0.329
 7243SOL     OW22627   6.996   4.589   6.100
 7243SOL    HW122628   6.923   4.641   6.055
 7243SOL    HW222629   7.022   4.512   6.042
 7244SOL     OW22630   5.826   0.543   1.051
 7244SOL    HW122631   5.817   0.467   1.115
 7244SOL    HW222632   5.764   0.617   1.077
 7245SOL     OW22633   0.542   2.016   5.327
 7245SOL    HW122634   0.540   1.919   5.301
 7245SOL    HW222635   0.573   2.071   5.249
 7246SOL     OW22636   6.072   0.159   4.879
 7246SOL    HW122637   6.072   0.131   4.975
 7246SOL    HW222638   6.156   0.126   4.835
 7247SOL     OW22639   3.169   6.881   3.843
 7247SOL    HW122640   3.182   6.783   3.829
 7247SOL    HW222641   3.216   6.931   3.770
 7248SOL     OW22642   3.528   0.781   3.218
 7248SOL    HW122643   3.471   0.698   3.223
 7248SOL    HW222644   3.614   0.759   3.172
 7249SOL     OW22645   5.351   4.889   1.619
 7249SOL    HW122646   5.319   4.983   1.614
 7249SOL    HW222647   5.290   4.836   1.679
 7250SOL     OW22648   3.943   5.921   6.181
 7250SOL    HW122649   4.001   6.000   6.195
 7250SOL    HW222650   3.976   5.845   6.237
 7251SOL     OW22651   0.427   6.447   5.390
 7251SOL    HW122652   0.430   6.409   5.297
 7251SOL    HW222653   0.392   6.541   5.386
 7252SOL     OW22654   3.854   3.092   3.652
 7252SOL    HW122655   3.867   3.026   3.726
 7252SOL    HW222656   3.798   3.051   3.580
 7253SOL     OW22657   1.842   6.244   0.043
 7253SOL    HW122658   1.866   6.238   6.969
 7253SOL    HW222659   1.801   6.158   0.073
 7254SOL     OW22660   4.604   5.421   4.858
 7254SOL    HW122661   4.552   5.377   4.931
 7254SOL    HW222662   4.544   5.437   4.780
 7255SOL     OW22663   3.830   3.431   1.116
 7255SOL    HW122664   3.913   3.444   1.170
 7255SOL    HW222665   3.750   3.435   1.176
 7256SOL     OW22666   4.739   4.574   4.473
 7256SOL    HW122667   4.786   4.652   4.514
 7256SOL    HW222668   4.791   4.540   4.395
 7257SOL     OW22669   4.626   2.655   3.697
 7257SOL    HW122670   4.704   2.674   3.756
 7257SOL    HW222671   4.550   2.621   3.752
 7258SOL     OW22672   3.994   1.290   3.278
 7258SOL    HW122673   3.985   1.358   3.206
 7258SOL    HW222674   3.914   1.293   3.338
 7259SOL     OW22675   3.571   3.433   1.828
 7259SOL    HW122676   3.493   3.414   1.770
 7259SOL    HW222677   3.540   3.448   1.922
 7260SOL     OW22678   2.797   2.301   2.981
 7260SOL    HW122679   2.779   2.348   2.894
 7260SOL    HW222680   2.895   2.284   2.990
 7261SOL     OW22681   2.399   3.113   0.868
 7261SOL    HW122682   2.319   3.173   0.871
 7261SOL    HW222683   2.407   3.073   0.777
 7262SOL     OW22684   5.597   2.002   3.940
 7262SOL    HW122685   5.542   2.040   3.866
 7262SOL    HW222686   5.633   2.076   3.997
 7263SOL     OW22687   6.858   6.091   2.585
 7263SOL    HW122688   6.878   6.088   2.683
 7263SOL    HW222689   6.922   6.031   2.537
 7264SOL     OW22690   6.095   1.391   6.785
 7264SOL    HW122691   6.169   1.438   6.834
 7264SOL    HW222692   6.114   1.293   6.780
 7265SOL     OW22693   5.624   5.615   5.833
 7265SOL    HW122694   5.667   5.580   5.750
 7265SOL    HW222695   5.694   5.630   5.903
 7266SOL     OW22696   3.861   0.228   0.842
 7266SOL    HW122697   3.844   0.130   0.856
 7266SOL    HW222698   3.872   0.273   0.930
 7267SOL     OW22699   6.903   5.194   5.808
 7267SOL    HW122700   6.846   5.136   5.750
 7267SOL    HW222701   6.850   5.272   5.840
 7268SOL     OW22702   4.186   4.797   2.842
 7268SOL    HW122703   4.242   4.731   2.892
 7268SOL    HW222704   4.189   4.885   2.889
 7269SOL     OW22705   6.753   6.152   0.766
 7269SOL    HW122706   6.817   6.221   0.733
 7269SOL    HW222707   6.800   6.091   0.831
 7270SOL     OW22708   1.172   2.758   4.421
 7270SOL    HW122709   1.245   2.826   4.428
 7270SOL    HW222710   1.154   2.720   4.512
 7271SOL     OW22711   0.448   4.773   4.024
 7271SOL    HW122712   0.356   4.743   4.051
 7271SOL    HW222713   0.452   4.779   3.924
 7272SOL     OW22714   6.051   5.009   1.860
 7272SOL    HW122715   6.061   4.910   1.857
 7272SOL    HW222716   5.970   5.033   1.913
 7273SOL     OW22717   5.389   4.893   2.490
 7273SOL    HW122718   5.444   4.810   2.487
 7273SOL    HW222719   5.382   4.925   2.584
 7274SOL     OW22720   1.234   6.456   5.986
 7274SOL    HW122721   1.284   6.441   6.071
 7274SOL    HW222722   1.136   6.457   6.004
 7275SOL     OW22723   6.793   1.117   2.477
 7275SOL    HW122724   6.758   1.032   2.438
 7275SOL    HW222725   6.772   1.193   2.415
 7276SOL     OW22726   3.388   1.569   3.580
 7276SOL    HW122727   3.465   1.552   3.519
 7276SOL    HW222728   3.305   1.585   3.527
 7277SOL     OW22729   5.470   1.308   4.493
 7277SOL    HW122730   5.375   1.313   4.464
 7277SOL    HW222731   5.528   1.288   4.414
 7278SOL     OW22732   3.045   1.871   2.527
 7278SOL    HW122733   3.085   1.780   2.540
 7278SOL    HW222734   3.114   1.931   2.486
 7279SOL     OW22735   4.281   3.055   6.448
 7279SOL    HW122736   4.209   3.108   6.403
 7279SOL    HW222737   4.302   3.095   6.537
 7280SOL     OW22738   6.388   2.232   4.588
 7280SOL    HW122739   6.412   2.214   4.492
 7280SOL    HW222740   6.404   2.328   4.609
 7281SOL     OW22741   2.366   0.135   0.312
 7281SOL    HW122742   2.390   0.232   0.323
 7281SOL    HW222743   2.266   0.126   0.308
 7282SOL     OW22744   6.556   6.446   0.864
 7282SOL    HW122745   6.637   6.390   0.847
 7282SOL    HW222746   6.477   6.387   0.880
 7283SOL     OW22747   2.093   6.717   2.041
 7283SOL    HW122748   2.103   6.816   2.042
 7283SOL    HW222749   2.015   6.690   2.099
 7284SOL     OW22750   0.293   2.874   4.359
 7284SOL    HW122751   0.286   2.915   4.268
 7284SOL    HW222752   0.331   2.941   4.423
 7285SOL     OW22753   5.461   3.833   1.332
 7285SOL    HW122754   5.522   3.816   1.410
 7285SOL    HW222755   5.366   3.817   1.360
 7286SOL     OW22756   1.108   0.727   0.501
 7286SOL    HW122757   1.139   0.656   0.564
 7286SOL    HW222758   1.174   0.738   0.427
 7287SOL     OW22759   0.047   3.315   4.585
 7287SOL    HW122760   0.042   3.387   4.655
 7287SOL    HW222761   0.143   3.302   4.559
 7288SOL     OW22762   1.209   2.902   2.229
 7288SOL    HW122763   1.289   2.846   2.254
 7288SOL    HW222764   1.238   2.973   2.165
 7289SOL     OW22765   6.567   2.765   2.434
 7289SOL    HW122766   6.529   2.792   2.345
 7289SOL    HW222767   6.512   2.691   2.472
 7290SOL     OW22768   3.109   0.916   5.280
 7290SOL    HW122769   3.174   0.991   5.294
 7290SOL    HW222770   3.047   0.912   5.358
 7291SOL     OW22771   3.131   6.967   0.836
 7291SOL    HW122772   3.194   7.012   0.773
 7291SOL    HW222773   3.163   6.873   0.853
 7292SOL     OW22774   2.394   0.217   3.076
 7292SOL    HW122775   2.369   0.293   3.135
 7292SOL    HW222776   2.411   0.135   3.132
 7293SOL     OW22777   1.734   1.016   5.920
 7293SOL    HW122778   1.694   1.105   5.895
 7293SOL    HW222779   1.675   0.971   5.986
 7294SOL     OW22780   2.893   4.518   0.602
 7294SOL    HW122781   2.948   4.443   0.563
 7294SOL    HW222782   2.920   4.604   0.559
 7295SOL     OW22783   6.825   4.339   1.311
 7295SOL    HW122784   6.916   4.319   1.274
 7295SOL    HW222785   6.755   4.312   1.245
 7296SOL     OW22786   4.339   5.112   2.483
 7296SOL    HW122787   4.338   5.161   2.570
 7296SOL    HW222788   4.352   5.177   2.408
 7297SOL     OW22789   2.409   6.764   2.903
 7297SOL    HW122790   2.318   6.731   2.880
 7297SOL    HW222791   2.446   6.816   2.825
 7298SOL     OW22792   5.201   5.341   7.010
 7298SOL    HW122793   5.243   5.425   0.020
 7298SOL    HW222794   5.101   5.349   7.016
 7299SOL     OW22795   0.806   1.860   0.751
 7299SOL    HW122796   0.718   1.833   0.710
 7299SOL    HW222797   0.791   1.880   0.848
 7300SOL     OW22798   0.733   5.369   1.824
 7300SOL    HW122799   0.711   5.411   1.912
 7300SOL    HW222800   0.816   5.314   1.834
 7301SOL     OW22801   6.734   1.444   5.908
 7301SOL    HW122802   6.669   1.457   5.983
 7301SOL    HW222803   6.685   1.432   5.822
 7302SOL     OW22804   0.152   1.796   5.296
 7302SOL    HW122805   0.213   1.721   5.322
 7302SOL    HW222806   0.175   1.827   5.203
 7303SOL     OW22807   3.154   1.040   6.598
 7303SOL    HW122808   3.080   0.981   6.565
 7303SOL    HW222809   3.134   1.070   6.691
 7304SOL     OW22810   2.116   5.584   1.719
 7304SOL    HW122811   2.192   5.634   1.677
 7304SOL    HW222812   2.035   5.593   1.661
 7305SOL     OW22813   5.874   2.285   1.430
 7305SOL    HW122814   5.872   2.334   1.343
 7305SOL    HW222815   5.784   2.292   1.474
 7306SOL     OW22816   3.840   1.788   1.631
 7306SOL    HW122817   3.873   1.695   1.617
 7306SOL    HW222818   3.759   1.804   1.575
 7307SOL     OW22819   4.271   6.820   2.217
 7307SOL    HW122820   4.316   6.893   2.165
 7307SOL    HW222821   4.240   6.857   2.305
 7308SOL     OW22822   0.281   1.638   3.257
 7308SOL    HW122823   0.338   1.560   3.283
 7308SOL    HW222824   0.289   1.653   3.158
 7309SOL     OW22825   2.324   6.598   2.103
 7309SOL    HW122826   2.370   6.604   2.014
 7309SOL    HW222827   2.231   6.632   2.095
 7310SOL     OW22828   1.420   3.514   5.866
 7310SOL    HW122829   1.360   3.580   5.822
 7310SOL    HW222830   1.377   3.479   5.949
 7311SOL     OW22831   0.882   0.130   0.316
 7311SOL    HW122832   0.791   0.128   0.357
 7311SOL    HW222833   0.930   0.213   0.346
 7312SOL     OW22834   0.914   1.733   5.119
 7312SOL    HW122835   0.880   1.794   5.191
 7312SOL    HW222836   0.959   1.655   5.161
 7313SOL     OW22837   2.684   1.532   0.439
 7313SOL    HW122838   2.780   1.514   0.416
 7313SOL    HW222839   2.664   1.629   0.430
 7314SOL     OW22840   0.023   3.796   6.316
 7314SOL    HW122841   0.068   3.834   6.235
 7314SOL    HW222842   0.072   3.714   6.346
 7315SOL     OW22843   5.790   5.324   2.316
 7315SOL    HW122844   5.786   5.338   2.217
 7315SOL    HW222845   5.814   5.228   2.335
 7316SOL     OW22846   3.449   2.132   6.469
 7316SOL    HW122847   3.406   2.054   6.424
 7316SOL    HW222848   3.499   2.186   6.401
 7317SOL     OW22849   3.734   1.241   2.275
 7317SOL    HW122850   3.731   1.215   2.178
 7317SOL    HW222851   3.692   1.330   2.287
 7318SOL     OW22852   3.254   6.584   2.603
 7318SOL    HW122853   3.353   6.590   2.589
 7318SOL    HW222854   3.233   6.590   2.701
 7319SOL     OW22855   6.146   3.800   6.240
 7319SOL    HW122856   6.090   3.740   6.183
 7319SOL    HW222857   6.234   3.756   6.258
 7320SOL     OW22858   0.425   3.309   7.011
 7320SOL    HW122859   0.426   3.408   7.002
 7320SOL    HW222860   0.518   3.274   7.005
 7321SOL     OW22861   1.914   6.628   6.132
 7321SOL    HW122862   1.885   6.723   6.123
 7321SOL    HW222863   1.848   6.569   6.085
 7322SOL     OW22864   0.116   3.151   2.926
 7322SOL    HW122865   0.216   3.153   2.929
 7322SOL    HW222866   0.080   3.243   2.938
 7323SOL     OW22867   2.637   2.061   1.171
 7323SOL    HW122868   2.729   2.076   1.206
 7323SOL    HW222869   2.570   2.094   1.237
 7324SOL     OW22870   6.029   4.353   2.491
 7324SOL    HW122871   6.129   4.348   2.499
 7324SOL    HW222872   5.988   4.347   2.581
 7325SOL     OW22873   2.669   0.139   5.236
 7325SOL    HW122874   2.613   0.218   5.258
 7325SOL    HW222875   2.704   0.098   5.320
 7326SOL     OW22876   3.779   0.804   6.447
 7326SOL    HW122877   3.851   0.735   6.459
 7326SOL    HW222878   3.782   0.867   6.525
 7327SOL     OW22879   5.452   3.724   3.816
 7327SOL    HW122880   5.506   3.798   3.776
 7327SOL    HW222881   5.394   3.760   3.889
 7328SOL     OW22882   4.619   6.348   6.075
 7328SOL    HW122883   4.674   6.415   6.125
 7328SOL    HW222884   4.667   6.321   5.992
 7329SOL     OW22885   1.053   2.652   6.897
 7329SOL    HW122886   1.080   2.559   6.921
 7329SOL    HW222887   1.062   2.711   6.978
 7330SOL     OW22888   2.973   2.822   1.336
 7330SOL    HW122889   2.924   2.773   1.409
 7330SOL    HW222890   3.039   2.761   1.294
 7331SOL     OW22891   4.840   6.431   1.936
 7331SOL    HW122892   4.749   6.466   1.957
 7331SOL    HW222893   4.846   6.409   1.838
 7332SOL     OW22894   4.019   4.076   6.909
 7332SOL    HW122895   3.937   4.095   6.963
 7332SOL    HW222896   4.011   3.987   6.865
 7333SOL     OW22897   6.043   3.185   3.131
 7333SOL    HW122898   6.012   3.226   3.045
 7333SOL    HW222899   6.010   3.091   3.137
 7334SOL     OW22900   3.014   5.395   5.912
 7334SOL    HW122901   2.962   5.311   5.898
 7334SOL    HW222902   3.104   5.385   5.869
 7335SOL     OW22903   0.202   2.980   3.132
 7335SOL    HW122904   0.150   3.031   3.063
 7335SOL    HW222905   0.265   2.917   3.086
 7336SOL     OW22906   2.408   6.265   1.256
 7336SOL    HW122907   2.431   6.168   1.250
 7336SOL    HW222908   2.487   6.320   1.227
 7337SOL     OW22909   2.744   3.147   1.403
 7337SOL    HW122910   2.836   3.108   1.404
 7337SOL    HW222911   2.743   3.232   1.455
 7338SOL     OW22912   6.183   1.975   1.615
 7338SOL    HW122913   6.192   2.033   1.696
 7338SOL    HW222914   6.225   2.021   1.536
 7339SOL     OW22915   0.095   6.660   5.857
 7339SOL    HW122916   7.022   6.674   5.834
 7339SOL    HW222917   0.149   6.735   5.819
 7340SOL     OW22918   4.424   1.577   6.923
 7340SOL    HW122919   4.333   1.572   6.881
 7340SOL    HW222920   4.493   1.585   6.850
 7341SOL     OW22921   1.131   5.090   4.916
 7341SOL    HW122922   1.226   5.096   4.884
 7341SOL    HW222923   1.078   5.165   4.878
 7342SOL     OW22924   6.038   0.022   0.467
 7342SOL    HW122925   6.111   0.031   0.400
 7342SOL    HW222926   5.957   7.006   0.424
 7343SOL     OW22927   5.543   3.111   2.255
 7343SOL    HW122928   5.570   3.029   2.305
 7343SOL    HW222929   5.592   3.115   2.168
 7344SOL     OW22930   1.703   0.172   6.496
 7344SOL    HW122931   1.725   0.233   6.572
 7344SOL    HW222932   1.733   0.213   6.410
 7345SOL     OW22933   4.696   5.729   5.485
 7345SOL    HW122934   4.695   5.817   5.531
 7345SOL    HW222935   4.676   5.656   5.552
 7346SOL     OW22936   3.931   3.793   1.053
 7346SOL    HW122937   3.908   3.753   1.142
 7346SOL    HW222938   4.030   3.795   1.041
 7347SOL     OW22939   6.760   2.315   1.535
 7347SOL    HW122940   6.820   2.238   1.554
 7347SOL    HW222941   6.743   2.320   1.436
 7348SOL     OW22942   1.488   3.406   3.560
 7348SOL    HW122943   1.494   3.489   3.505
 7348SOL    HW222944   1.395   3.396   3.596
 7349SOL     OW22945   3.344   1.811   1.303
 7349SOL    HW122946   3.336   1.909   1.282
 7349SOL    HW222947   3.253   1.772   1.316
 7350SOL     OW22948   1.023   2.949   3.912
 7350SOL    HW122949   0.996   2.911   4.001
 7350SOL    HW222950   0.947   2.940   3.847
 7351SOL     OW22951   4.491   5.080   6.199
 7351SOL    HW122952   4.561   5.066   6.269
 7351SOL    HW222953   4.402   5.051   6.233
 7352SOL     OW22954   1.879   2.503   3.671
 7352SOL    HW122955   1.849   2.598   3.666
 7352SOL    HW222956   1.891   2.467   3.579
 7353SOL     OW22957   0.563   0.504   5.603
 7353SOL    HW122958   0.537   0.498   5.507
 7353SOL    HW222959   0.585   0.413   5.638
 7354SOL     OW22960   0.489   0.919   6.265
 7354SOL    HW122961   0.531   0.974   6.336
 7354SOL    HW222962   0.422   0.975   6.215
 7355SOL     OW22963   1.550   6.704   6.903
 7355SOL    HW122964   1.607   6.623   6.915
 7355SOL    HW222965   1.459   6.687   6.939
 7356SOL     OW22966   5.348   2.918   6.112
 7356SOL    HW122967   5.269   2.972   6.084
 7356SOL    HW222968   5.335   2.885   6.205
 7357SOL     OW22969   4.760   1.253   1.022
 7357SOL    HW122970   4.692   1.243   1.094
 7357SOL    HW222971   4.838   1.192   1.040
 7358SOL     OW22972   2.152   2.414   2.193
 7358SOL    HW122973   2.152   2.391   2.290
 7358SOL    HW222974   2.116   2.338   2.140
 7359SOL     OW22975   3.376   2.166   1.030
 7359SOL    HW122976   3.369   2.264   1.011
 7359SOL    HW222977   3.381   2.151   1.128
 7360SOL     OW22978   3.189   2.224   6.270
 7360SOL    HW122979   3.194   2.189   6.176
 7360SOL    HW222980   3.147   2.315   6.270
 7361SOL     OW22981   4.403   6.452   1.822
 7361SOL    HW122982   4.424   6.361   1.856
 7361SOL    HW222983   4.326   6.490   1.873
 7362SOL     OW22984   0.551   6.844   4.943
 7362SOL    HW122985   0.517   6.882   5.029
 7362SOL    HW222986   0.606   6.912   4.895
 7363SOL     OW22987   3.769   1.605   1.346
 7363SOL    HW122988   3.866   1.592   1.329
 7363SOL    HW222989   3.716   1.548   1.283
 7364SOL     OW22990   4.196   6.998   1.274
 7364SOL    HW122991   4.274   0.025   1.310
 7364SOL    HW222992   4.225   6.906   1.249
 7365SOL     OW22993   1.524   5.872   2.129
 7365SOL    HW122994   1.438   5.901   2.088
 7365SOL    HW222995   1.546   5.933   2.205
 7366SOL     OW22996   1.625   5.723   0.438
 7366SOL    HW122997   1.657   5.693   0.527
 7366SOL    HW222998   1.624   5.822   0.434
 7367SOL     OW22999   4.080   3.859   1.440
 7367SOL    HW123000   4.071   3.959   1.433
 7367SOL    HW223001   4.159   3.829   1.386
 7368SOL     OW23002   3.613   2.920   4.218
 7368SOL    HW123003   3.574   2.877   4.137
 7368SOL    HW223004   3.572   3.010   4.231
 7369SOL     OW23005   5.234   3.316   0.866
 7369SOL    HW123006   5.179   3.400   0.869
 7369SOL    HW223007   5.327   3.339   0.836
 7370SOL     OW23008   2.258   0.643   5.526
 7370SOL    HW123009   2.242   0.549   5.496
 7370SOL    HW223010   2.202   0.662   5.606
 7371SOL     OW23011   2.448   5.459   3.641
 7371SOL    HW123012   2.352   5.486   3.628
 7371SOL    HW223013   2.476   5.398   3.567
 7372SOL     OW23014   2.917   0.450   5.389
 7372SOL    HW123015   2.874   0.532   5.351
 7372SOL    HW223016   3.016   0.454   5.374
 7373SOL     OW23017   5.128   1.202   3.459
 7373SOL    HW123018   5.032   1.218   3.436
 7373SOL    HW223019   5.136   1.176   3.555
 7374SOL     OW23020   2.813   2.466   5.543
 7374SOL    HW123021   2.846   2.552   5.580
 7374SOL    HW223022   2.887   2.421   5.492
 7375SOL     OW23023   1.792   2.206   3.615
 7375SOL    HW123024   1.693   2.205   3.623
 7375SOL    HW223025   1.829   2.282   3.668
 7376SOL     OW23026   3.972   1.477   0.364
 7376SOL    HW123027   3.932   1.568   0.381
 7376SOL    HW223028   4.062   1.472   0.408
 7377SOL     OW23029   4.952   6.179   1.712
 7377SOL    HW123030   5.011   6.144   1.640
 7377SOL    HW223031   4.962   6.123   1.794
 7378SOL     OW23032   0.307   2.268   4.890
 7378SOL    HW123033   0.217   2.309   4.873
 7378SOL    HW223034   0.332   2.209   4.814
 7379SOL     OW23035   4.000   2.248   3.300
 7379SOL    HW123036   3.981   2.201   3.214
 7379SOL    HW223037   4.093   2.284   3.298
 7380SOL     OW23038   6.771   3.405   5.172
 7380SOL    HW123039   6.843   3.475   5.176
 7380SOL    HW223040   6.798   3.333   5.109
 7381SOL     OW23041   4.921   3.831   2.288
 7381SOL    HW123042   4.912   3.735   2.262
 7381SOL    HW223043   4.882   3.889   2.216
 7382SOL     OW23044   0.219   5.722   6.064
 7382SOL    HW123045   0.312   5.752   6.087
 7382SOL    HW223046   0.221   5.627   6.033
 7383SOL     OW23047   0.347   6.993   2.218
 7383SOL    HW123048   0.416   6.926   2.190
 7383SOL    HW223049   0.259   6.967   2.178
 7384SOL     OW23050   4.936   0.691   2.186
 7384SOL    HW123051   4.889   0.700   2.274
 7384SOL    HW223052   4.870   0.665   2.115
 7385SOL     OW23053   4.131   6.361   1.995
 7385SOL    HW123054   4.127   6.318   1.905
 7385SOL    HW223055   4.100   6.296   2.064
 7386SOL     OW23056   0.470   2.652   5.407
 7386SOL    HW123057   0.497   2.745   5.383
 7386SOL    HW223058   0.413   2.614   5.335
 7387SOL     OW23059   4.195   0.298   4.765
 7387SOL    HW123060   4.097   0.293   4.747
 7387SOL    HW223061   4.235   0.207   4.756
 7388SOL     OW23062   6.503   5.705   3.758
 7388SOL    HW123063   6.503   5.650   3.675
 7388SOL    HW223064   6.434   5.670   3.821
 7389SOL     OW23065   1.042   5.174   6.916
 7389SOL    HW123066   1.021   5.269   6.937
 7389SOL    HW223067   1.130   5.169   6.869
 7390SOL     OW23068   1.586   1.410   6.883
 7390SOL    HW123069   1.489   1.427   6.902
 7390SOL    HW223070   1.606   1.435   6.789
 7391SOL     OW23071   4.545   4.462   4.790
 7391SOL    HW123072   4.516   4.385   4.847
 7391SOL    HW223073   4.561   4.541   4.848
 7392SOL     OW23074   3.259   5.656   6.371
 7392SOL    HW123075   3.313   5.612   6.442
 7392SOL    HW223076   3.246   5.753   6.393
 7393SOL     OW23077   6.157   5.779   1.628
 7393SOL    HW123078   6.217   5.781   1.708
 7393SOL    HW223079   6.120   5.870   1.613
 7394SOL     OW23080   3.079   3.041   6.631
 7394SOL    HW123081   3.153   3.106   6.647
 7394SOL    HW223082   3.032   3.064   6.546
 7395SOL     OW23083   1.718   0.839   0.135
 7395SOL    HW123084   1.691   0.769   0.069
 7395SOL    HW223085   1.721   0.799   0.226
 7396SOL     OW23086   0.898   0.404   0.396
 7396SOL    HW123087   0.805   0.440   0.404
 7396SOL    HW223088   0.943   0.443   0.316
 7397SOL     OW23089   5.020   5.275   4.520
 7397SOL    HW123090   4.934   5.327   4.520
 7397SOL    HW223091   5.053   5.267   4.614
 7398SOL     OW23092   3.187   5.007   3.872
 7398SOL    HW123093   3.209   5.105   3.871
 7398SOL    HW223094   3.103   4.992   3.923
 7399SOL     OW23095   0.201   3.349   5.574
 7399SOL    HW123096   0.215   3.440   5.614
 7399SOL    HW223097   0.204   3.356   5.474
 7400SOL     OW23098   2.865   3.686   6.813
 7400SOL    HW123099   2.904   3.607   6.765
 7400SOL    HW223100   2.765   3.678   6.815
 7401SOL     OW23101   0.784   0.949   4.022
 7401SOL    HW123102   0.762   0.898   3.939
 7401SOL    HW223103   0.741   0.905   4.101
 7402SOL     OW23104   1.870   5.543   4.905
 7402SOL    HW123105   1.953   5.568   4.955
 7402SOL    HW223106   1.893   5.531   4.808
 7403SOL     OW23107   1.789   3.271   3.184
 7403SOL    HW123108   1.823   3.177   3.182
 7403SOL    HW223109   1.846   3.325   3.246
 7404SOL     OW23110   2.499   6.189   1.711
 7404SOL    HW123111   2.592   6.170   1.679
 7404SOL    HW223112   2.447   6.232   1.637
 7405SOL     OW23113   1.985   4.919   4.463
 7405SOL    HW123114   1.944   4.845   4.410
 7405SOL    HW223115   1.936   4.928   4.550
 7406SOL     OW23116   1.475   3.656   3.178
 7406SOL    HW123117   1.416   3.691   3.104
 7406SOL    HW223118   1.490   3.558   3.165
 7407SOL     OW23119   6.723   6.068   4.920
 7407SOL    HW123120   6.796   6.014   4.880
 7407SOL    HW223121   6.636   6.021   4.908
 7408SOL     OW23122   0.894   3.705   5.487
 7408SOL    HW123123   0.932   3.787   5.444
 7408SOL    HW223124   0.900   3.628   5.423
 7409SOL     OW23125   0.211   1.041   5.012
 7409SOL    HW123126   0.123   0.995   5.000
 7409SOL    HW223127   0.227   1.102   4.934
 7410SOL     OW23128   6.938   4.383   0.933
 7410SOL    HW123129   6.880   4.454   0.893
 7410SOL    HW223130   7.015   4.426   0.980
 7411SOL     OW23131   3.134   6.349   4.263
 7411SOL    HW123132   3.232   6.361   4.277
 7411SOL    HW223133   3.091   6.438   4.248
 7412SOL     OW23134   4.309   0.750   2.185
 7412SOL    HW123135   4.382   0.784   2.245
 7412SOL    HW223136   4.333   0.657   2.154
 7413SOL     OW23137   6.081   5.487   4.501
 7413SOL    HW123138   6.004   5.532   4.547
 7413SOL    HW223139   6.051   5.401   4.461
 7414SOL     OW23140   0.262   0.062   3.527
 7414SOL    HW123141   0.239   0.049   3.431
 7414SOL    HW223142   0.264   0.160   3.548
 7415SOL     OW23143   0.922   4.031   2.990
 7415SOL    HW123144   0.901   4.128   3.008
 7415SOL    HW223145   0.839   3.984   2.961
 7416SOL     OW23146   3.212   0.224   4.057
 7416SOL    HW123147   3.159   0.201   4.139
 7416SOL    HW223148   3.308   0.237   4.082
 7417SOL     OW23149   2.197   0.277   6.147
 7417SOL    HW123150   2.287   0.260   6.187
 7417SOL    HW223151   2.126   0.257   6.215
 7418SOL     OW23152   3.795   5.239   1.151
 7418SOL    HW123153   3.832   5.197   1.234
 7418SOL    HW223154   3.868   5.246   1.083
 7419SOL     OW23155   6.457   2.453   4.357
 7419SOL    HW123156   6.535   2.514   4.344
 7419SOL    HW223157   6.440   2.442   4.455
 7420SOL     OW23158   6.574   6.244   2.273
 7420SOL    HW123159   6.667   6.278   2.290
 7420SOL    HW223160   6.575   6.144   2.273
 7421SOL     OW23161   3.106   3.662   1.803
 7421SOL    HW123162   3.153   3.712   1.731
 7421SOL    HW223163   3.148   3.682   1.891
 7422SOL     OW23164   0.292   3.967   2.133
 7422SOL    HW123165   0.220   3.918   2.084
 7422SOL    HW223166   0.261   3.988   2.226
 7423SOL     OW23167   6.776   4.040   6.154
 7423SOL    HW123168   6.699   4.044   6.218
 7423SOL    HW223169   6.802   4.133   6.128
 7424SOL     OW23170   6.353   0.743   4.411
 7424SOL    HW123171   6.425   0.678   4.387
 7424SOL    HW223172   6.270   0.693   4.436
 7425SOL     OW23173   4.091   5.928   6.528
 7425SOL    HW123174   4.145   5.945   6.610
 7425SOL    HW223175   4.054   6.014   6.494
 7426SOL     OW23176   0.961   2.063   6.289
 7426SOL    HW123177   1.027   2.133   6.263
 7426SOL    HW223178   0.887   2.104   6.342
 7427SOL     OW23179   3.687   6.003   4.673
 7427SOL    HW123180   3.672   5.904   4.673
 7427SOL    HW223181   3.783   6.022   4.652
 7428SOL     OW23182   3.747   1.579   5.195
 7428SOL    HW123183   3.763   1.671   5.231
 7428SOL    HW223184   3.773   1.576   5.098
 7429SOL     OW23185   5.238   0.607   3.364
 7429SOL    HW123186   5.246   0.570   3.457
 7429SOL    HW223187   5.321   0.659   3.342
 7430SOL     OW23188   0.388   4.084   6.635
 7430SOL    HW123189   0.397   4.151   6.709
 7430SOL    HW223190   0.391   4.131   6.547
 7431SOL     OW23191   0.585   3.832   2.051
 7431SOL    HW123192   0.550   3.808   2.142
 7431SOL    HW223193   0.528   3.790   1.981
 7432SOL     OW23194   0.422   6.853   3.300
 7432SOL    HW123195   0.500   6.841   3.238
 7432SOL    HW223196   0.454   6.883   3.389
 7433SOL     OW23197   6.396   5.283   0.899
 7433SOL    HW123198   6.488   5.308   0.928
 7433SOL    HW223199   6.338   5.271   0.980
 7434SOL     OW23200   4.474   0.905   6.594
 7434SOL    HW123201   4.453   0.948   6.506
 7434SOL    HW223202   4.556   0.849   6.586
 7435SOL     OW23203   3.489   5.791   6.731
 7435SOL    HW123204   3.579   5.786   6.686
 7435SOL    HW223205   3.501   5.801   6.829
 7436SOL     OW23206   5.912   3.409   6.087
 7436SOL    HW123207   5.922   3.378   5.993
 7436SOL    HW223208   5.875   3.334   6.142
 7437SOL     OW23209   0.128   5.691   6.924
 7437SOL    HW123210   0.116   5.753   7.001
 7437SOL    HW223211   0.086   5.602   6.946
 7438SOL     OW23212   0.886   5.287   0.725
 7438SOL    HW123213   0.828   5.344   0.667
 7438SOL    HW223214   0.974   5.272   0.679
 7439SOL     OW23215   1.651   6.471   4.606
 7439SOL    HW123216   1.718   6.431   4.668
 7439SOL    HW223217   1.584   6.402   4.580
 7440SOL     OW23218   0.886   3.252   4.206
 7440SOL    HW123219   0.973   3.288   4.240
 7440SOL    HW223220   0.852   3.182   4.268
 7441SOL     OW23221   5.256   6.142   4.642
 7441SOL    HW123222   5.218   6.234   4.655
 7441SOL    HW223223   5.302   6.112   4.726
 7442SOL     OW23224   1.364   1.272   6.512
 7442SOL    HW123225   1.452   1.290   6.469
 7442SOL    HW223226   1.307   1.218   6.449
 7443SOL     OW23227   0.190   1.095   1.295
 7443SOL    HW123228   0.280   1.113   1.256
 7443SOL    HW223229   0.160   1.177   1.345
 7444SOL     OW23230   6.812   3.923   5.058
 7444SOL    HW123231   6.838   3.942   4.963
 7444SOL    HW223232   6.851   3.993   5.117
 7445SOL     OW23233   3.589   0.501   1.388
 7445SOL    HW123234   3.682   0.522   1.358
 7445SOL    HW223235   3.529   0.495   1.308
 7446SOL     OW23236   5.643   4.542   0.595
 7446SOL    HW123237   5.686   4.500   0.675
 7446SOL    HW223238   5.603   4.630   0.620
 7447SOL     OW23239   1.514   3.161   5.301
 7447SOL    HW123240   1.465   3.200   5.223
 7447SOL    HW223241   1.569   3.232   5.344
 7448SOL     OW23242   5.702   6.810   5.263
 7448SOL    HW123243   5.683   6.864   5.181
 7448SOL    HW223244   5.753   6.728   5.238
 7449SOL     OW23245   6.111   2.321   2.000
 7449SOL    HW123246   6.132   2.293   2.094
 7449SOL    HW223247   6.012   2.335   1.990
 7450SOL     OW23248   5.216   2.115   4.218
 7450SOL    HW123249   5.222   2.120   4.118
 7450SOL    HW223250   5.282   2.178   4.259
 7451SOL     OW23251   1.826   0.457   2.847
 7451SOL    HW123252   1.908   0.491   2.801
 7451SOL    HW223253   1.833   0.357   2.858
 7452SOL     OW23254   0.486   6.412   4.796
 7452SOL    HW123255   0.394   6.402   4.835
 7452SOL    HW223256   0.523   6.321   4.777
 7453SOL     OW23257   4.763   5.813   6.136
 7453SOL    HW123258   4.829   5.799   6.062
 7453SOL    HW223259   4.771   5.739   6.202
 7454SOL     OW23260   0.963   2.786   1.778
 7454SOL    HW123261   0.869   2.782   1.812
 7454SOL    HW223262   0.977   2.873   1.730
 7455SOL     OW23263   0.233   1.449   1.932
 7455SOL    HW123264   0.216   1.417   1.839
 7455SOL    HW223265   0.164   1.516   1.958
 7456SOL     OW23266   0.472   2.353   4.329
 7456SOL    HW123267   0.459   2.393   4.238
 7456SOL    HW223268   0.570   2.348   4.350
 7457SOL     OW23269   3.670   0.564   5.670
 7457SOL    HW123270   3.722   0.485   5.636
 7457SOL    HW223271   3.585   0.533   5.711
 7458SOL     OW23272   2.039   0.268   5.933
 7458SOL    HW123273   2.065   0.345   5.875
 7458SOL    HW223274   2.078   0.281   6.025
 7459SOL     OW23275   5.093   0.474   0.573
 7459SOL    HW123276   5.134   0.385   0.555
 7459SOL    HW223277   5.152   0.546   0.538
 7460SOL     OW23278   1.556   4.605   1.278
 7460SOL    HW123279   1.591   4.642   1.192
 7460SOL    HW223280   1.517   4.514   1.261
 7461SOL     OW23281   6.181   1.215   6.470
 7461SOL    HW123282   6.185   1.297   6.527
 7461SOL    HW223283   6.114   1.150   6.508
 7462SOL     OW23284   1.720   3.057   2.547
 7462SOL    HW123285   1.665   3.049   2.630
 7462SOL    HW223286   1.763   3.147   2.543
 7463SOL     OW23287   3.219   4.655   1.431
 7463SOL    HW123288   3.144   4.596   1.400
 7463SOL    HW223289   3.244   4.630   1.524
 7464SOL     OW23290   3.270   6.774   6.507
 7464SOL    HW123291   3.189   6.719   6.487
 7464SOL    HW223292   3.261   6.863   6.462
 7465SOL     OW23293   1.337   6.758   0.323
 7465SOL    HW123294   1.365   6.851   0.298
 7465SOL    HW223295   1.242   6.743   0.296
 7466SOL     OW23296   0.387   0.273   6.514
 7466SOL    HW123297   0.479   0.287   6.551
 7466SOL    HW223298   0.355   0.181   6.539
 7467SOL     OW23299   6.759   1.283   0.939
 7467SOL    HW123300   6.739   1.288   0.841
 7467SOL    HW223301   6.858   1.290   0.954
 7468SOL     OW23302   6.006   2.878   2.584
 7468SOL    HW123303   5.974   2.945   2.652
 7468SOL    HW223304   6.061   2.925   2.515
 7469SOL     OW23305   6.791   6.961   0.287
 7469SOL    HW123306   6.868   6.919   0.334
 7469SOL    HW223307   6.723   6.992   0.354
 7470SOL     OW23308   0.721   3.065   4.320
 7470SOL    HW123309   0.742   3.049   4.416
 7470SOL    HW223310   0.680   3.155   4.309
 7471SOL     OW23311   5.803   6.125   5.745
 7471SOL    HW123312   5.721   6.176   5.718
 7471SOL    HW223313   5.775   6.041   5.792
 7472SOL     OW23314   5.810   6.506   4.300
 7472SOL    HW123315   5.716   6.474   4.317
 7472SOL    HW223316   5.821   6.598   4.338
 7473SOL     OW23317   0.477   4.467   2.630
 7473SOL    HW123318   0.482   4.406   2.709
 7473SOL    HW223319   0.416   4.428   2.561
 7474SOL     OW23320   2.382   1.471   5.382
 7474SOL    HW123321   2.467   1.497   5.336
 7474SOL    HW223322   2.361   1.375   5.361
 7475SOL     OW23323   3.619   1.489   2.294
 7475SOL    HW123324   3.552   1.529   2.357
 7475SOL    HW223325   3.663   1.562   2.242
 7476SOL     OW23326   3.540   5.622   4.341
 7476SOL    HW123327   3.593   5.539   4.359
 7476SOL    HW223328   3.601   5.692   4.303
 7477SOL     OW23329   6.237   1.233   4.455
 7477SOL    HW123330   6.192   1.321   4.472
 7477SOL    HW223331   6.239   1.215   4.357
 7478SOL     OW23332   4.366   4.781   6.877
 7478SOL    HW123333   4.397   4.874   6.855
 7478SOL    HW223334   4.320   4.742   6.797
 7479SOL     OW23335   4.134   2.558   1.095
 7479SOL    HW123336   4.039   2.532   1.080
 7479SOL    HW223337   4.138   2.651   1.134
 7480SOL     OW23338   6.571   4.343   1.601
 7480SOL    HW123339   6.604   4.262   1.553
 7480SOL    HW223340   6.632   4.365   1.676
 7481SOL     OW23341   5.901   5.071   2.335
 7481SOL    HW123342   5.899   5.012   2.416
 7481SOL    HW223343   5.987   5.058   2.286
 7482SOL     OW23344   5.351   1.849   3.159
 7482SOL    HW123345   5.261   1.810   3.142
 7482SOL    HW223346   5.418   1.804   3.100
 7483SOL     OW23347   4.529   2.398   5.157
 7483SOL    HW123348   4.603   2.384   5.222
 7483SOL    HW223349   4.551   2.353   5.070
 7484SOL     OW23350   0.641   6.949   3.128
 7484SOL    HW123351   0.670   7.003   3.049
 7484SOL    HW223352   0.708   6.959   3.202
 7485SOL     OW23353   2.945   6.723   4.807
 7485SOL    HW123354   2.907   6.657   4.872
 7485SOL    HW223355   2.870   6.774   4.765
 7486SOL     OW23356   2.829   0.409   6.221
 7486SOL    HW123357   2.846   0.461   6.305
 7486SOL    HW223358   2.770   0.331   6.242
 7487SOL     OW23359   2.611   6.566   2.506
 7487SOL    HW123360   2.688   6.553   2.569
 7487SOL    HW223361   2.597   6.664   2.492
 7488SOL     OW23362   1.853   6.982   4.680
 7488SOL    HW123363   1.816   0.045   4.716
 7488SOL    HW223364   1.885   6.996   4.586
 7489SOL     OW23365   5.266   2.488   4.576
 7489SOL    HW123366   5.322   2.412   4.610
 7489SOL    HW223367   5.319   2.573   4.579
 7490SOL     OW23368   0.802   2.019   0.958
 7490SOL    HW123369   0.852   2.048   0.877
 7490SOL    HW223370   0.758   2.098   1.001
 7491SOL     OW23371   6.732   3.576   6.835
 7491SOL    HW123372   6.657   3.551   6.773
 7491SOL    HW223373   6.818   3.577   6.785
 7492SOL     OW23374   2.867   1.340   4.456
 7492SOL    HW123375   2.862   1.356   4.555
 7492SOL    HW223376   2.959   1.311   4.432
 7493SOL     OW23377   6.906   4.165   6.861
 7493SOL    HW123378   6.858   4.248   6.891
 7493SOL    HW223379   6.965   4.187   6.783
 7494SOL     OW23380   5.851   0.716   2.365
 7494SOL    HW123381   5.865   0.747   2.459
 7494SOL    HW223382   5.756   0.687   2.353
 7495SOL     OW23383   2.461   0.946   0.747
 7495SOL    HW123384   2.511   0.976   0.828
 7495SOL    HW223385   2.525   0.936   0.670
 7496SOL     OW23386   0.318   3.698   6.754
 7496SOL    HW123387   0.341   3.744   6.669
 7496SOL    HW223388   0.246   3.750   6.801
 7497SOL     OW23389   2.830   4.130   0.365
 7497SOL    HW123390   2.765   4.096   0.297
 7497SOL    HW223391   2.903   4.181   0.320
 7498SOL     OW23392   2.201   1.280   5.300
 7498SOL    HW123393   2.136   1.355   5.288
 7498SOL    HW223394   2.232   1.248   5.210
 7499SOL     OW23395   4.881   0.639   3.665
 7499SOL    HW123396   4.787   0.672   3.677
 7499SOL    HW223397   4.909   0.650   3.570
 7500SOL     OW23398   3.959   5.742   4.181
 7500SOL    HW123399   4.030   5.808   4.158
 7500SOL    HW223400   3.869   5.787   4.179
 7501SOL     OW23401   6.750   4.483   4.207
 7501SOL    HW123402   6.663   4.478   4.159
 7501SOL    HW223403   6.799   4.565   4.178
 7502SOL     OW23404   1.220   0.350   4.887
 7502SOL    HW123405   1.176   0.421   4.942
 7502SOL    HW223406   1.155   0.275   4.872
 7503SOL     OW23407   2.021   1.199   0.591
 7503SOL    HW123408   2.111   1.168   0.621
 7503SOL    HW223409   1.980   1.257   0.662
 7504SOL     OW23410   2.353   0.141   3.507
 7504SOL    HW123411   2.435   0.197   3.509
 7504SOL    HW223412   2.366   0.060   3.564
 7505SOL     OW23413   2.552   1.785   5.674
 7505SOL    HW123414   2.503   1.833   5.601
 7505SOL    HW223415   2.632   1.739   5.635
 7506SOL     OW23416   4.624   6.454   2.964
 7506SOL    HW123417   4.710   6.404   2.972
 7506SOL    HW223418   4.640   6.551   2.985
 7507SOL     OW23419   0.732   0.577   1.521
 7507SOL    HW123420   0.790   0.544   1.446
 7507SOL    HW223421   0.710   0.502   1.582
 7508SOL     OW23422   0.030   6.482   2.195
 7508SOL    HW123423   0.064   6.496   2.288
 7508SOL    HW223424   0.000   6.569   2.157
 7509SOL     OW23425   5.784   4.386   1.396
 7509SOL    HW123426   5.706   4.377   1.457
 7509SOL    HW223427   5.758   4.442   1.317
 7510SOL     OW23428   2.739   4.824   5.218
 7510SOL    HW123429   2.797   4.767   5.161
 7510SOL    HW223430   2.646   4.824   5.182
 7511SOL     OW23431   2.161   6.675   3.447
 7511SOL    HW123432   2.104   6.678   3.365
 7511SOL    HW223433   2.123   6.738   3.516
 7512SOL     OW23434   3.480   4.605   6.758
 7512SOL    HW123435   3.384   4.595   6.730
 7512SOL    HW223436   3.530   4.657   6.689
 7513SOL     OW23437   1.987   2.168   1.642
 7513SOL    HW123438   1.988   2.095   1.710
 7513SOL    HW223439   2.078   2.179   1.603
 7514SOL     OW23440   2.179   5.107   1.921
 7514SOL    HW123441   2.215   5.190   1.879
 7514SOL    HW223442   2.091   5.126   1.964
 7515SOL     OW23443   0.541   5.782   2.105
 7515SOL    HW123444   0.465   5.815   2.048
 7515SOL    HW223445   0.610   5.853   2.113
 7516SOL     OW23446   6.486   6.215   4.339
 7516SOL    HW123447   6.505   6.312   4.323
 7516SOL    HW223448   6.483   6.198   4.438
 7517SOL     OW23449   0.080   3.323   1.403
 7517SOL    HW123450   0.177   3.303   1.391
 7517SOL    HW223451   0.044   3.270   1.479
 7518SOL     OW23452   3.934   5.513   3.192
 7518SOL    HW123453   3.994   5.593   3.187
 7518SOL    HW223454   3.943   5.471   3.282
 7519SOL     OW23455   0.446   6.693   3.871
 7519SOL    HW123456   0.438   6.603   3.829
 7519SOL    HW223457   0.510   6.749   3.817
 7520SOL     OW23458   3.119   6.796   2.031
 7520SOL    HW123459   3.188   6.792   2.104
 7520SOL    HW223460   3.043   6.855   2.061
 7521SOL     OW23461   4.605   4.576   6.326
 7521SOL    HW123462   4.599   4.505   6.256
 7521SOL    HW223463   4.698   4.579   6.364
 7522SOL     OW23464   2.529   6.593   6.361
 7522SOL    HW123465   2.510   6.683   6.399
 7522SOL    HW223466   2.462   6.527   6.396
 7523SOL     OW23467   5.620   0.419   6.292
 7523SOL    HW123468   5.648   0.327   6.264
 7523SOL    HW223469   5.566   0.413   6.376
 7524SOL     OW23470   1.851   2.334   6.725
 7524SOL    HW123471   1.917   2.309   6.796
 7524SOL    HW223472   1.892   2.403   6.665
 7525SOL     OW23473   2.620   0.126   6.710
 7525SOL    HW123474   2.530   0.163   6.685
 7525SOL    HW223475   2.678   0.199   6.745
 7526SOL     OW23476   3.250   3.214   2.349
 7526SOL    HW123477   3.181   3.176   2.411
 7526SOL    HW223478   3.210   3.291   2.299
 7527SOL     OW23479   4.048   5.826   2.920
 7527SOL    HW123480   3.949   5.836   2.909
 7527SOL    HW223481   4.071   5.839   3.017
 7528SOL     OW23482   4.348   1.594   6.540
 7528SOL    HW123483   4.360   1.689   6.509
 7528SOL    HW223484   4.426   1.568   6.597
 7529SOL     OW23485   5.836   0.775   4.754
 7529SOL    HW123486   5.895   0.789   4.833
 7529SOL    HW223487   5.814   0.678   4.743
 7530SOL     OW23488   7.010   4.173   2.207
 7530SOL    HW123489   6.953   4.155   2.127
 7530SOL    HW223490   6.981   4.115   2.283
 7531SOL     OW23491   4.951   2.138   3.996
 7531SOL    HW123492   4.949   2.071   4.070
 7531SOL    HW223493   5.046   2.161   3.974
 7532SOL     OW23494   5.579   5.270   1.254
 7532SOL    HW123495   5.567   5.308   1.346
 7532SOL    HW223496   5.668   5.223   1.249
 7533SOL     OW23497   2.683   1.616   2.693
 7533SOL    HW123498   2.773   1.580   2.665
 7533SOL    HW223499   2.612   1.552   2.663
 7534SOL     OW23500   4.203   6.644   6.111
 7534SOL    HW123501   4.267   6.630   6.188
 7534SOL    HW223502   4.237   6.719   6.054
 7535SOL     OW23503   3.046   0.749   5.775
 7535SOL    HW123504   3.015   0.720   5.866
 7535SOL    HW223505   3.134   0.796   5.783
 7536SOL     OW23506   5.275   5.384   5.132
 7536SOL    HW123507   5.280   5.285   5.119
 7536SOL    HW223508   5.364   5.425   5.110
 7537SOL     OW23509   2.609   5.513   3.421
 7537SOL    HW123510   2.706   5.504   3.396
 7537SOL    HW223511   2.601   5.563   3.507
 7538SOL     OW23512   3.462   3.456   2.110
 7538SOL    HW123513   3.434   3.364   2.137
 7538SOL    HW223514   3.491   3.507   2.191
 7539SOL     OW23515   2.501   2.648   3.958
 7539SOL    HW123516   2.579   2.589   3.978
 7539SOL    HW223517   2.440   2.649   4.037
 7540SOL     OW23518   3.038   6.834   5.926
 7540SOL    HW123519   2.945   6.871   5.923
 7540SOL    HW223520   3.041   6.747   5.877
 7541SOL     OW23521   0.285   4.049   4.433
 7541SOL    HW123522   0.357   4.000   4.483
 7541SOL    HW223523   0.196   4.027   4.472
 7542SOL     OW23524   0.762   5.360   6.744
 7542SOL    HW123525   0.772   5.436   6.808
 7542SOL    HW223526   0.676   5.370   6.693
 7543SOL     OW23527   4.179   1.939   1.162
 7543SOL    HW123528   4.179   1.874   1.238
 7543SOL    HW223529   4.272   1.948   1.126
 7544SOL     OW23530   0.286   2.889   3.367
 7544SOL    HW123531   0.337   2.811   3.330
 7544SOL    HW223532   0.242   2.939   3.293
 7545SOL     OW23533   6.065   6.329   2.384
 7545SOL    HW123534   6.108   6.379   2.459
 7545SOL    HW223535   6.119   6.342   2.301
 7546SOL     OW23536   3.373   0.550   2.012
 7546SOL    HW123537   3.301   0.608   1.975
 7546SOL    HW223538   3.333   0.469   2.053
 7547SOL     OW23539   4.577   0.024   0.476
 7547SOL    HW123540   4.499   0.067   0.432
 7547SOL    HW223541   4.617   6.978   0.415
 7548SOL     OW23542   3.793   2.070   0.266
 7548SOL    HW123543   3.804   2.169   0.265
 7548SOL    HW223544   3.824   2.032   0.179
 7549SOL     OW23545   5.554   1.750   0.657
 7549SOL    HW123546   5.460   1.776   0.676
 7549SOL    HW223547   5.569   1.748   0.558
 7550SOL     OW23548   2.439   4.420   1.979
 7550SOL    HW123549   2.489   4.450   2.060
 7550SOL    HW223550   2.341   4.433   1.994
 7551SOL     OW23551   5.119   3.603   6.483
 7551SOL    HW123552   5.030   3.627   6.521
 7551SOL    HW223553   5.118   3.507   6.454
 7552SOL     OW23554   1.744   5.892   3.110
 7552SOL    HW123555   1.646   5.912   3.102
 7552SOL    HW223556   1.796   5.966   3.067
 7553SOL     OW23557   4.578   5.390   5.417
 7553SOL    HW123558   4.618   5.307   5.378
 7553SOL    HW223559   4.563   5.457   5.344
 7554SOL     OW23560   4.837   0.698   1.546
 7554SOL    HW123561   4.905   0.650   1.492
 7554SOL    HW223562   4.812   0.783   1.500
 7555SOL     OW23563   1.749   4.926   5.002
 7555SOL    HW123564   1.697   5.012   5.006
 7555SOL    HW223565   1.696   4.853   5.045
 7556SOL     OW23566   0.829   2.951   5.582
 7556SOL    HW123567   0.784   3.010   5.514
 7556SOL    HW223568   0.760   2.908   5.639
 7557SOL     OW23569   4.992   2.657   5.907
 7557SOL    HW123570   5.067   2.714   5.874
 7557SOL    HW223571   5.007   2.633   6.002
 7558SOL     OW23572   2.293   2.779   3.784
 7558SOL    HW123573   2.285   2.809   3.879
 7558SOL    HW223574   2.376   2.726   3.772
 7559SOL     OW23575   6.254   4.994   7.022
 7559SOL    HW123576   6.267   4.902   6.985
 7559SOL    HW223577   6.197   5.048   6.959
 7560SOL     OW23578   5.114   6.615   0.474
 7560SOL    HW123579   5.146   6.692   0.419
 7560SOL    HW223580   5.052   6.648   0.545
 7561SOL     OW23581   0.920   3.070   6.808
 7561SOL    HW123582   0.891   2.995   6.867
 7561SOL    HW223583   0.840   3.125   6.782
 7562SOL     OW23584   5.391   5.990   5.078
 7562SOL    HW123585   5.323   5.951   5.140
 7562SOL    HW223586   5.418   6.081   5.112
 7563SOL     OW23587   2.651   6.091   0.727
 7563SOL    HW123588   2.745   6.102   0.760
 7563SOL    HW223589   2.591   6.153   0.778
 7564SOL     OW23590   5.240   1.469   2.849
 7564SOL    HW123591   5.201   1.446   2.938
 7564SOL    HW223592   5.245   1.386   2.793
 7565SOL     OW23593   4.914   4.431   0.246
 7565SOL    HW123594   4.857   4.366   0.295
 7565SOL    HW223595   4.870   4.521   0.246
 7566SOL     OW23596   6.814   5.598   3.776
 7566SOL    HW123597   6.827   5.517   3.833
 7566SOL    HW223598   6.719   5.628   3.782
 7567SOL     OW23599   1.878   2.181   5.079
 7567SOL    HW123600   1.801   2.236   5.048
 7567SOL    HW223601   1.843   2.098   5.124
 7568SOL     OW23602   5.539   5.708   3.095
 7568SOL    HW123603   5.441   5.710   3.117
 7568SOL    HW223604   5.585   5.783   3.144
 7569SOL     OW23605   4.268   4.902   6.528
 7569SOL    HW123606   4.255   4.906   6.429
 7569SOL    HW223607   4.314   4.816   6.552
 7570SOL     OW23608   5.430   5.021   5.440
 7570SOL    HW123609   5.487   5.073   5.378
 7570SOL    HW223610   5.487   4.957   5.492
 7571SOL     OW23611   4.507   5.653   3.163
 7571SOL    HW123612   4.519   5.747   3.132
 7571SOL    HW223613   4.593   5.603   3.154
 7572SOL     OW23614   4.373   1.234   3.151
 7572SOL    HW123615   4.349   1.204   3.059
 7572SOL    HW223616   4.387   1.155   3.210
 7573SOL     OW23617   6.560   6.752   5.055
 7573SOL    HW123618   6.581   6.675   5.115
 7573SOL    HW223619   6.540   6.719   4.963
 7574SOL     OW23620   6.396   0.941   4.654
 7574SOL    HW123621   6.408   0.916   4.558
 7574SOL    HW223622   6.376   0.859   4.707
 7575SOL     OW23623   4.180   0.740   5.877
 7575SOL    HW123624   4.084   0.733   5.906
 7575SOL    HW223625   4.189   0.710   5.782
 7576SOL     OW23626   6.173   5.308   0.022
 7576SOL    HW123627   6.268   5.281   0.037
 7576SOL    HW223628   6.116   5.270   0.095
 7577SOL     OW23629   0.121   6.345   6.230
 7577SOL    HW123630   0.035   6.359   6.279
 7577SOL    HW223631   0.146   6.429   6.182
 7578SOL     OW23632   3.097   5.811   2.399
 7578SOL    HW123633   3.037   5.806   2.319
 7578SOL    HW223634   3.170   5.878   2.381
 7579SOL     OW23635   5.448   2.309   2.048
 7579SOL    HW123636   5.510   2.249   1.996
 7579SOL    HW223637   5.456   2.402   2.013
 7580SOL     OW23638   1.320   4.304   4.167
 7580SOL    HW123639   1.374   4.313   4.083
 7580SOL    HW223640   1.274   4.216   4.168
 7581SOL     OW23641   6.508   6.927   1.522
 7581SOL    HW123642   6.550   6.886   1.441
 7581SOL    HW223643   6.579   6.950   1.588
 7582SOL     OW23644   2.535   0.982   0.361
 7582SOL    HW123645   2.435   0.977   0.368
 7582SOL    HW223646   2.564   0.937   0.277
 7583SOL     OW23647   6.322   3.145   0.941
 7583SOL    HW123648   6.412   3.112   0.971
 7583SOL    HW223649   6.251   3.104   0.997
 7584SOL     OW23650   2.226   6.579   1.117
 7584SOL    HW123651   2.138   6.532   1.117
 7584SOL    HW223652   2.294   6.524   1.069
 7585SOL     OW23653   1.829   3.087   5.887
 7585SOL    HW123654   1.889   3.007   5.892
 7585SOL    HW223655   1.735   3.059   5.907
 7586SOL     OW23656   3.777   0.559   3.605
 7586SOL    HW123657   3.743   0.469   3.632
 7586SOL    HW223658   3.860   0.580   3.658
 7587SOL     OW23659   3.102   2.268   6.702
 7587SOL    HW123660   3.017   2.236   6.659
 7587SOL    HW223661   3.083   2.297   6.795
 7588SOL     OW23662   1.479   3.319   2.785
 7588SOL    HW123663   1.427   3.265   2.720
 7588SOL    HW223664   1.417   3.355   2.855
 7589SOL     OW23665   6.832   6.879   1.927
 7589SOL    HW123666   6.902   6.861   1.858
 7589SOL    HW223667   6.773   6.953   1.896
 7590SOL     OW23668   4.342   2.041   6.529
 7590SOL    HW123669   4.336   1.969   6.598
 7590SOL    HW223670   4.266   2.031   6.464
 7591SOL     OW23671   0.109   4.099   0.348
 7591SOL    HW123672   0.160   4.013   0.349
 7591SOL    HW223673   0.145   4.159   0.277
 7592SOL     OW23674   6.158   3.985   6.726
 7592SOL    HW123675   6.227   4.049   6.692
 7592SOL    HW223676   6.148   3.909   6.662
 7593SOL     OW23677   5.545   2.454   1.166
 7593SOL    HW123678   5.555   2.521   1.240
 7593SOL    HW223679   5.505   2.499   1.086
 7594SOL     OW23680   0.231   4.596   1.851
 7594SOL    HW123681   0.281   4.632   1.930
 7594SOL    HW223682   0.144   4.644   1.842
 7595SOL     OW23683   6.836   2.802   6.089
 7595SOL    HW123684   6.910   2.834   6.029
 7595SOL    HW223685   6.778   2.738   6.039
 7596SOL     OW23686   4.862   6.034   3.587
 7596SOL    HW123687   4.776   6.059   3.542
 7596SOL    HW223688   4.845   6.018   3.684
 7597SOL     OW23689   2.950   6.185   2.681
 7597SOL    HW123690   2.972   6.088   2.670
 7597SOL    HW223691   2.931   6.225   2.592
 7598SOL     OW23692   0.001   1.555   3.377
 7598SOL    HW123693   0.094   1.561   3.412
 7598SOL    HW223694   7.014   1.616   3.298
 7599SOL     OW23695   5.704   1.712   2.895
 7599SOL    HW123696   5.641   1.783   2.862
 7599SOL    HW223697   5.663   1.622   2.881
 7600SOL     OW23698   1.356   1.330   2.470
 7600SOL    HW123699   1.402   1.391   2.536
 7600SOL    HW223700   1.305   1.385   2.404
 7601SOL     OW23701   2.091   5.637   2.386
 7601SOL    HW123702   2.037   5.572   2.440
 7601SOL    HW223703   2.073   5.621   2.289
 7602SOL     OW23704   1.012   4.219   0.137
 7602SOL    HW123705   1.015   4.268   0.050
 7602SOL    HW223706   0.984   4.124   0.121
 7603SOL     OW23707   1.766   5.106   5.609
 7603SOL    HW123708   1.836   5.058   5.661
 7603SOL    HW223709   1.722   5.043   5.544
 7604SOL     OW23710   1.850   4.686   4.351
 7604SOL    HW123711   1.840   4.587   4.334
 7604SOL    HW223712   1.797   4.710   4.432
 7605SOL     OW23713   0.576   6.948   0.805
 7605SOL    HW123714   0.483   6.939   0.771
 7605SOL    HW223715   0.641   6.935   0.730
 7606SOL     OW23716   6.557   3.315   3.609
 7606SOL    HW123717   6.507   3.400   3.624
 7606SOL    HW223718   6.493   3.244   3.579
 7607SOL     OW23719   4.743   5.208   0.672
 7607SOL    HW123720   4.694   5.163   0.746
 7607SOL    HW223721   4.769   5.301   0.700
 7608SOL     OW23722   3.452   3.881   3.201
 7608SOL    HW123723   3.355   3.866   3.185
 7608SOL    HW223724   3.493   3.798   3.239
 7609SOL     OW23725   0.470   3.752   3.743
 7609SOL    HW123726   0.509   3.835   3.704
 7609SOL    HW223727   0.479   3.755   3.843
 7610SOL     OW23728   5.682   6.246   0.188
 7610SOL    HW123729   5.747   6.180   0.149
 7610SOL    HW223730   5.729   6.332   0.207
 7611SOL     OW23731   0.591   1.583   6.896
 7611SOL    HW123732   0.501   1.619   6.872
 7611SOL    HW223733   0.581   1.492   6.937
 7612SOL     OW23734   5.227   3.551   5.386
 7612SOL    HW123735   5.158   3.532   5.316
 7612SOL    HW223736   5.193   3.622   5.447
 7613SOL     OW23737   6.276   3.380   1.164
 7613SOL    HW123738   6.307   3.299   1.113
 7613SOL    HW223739   6.347   3.449   1.164
 7614SOL     OW23740   5.408   3.926   0.739
 7614SOL    HW123741   5.497   3.952   0.774
 7614SOL    HW223742   5.418   3.853   0.672
 7615SOL     OW23743   4.473   3.601   6.290
 7615SOL    HW123744   4.567   3.605   6.256
 7615SOL    HW223745   4.453   3.507   6.318
 7616SOL     OW23746   6.415   5.007   5.422
 7616SOL    HW123747   6.479   4.932   5.434
 7616SOL    HW223748   6.452   5.072   5.355
 7617SOL     OW23749   3.484   5.758   2.548
 7617SOL    HW123750   3.420   5.686   2.523
 7617SOL    HW223751   3.574   5.718   2.565
 7618SOL     OW23752   0.669   1.639   6.288
 7618SOL    HW123753   0.712   1.688   6.212
 7618SOL    HW223754   0.725   1.560   6.313
 7619SOL     OW23755   5.870   3.272   5.405
 7619SOL    HW123756   5.943   3.309   5.348
 7619SOL    HW223757   5.891   3.287   5.502
 7620SOL     OW23758   3.861   5.139   0.616
 7620SOL    HW123759   3.877   5.222   0.669
 7620SOL    HW223760   3.889   5.060   0.669
 7621SOL     OW23761   6.831   1.643   0.576
 7621SOL    HW123762   6.890   1.567   0.549
 7621SOL    HW223763   6.764   1.661   0.503
 7622SOL     OW23764   5.321   5.494   1.524
 7622SOL    HW123765   5.308   5.537   1.435
 7622SOL    HW223766   5.235   5.497   1.576
 7623SOL     OW23767   4.651   3.521   6.636
 7623SOL    HW123768   4.589   3.582   6.587
 7623SOL    HW223769   4.617   3.505   6.729
 7624SOL     OW23770   0.094   2.683   4.862
 7624SOL    HW123771   0.036   2.737   4.800
 7624SOL    HW223772   0.190   2.707   4.846
 7625SOL     OW23773   4.938   0.510   1.336
 7625SOL    HW123774   4.864   0.457   1.294
 7625SOL    HW223775   5.015   0.450   1.355
 7626SOL     OW23776   6.006   6.948   4.302
 7626SOL    HW123777   5.948   6.876   4.263
 7626SOL    HW223778   5.967   0.014   4.280
 7627SOL     OW23779   5.398   3.016   6.854
 7627SOL    HW123780   5.446   3.076   6.917
 7627SOL    HW223781   5.446   2.928   6.848
 7628SOL     OW23782   4.092   0.064   2.746
 7628SOL    HW123783   4.070   0.153   2.786
 7628SOL    HW223784   4.075   0.066   2.648
 7629SOL     OW23785   6.762   0.137   3.196
 7629SOL    HW123786   6.707   0.217   3.172
 7629SOL    HW223787   6.714   0.054   3.168
 7630SOL     OW23788   6.210   0.525   2.074
 7630SOL    HW123789   6.180   0.539   2.168
 7630SOL    HW223790   6.239   0.430   2.062
 7631SOL     OW23791   0.625   0.688   6.015
 7631SOL    HW123792   0.653   0.701   6.110
 7631SOL    HW223793   0.621   0.777   5.970
 7632SOL     OW23794   3.601   2.633   1.792
 7632SOL    HW123795   3.621   2.692   1.871
 7632SOL    HW223796   3.629   2.539   1.813
 7633SOL     OW23797   5.036   1.508   1.137
 7633SOL    HW123798   5.025   1.419   1.182
 7633SOL    HW223799   5.134   1.524   1.121
 7634SOL     OW23800   0.590   1.957   2.863
 7634SOL    HW123801   0.572   2.028   2.794
 7634SOL    HW223802   0.594   2.000   2.954
 7635SOL     OW23803   3.194   5.644   5.219
 7635SOL    HW123804   3.282   5.691   5.211
 7635SOL    HW223805   3.190   5.594   5.305
 7636SOL     OW23806   1.014   2.824   4.201
 7636SOL    HW123807   1.051   2.819   4.294
 7636SOL    HW223808   0.936   2.761   4.193
 7637SOL     OW23809   2.806   5.305   2.188
 7637SOL    HW123810   2.848   5.372   2.249
 7637SOL    HW223811   2.723   5.269   2.231
 7638SOL     OW23812   3.901   6.311   0.870
 7638SOL    HW123813   3.925   6.402   0.834
 7638SOL    HW223814   3.942   6.241   0.812
 7639SOL     OW23815   1.470   2.111   0.374
 7639SOL    HW123816   1.401   2.157   0.318
 7639SOL    HW223817   1.493   2.169   0.452
 7640SOL     OW23818   3.463   1.762   6.680
 7640SOL    HW123819   3.401   1.715   6.744
 7640SOL    HW223820   3.425   1.756   6.588
 7641SOL     OW23821   1.056   4.256   1.423
 7641SOL    HW123822   0.960   4.270   1.447
 7641SOL    HW223823   1.064   4.234   1.326
 7642SOL     OW23824   3.804   0.525   2.696
 7642SOL    HW123825   3.752   0.459   2.642
 7642SOL    HW223826   3.874   0.567   2.638
 7643SOL     OW23827   4.951   3.287   4.416
 7643SOL    HW123828   4.872   3.265   4.360
 7643SOL    HW223829   5.031   3.238   4.382
 7644SOL     OW23830   5.724   2.309   2.217
 7644SOL    HW123831   5.640   2.344   2.258
 7644SOL    HW223832   5.781   2.386   2.188
 7645SOL     OW23833   4.198   4.215   5.457
 7645SOL    HW123834   4.234   4.122   5.458
 7645SOL    HW223835   4.150   4.232   5.371
 7646SOL     OW23836   1.734   3.026   2.862
 7646SOL    HW123837   1.806   2.985   2.917
 7646SOL    HW223838   1.650   3.033   2.916
 7647SOL     OW23839   6.681   3.453   2.316
 7647SOL    HW123840   6.682   3.366   2.267
 7647SOL    HW223841   6.637   3.441   2.405
 7648SOL     OW23842   3.331   1.848   3.653
 7648SOL    HW123843   3.297   1.882   3.741
 7648SOL    HW223844   3.353   1.751   3.661
 7649SOL     OW23845   0.667   0.758   3.333
 7649SOL    HW123846   0.618   0.818   3.269
 7649SOL    HW223847   0.611   0.744   3.415
 7650SOL     OW23848   4.890   2.888   1.353
 7650SOL    HW123849   4.795   2.879   1.382
 7650SOL    HW223850   4.899   2.968   1.293
 7651SOL     OW23851   2.581   0.404   4.329
 7651SOL    HW123852   2.482   0.391   4.320
 7651SOL    HW223853   2.603   0.435   4.421
 7652SOL     OW23854   6.617   3.802   4.328
 7652SOL    HW123855   6.575   3.889   4.301
 7652SOL    HW223856   6.664   3.814   4.416
 7653SOL     OW23857   2.618   1.778   0.212
 7653SOL    HW123858   2.543   1.713   0.201
 7653SOL    HW223859   2.683   1.766   0.137
 7654SOL     OW23860   5.021   2.395   3.563
 7654SOL    HW123861   4.945   2.452   3.596
 7654SOL    HW223862   5.095   2.396   3.630
 7655SOL     OW23863   3.692   0.274   3.744
 7655SOL    HW123864   3.774   0.283   3.801
 7655SOL    HW223865   3.697   0.188   3.693
 7656SOL     OW23866   2.121   5.380   5.952
 7656SOL    HW123867   2.209   5.335   5.946
 7656SOL    HW223868   2.084   5.393   5.860
 7657SOL     OW23869   2.409   2.496   3.753
 7657SOL    HW123870   2.349   2.443   3.813
 7657SOL    HW223871   2.460   2.562   3.809
 7658SOL     OW23872   3.131   0.251   5.827
 7658SOL    HW123873   3.091   0.316   5.891
 7658SOL    HW223874   3.069   0.238   5.750
 7659SOL     OW23875   6.026   5.324   6.832
 7659SOL    HW123876   6.078   5.310   6.915
 7659SOL    HW223877   5.996   5.419   6.826
 7660SOL     OW23878   0.413   6.177   3.604
 7660SOL    HW123879   0.513   6.174   3.610
 7660SOL    HW223880   0.373   6.128   3.681
 7661SOL     OW23881   5.941   2.488   4.230
 7661SOL    HW123882   6.038   2.474   4.212
 7661SOL    HW223883   5.927   2.505   4.327
 7662SOL     OW23884   0.903   2.932   2.833
 7662SOL    HW123885   0.826   2.891   2.784
 7662SOL    HW223886   0.929   2.872   2.909
 7663SOL     OW23887   1.420   6.177   5.545
 7663SOL    HW123888   1.481   6.251   5.573
 7663SOL    HW223889   1.372   6.203   5.462
 7664SOL     OW23890   3.412   6.999   2.031
 7664SOL    HW123891   3.498   0.026   2.021
 7664SOL    HW223892   3.335   0.039   2.022
 7665SOL     OW23893   4.263   0.278   5.106
 7665SOL    HW123894   4.359   0.303   5.094
 7665SOL    HW223895   4.238   0.286   5.203
 7666SOL     OW23896   0.643   6.607   1.428
 7666SOL    HW123897   0.734   6.618   1.469
 7666SOL    HW223898   0.643   6.529   1.366
 7667SOL     OW23899   4.885   5.407   1.989
 7667SOL    HW123900   4.957   5.446   1.932
 7667SOL    HW223901   4.796   5.434   1.953
 7668SOL     OW23902   3.224   4.369   1.218
 7668SOL    HW123903   3.270   4.415   1.142
 7668SOL    HW223904   3.175   4.289   1.183
 7669SOL     OW23905   5.754   1.705   5.442
 7669SOL    HW123906   5.720   1.798   5.457
 7669SOL    HW223907   5.827   1.685   5.508
 7670SOL     OW23908   1.011   4.987   6.550
 7670SOL    HW123909   1.024   5.083   6.575
 7670SOL    HW223910   0.927   4.953   6.593
 7671SOL     OW23911   4.360   1.016   3.290
 7671SOL    HW123912   4.396   0.995   3.380
 7671SOL    HW223913   4.407   0.960   3.221
 7672SOL     OW23914   6.275   6.512   2.992
 7672SOL    HW123915   6.310   6.513   2.899
 7672SOL    HW223916   6.351   6.520   3.057
 7673SOL     OW23917   1.730   5.355   0.177
 7673SOL    HW123918   1.664   5.416   0.132
 7673SOL    HW223919   1.801   5.410   0.221
 7674SOL     OW23920   5.789   1.459   3.875
 7674SOL    HW123921   5.691   1.471   3.862
 7674SOL    HW223922   5.824   1.530   3.936
 7675SOL     OW23923   5.959   6.962   2.473
 7675SOL    HW123924   5.925   0.004   2.541
 7675SOL    HW223925   6.055   6.980   2.453
 7676SOL     OW23926   2.083   2.398   0.629
 7676SOL    HW123927   2.121   2.338   0.699
 7676SOL    HW223928   2.109   2.363   0.538
 7677SOL     OW23929   0.619   4.694   2.080
 7677SOL    HW123930   0.545   4.741   2.033
 7677SOL    HW223931   0.693   4.675   2.015
 7678SOL     OW23932   2.531   1.598   5.000
 7678SOL    HW123933   2.516   1.568   5.094
 7678SOL    HW223934   2.622   1.638   4.992
 7679SOL     OW23935   3.023   5.478   6.570
 7679SOL    HW123936   2.980   5.387   6.568
 7679SOL    HW223937   3.122   5.468   6.580
 7680SOL     OW23938   1.853   1.923   0.628
 7680SOL    HW123939   1.933   1.955   0.678
 7680SOL    HW223940   1.792   2.000   0.609
 7681SOL     OW23941   2.578   6.768   0.484
 7681SOL    HW123942   2.638   6.810   0.553
 7681SOL    HW223943   2.566   6.832   0.408
 7682SOL     OW23944   2.862   0.278   2.350
 7682SOL    HW123945   2.923   0.275   2.271
 7682SOL    HW223946   2.914   0.301   2.432
 7683SOL     OW23947   6.564   1.564   3.647
 7683SOL    HW123948   6.555   1.476   3.695
 7683SOL    HW223949   6.615   1.549   3.561
 7684SOL     OW23950   4.289   2.081   2.037
 7684SOL    HW123951   4.347   2.093   1.956
 7684SOL    HW223952   4.193   2.078   2.009
 7685SOL     OW23953   3.610   2.453   0.095
 7685SOL    HW123954   3.649   2.517   0.029
 7685SOL    HW223955   3.600   2.363   0.053
 7686SOL     OW23956   6.279   0.146   2.947
 7686SOL    HW123957   6.237   0.096   3.024
 7686SOL    HW223958   6.207   0.174   2.883
 7687SOL     OW23959   5.854   4.887   4.456
 7687SOL    HW123960   5.878   4.983   4.470
 7687SOL    HW223961   5.901   4.830   4.524
 7688SOL     OW23962   0.558   6.245   5.487
 7688SOL    HW123963   0.502   6.324   5.462
 7688SOL    HW223964   0.499   6.172   5.522
 7689SOL     OW23965   5.334   6.253   2.939
 7689SOL    HW123966   5.304   6.158   2.930
 7689SOL    HW223967   5.434   6.257   2.942
 7690SOL     OW23968   6.311   5.043   0.816
 7690SOL    HW123969   6.379   5.116   0.818
 7690SOL    HW223970   6.316   4.994   0.729
 7691SOL     OW23971   4.940   2.681   4.633
 7691SOL    HW123972   5.005   2.750   4.602
 7691SOL    HW223973   4.978   2.590   4.620
 7692SOL     OW23974   0.549   6.144   2.164
 7692SOL    HW123975   0.591   6.173   2.078
 7692SOL    HW223976   0.608   6.075   2.208
 7693SOL     OW23977   3.843   0.210   1.131
 7693SOL    HW123978   3.803   0.118   1.132
 7693SOL    HW223979   3.772   0.278   1.112
 7694SOL     OW23980   0.102   4.628   4.769
 7694SOL    HW123981   0.010   4.612   4.732
 7694SOL    HW223982   0.094   4.674   4.857
 7695SOL     OW23983   4.365   6.031   0.876
 7695SOL    HW123984   4.281   5.982   0.854
 7695SOL    HW223985   4.392   6.010   0.970
 7696SOL     OW23986   6.850   1.513   4.412
 7696SOL    HW123987   6.905   1.596   4.424
 7696SOL    HW223988   6.785   1.527   4.338
 7697SOL     OW23989   3.436   6.347   1.931
 7697SOL    HW123990   3.516   6.366   1.987
 7697SOL    HW223991   3.372   6.423   1.936
 7698SOL     OW23992   6.423   2.280   3.489
 7698SOL    HW123993   6.336   2.265   3.442
 7698SOL    HW223994   6.420   2.369   3.536
 7699SOL     OW23995   3.595   5.841   6.984
 7699SOL    HW123996   3.553   5.808   0.045
 7699SOL    HW223997   3.621   5.937   6.995
 7700SOL     OW23998   5.111   6.349   4.271
 7700SOL    HW123999   5.085   6.253   4.264
 7700SOL    HW224000   5.051   6.395   4.336
 7701SOL     OW24001   6.834   1.281   0.249
 7701SOL    HW124002   6.826   1.221   0.169
 7701SOL    HW224003   6.930   1.304   0.264
 7702SOL     OW24004   3.321   6.183   6.265
 7702SOL    HW124005   3.326   6.280   6.289
 7702SOL    HW224006   3.263   6.171   6.184
 7703SOL     OW24007   6.191   0.418   5.444
 7703SOL    HW124008   6.233   0.481   5.379
 7703SOL    HW224009   6.229   0.433   5.535
 7704SOL     OW24010   5.369   5.296   5.536
 7704SOL    HW124011   5.450   5.355   5.536
 7704SOL    HW224012   5.396   5.201   5.521
 7705SOL     OW24013   3.643   5.373   5.950
 7705SOL    HW124014   3.716   5.442   5.951
 7705SOL    HW224015   3.559   5.414   5.986
 7706SOL     OW24016   4.719   2.908   5.142
 7706SOL    HW124017   4.791   2.909   5.211
 7706SOL    HW224018   4.760   2.908   5.051
 7707SOL     OW24019   0.739   5.759   6.248
 7707SOL    HW124020   0.821   5.704   6.237
 7707SOL    HW224021   0.763   5.855   6.261
 7708SOL     OW24022   6.250   0.077   5.747
 7708SOL    HW124023   6.283   0.092   5.840
 7708SOL    HW224024   6.320   0.106   5.682
 7709SOL     OW24025   5.460   4.294   1.332
 7709SOL    HW124026   5.444   4.344   1.417
 7709SOL    HW224027   5.503   4.206   1.352
 7710SOL     OW24028   3.269   0.336   0.834
 7710SOL    HW124029   3.217   0.273   0.776
 7710SOL    HW224030   3.233   0.429   0.823
 7711SOL     OW24031   6.417   6.227   5.301
 7711SOL    HW124032   6.367   6.296   5.354
 7711SOL    HW224033   6.509   6.216   5.338
 7712SOL     OW24034   5.087   5.927   2.535
 7712SOL    HW124035   5.158   5.882   2.481
 7712SOL    HW224036   5.063   6.014   2.491
 7713SOL     OW24037   1.460   4.797   0.321
 7713SOL    HW124038   1.494   4.809   0.415
 7713SOL    HW224039   1.503   4.864   0.261
 7714SOL     OW24040   6.423   4.095   5.542
 7714SOL    HW124041   6.468   4.175   5.581
 7714SOL    HW224042   6.431   4.097   5.443
 7715SOL     OW24043   4.221   1.870   6.727
 7715SOL    HW124044   4.153   1.910   6.788
 7715SOL    HW224045   4.297   1.834   6.781
 7716SOL     OW24046   6.664   4.120   3.885
 7716SOL    HW124047   6.746   4.138   3.939
 7716SOL    HW224048   6.635   4.203   3.838
 7717SOL     OW24049   1.644   0.969   4.742
 7717SOL    HW124050   1.707   1.043   4.763
 7717SOL    HW224051   1.587   0.995   4.664
 7718SOL     OW24052   1.523   1.798   3.410
 7718SOL    HW124053   1.492   1.838   3.324
 7718SOL    HW224054   1.615   1.762   3.400
 7719SOL     OW24055   0.074   3.764   4.592
 7719SOL    HW124056   0.049   3.696   4.523
 7719SOL    HW224057   0.027   3.850   4.572
 7720SOL     OW24058   0.440   0.827   0.176
 7720SOL    HW124059   0.380   0.773   0.117
 7720SOL    HW224060   0.511   0.872   0.120
 7721SOL     OW24061   0.261   5.195   2.658
 7721SOL    HW124062   0.338   5.145   2.619
 7721SOL    HW224063   0.294   5.280   2.698
 7722SOL     OW24064   0.697   6.184   3.230
 7722SOL    HW124065   0.631   6.109   3.236
 7722SOL    HW224066   0.710   6.210   3.134
 7723SOL     OW24067   5.714   3.303   6.791
 7723SOL    HW124068   5.712   3.403   6.790
 7723SOL    HW224069   5.646   3.268   6.727
 7724SOL     OW24070   2.767   4.392   1.535
 7724SOL    HW124071   2.798   4.471   1.482
 7724SOL    HW224072   2.721   4.424   1.618
 7725SOL     OW24073   5.806   2.753   3.019
 7725SOL    HW124074   5.729   2.775   3.080
 7725SOL    HW224075   5.770   2.720   2.931
 7726SOL     OW24076   2.050   6.062   5.189
 7726SOL    HW124077   1.952   6.080   5.182
 7726SOL    HW224078   2.075   6.045   5.284
 7727SOL     OW24079   0.222   0.629   2.472
 7727SOL    HW124080   0.195   0.693   2.400
 7727SOL    HW224081   0.193   0.664   2.561
 7728SOL     OW24082   0.997   4.810   3.561
 7728SOL    HW124083   1.039   4.757   3.488
 7728SOL    HW224084   0.940   4.750   3.618
 7729SOL     OW24085   5.831   2.703   0.991
 7729SOL    HW124086   5.749   2.649   0.975
 7729SOL    HW224087   5.806   2.793   1.027
 7730SOL     OW24088   5.882   6.161   1.125
 7730SOL    HW124089   5.863   6.212   1.209
 7730SOL    HW224090   5.961   6.202   1.079
 7731SOL     OW24091   6.824   0.308   0.636
 7731SOL    HW124092   6.824   0.221   0.685
 7731SOL    HW224093   6.746   0.364   0.666
 7732SOL     OW24094   4.102   6.469   0.645
 7732SOL    HW124095   4.147   6.390   0.687
 7732SOL    HW224096   4.024   6.497   0.702
 7733SOL     OW24097   4.637   7.022   2.298
 7733SOL    HW124098   4.610   6.942   2.244
 7733SOL    HW224099   4.598   0.081   2.256
 7734SOL     OW24100   2.537   5.510   3.026
 7734SOL    HW124101   2.633   5.511   3.051
 7734SOL    HW224102   2.528   5.504   2.927
 7735SOL     OW24103   4.616   6.060   6.617
 7735SOL    HW124104   4.638   5.980   6.561
 7735SOL    HW224105   4.531   6.101   6.585
 7736SOL     OW24106   3.626   3.649   7.022
 7736SOL    HW124107   3.552   3.604   6.973
 7736SOL    HW224108   3.595   3.737   0.033
 7737SOL     OW24109   3.577   0.795   2.547
 7737SOL    HW124110   3.505   0.838   2.603
 7737SOL    HW224111   3.550   0.702   2.524
 7738SOL     OW24112   2.608   5.552   6.975
 7738SOL    HW124113   2.612   5.585   6.880
 7738SOL    HW224114   2.549   5.613   0.005
 7739SOL     OW24115   0.731   2.355   1.582
 7739SOL    HW124116   0.791   2.337   1.504
 7739SOL    HW224117   0.677   2.273   1.602
 7740SOL     OW24118   2.107   1.113   3.334
 7740SOL    HW124119   2.087   1.174   3.257
 7740SOL    HW224120   2.029   1.111   3.396
 7741SOL     OW24121   0.435   4.766   4.986
 7741SOL    HW124122   0.533   4.772   4.967
 7741SOL    HW224123   0.385   4.820   4.918
 7742SOL     OW24124   5.886   1.891   3.296
 7742SOL    HW124125   5.948   1.945   3.353
 7742SOL    HW224126   5.928   1.802   3.275
 7743SOL     OW24127   5.532   1.527   0.258
 7743SOL    HW124128   5.601   1.455   0.250
 7743SOL    HW224129   5.441   1.485   0.259
 7744SOL     OW24130   0.886   6.259   3.425
 7744SOL    HW124131   0.963   6.198   3.406
 7744SOL    HW224132   0.817   6.251   3.354
 7745SOL     OW24133   2.966   1.120   5.693
 7745SOL    HW124134   2.938   1.060   5.618
 7745SOL    HW224135   2.978   1.213   5.659
 7746SOL     OW24136   2.697   6.311   0.324
 7746SOL    HW124137   2.629   6.377   0.356
 7746SOL    HW224138   2.783   6.357   0.305
 7747SOL     OW24139   5.090   6.015   1.528
 7747SOL    HW124140   5.163   6.056   1.472
 7747SOL    HW224141   5.092   5.916   1.517
 7748SOL     OW24142   3.020   3.362   5.355
 7748SOL    HW124143   2.962   3.376   5.435
 7748SOL    HW224144   3.057   3.269   5.355
 7749SOL     OW24145   2.784   2.932   5.605
 7749SOL    HW124146   2.812   2.888   5.520
 7749SOL    HW224147   2.714   2.878   5.650
 7750SOL     OW24148   0.230   6.281   1.280
 7750SOL    HW124149   0.155   6.318   1.226
 7750SOL    HW224150   0.222   6.314   1.374
 7751SOL     OW24151   1.203   2.464   2.451
 7751SOL    HW124152   1.165   2.460   2.543
 7751SOL    HW224153   1.129   2.471   2.384
 7752SOL     OW24154   5.210   0.562   5.883
 7752SOL    HW124155   5.289   0.518   5.840
 7752SOL    HW224156   5.239   0.645   5.930
 7753SOL     OW24157   2.676   1.357   4.283
 7753SOL    HW124158   2.745   1.349   4.354
 7753SOL    HW224159   2.709   1.314   4.199
 7754SOL     OW24160   3.488   5.883   1.010
 7754SOL    HW124161   3.398   5.924   0.994
 7754SOL    HW224162   3.481   5.816   1.084
 7755SOL     OW24163   2.005   2.456   5.799
 7755SOL    HW124164   2.012   2.441   5.898
 7755SOL    HW224165   1.915   2.496   5.778
 7756SOL     OW24166   2.659   0.116   2.359
 7756SOL    HW124167   2.745   0.167   2.364
 7756SOL    HW224168   2.654   0.051   2.435
 7757SOL     OW24169   5.807   5.099   1.296
 7757SOL    HW124170   5.896   5.135   1.268
 7757SOL    HW224171   5.814   5.057   1.386
 7758SOL     OW24172   2.036   6.996   6.306
 7758SOL    HW124173   2.033   0.072   6.306
 7758SOL    HW224174   2.050   6.963   6.400
 7759SOL     OW24175   1.727   1.526   5.372
 7759SOL    HW124176   1.734   1.549   5.275
 7759SOL    HW224177   1.816   1.535   5.415
 7760SOL     OW24178   5.696   3.085   2.537
 7760SOL    HW124179   5.671   2.995   2.500
 7760SOL    HW224180   5.718   3.076   2.634
 7761SOL     OW24181   6.457   6.293   4.657
 7761SOL    HW124182   6.526   6.223   4.638
 7761SOL    HW224183   6.501   6.383   4.661
 7762SOL     OW24184   2.221   6.966   3.937
 7762SOL    HW124185   2.178   6.993   3.851
 7762SOL    HW224186   2.160   6.904   3.987
 7763SOL     OW24187   2.320   0.160   6.643
 7763SOL    HW124188   2.277   0.205   6.565
 7763SOL    HW224189   2.281   0.197   6.728
 7764SOL     OW24190   3.317   3.885   5.575
 7764SOL    HW124191   3.232   3.841   5.602
 7764SOL    HW224192   3.306   3.928   5.485
 7765SOL     OW24193   5.928   2.937   4.324
 7765SOL    HW124194   5.973   3.010   4.374
 7765SOL    HW224195   5.984   2.854   4.329
 7766SOL     OW24196   0.030   3.750   0.784
 7766SOL    HW124197   7.015   3.723   0.873
 7766SOL    HW224198   0.075   3.671   0.742
 7767SOL     OW24199   4.507   6.419   2.180
 7767SOL    HW124200   4.590   6.474   2.178
 7767SOL    HW224201   4.430   6.473   2.144
 7768SOL     OW24202   4.912   4.619   3.234
 7768SOL    HW124203   4.931   4.523   3.217
 7768SOL    HW224204   4.843   4.652   3.170
 7769SOL     OW24205   5.169   1.500   4.630
 7769SOL    HW124206   5.242   1.568   4.619
 7769SOL    HW224207   5.083   1.539   4.599
 7770SOL     OW24208   0.648   3.164   4.998
 7770SOL    HW124209   0.722   3.114   4.954
 7770SOL    HW224210   0.686   3.239   5.052
 7771SOL     OW24211   3.117   1.544   5.693
 7771SOL    HW124212   3.207   1.518   5.656
 7771SOL    HW224213   3.129   1.624   5.753
 7772SOL     OW24214   5.366   6.909   1.369
 7772SOL    HW124215   5.290   6.909   1.434
 7772SOL    HW224216   5.341   6.854   1.289
 7773SOL     OW24217   1.882   5.340   5.482
 7773SOL    HW124218   1.819   5.417   5.484
 7773SOL    HW224219   1.831   5.254   5.492
 7774SOL     OW24220   4.830   2.737   3.910
 7774SOL    HW124221   4.796   2.686   3.989
 7774SOL    HW224222   4.926   2.761   3.923
 7775SOL     OW24223   4.328   0.085   0.065
 7775SOL    HW124224   4.246   0.142   0.067
 7775SOL    HW224225   4.316   0.011   7.022
 7776SOL     OW24226   0.995   5.604   6.624
 7776SOL    HW124227   0.976   5.509   6.600
 7776SOL    HW224228   0.909   5.655   6.627
 7777SOL     OW24229   5.798   5.585   4.135
 7777SOL    HW124230   5.762   5.584   4.228
 7777SOL    HW224231   5.806   5.491   4.102
 7778SOL     OW24232   5.974   3.716   2.409
 7778SOL    HW124233   6.056   3.751   2.454
 7778SOL    HW224234   5.913   3.792   2.387
 7779SOL     OW24235   2.798   0.901   1.858
 7779SOL    HW124236   2.775   0.947   1.944
 7779SOL    HW224237   2.728   0.919   1.790
 7780SOL     OW24238   0.939   5.140   5.161
 7780SOL    HW124239   1.024   5.153   5.110
 7780SOL    HW224240   0.959   5.142   5.259
 7781SOL     OW24241   0.870   4.004   1.492
 7781SOL    HW124242   0.780   4.011   1.447
 7781SOL    HW224243   0.923   3.930   1.451
 7782SOL     OW24244   5.010   5.144   3.882
 7782SOL    HW124245   5.041   5.176   3.792
 7782SOL    HW224246   4.963   5.057   3.873
 7783SOL     OW24247   0.809   0.415   6.010
 7783SOL    HW124248   0.873   0.412   5.933
 7783SOL    HW224249   0.748   0.494   6.000
 7784SOL     OW24250   3.070   2.218   1.371
 7784SOL    HW124251   3.058   2.292   1.305
 7784SOL    HW224252   3.069   2.255   1.464
 7785SOL     OW24253   2.153   6.327   4.256
 7785SOL    HW124254   2.120   6.395   4.192
 7785SOL    HW224255   2.225   6.272   4.213
 7786SOL     OW24256   3.882   0.397   0.187
 7786SOL    HW124257   3.889   0.437   0.096
 7786SOL    HW224258   3.862   0.469   0.254
 7787SOL     OW24259   2.261   2.958   0.235
 7787SOL    HW124260   2.272   2.894   0.159
 7787SOL    HW224261   2.273   3.051   0.203
 7788SOL     OW24262   1.414   4.806   1.720
 7788SOL    HW124263   1.386   4.712   1.739
 7788SOL    HW224264   1.394   4.828   1.624
 7789SOL     OW24265   3.069   0.258   6.152
 7789SOL    HW124266   3.068   0.167   6.194
 7789SOL    HW224267   2.981   0.303   6.169
 7790SOL     OW24268   5.261   5.696   2.920
 7790SOL    HW124269   5.226   5.790   2.920
 7790SOL    HW224270   5.334   5.688   2.851
 7791SOL     OW24271   2.049   5.167   2.405
 7791SOL    HW124272   2.015   5.092   2.348
 7791SOL    HW224273   1.972   5.211   2.451
 7792SOL     OW24274   1.437   6.538   3.769
 7792SOL    HW124275   1.455   6.449   3.810
 7792SOL    HW224276   1.339   6.550   3.757
 7793SOL     OW24277   4.154   0.553   0.189
 7793SOL    HW124278   4.095   0.476   0.213
 7793SOL    HW224279   4.195   0.590   0.272
 7794SOL     OW24280   0.734   4.389   2.089
 7794SOL    HW124281   0.677   4.371   2.009
 7794SOL    HW224282   0.722   4.484   2.118
 7795SOL     OW24283   2.914   5.108   5.145
 7795SOL    HW124284   2.952   5.073   5.231
 7795SOL    HW224285   2.920   5.037   5.075
 7796SOL     OW24286   3.838   2.611   5.399
 7796SOL    HW124287   3.860   2.618   5.496
 7796SOL    HW224288   3.892   2.677   5.347
 7797SOL     OW24289   0.678   6.424   1.245
 7797SOL    HW124290   0.641   6.430   1.153
 7797SOL    HW224291   0.778   6.416   1.241
 7798SOL     OW24292   0.987   2.130   3.120
 7798SOL    HW124293   0.948   2.200   3.061
 7798SOL    HW224294   1.048   2.172   3.187
 7799SOL     OW24295   1.888   5.482   2.506
 7799SOL    HW124296   1.797   5.478   2.465
 7799SOL    HW224297   1.880   5.517   2.600
 7800SOL     OW24298   1.065   5.598   3.240
 7800SOL    HW124299   0.980   5.605   3.291
 7800SOL    HW224300   1.055   5.530   3.167
 7801SOL     OW24301   1.562   1.440   2.675
 7801SOL    HW124302   1.562   1.370   2.746
 7801SOL    HW224303   1.656   1.469   2.658
 7802SOL     OW24304   6.506   3.356   0.394
 7802SOL    HW124305   6.503   3.343   0.493
 7802SOL    HW224306   6.569   3.430   0.372
 7803SOL     OW24307   4.372   1.941   0.057
 7803SOL    HW124308   4.279   1.945   0.022
 7803SOL    HW224309   4.379   1.998   0.139
 7804SOL     OW24310   4.927   2.138   4.740
 7804SOL    HW124311   4.957   2.223   4.695
 7804SOL    HW224312   4.829   2.143   4.759
 7805SOL     OW24313   5.233   3.324   2.605
 7805SOL    HW124314   5.182   3.365   2.529
 7805SOL    HW224315   5.235   3.388   2.682
 7806SOL     OW24316   5.946   1.445   6.339
 7806SOL    HW124317   5.868   1.406   6.290
 7806SOL    HW224318   5.924   1.451   6.437
 7807SOL     OW24319   0.730   4.695   4.960
 7807SOL    HW124320   0.805   4.733   5.013
 7807SOL    HW224321   0.741   4.596   4.953
 7808SOL     OW24322   5.794   3.179   3.378
 7808SOL    HW124323   5.818   3.120   3.455
 7808SOL    HW224324   5.731   3.250   3.408
 7809SOL     OW24325   5.088   5.194   4.796
 7809SOL    HW124326   5.022   5.249   4.848
 7809SOL    HW224327   5.091   5.101   4.833
 7810SOL     OW24328   2.689   6.696   5.515
 7810SOL    HW124329   2.761   6.627   5.520
 7810SOL    HW224330   2.630   6.677   5.437
 7811SOL     OW24331   0.987   5.566   2.085
 7811SOL    HW124332   1.046   5.494   2.122
 7811SOL    HW224333   0.925   5.526   2.017
 7812SOL     OW24334   2.041   2.600   4.604
 7812SOL    HW124335   1.943   2.598   4.588
 7812SOL    HW224336   2.088   2.630   4.521
 7813SOL     OW24337   4.470   2.466   1.258
 7813SOL    HW124338   4.532   2.392   1.286
 7813SOL    HW224339   4.384   2.458   1.309
 7814SOL     OW24340   0.012   3.566   3.260
 7814SOL    HW124341   0.093   3.625   3.265
 7814SOL    HW224342   6.982   3.574   3.344
 7815SOL     OW24343   5.901   1.872   4.251
 7815SOL    HW124344   5.930   1.967   4.254
 7815SOL    HW224345   5.949   1.819   4.321
 7816SOL     OW24346   0.864   2.565   6.716
 7816SOL    HW124347   0.925   2.603   6.785
 7816SOL    HW224348   0.899   2.587   6.624
 7817SOL     OW24349   4.550   4.356   5.147
 7817SOL    HW124350   4.584   4.368   5.241
 7817SOL    HW224351   4.466   4.409   5.136
 7818SOL     OW24352   4.171   0.457   3.039
 7818SOL    HW124353   4.241   0.526   3.057
 7818SOL    HW224354   4.126   0.431   3.125
 7819SOL     OW24355   0.617   3.584   3.527
 7819SOL    HW124356   0.589   3.488   3.525
 7819SOL    HW224357   0.575   3.630   3.605
 7820SOL     OW24358   1.981   1.096   5.600
 7820SOL    HW124359   2.054   1.072   5.536
 7820SOL    HW224360   1.995   1.046   5.686
 7821SOL     OW24361   5.707   6.144   0.723
 7821SOL    HW124362   5.801   6.111   0.729
 7821SOL    HW224363   5.668   6.151   0.815
 7822SOL     OW24364   1.325   1.525   6.914
 7822SOL    HW124365   1.264   1.465   6.965
 7822SOL    HW224366   1.298   1.527   6.818
 7823SOL     OW24367   2.182   3.968   6.247
 7823SOL    HW124368   2.167   3.871   6.267
 7823SOL    HW224369   2.205   4.015   6.332
 7824SOL     OW24370   5.474   0.715   4.770
 7824SOL    HW124371   5.430   0.678   4.851
 7824SOL    HW224372   5.473   0.815   4.773
 7825SOL     OW24373   1.296   3.407   0.602
 7825SOL    HW124374   1.303   3.504   0.626
 7825SOL    HW224375   1.203   3.387   0.570
 7826SOL     OW24376   5.405   2.159   6.705
 7826SOL    HW124377   5.451   2.242   6.736
 7826SOL    HW224378   5.306   2.169   6.718
 7827SOL     OW24379   3.243   4.408   0.922
 7827SOL    HW124380   3.329   4.415   0.972
 7827SOL    HW224381   3.261   4.402   0.824
 7828SOL     OW24382   0.295   5.319   0.671
 7828SOL    HW124383   0.395   5.322   0.670
 7828SOL    HW224384   0.262   5.334   0.764
 7829SOL     OW24385   2.139   2.730   0.370
 7829SOL    HW124386   2.108   2.814   0.326
 7829SOL    HW224387   2.135   2.740   0.470
 7830SOL     OW24388   5.093   3.530   5.864
 7830SOL    HW124389   5.158   3.457   5.845
 7830SOL    HW224390   5.140   3.607   5.908
 7831SOL     OW24391   1.598   5.312   0.806
 7831SOL    HW124392   1.519   5.270   0.761
 7831SOL    HW224393   1.586   5.307   0.905
 7832SOL     OW24394   3.556   1.117   4.502
 7832SOL    HW124395   3.483   1.168   4.548
 7832SOL    HW224396   3.633   1.178   4.483
 7833SOL     OW24397   0.496   0.584   6.830
 7833SOL    HW124398   0.476   0.658   6.766
 7833SOL    HW224399   0.432   0.587   6.906
 7834SOL     OW24400   0.691   1.659   3.446
 7834SOL    HW124401   0.603   1.706   3.436
 7834SOL    HW224402   0.675   1.564   3.474
 7835SOL     OW24403   1.980   2.419   4.810
 7835SOL    HW124404   2.023   2.474   4.738
 7835SOL    HW224405   2.050   2.390   4.876
 7836SOL     OW24406   3.856   2.242   6.429
 7836SOL    HW124407   3.884   2.172   6.495
 7836SOL    HW224408   3.785   2.205   6.369
 7837SOL     OW24409   6.237   6.330   1.880
 7837SOL    HW124410   6.280   6.344   1.969
 7837SOL    HW224411   6.303   6.289   1.817
 7838SOL     OW24412   4.005   6.057   0.105
 7838SOL    HW124413   4.028   5.964   0.077
 7838SOL    HW224414   4.064   6.085   0.181
 7839SOL     OW24415   6.322   4.791   5.794
 7839SOL    HW124416   6.337   4.879   5.748
 7839SOL    HW224417   6.378   4.721   5.749
 7840SOL     OW24418   5.151   3.605   4.405
 7840SOL    HW124419   5.224   3.614   4.337
 7840SOL    HW224420   5.090   3.530   4.378
 7841SOL     OW24421   5.806   1.069   0.173
 7841SOL    HW124422   5.750   1.144   0.208
 7841SOL    HW224423   5.822   1.082   0.076
 7842SOL     OW24424   2.223   1.809   3.188
 7842SOL    HW124425   2.215   1.908   3.193
 7842SOL    HW224426   2.317   1.783   3.168
 7843SOL     OW24427   5.208   4.477   1.671
 7843SOL    HW124428   5.147   4.400   1.691
 7843SOL    HW224429   5.301   4.454   1.699
 7844SOL     OW24430   4.098   0.603   4.005
 7844SOL    HW124431   4.188   0.576   4.037
 7844SOL    HW224432   4.067   0.682   4.058
 7845SOL     OW24433   6.672   1.222   4.199
 7845SOL    HW124434   6.613   1.219   4.279
 7845SOL    HW224435   6.758   1.175   4.220
 7846SOL     OW24436   1.492   0.726   1.560
 7846SOL    HW124437   1.477   0.658   1.632
 7846SOL    HW224438   1.437   0.703   1.480
 7847SOL     OW24439   6.800   1.741   1.738
 7847SOL    HW124440   6.843   1.662   1.783
 7847SOL    HW224441   6.790   1.722   1.640
 7848SOL     OW24442   3.174   3.948   1.135
 7848SOL    HW124443   3.142   4.036   1.172
 7848SOL    HW224444   3.102   3.880   1.147
 7849SOL     OW24445   5.468   4.110   3.867
 7849SOL    HW124446   5.472   4.052   3.786
 7849SOL    HW224447   5.561   4.126   3.901
 7850SOL     OW24448   0.163   1.619   3.774
 7850SOL    HW124449   0.143   1.701   3.721
 7850SOL    HW224450   0.246   1.575   3.739
 7851SOL     OW24451   6.648   0.225   1.049
 7851SOL    HW124452   6.551   0.227   1.026
 7851SOL    HW224453   6.684   0.318   1.050
 7852SOL     OW24454   2.935   0.271   5.613
 7852SOL    HW124455   2.846   0.230   5.634
 7852SOL    HW224456   2.924   0.336   5.538
 7853SOL     OW24457   4.171   1.572   1.788
 7853SOL    HW124458   4.218   1.659   1.796
 7853SOL    HW224459   4.206   1.509   1.857
 7854SOL     OW24460   3.404   3.985   0.983
 7854SOL    HW124461   3.321   3.957   1.032
 7854SOL    HW224462   3.478   3.921   1.005
 7855SOL     OW24463   3.256   5.961   5.619
 7855SOL    HW124464   3.167   5.963   5.665
 7855SOL    HW224465   3.253   6.015   5.536
 7856SOL     OW24466   5.534   4.748   3.756
 7856SOL    HW124467   5.504   4.808   3.682
 7856SOL    HW224468   5.465   4.748   3.828
 7857SOL     OW24469   6.678   3.089   5.146
 7857SOL    HW124470   6.626   3.172   5.168
 7857SOL    HW224471   6.678   3.028   5.225
 7858SOL     OW24472   4.595   5.191   3.789
 7858SOL    HW124473   4.641   5.110   3.824
 7858SOL    HW224474   4.658   5.243   3.731
 7859SOL     OW24475   6.713   4.182   5.729
 7859SOL    HW124476   6.645   4.228   5.786
 7859SOL    HW224477   6.799   4.173   5.781
 7860SOL     OW24478   4.041   0.002   3.134
 7860SOL    HW124479   4.064   0.024   3.229
 7860SOL    HW224480   4.046   6.926   3.121
 7861SOL     OW24481   3.844   5.226   1.872
 7861SOL    HW124482   3.800   5.314   1.854
 7861SOL    HW224483   3.864   5.181   1.786
 7862SOL     OW24484   3.110   4.635   1.723
 7862SOL    HW124485   3.035   4.579   1.760
 7862SOL    HW224486   3.192   4.579   1.717
 7863SOL     OW24487   6.797   6.394   3.796
 7863SOL    HW124488   6.766   6.394   3.890
 7863SOL    HW224489   6.798   6.488   3.761
 7864SOL     OW24490   6.985   6.247   5.806
 7864SOL    HW124491   6.981   6.339   5.766
 7864SOL    HW224492   6.950   6.250   5.899
 7865SOL     OW24493   4.775   6.953   4.054
 7865SOL    HW124494   4.682   6.969   4.087
 7865SOL    HW224495   4.840   7.007   4.108
 7866SOL     OW24496   2.554   2.359   0.273
 7866SOL    HW124497   2.590   2.428   0.209
 7866SOL    HW224498   2.598   2.271   0.256
 7867SOL     OW24499   4.911   6.110   2.755
 7867SOL    HW124500   4.916   6.014   2.726
 7867SOL    HW224501   4.818   6.144   2.740
 7868SOL     OW24502   5.795   6.966   2.257
 7868SOL    HW124503   5.763   0.029   2.297
 7868SOL    HW224504   5.865   6.926   2.316
 7869SOL     OW24505   5.553   4.118   0.538
 7869SOL    HW124506   5.503   4.151   0.618
 7869SOL    HW224507   5.620   4.186   0.509
 7870SOL     OW24508   5.143   5.665   4.146
 7870SOL    HW124509   5.095   5.608   4.212
 7870SOL    HW224510   5.196   5.735   4.194
 7871SOL     OW24511   6.216   3.801   2.628
 7871SOL    HW124512   6.170   3.803   2.717
 7871SOL    HW224513   6.207   3.890   2.584
 7872SOL     OW24514   2.102   4.617   2.698
 7872SOL    HW124515   2.066   4.700   2.654
 7872SOL    HW224516   2.034   4.581   2.762
 7873SOL     OW24517   5.343   0.212   5.165
 7873SOL    HW124518   5.295   0.196   5.251
 7873SOL    HW224519   5.383   0.303   5.164
 7874SOL     OW24520   4.826   1.294   0.551
 7874SOL    HW124521   4.831   1.195   0.544
 7874SOL    HW224522   4.856   1.323   0.641
 7875SOL     OW24523   4.547   2.653   6.560
 7875SOL    HW124524   4.462   2.640   6.612
 7875SOL    HW224525   4.530   2.712   6.481
 7876SOL     OW24526   0.086   0.339   5.443
 7876SOL    HW124527   0.116   0.382   5.358
 7876SOL    HW224528   7.017   0.302   5.431
 7877SOL     OW24529   0.266   2.921   2.552
 7877SOL    HW124530   0.315   2.961   2.474
 7877SOL    HW224531   0.175   2.962   2.559
 7878SOL     OW24532   4.982   4.920   4.237
 7878SOL    HW124533   4.893   4.875   4.228
 7878SOL    HW224534   5.000   4.938   4.334
 7879SOL     OW24535   4.771   5.489   3.813
 7879SOL    HW124536   4.672   5.478   3.803
 7879SOL    HW224537   4.800   5.455   3.903
 7880SOL     OW24538   0.691   5.120   0.800
 7880SOL    HW124539   0.777   5.158   0.764
 7880SOL    HW224540   0.622   5.193   0.805
 7881SOL     OW24541   6.109   3.565   4.590
 7881SOL    HW124542   6.050   3.529   4.518
 7881SOL    HW224543   6.075   3.534   4.679
 7882SOL     OW24544   1.378   2.734   3.054
 7882SOL    HW124545   1.357   2.795   3.131
 7882SOL    HW224546   1.296   2.720   2.999
 7883SOL     OW24547   1.621   6.908   1.148
 7883SOL    HW124548   1.666   6.988   1.110
 7883SOL    HW224549   1.632   6.907   1.247
 7884SOL     OW24550   1.752   4.500   3.728
 7884SOL    HW124551   1.814   4.569   3.766
 7884SOL    HW224552   1.737   4.428   3.796
 7885SOL     OW24553   6.329   6.145   2.734
 7885SOL    HW124554   6.353   6.073   2.669
 7885SOL    HW224555   6.234   6.132   2.764
 7886SOL     OW24556   4.408   4.010   1.074
 7886SOL    HW124557   4.392   3.986   1.169
 7886SOL    HW224558   4.446   3.931   1.025
 7887SOL     OW24559   3.595   2.526   5.327
 7887SOL    HW124560   3.686   2.568   5.331
 7887SOL    HW224561   3.583   2.465   5.406
 7888SOL     OW24562   0.052   0.632   5.472
 7888SOL    HW124563   0.108   0.677   5.402
 7888SOL    HW224564   0.076   0.535   5.476
 7889SOL     OW24565   0.619   4.826   0.054
 7889SOL    HW124566   0.700   4.852   0.107
 7889SOL    HW224567   0.623   4.728   0.034
 7890SOL     OW24568   0.306   3.463   3.964
 7890SOL    HW124569   0.299   3.479   3.865
 7890SOL    HW224570   0.306   3.550   4.012
 7891SOL     OW24571   1.373   3.783   4.116
 7891SOL    HW124572   1.387   3.763   4.019
 7891SOL    HW224573   1.353   3.698   4.165
 7892SOL     OW24574   1.180   2.423   4.078
 7892SOL    HW124575   1.266   2.376   4.094
 7892SOL    HW224576   1.105   2.357   4.080
 7893SOL     OW24577   6.167   6.897   2.098
 7893SOL    HW124578   6.136   6.806   2.127
 7893SOL    HW224579   6.088   6.950   2.065
 7894SOL     OW24580   2.806   0.767   0.951
 7894SOL    HW124581   2.814   0.859   0.991
 7894SOL    HW224582   2.847   0.700   1.013
 7895SOL     OW24583   5.066   6.724   5.328
 7895SOL    HW124584   5.046   6.641   5.381
 7895SOL    HW224585   4.981   6.772   5.308
 7896SOL     OW24586   5.803   3.386   1.060
 7896SOL    HW124587   5.737   3.394   1.136
 7896SOL    HW224588   5.780   3.453   0.990
 7897SOL     OW24589   3.487   2.811   1.114
 7897SOL    HW124590   3.568   2.869   1.107
 7897SOL    HW224591   3.440   2.809   1.026
 7898SOL     OW24592   3.487   0.291   3.999
 7898SOL    HW124593   3.474   0.214   3.936
 7898SOL    HW224594   3.557   0.268   4.066
 7899SOL     OW24595   5.961   0.099   1.991
 7899SOL    HW124596   5.867   0.075   2.017
 7899SOL    HW224597   5.990   0.042   1.914
 7900SOL     OW24598   0.926   4.996   1.539
 7900SOL    HW124599   0.872   4.918   1.569
 7900SOL    HW224600   0.879   5.042   1.464
 7901SOL     OW24601   4.710   0.649   6.266
 7901SOL    HW124602   4.647   0.696   6.204
 7901SOL    HW224603   4.794   0.626   6.216
 7902SOL     OW24604   6.186   5.938   3.130
 7902SOL    HW124605   6.273   5.917   3.085
 7902SOL    HW224606   6.191   6.028   3.173
 7903SOL     OW24607   4.651   2.306   3.002
 7903SOL    HW124608   4.556   2.298   3.031
 7903SOL    HW224609   4.697   2.377   3.055
 7904SOL     OW24610   5.533   0.502   3.030
 7904SOL    HW124611   5.571   0.540   2.946
 7904SOL    HW224612   5.579   0.417   3.052
 7905SOL     OW24613   5.443   2.108   0.378
 7905SOL    HW124614   5.478   2.202   0.371
 7905SOL    HW224615   5.406   2.079   0.290
 7906SOL     OW24616   0.924   6.063   0.628
 7906SOL    HW124617   0.877   6.112   0.554
 7906SOL    HW224618   0.890   5.969   0.633
 7907SOL     OW24619   6.687   1.012   3.068
 7907SOL    HW124620   6.637   1.048   2.989
 7907SOL    HW224621   6.741   1.086   3.109
 7908SOL     OW24622   0.820   1.430   6.026
 7908SOL    HW124623   0.733   1.422   6.073
 7908SOL    HW224624   0.832   1.524   5.994
 7909SOL     OW24625   4.997   4.263   3.516
 7909SOL    HW124626   4.953   4.318   3.586
 7909SOL    HW224627   5.094   4.250   3.539
 7910SOL     OW24628   1.812   3.175   0.318
 7910SOL    HW124629   1.855   3.141   0.234
 7910SOL    HW224630   1.882   3.196   0.386
 7911SOL     OW24631   0.907   4.747   0.848
 7911SOL    HW124632   0.951   4.805   0.779
 7911SOL    HW224633   0.933   4.779   0.939
 7912SOL     OW24634   6.037   4.442   1.519
 7912SOL    HW124635   5.949   4.400   1.497
 7912SOL    HW224636   6.088   4.460   1.435
 7913SOL     OW24637   1.703   3.980   1.840
 7913SOL    HW124638   1.607   3.952   1.832
 7913SOL    HW224639   1.759   3.900   1.862
 7914SOL     OW24640   0.163   4.470   1.009
 7914SOL    HW124641   0.188   4.562   1.039
 7914SOL    HW224642   0.228   4.439   0.940
 7915SOL     OW24643   4.970   1.782   2.795
 7915SOL    HW124644   4.898   1.717   2.772
 7915SOL    HW224645   4.930   1.871   2.816
 7916SOL     OW24646   0.668   6.282   5.832
 7916SOL    HW124647   0.710   6.370   5.809
 7916SOL    HW224648   0.607   6.253   5.758
 7917SOL     OW24649   4.380   3.151   5.527
 7917SOL    HW124650   4.459   3.156   5.588
 7917SOL    HW224651   4.342   3.243   5.515
 7918SOL     OW24652   6.520   0.932   4.349
 7918SOL    HW124653   6.440   0.879   4.376
 7918SOL    HW224654   6.561   0.892   4.268
 7919SOL     OW24655   1.584   4.791   2.578
 7919SOL    HW124656   1.558   4.759   2.669
 7919SOL    HW224657   1.592   4.713   2.516
 7920SOL     OW24658   6.323   6.572   1.721
 7920SOL    HW124659   6.290   6.504   1.786
 7920SOL    HW224660   6.353   6.654   1.771
 7921SOL     OW24661   5.669   5.701   2.099
 7921SOL    HW124662   5.613   5.782   2.118
 7921SOL    HW224663   5.766   5.725   2.102
 7922SOL     OW24664   0.479   5.937   6.957
 7922SOL    HW124665   0.417   6.001   6.911
 7922SOL    HW224666   0.542   5.988   7.015
 7923SOL     OW24667   4.170   1.495   6.366
 7923SOL    HW124668   4.238   1.514   6.437
 7923SOL    HW224669   4.158   1.576   6.309
 7924SOL     OW24670   4.854   0.121   1.147
 7924SOL    HW124671   4.813   0.058   1.213
 7924SOL    HW224672   4.945   0.148   1.179
 7925SOL     OW24673   0.845   0.078   0.052
 7925SOL    HW124674   0.930   0.047   0.009
 7925SOL    HW224675   0.865   0.112   0.144
 7926SOL     OW24676   5.200   1.606   6.412
 7926SOL    HW124677   5.247   1.674   6.355
 7926SOL    HW224678   5.197   1.639   6.506
 7927SOL     OW24679   4.902   0.017   2.365
 7927SOL    HW124680   4.809   0.024   2.329
 7927SOL    HW224681   4.909   0.066   2.451
 7928SOL     OW24682   0.628   1.778   4.109
 7928SOL    HW124683   0.550   1.742   4.058
 7928SOL    HW224684   0.653   1.868   4.073
 7929SOL     OW24685   3.765   3.536   5.582
 7929SOL    HW124686   3.854   3.572   5.608
 7929SOL    HW224687   3.712   3.607   5.535
 7930SOL     OW24688   4.489   4.977   5.561
 7930SOL    HW124689   4.568   4.925   5.529
 7930SOL    HW224690   4.520   5.055   5.615
 7931SOL     OW24691   3.829   2.945   0.606
 7931SOL    HW124692   3.739   2.982   0.630
 7931SOL    HW224693   3.842   2.857   0.651
 7932SOL     OW24694   1.152   5.880   6.321
 7932SOL    HW124695   1.110   5.932   6.246
 7932SOL    HW224696   1.240   5.844   6.291
 7933SOL     OW24697   6.667   0.613   6.209
 7933SOL    HW124698   6.662   0.531   6.266
 7933SOL    HW224699   6.597   0.678   6.240
 7934SOL     OW24700   1.500   5.331   6.695
 7934SOL    HW124701   1.408   5.325   6.655
 7934SOL    HW224702   1.560   5.266   6.650
 7935SOL     OW24703   5.599   6.403   1.403
 7935SOL    HW124704   5.557   6.371   1.488
 7935SOL    HW224705   5.698   6.387   1.407
 7936SOL     OW24706   2.788   6.065   3.149
 7936SOL    HW124707   2.770   6.031   3.241
 7936SOL    HW224708   2.778   5.991   3.083
 7937SOL     OW24709   0.945   5.976   4.079
 7937SOL    HW124710   0.935   5.954   3.982
 7937SOL    HW224711   0.936   6.075   4.091
 7938SOL     OW24712   5.926   6.394   5.283
 7938SOL    HW124713   6.000   6.393   5.350
 7938SOL    HW224714   5.952   6.340   5.203
 7939SOL     OW24715   1.708   2.218   5.885
 7939SOL    HW124716   1.727   2.216   5.983
 7939SOL    HW224717   1.769   2.284   5.841
 7940SOL     OW24718   2.561   2.493   2.593
 7940SOL    HW124719   2.510   2.564   2.545
 7940SOL    HW224720   2.633   2.457   2.534
 7941SOL     OW24721   5.501   5.955   2.118
 7941SOL    HW124722   5.449   6.008   2.186
 7941SOL    HW224723   5.541   6.018   2.052
 7942SOL     OW24724   0.412   4.078   2.647
 7942SOL    HW124725   0.423   4.129   2.732
 7942SOL    HW224726   0.428   4.140   2.569
 7943SOL     OW24727   0.495   4.455   5.674
 7943SOL    HW124728   0.509   4.530   5.738
 7943SOL    HW224729   0.556   4.465   5.595
 7944SOL     OW24730   0.507   3.056   0.623
 7944SOL    HW124731   0.428   3.042   0.563
 7944SOL    HW224732   0.515   2.979   0.687
 7945SOL     OW24733   6.465   6.039   1.568
 7945SOL    HW124734   6.401   6.105   1.529
 7945SOL    HW224735   6.467   5.957   1.511
 7946SOL     OW24736   3.445   0.566   5.821
 7946SOL    HW124737   3.469   0.483   5.871
 7946SOL    HW224738   3.418   0.638   5.885
 7947SOL     OW24739   2.775   1.672   5.537
 7947SOL    HW124740   2.797   1.575   5.525
 7947SOL    HW224741   2.841   1.728   5.487
 7948SOL     OW24742   0.879   6.212   0.892
 7948SOL    HW124743   0.919   6.186   0.804
 7948SOL    HW224744   0.779   6.215   0.884
 7949SOL     OW24745   4.597   3.806   5.959
 7949SOL    HW124746   4.614   3.752   6.041
 7949SOL    HW224747   4.676   3.799   5.898
 7950SOL     OW24748   4.936   6.133   4.682
 7950SOL    HW124749   4.962   6.220   4.724
 7950SOL    HW224750   5.004   6.106   4.613
 7951SOL     OW24751   2.048   4.633   2.233
 7951SOL    HW124752   2.102   4.717   2.220
 7951SOL    HW224753   2.096   4.571   2.295
 7952SOL     OW24754   0.527   3.067   6.652
 7952SOL    HW124755   0.597   2.998   6.670
 7952SOL    HW224756   0.554   3.122   6.573
 7953SOL     OW24757   4.388   2.357   2.654
 7953SOL    HW124758   4.485   2.367   2.629
 7953SOL    HW224759   4.339   2.311   2.580
 7954SOL     OW24760   3.391   4.185   6.382
 7954SOL    HW124761   3.357   4.271   6.343
 7954SOL    HW224762   3.451   4.140   6.316
 7955SOL     OW24763   2.018   1.087   6.413
 7955SOL    HW124764   1.990   1.111   6.506
 7955SOL    HW224765   1.941   1.045   6.365
 7956SOL     OW24766   5.252   0.453   2.210
 7956SOL    HW124767   5.177   0.482   2.151
 7956SOL    HW224768   5.338   0.463   2.162
 7957SOL     OW24769   1.436   0.595   0.477
 7957SOL    HW124770   1.535   0.604   0.477
 7957SOL    HW224771   1.395   0.673   0.430
 7958SOL     OW24772   4.764   5.475   6.104
 7958SOL    HW124773   4.796   5.381   6.097
 7958SOL    HW224774   4.743   5.510   6.012
 7959SOL     OW24775   4.857   6.715   1.082
 7959SOL    HW124776   4.956   6.706   1.071
 7959SOL    HW224777   4.811   6.655   1.016
 7960SOL     OW24778   2.238   0.550   5.802
 7960SOL    HW124779   2.311   0.497   5.760
 7960SOL    HW224780   2.277   0.614   5.868
 7961SOL     OW24781   6.691   1.072   0.665
 7961SOL    HW124782   6.687   1.103   0.570
 7961SOL    HW224783   6.598   1.062   0.701
 7962SOL     OW24784   1.103   1.038   5.769
 7962SOL    HW124785   1.128   0.980   5.691
 7962SOL    HW224786   1.084   1.131   5.737
 7963SOL     OW24787   5.889   5.653   4.626
 7963SOL    HW124788   5.870   5.673   4.722
 7963SOL    HW224789   5.888   5.739   4.574
 7964SOL     OW24790   6.780   3.864   2.713
 7964SOL    HW124791   6.820   3.890   2.801
 7964SOL    HW224792   6.685   3.834   2.727
 7965SOL     OW24793   3.976   2.383   5.829
 7965SOL    HW124794   3.920   2.426   5.899
 7965SOL    HW224795   4.073   2.395   5.852
 7966SOL     OW24796   3.050   3.288   6.011
 7966SOL    HW124797   2.956   3.264   6.035
 7966SOL    HW224798   3.050   3.355   5.937
 7967SOL     OW24799   3.276   5.931   1.720
 7967SOL    HW124800   3.334   5.849   1.715
 7967SOL    HW224801   3.211   5.921   1.796
 7968SOL     OW24802   6.476   2.298   4.144
 7968SOL    HW124803   6.464   2.203   4.173
 7968SOL    HW224804   6.462   2.359   4.222
 7969SOL     OW24805   5.800   5.831   0.870
 7969SOL    HW124806   5.863   5.827   0.948
 7969SOL    HW224807   5.823   5.910   0.813
 7970SOL     OW24808   6.206   3.142   2.160
 7970SOL    HW124809   6.306   3.153   2.160
 7970SOL    HW224810   6.175   3.122   2.067
 7971SOL     OW24811   3.152   1.683   1.075
 7971SOL    HW124812   3.149   1.584   1.061
 7971SOL    HW224813   3.070   1.725   1.036
 7972SOL     OW24814   3.131   3.147   0.865
 7972SOL    HW124815   3.111   3.135   0.767
 7972SOL    HW224816   3.069   3.090   0.918
 7973SOL     OW24817   4.595   4.441   4.130
 7973SOL    HW124818   4.515   4.480   4.175
 7973SOL    HW224819   4.668   4.429   4.197
 7974SOL     OW24820   5.828   1.076   5.511
 7974SOL    HW124821   5.895   1.126   5.457
 7974SOL    HW224822   5.874   1.027   5.585
 7975SOL     OW24823   6.341   0.798   1.301
 7975SOL    HW124824   6.312   0.744   1.380
 7975SOL    HW224825   6.335   0.742   1.218
 7976SOL     OW24826   1.246   0.334   6.158
 7976SOL    HW124827   1.234   0.416   6.102
 7976SOL    HW224828   1.158   0.285   6.165
 7977SOL     OW24829   4.290   5.542   3.009
 7977SOL    HW124830   4.348   5.560   3.089
 7977SOL    HW224831   4.318   5.602   2.934
 7978SOL     OW24832   6.821   2.714   6.390
 7978SOL    HW124833   6.820   2.745   6.295
 7978SOL    HW224834   6.727   2.700   6.422
 7979SOL     OW24835   3.512   5.145   5.400
 7979SOL    HW124836   3.501   5.141   5.500
 7979SOL    HW224837   3.527   5.240   5.373
 7980SOL     OW24838   3.594   5.146   6.297
 7980SOL    HW124839   3.525   5.098   6.351
 7980SOL    HW224840   3.643   5.079   6.240
 7981SOL     OW24841   0.779   4.352   1.477
 7981SOL    HW124842   0.715   4.279   1.455
 7981SOL    HW224843   0.741   4.440   1.447
 7982SOL     OW24844   1.470   1.390   0.517
 7982SOL    HW124845   1.456   1.461   0.586
 7982SOL    HW224846   1.431   1.420   0.430
 7983SOL     OW24847   5.702   2.377   0.723
 7983SOL    HW124848   5.690   2.431   0.639
 7983SOL    HW224849   5.798   2.374   0.747
 7984SOL     OW24850   1.097   1.272   0.836
 7984SOL    HW124851   1.080   1.371   0.830
 7984SOL    HW224852   1.175   1.249   0.778
 7985SOL     OW24853   2.738   1.850   4.691
 7985SOL    HW124854   2.720   1.915   4.765
 7985SOL    HW224855   2.786   1.897   4.617
 7986SOL     OW24856   2.879   0.550   6.463
 7986SOL    HW124857   2.956   0.500   6.502
 7986SOL    HW224858   2.848   0.619   6.527
 7987SOL     OW24859   1.838   2.323   0.072
 7987SOL    HW124860   1.902   2.248   0.055
 7987SOL    HW224861   1.763   2.319   0.005
 7988SOL     OW24862   1.594   1.079   2.632
 7988SOL    HW124863   1.600   1.146   2.707
 7988SOL    HW224864   1.498   1.056   2.615
 7989SOL     OW24865   3.084   3.385   0.478
 7989SOL    HW124866   3.168   3.360   0.430
 7989SOL    HW224867   3.072   3.325   0.557
 7990SOL     OW24868   1.777   5.245   4.735
 7990SOL    HW124869   1.874   5.268   4.747
 7990SOL    HW224870   1.725   5.329   4.720
 7991SOL     OW24871   6.131   1.090   3.828
 7991SOL    HW124872   6.137   0.993   3.849
 7991SOL    HW224873   6.036   1.120   3.835
 7992SOL     OW24874   1.058   0.479   0.182
 7992SOL    HW124875   1.105   0.568   0.183
 7992SOL    HW224876   0.975   0.485   0.127
 7993SOL     OW24877   0.129   0.064   0.924
 7993SOL    HW124878   0.121   0.102   0.832
 7993SOL    HW224879   0.223   0.037   0.941
 7994SOL     OW24880   3.642   6.937   3.759
 7994SOL    HW124881   3.664   6.972   3.668
 7994SOL    HW224882   3.697   6.986   3.828
 7995SOL     OW24883   5.777   5.428   3.321
 7995SOL    HW124884   5.831   5.406   3.241
 7995SOL    HW224885   5.804   5.369   3.397
 7996SOL     OW24886   3.623   6.628   4.480
 7996SOL    HW124887   3.708   6.588   4.513
 7996SOL    HW224888   3.643   6.709   4.426
 7997SOL     OW24889   0.201   1.275   0.710
 7997SOL    HW124890   0.171   1.184   0.739
 7997SOL    HW224891   0.296   1.270   0.678
 7998SOL     OW24892   3.111   0.197   0.489
 7998SOL    HW124893   3.037   0.130   0.493
 7998SOL    HW224894   3.159   0.190   0.402
 7999SOL     OW24895   0.591   0.943   5.888
 7999SOL    HW124896   0.650   1.015   5.923
 7999SOL    HW224897   0.497   0.976   5.882
 8000SOL     OW24898   4.956   0.060   6.627
 8000SOL    HW124899   4.864   0.091   6.653
 8000SOL    HW224900   5.003   0.021   6.706
 8001SOL     OW24901   4.348   6.011   2.019
 8001SOL    HW124902   4.365   5.955   1.938
 8001SOL    HW224903   4.287   5.962   2.081
 8002SOL     OW24904   1.583   0.392   6.627
 8002SOL    HW124905   1.501   0.390   6.684
 8002SOL    HW224906   1.563   0.439   6.541
 8003SOL     OW24907   2.545   5.606   1.621
 8003SOL    HW124908   2.491   5.546   1.562
 8003SOL    HW224909   2.498   5.694   1.630
 8004SOL     OW24910   2.201   3.042   3.147
 8004SOL    HW124911   2.256   3.074   3.070
 8004SOL    HW224912   2.245   2.964   3.191
 8005SOL     OW24913   3.070   0.955   3.523
 8005SOL    HW124914   3.084   0.859   3.549
 8005SOL    HW224915   3.104   0.970   3.430
 8006SOL     OW24916   2.404   5.947   5.241
 8006SOL    HW124917   2.324   6.005   5.230
 8006SOL    HW224918   2.375   5.852   5.252
 8007SOL     OW24919   5.900   1.429   6.041
 8007SOL    HW124920   5.902   1.527   6.061
 8007SOL    HW224921   5.847   1.413   5.958
 8008SOL     OW24922   3.985   6.460   6.463
 8008SOL    HW124923   4.032   6.548   6.466
 8008SOL    HW224924   3.906   6.466   6.402
 8009SOL     OW24925   5.634   0.741   1.135
 8009SOL    HW124926   5.630   0.834   1.173
 8009SOL    HW224927   5.580   0.679   1.192
 8010SOL     OW24928   2.149   1.587   5.343
 8010SOL    HW124929   2.088   1.571   5.421
 8010SOL    HW224930   2.242   1.558   5.367
 8011SOL     OW24931   3.162   1.990   1.074
 8011SOL    HW124932   3.230   2.063   1.064
 8011SOL    HW224933   3.206   1.902   1.057
 8012SOL     OW24934   2.711   3.379   0.210
 8012SOL    HW124935   2.760   3.464   0.193
 8012SOL    HW224936   2.729   3.348   0.303
 8013SOL     OW24937   1.571   5.495   3.243
 8013SOL    HW124938   1.553   5.473   3.339
 8013SOL    HW224939   1.624   5.421   3.201
 8014SOL     OW24940   1.217   6.440   4.678
 8014SOL    HW124941   1.269   6.362   4.641
 8014SOL    HW224942   1.141   6.461   4.617
 8015SOL     OW24943   2.434   0.537   6.674
 8015SOL    HW124944   2.393   0.596   6.745
 8015SOL    HW224945   2.525   0.508   6.703
 8016SOL     OW24946   3.902   0.650   5.886
 8016SOL    HW124947   3.825   0.623   5.944
 8016SOL    HW224948   3.902   0.594   5.803
 8017SOL     OW24949   5.539   0.169   0.391
 8017SOL    HW124950   5.502   0.186   0.299
 8017SOL    HW224951   5.550   0.256   0.439
 8018SOL     OW24952   3.340   2.092   0.224
 8018SOL    HW124953   3.355   2.149   0.305
 8018SOL    HW224954   3.395   2.126   0.148
 8019SOL     OW24955   2.504   4.919   1.163
 8019SOL    HW124956   2.464   4.989   1.223
 8019SOL    HW224957   2.434   4.882   1.103
 8020SOL     OW24958   6.385   0.285   6.636
 8020SOL    HW124959   6.396   0.364   6.575
 8020SOL    HW224960   6.397   0.315   6.731
 8021SOL     OW24961   1.018   3.044   0.661
 8021SOL    HW124962   1.040   3.046   0.759
 8021SOL    HW224963   1.100   3.064   0.608
 8022SOL     OW24964   5.907   0.540   2.072
 8022SOL    HW124965   5.952   0.500   2.152
 8022SOL    HW224966   5.953   0.625   2.047
 8023SOL     OW24967   6.343   4.637   2.633
 8023SOL    HW124968   6.250   4.660   2.664
 8023SOL    HW224969   6.359   4.678   2.544
 8024SOL     OW24970   1.361   5.074   5.920
 8024SOL    HW124971   1.442   5.027   5.955
 8024SOL    HW224972   1.288   5.007   5.904
 8025SOL     OW24973   2.384   5.882   0.969
 8025SOL    HW124974   2.340   5.861   0.881
 8025SOL    HW224975   2.315   5.918   1.032
 8026SOL     OW24976   6.925   4.116   1.021
 8026SOL    HW124977   6.847   4.078   0.972
 8026SOL    HW224978   6.922   4.216   1.017
 8027SOL     OW24979   3.848   0.296   5.415
 8027SOL    HW124980   3.763   0.289   5.468
 8027SOL    HW224981   3.833   0.259   5.323
 8028SOL     OW24982   4.174   5.760   5.621
 8028SOL    HW124983   4.086   5.765   5.668
 8028SOL    HW224984   4.189   5.843   5.568
 8029SOL     OW24985   5.293   3.153   1.937
 8029SOL    HW124986   5.289   3.056   1.912
 8029SOL    HW224987   5.214   3.201   1.899
 8030SOL     OW24988   5.322   4.968   0.352
 8030SOL    HW124989   5.336   5.015   0.265
 8030SOL    HW224990   5.224   4.955   0.367
 8031SOL     OW24991   6.398   6.409   2.495
 8031SOL    HW124992   6.352   6.398   2.584
 8031SOL    HW224993   6.460   6.332   2.480
 8032SOL     OW24994   6.299   4.575   2.016
 8032SOL    HW124995   6.234   4.509   1.979
 8032SOL    HW224996   6.378   4.583   1.954
 8033SOL     OW24997   4.446   2.028   6.817
 8033SOL    HW124998   4.430   2.015   6.914
 8033SOL    HW224999   4.499   1.951   6.781
 8034SOL     OW25000   4.485   0.444   5.143
 8034SOL    HW125001   4.466   0.536   5.178
 8034SOL    HW225002   4.449   0.436   5.050
 8035SOL     OW25003   5.248   1.568   2.490
 8035SOL    HW125004   5.298   1.588   2.406
 8035SOL    HW225005   5.164   1.517   2.468
 8036SOL     OW25006   6.926   3.822   3.905
 8036SOL    HW125007   6.835   3.820   3.945
 8036SOL    HW225008   6.946   3.733   3.864
 8037SOL     OW25009   2.307   3.171   6.874
 8037SOL    HW125010   2.286   3.266   6.850
 8037SOL    HW225011   2.314   3.162   6.973
 8038SOL     OW25012   4.482   0.206   2.189
 8038SOL    HW125013   4.442   0.238   2.275
 8038SOL    HW225014   4.522   0.284   2.141
 8039SOL     OW25015   6.974   1.545   4.928
 8039SOL    HW125016   6.956   1.569   4.833
 8039SOL    HW225017   6.894   1.499   4.967
 8040SOL     OW25018   1.417   5.607   0.293
 8040SOL    HW125019   1.487   5.649   0.351
 8040SOL    HW225020   1.457   5.581   0.205
 8041SOL     OW25021   3.215   0.879   3.103
 8041SOL    HW125022   3.297   0.910   3.054
 8041SOL    HW225023   3.212   0.923   3.193
 8042SOL     OW25024   3.946   3.163   5.112
 8042SOL    HW125025   4.020   3.144   5.177
 8042SOL    HW225026   3.918   3.077   5.067
 8043SOL     OW25027   3.831   5.885   0.693
 8043SOL    HW125028   3.866   5.969   0.735
 8043SOL    HW225029   3.769   5.908   0.618
 8044SOL     OW25030   5.002   3.160   0.789
 8044SOL    HW125031   4.952   3.240   0.753
 8044SOL    HW225032   5.067   3.191   0.858
 8045SOL     OW25033   6.302   2.173   2.509
 8045SOL    HW125034   6.253   2.256   2.482
 8045SOL    HW225035   6.245   2.118   2.569
 8046SOL     OW25036   0.883   4.625   1.965
 8046SOL    HW125037   0.846   4.568   1.892
 8046SOL    HW225038   0.949   4.573   2.019
 8047SOL     OW25039   3.724   5.888   6.343
 8047SOL    HW125040   3.632   5.864   6.311
 8047SOL    HW225041   3.783   5.907   6.264
 8048SOL     OW25042   4.005   1.589   6.951
 8048SOL    HW125043   3.954   1.675   6.942
 8048SOL    HW225044   4.075   1.585   6.881
 8049SOL     OW25045   0.825   6.877   6.823
 8049SOL    HW125046   0.918   6.879   6.787
 8049SOL    HW225047   0.772   6.952   6.783
 8050SOL     OW25048   1.831   3.449   3.602
 8050SOL    HW125049   1.775   3.374   3.638
 8050SOL    HW225050   1.919   3.450   3.648
 8051SOL     OW25051   4.564   6.367   4.512
 8051SOL    HW125052   4.596   6.278   4.544
 8051SOL    HW225053   4.634   6.409   4.455
 8052SOL     OW25054   2.894   1.695   0.974
 8052SOL    HW125055   2.864   1.789   0.960
 8052SOL    HW225056   2.896   1.647   0.886
 8053SOL     OW25057   3.635   2.979   4.809
 8053SOL    HW125058   3.678   2.977   4.719
 8053SOL    HW225059   3.544   2.938   4.803
 8054SOL     OW25060   6.815   4.349   4.848
 8054SOL    HW125061   6.874   4.270   4.865
 8054SOL    HW225062   6.787   4.389   4.935
 8055SOL     OW25063   6.839   0.905   5.795
 8055SOL    HW125064   6.753   0.854   5.788
 8055SOL    HW225065   6.899   0.878   5.720
 8056SOL     OW25066   3.214   0.879   4.822
 8056SOL    HW125067   3.142   0.847   4.760
 8056SOL    HW225068   3.298   0.894   4.770
 8057SOL     OW25069   3.062   2.201   2.979
 8057SOL    HW125070   3.032   2.112   2.945
 8057SOL    HW225071   3.100   2.191   3.070
 8058SOL     OW25072   3.298   0.364   2.898
 8058SOL    HW125073   3.259   0.284   2.852
 8058SOL    HW225074   3.369   0.335   2.961
 8059SOL     OW25075   2.612   1.511   4.513
 8059SOL    HW125076   2.695   1.488   4.461
 8059SOL    HW225077   2.591   1.609   4.501
 8060SOL     OW25078   6.716   2.322   6.682
 8060SOL    HW125079   6.812   2.331   6.654
 8060SOL    HW225080   6.684   2.410   6.716
 8061SOL     OW25081   0.282   0.541   2.872
 8061SOL    HW125082   0.343   0.490   2.811
 8061SOL    HW225083   0.203   0.573   2.821
 8062SOL     OW25084   3.964   4.809   3.779
 8062SOL    HW125085   4.023   4.767   3.710
 8062SOL    HW225086   3.890   4.859   3.734
 8063SOL     OW25087   2.253   1.949   2.871
 8063SOL    HW125088   2.296   2.035   2.841
 8063SOL    HW225089   2.210   1.963   2.960
 8064SOL     OW25090   6.240   2.234   1.166
 8064SOL    HW125091   6.163   2.277   1.120
 8064SOL    HW225092   6.287   2.301   1.223
 8065SOL     OW25093   2.894   5.575   3.860
 8065SOL    HW125094   2.822   5.520   3.816
 8065SOL    HW225095   2.859   5.612   3.946
 8066SOL     OW25096   0.305   1.042   5.522
 8066SOL    HW125097   0.324   1.089   5.608
 8066SOL    HW225098   0.257   1.104   5.460
 8067SOL     OW25099   5.305   2.580   2.702
 8067SOL    HW125100   5.271   2.644   2.633
 8067SOL    HW225101   5.364   2.628   2.767
 8068SOL     OW25102   0.042   4.308   1.199
 8068SOL    HW125103   0.076   4.213   1.195
 8068SOL    HW225104   0.102   4.366   1.144
 8069SOL     OW25105   2.018   5.132   1.221
 8069SOL    HW125106   2.065   5.066   1.279
 8069SOL    HW225107   2.032   5.224   1.256
 8070SOL     OW25108   4.531   3.240   0.638
 8070SOL    HW125109   4.477   3.174   0.585
 8070SOL    HW225110   4.502   3.238   0.733
 8071SOL     OW25111   3.530   6.597   5.352
 8071SOL    HW125112   3.547   6.500   5.334
 8071SOL    HW225113   3.539   6.649   5.267
 8072SOL     OW25114   3.663   1.663   0.783
 8072SOL    HW125115   3.640   1.608   0.703
 8072SOL    HW225116   3.586   1.722   0.807
 8073SOL     OW25117   3.662   5.976   5.132
 8073SOL    HW125118   3.696   5.919   5.207
 8073SOL    HW225119   3.570   6.009   5.155
 8074SOL     OW25120   3.328   3.192   1.047
 8074SOL    HW125121   3.309   3.273   1.103
 8074SOL    HW225122   3.251   3.176   0.985
 8075SOL     OW25123   6.338   6.949   0.851
 8075SOL    HW125124   6.362   6.976   0.944
 8075SOL    HW225125   6.239   6.952   0.839
 8076SOL     OW25126   6.026   0.714   5.603
 8076SOL    HW125127   5.934   0.682   5.581
 8076SOL    HW225128   6.021   0.802   5.650
 8077SOL     OW25129   3.507   6.561   2.545
 8077SOL    HW125130   3.494   6.537   2.448
 8077SOL    HW225131   3.534   6.479   2.596
 8078SOL     OW25132   0.298   2.018   0.664
 8078SOL    HW125133   0.327   2.077   0.739
 8078SOL    HW225134   0.292   1.923   0.696
 8079SOL     OW25135   6.492   1.338   3.779
 8079SOL    HW125136   6.443   1.299   3.857
 8079SOL    HW225137   6.443   1.317   3.694
 8080SOL     OW25138   0.699   2.799   2.659
 8080SOL    HW125139   0.754   2.771   2.580
 8080SOL    HW225140   0.618   2.741   2.666
 8081SOL     OW25141   6.024   5.895   5.978
 8081SOL    HW125142   5.965   5.815   5.965
 8081SOL    HW225143   6.053   5.900   6.073
 8082SOL     OW25144   3.846   0.923   1.998
 8082SOL    HW125145   3.783   0.999   1.980
 8082SOL    HW225146   3.932   0.959   2.035
 8083SOL     OW25147   4.690   2.825   3.473
 8083SOL    HW125148   4.752   2.902   3.490
 8083SOL    HW225149   4.638   2.806   3.557
 8084SOL     OW25150   3.822   6.784   6.725
 8084SOL    HW125151   3.723   6.781   6.739
 8084SOL    HW225152   3.857   6.874   6.752
 8085SOL     OW25153   5.808   6.470   2.354
 8085SOL    HW125154   5.890   6.430   2.394
 8085SOL    HW225155   5.805   6.568   2.375
 8086SOL     OW25156   6.728   0.740   2.680
 8086SOL    HW125157   6.718   0.663   2.742
 8086SOL    HW225158   6.780   0.711   2.599
 8087SOL     OW25159   2.140   0.200   6.962
 8087SOL    HW125160   2.203   0.267   6.924
 8087SOL    HW225161   2.192   0.124   7.000
 8088SOL     OW25162   6.087   1.141   1.642
 8088SOL    HW125163   6.117   1.046   1.645
 8088SOL    HW225164   6.164   1.199   1.617
 8089SOL     OW25165   5.542   2.781   0.564
 8089SOL    HW125166   5.444   2.799   0.575
 8089SOL    HW225167   5.556   2.685   0.540
 8090SOL     OW25168   3.701   1.114   6.508
 8090SOL    HW125169   3.615   1.063   6.506
 8090SOL    HW225170   3.697   1.183   6.580
 8091SOL     OW25171   1.778   3.835   4.541
 8091SOL    HW125172   1.852   3.773   4.568
 8091SOL    HW225173   1.815   3.926   4.523
 8092SOL     OW25174   5.718   1.982   5.422
 8092SOL    HW125175   5.806   2.029   5.423
 8092SOL    HW225176   5.662   2.017   5.347
 8093SOL     OW25177   2.890   4.875   3.392
 8093SOL    HW125178   2.829   4.803   3.424
 8093SOL    HW225179   2.980   4.864   3.435
 8094SOL     OW25180   0.439   3.039   4.506
 8094SOL    HW125181   0.528   3.078   4.483
 8094SOL    HW225182   0.444   2.996   4.596
 8095SOL     OW25183   0.641   4.652   4.365
 8095SOL    HW125184   0.598   4.655   4.455
 8095SOL    HW225185   0.656   4.745   4.332
 8096SOL     OW25186   2.314   7.001   2.698
 8096SOL    HW125187   2.338   0.066   2.657
 8096SOL    HW225188   2.246   7.015   2.770
 8097SOL     OW25189   4.063   6.863   4.561
 8097SOL    HW125190   4.136   6.817   4.612
 8097SOL    HW225191   4.092   6.956   4.538
 8098SOL     OW25192   2.321   6.282   3.470
 8098SOL    HW125193   2.233   6.273   3.517
 8098SOL    HW225194   2.364   6.192   3.461
 8099SOL     OW25195   4.062   5.895   4.607
 8099SOL    HW125196   3.973   5.884   4.562
 8099SOL    HW225197   4.053   5.960   4.682
 8100SOL     OW25198   0.127   0.481   6.752
 8100SOL    HW125199   0.205   0.445   6.701
 8100SOL    HW225200   0.064   0.528   6.689
 8101SOL     OW25201   1.394   5.785   1.736
 8101SOL    HW125202   1.406   5.882   1.757
 8101SOL    HW225203   1.465   5.732   1.783
 8102SOL     OW25204   0.515   3.978   3.241
 8102SOL    HW125205   0.526   4.042   3.317
 8102SOL    HW225206   0.562   3.892   3.263
 8103SOL     OW25207   2.731   6.545   1.707
 8103SOL    HW125208   2.819   6.564   1.663
 8103SOL    HW225209   2.666   6.514   1.638
 8104SOL     OW25210   2.193   0.622   6.141
 8104SOL    HW125211   2.248   0.671   6.073
 8104SOL    HW225212   2.212   0.524   6.134
 8105SOL     OW25213   0.225   3.326   3.309
 8105SOL    HW125214   0.311   3.279   3.288
 8105SOL    HW225215   0.165   3.323   3.228
 8106SOL     OW25216   3.186   5.910   3.437
 8106SOL    HW125217   3.148   5.818   3.437
 8106SOL    HW225218   3.193   5.944   3.343
 8107SOL     OW25219   0.503   5.051   3.948
 8107SOL    HW125220   0.477   5.052   3.851
 8107SOL    HW225221   0.467   4.968   3.991
 8108SOL     OW25222   6.515   2.890   6.183
 8108SOL    HW125223   6.552   2.981   6.165
 8108SOL    HW225224   6.449   2.866   6.111
 8109SOL     OW25225   6.877   3.741   5.983
 8109SOL    HW125226   6.869   3.772   5.888
 8109SOL    HW225227   6.802   3.679   6.004
 8110SOL     OW25228   4.057   5.943   2.467
 8110SOL    HW125229   3.967   5.908   2.442
 8110SOL    HW225230   4.064   6.040   2.440
 8111SOL     OW25231   5.057   1.252   4.695
 8111SOL    HW125232   4.966   1.225   4.664
 8111SOL    HW225233   5.064   1.352   4.695
 8112SOL     OW25234   2.400   2.317   4.653
 8112SOL    HW125235   2.415   2.319   4.555
 8112SOL    HW225236   2.465   2.255   4.696
 8113SOL     OW25237   1.569   3.261   7.004
 8113SOL    HW125238   1.555   3.239   0.077
 8113SOL    HW225239   1.485   3.299   6.965
 8114SOL     OW25240   1.411   4.029   2.866
 8114SOL    HW125241   1.505   4.030   2.831
 8114SOL    HW225242   1.372   4.121   2.857
 8115SOL     OW25243   3.965   0.606   6.470
 8115SOL    HW125244   4.049   0.652   6.442
 8115SOL    HW225245   3.968   0.510   6.441
 8116SOL     OW25246   4.250   4.597   0.466
 8116SOL    HW125247   4.332   4.601   0.524
 8116SOL    HW225248   4.252   4.674   0.402
 8117SOL     OW25249   1.916   6.994   3.538
 8117SOL    HW125250   1.846   6.938   3.493
 8117SOL    HW225251   1.955   0.034   3.471
 8118SOL     OW25252   4.960   4.392   6.653
 8118SOL    HW125253   5.004   4.481   6.637
 8118SOL    HW225254   5.025   4.331   6.699
 8119SOL     OW25255   4.880   5.567   6.822
 8119SOL    HW125256   4.880   5.563   6.722
 8119SOL    HW225257   4.805   5.625   6.854
 8120SOL     OW25258   2.947   4.769   1.042
 8120SOL    HW125259   2.857   4.737   1.071
 8120SOL    HW225260   2.945   4.868   1.030
 8121SOL     OW25261   6.696   5.090   2.099
 8121SOL    HW125262   6.779   5.046   2.066
 8121SOL    HW225263   6.617   5.035   2.071
 8122SOL     OW25264   0.085   4.825   3.738
 8122SOL    HW125265   0.150   4.771   3.685
 8122SOL    HW225266   0.050   4.770   3.814
 8123SOL     OW25267   6.569   2.028   6.769
 8123SOL    HW125268   6.577   1.983   6.858
 8123SOL    HW225269   6.504   2.103   6.775
 8124SOL     OW25270   5.294   6.246   1.908
 8124SOL    HW125271   5.380   6.255   1.958
 8124SOL    HW225272   5.218   6.248   1.973
 8125SOL     OW25273   1.416   1.830   2.968
 8125SOL    HW125274   1.387   1.741   3.004
 8125SOL    HW225275   1.444   1.888   3.044
 8126SOL     OW25276   4.914   3.924   2.563
 8126SOL    HW125277   4.833   3.974   2.594
 8126SOL    HW225278   4.900   3.896   2.468
 8127SOL     OW25279   2.382   4.247   6.740
 8127SOL    HW125280   2.393   4.260   6.642
 8127SOL    HW225281   2.292   4.205   6.758
 8128SOL     OW25282   2.871   2.181   2.263
 8128SOL    HW125283   2.872   2.231   2.176
 8128SOL    HW225284   2.886   2.083   2.246
 8129SOL     OW25285   3.842   1.512   6.366
 8129SOL    HW125286   3.880   1.449   6.298
 8129SOL    HW225287   3.840   1.605   6.329
 8130SOL     OW25288   0.588   3.788   6.892
 8130SOL    HW125289   0.523   3.837   6.835
 8130SOL    HW225290   0.678   3.788   6.849
 8131SOL     OW25291   2.427   2.090   1.337
 8131SOL    HW125292   2.392   2.184   1.336
 8131SOL    HW225293   2.376   2.035   1.271
 8132SOL     OW25294   5.956   0.030   5.776
 8132SOL    HW125295   6.051   0.060   5.786
 8132SOL    HW225296   5.950   6.955   5.791
 8133SOL     OW25297   3.452   5.695   1.710
 8133SOL    HW125298   3.449   5.641   1.795
 8133SOL    HW225299   3.428   5.636   1.633
 8134SOL     OW25300   6.749   2.620   5.859
 8134SOL    HW125301   6.764   2.532   5.904
 8134SOL    HW225302   6.836   2.652   5.820
 8135SOL     OW25303   3.183   6.573   1.663
 8135SOL    HW125304   3.213   6.666   1.686
 8135SOL    HW225305   3.243   6.536   1.592
 8136SOL     OW25306   4.316   6.175   3.102
 8136SOL    HW125307   4.325   6.142   3.008
 8136SOL    HW225308   4.342   6.271   3.106
 8137SOL     OW25309   3.565   1.614   5.469
 8137SOL    HW125310   3.592   1.650   5.558
 8137SOL    HW225311   3.641   1.622   5.404
 8138SOL     OW25312   5.137   0.870   0.725
 8138SOL    HW125313   5.167   0.963   0.742
 8138SOL    HW225314   5.038   0.863   0.740
 8139SOL     OW25315   0.418   0.831   2.144
 8139SOL    HW125316   0.473   0.812   2.225
 8139SOL    HW225317   0.442   0.921   2.107
 8140SOL     OW25318   5.584   0.594   6.817
 8140SOL    HW125319   5.513   0.527   6.839
 8140SOL    HW225320   5.548   0.661   6.752
 8141SOL     OW25321   4.931   5.865   4.468
 8141SOL    HW125322   4.857   5.829   4.411
 8141SOL    HW225323   4.951   5.802   4.543
 8142SOL     OW25324   0.074   5.445   0.024
 8142SOL    HW125325   0.003   5.377   0.003
 8142SOL    HW225326   0.088   5.448   0.123
 8143SOL     OW25327   5.879   4.221   0.883
 8143SOL    HW125328   5.951   4.155   0.858
 8143SOL    HW225329   5.891   4.247   0.979
 8144SOL     OW25330   6.263   6.164   6.733
 8144SOL    HW125331   6.213   6.240   6.691
 8144SOL    HW225332   6.288   6.098   6.662
 8145SOL     OW25333   5.838   5.865   1.853
 8145SOL    HW125334   5.858   5.768   1.842
 8145SOL    HW225335   5.902   5.905   1.918
 8146SOL     OW25336   3.954   1.134   4.414
 8146SOL    HW125337   4.029   1.199   4.425
 8146SOL    HW225338   3.925   1.101   4.504
 8147SOL     OW25339   5.984   2.052   1.886
 8147SOL    HW125340   6.084   2.062   1.888
 8147SOL    HW225341   5.948   2.069   1.978
 8148SOL     OW25342   4.864   4.287   1.019
 8148SOL    HW125343   4.942   4.332   0.974
 8148SOL    HW225344   4.856   4.320   1.113
 8149SOL     OW25345   2.581   6.387   2.089
 8149SOL    HW125346   2.567   6.445   2.010
 8149SOL    HW225347   2.517   6.413   2.162
 8150SOL     OW25348   1.425   4.410   0.630
 8150SOL    HW125349   1.490   4.428   0.557
 8150SOL    HW225350   1.471   4.367   0.707
 8151SOL     OW25351   6.501   2.244   1.311
 8151SOL    HW125352   6.542   2.180   1.246
 8151SOL    HW225353   6.522   2.338   1.283
 8152SOL     OW25354   0.415   1.486   2.534
 8152SOL    HW125355   0.365   1.504   2.450
 8152SOL    HW225356   0.487   1.555   2.546
 8153SOL     OW25357   2.746   0.331   3.617
 8153SOL    HW125358   2.831   0.356   3.571
 8153SOL    HW225359   2.670   0.331   3.552
 8154SOL     OW25360   2.566   5.442   2.769
 8154SOL    HW125361   2.491   5.466   2.707
 8154SOL    HW225362   2.621   5.369   2.729
 8155SOL     OW25363   1.897   3.784   1.906
 8155SOL    HW125364   1.994   3.768   1.894
 8155SOL    HW225365   1.874   3.782   2.003
 8156SOL     OW25366   5.221   6.814   0.344
 8156SOL    HW125367   5.297   6.855   0.395
 8156SOL    HW225368   5.190   6.878   0.274
 8157SOL     OW25369   6.949   4.755   6.623
 8157SOL    HW125370   6.986   4.668   6.653
 8157SOL    HW225371   6.990   4.829   6.676
 8158SOL     OW25372   5.695   5.371   1.015
 8158SOL    HW125373   5.637   5.357   1.096
 8158SOL    HW225374   5.638   5.369   0.933
 8159SOL     OW25375   3.175   6.604   2.866
 8159SOL    HW125376   3.101   6.544   2.897
 8159SOL    HW225377   3.263   6.559   2.880
 8160SOL     OW25378   4.675   1.356   2.862
 8160SOL    HW125379   4.595   1.326   2.810
 8160SOL    HW225380   4.666   1.325   2.957
 8161SOL     OW25381   5.291   1.483   6.854
 8161SOL    HW125382   5.325   1.539   6.779
 8161SOL    HW225383   5.220   1.421   6.820
 8162SOL     OW25384   5.858   6.542   5.972
 8162SOL    HW125385   5.878   6.451   5.935
 8162SOL    HW225386   5.866   6.540   6.072
 8163SOL     OW25387   2.617   4.018   5.584
 8163SOL    HW125388   2.563   4.033   5.667
 8163SOL    HW225389   2.662   4.103   5.558
 8164SOL     OW25390   5.467   3.674   0.577
 8164SOL    HW125391   5.563   3.650   0.591
 8164SOL    HW225392   5.457   3.724   0.490
 8165SOL     OW25393   1.003   4.816   6.939
 8165SOL    HW125394   1.076   4.868   6.894
 8165SOL    HW225395   0.991   4.847   0.009
 8166SOL     OW25396   1.808   0.646   2.079
 8166SOL    HW125397   1.893   0.698   2.082
 8166SOL    HW225398   1.794   0.600   2.167
 8167SOL     OW25399   6.466   7.003   4.981
 8167SOL    HW125400   6.401   0.036   5.033
 8167SOL    HW225401   6.485   6.919   5.032
 8168SOL     OW25402   2.757   1.660   3.335
 8168SOL    HW125403   2.675   1.631   3.384
 8168SOL    HW225404   2.810   1.580   3.307
 8169SOL     OW25405   5.067   2.628   1.232
 8169SOL    HW125406   5.001   2.702   1.214
 8169SOL    HW225407   5.095   2.631   1.327
 8170SOL     OW25408   1.622   5.440   2.422
 8170SOL    HW125409   1.543   5.441   2.360
 8170SOL    HW225410   1.613   5.514   2.488
 8171SOL     OW25411   1.478   1.706   0.288
 8171SOL    HW125412   1.569   1.749   0.286
 8171SOL    HW225413   1.433   1.720   0.200
 8172SOL     OW25414   0.706   1.624   2.014
 8172SOL    HW125415   0.771   1.686   1.970
 8172SOL    HW225416   0.619   1.626   1.964
 8173SOL     OW25417   3.858   1.300   1.374
 8173SOL    HW125418   3.919   1.370   1.413
 8173SOL    HW225419   3.764   1.319   1.402
 8174SOL     OW25420   6.007   2.297   0.790
 8174SOL    HW125421   6.035   2.272   0.883
 8174SOL    HW225422   6.054   2.381   0.763
 8175SOL     OW25423   0.283   3.206   6.566
 8175SOL    HW125424   0.361   3.185   6.625
 8175SOL    HW225425   0.246   3.295   6.591
 8176SOL     OW25426   2.779   5.485   2.452
 8176SOL    HW125427   2.707   5.549   2.478
 8176SOL    HW225428   2.760   5.395   2.490
 8177SOL     OW25429   2.447   5.676   4.240
 8177SOL    HW125430   2.495   5.594   4.270
 8177SOL    HW225431   2.513   5.751   4.231
 8178SOL     OW25432   2.661   5.929   6.438
 8178SOL    HW125433   2.665   5.858   6.368
 8178SOL    HW225434   2.574   5.978   6.430
 8179SOL     OW25435   3.986   2.399   6.239
 8179SOL    HW125436   4.056   2.328   6.228
 8179SOL    HW225437   3.911   2.362   6.294
 8180SOL     OW25438   6.809   0.305   4.927
 8180SOL    HW125439   6.793   0.232   4.861
 8180SOL    HW225440   6.895   0.351   4.905
 8181SOL     OW25441   2.025   1.915   1.763
 8181SOL    HW125442   2.110   1.895   1.812
 8181SOL    HW225443   1.959   1.842   1.780
 8182SOL     OW25444   3.598   1.938   6.979
 8182SOL    HW125445   3.502   1.911   6.987
 8182SOL    HW225446   3.637   1.897   6.897
 8183SOL     OW25447   0.669   2.336   4.607
 8183SOL    HW125448   0.667   2.238   4.588
 8183SOL    HW225449   0.762   2.363   4.630
 8184SOL     OW25450   4.941   2.017   5.658
 8184SOL    HW125451   4.904   2.054   5.743
 8184SOL    HW225452   4.868   2.010   5.590
 8185SOL     OW25453   2.513   6.531   0.372
 8185SOL    HW125454   2.541   6.613   0.423
 8185SOL    HW225455   2.436   6.488   0.418
 8186SOL     OW25456   3.555   5.398   6.365
 8186SOL    HW125457   3.643   5.438   6.341
 8186SOL    HW225458   3.555   5.301   6.343
 8187SOL     OW25459   2.209   2.246   5.755
 8187SOL    HW125460   2.190   2.152   5.785
 8187SOL    HW225461   2.123   2.296   5.746
 8188SOL     OW25462   5.176   2.283   2.063
 8188SOL    HW125463   5.137   2.354   2.120
 8188SOL    HW225464   5.274   2.298   2.052
 8189SOL     OW25465   4.846   4.673   2.140
 8189SOL    HW125466   4.768   4.671   2.203
 8189SOL    HW225467   4.870   4.768   2.120
 8190SOL     OW25468   5.006   5.525   4.356
 8190SOL    HW125469   4.923   5.556   4.310
 8190SOL    HW225470   5.021   5.428   4.335
 8191SOL     OW25471   3.150   5.624   3.348
 8191SOL    HW125472   3.168   5.658   3.255
 8191SOL    HW225473   3.229   5.573   3.381
 8192SOL     OW25474   3.606   5.328   0.155
 8192SOL    HW125475   3.533   5.272   0.195
 8192SOL    HW225476   3.675   5.268   0.115
 8193SOL     OW25477   6.649   0.345   3.924
 8193SOL    HW125478   6.582   0.273   3.906
 8193SOL    HW225479   6.739   0.314   3.896
 8194SOL     OW25480   6.162   2.547   0.791
 8194SOL    HW125481   6.110   2.545   0.705
 8194SOL    HW225482   6.203   2.638   0.803
 8195SOL     OW25483   0.652   0.126   0.443
 8195SOL    HW125484   0.641   0.199   0.511
 8195SOL    HW225485   0.562   0.091   0.416
 8196SOL     OW25486   3.319   0.391   5.640
 8196SOL    HW125487   3.280   0.323   5.703
 8196SOL    HW225488   3.331   0.478   5.688
 8197SOL     OW25489   4.386   1.075   5.637
 8197SOL    HW125490   4.341   1.038   5.717
 8197SOL    HW225491   4.430   1.161   5.660
 8198SOL     OW25492   2.776   6.463   3.244
 8198SOL    HW125493   2.734   6.410   3.170
 8198SOL    HW225494   2.818   6.545   3.206
 8199SOL     OW25495   0.061   2.860   6.774
 8199SOL    HW125496   0.036   2.893   6.683
 8199SOL    HW225497   0.156   2.882   6.793
 8200SOL     OW25498   4.853   3.891   1.133
 8200SOL    HW125499   4.942   3.866   1.172
 8200SOL    HW225500   4.855   3.880   1.034
 8201SOL     OW25501   4.765   0.669   4.376
 8201SOL    HW125502   4.821   0.643   4.455
 8201SOL    HW225503   4.757   0.769   4.373
 8202SOL     OW25504   0.503   5.701   4.131
 8202SOL    HW125505   0.490   5.788   4.178
 8202SOL    HW225506   0.425   5.685   4.070
 8203SOL     OW25507   4.767   2.938   0.276
 8203SOL    HW125508   4.763   3.032   0.310
 8203SOL    HW225509   4.832   2.885   0.332
 8204SOL     OW25510   3.167   5.525   0.664
 8204SOL    HW125511   3.257   5.497   0.630
 8204SOL    HW225512   3.122   5.581   0.594
 8205SOL     OW25513   6.694   4.690   1.586
 8205SOL    HW125514   6.751   4.609   1.572
 8205SOL    HW225515   6.631   4.701   1.509
 8206SOL     OW25516   3.550   3.057   5.776
 8206SOL    HW125517   3.506   3.109   5.703
 8206SOL    HW225518   3.641   3.028   5.746
 8207SOL     OW25519   3.739   4.495   5.367
 8207SOL    HW125520   3.714   4.438   5.289
 8207SOL    HW225521   3.726   4.443   5.452
 8208SOL     OW25522   2.338   6.327   1.510
 8208SOL    HW125523   2.240   6.320   1.529
 8208SOL    HW225524   2.355   6.307   1.413
 8209SOL     OW25525   0.874   1.960   5.342
 8209SOL    HW125526   0.836   2.052   5.346
 8209SOL    HW225527   0.858   1.913   5.429
 8210SOL     OW25528   2.940   0.967   1.608
 8210SOL    HW125529   2.990   1.054   1.609
 8210SOL    HW225530   2.907   0.946   1.700
 8211SOL     OW25531   3.642   3.941   3.728
 8211SOL    HW125532   3.615   4.037   3.730
 8211SOL    HW225533   3.687   3.916   3.814
 8212SOL     OW25534   3.190   0.913   1.258
 8212SOL    HW125535   3.091   0.924   1.250
 8212SOL    HW225536   3.211   0.853   1.335
 8213SOL     OW25537   5.270   4.574   2.579
 8213SOL    HW125538   5.198   4.609   2.519
 8213SOL    HW225539   5.230   4.515   2.649
 8214SOL     OW25540   1.697   6.273   3.739
 8214SOL    HW125541   1.660   6.298   3.829
 8214SOL    HW225542   1.747   6.186   3.746
 8215SOL     OW25543   4.315   5.238   0.029
 8215SOL    HW125544   4.293   5.293   6.972
 8215SOL    HW225545   4.279   5.282   0.111
 8216SOL     OW25546   5.223   6.832   2.791
 8216SOL    HW125547   5.246   6.868   2.882
 8216SOL    HW225548   5.290   6.762   2.766
 8217SOL     OW25549   2.179   3.894   2.146
 8217SOL    HW125550   2.082   3.907   2.167
 8217SOL    HW225551   2.205   3.955   2.071
 8218SOL     OW25552   1.675   6.969   4.111
 8218SOL    HW125553   1.740   6.947   4.038
 8218SOL    HW225554   1.630   0.032   4.090
 8219SOL     OW25555   3.494   3.929   1.404
 8219SOL    HW125556   3.433   3.894   1.476
 8219SOL    HW225557   3.521   3.853   1.344
 8220SOL     OW25558   3.408   4.390   5.297
 8220SOL    HW125559   3.400   4.489   5.308
 8220SOL    HW225560   3.320   4.353   5.266
 8221SOL     OW25561   6.444   4.129   3.180
 8221SOL    HW125562   6.346   4.142   3.192
 8221SOL    HW225563   6.461   4.081   3.094
 8222SOL     OW25564   5.426   2.133   0.795
 8222SOL    HW125565   5.358   2.134   0.868
 8222SOL    HW225566   5.402   2.062   0.728
 8223SOL     OW25567   0.203   4.749   6.074
 8223SOL    HW125568   0.114   4.714   6.105
 8223SOL    HW225569   0.224   4.711   5.984
 8224SOL     OW25570   5.008   1.726   1.803
 8224SOL    HW125571   5.074   1.799   1.822
 8224SOL    HW225572   4.929   1.735   1.865
 8225SOL     OW25573   3.842   0.854   0.885
 8225SOL    HW125574   3.745   0.875   0.870
 8225SOL    HW225575   3.867   0.775   0.830
 8226SOL     OW25576   2.885   0.350   0.824
 8226SOL    HW125577   2.901   0.332   0.922
 8226SOL    HW225578   2.852   0.443   0.812
 8227SOL     OW25579   0.095   1.417   2.389
 8227SOL    HW125580   0.092   1.491   2.456
 8227SOL    HW225581   0.157   1.441   2.315
 8228SOL     OW25582   0.554   1.565   5.915
 8228SOL    HW125583   0.475   1.612   5.874
 8228SOL    HW225584   0.634   1.625   5.909
 8229SOL     OW25585   4.548   4.431   0.902
 8229SOL    HW125586   4.568   4.335   0.920
 8229SOL    HW225587   4.634   4.481   0.887
 8230SOL     OW25588   3.868   6.562   5.872
 8230SOL    HW125589   3.802   6.541   5.944
 8230SOL    HW225590   3.872   6.661   5.859
 8231SOL     OW25591   3.443   1.819   2.209
 8231SOL    HW125592   3.376   1.879   2.165
 8231SOL    HW225593   3.525   1.871   2.232
 8232SOL     OW25594   5.160   1.835   2.609
 8232SOL    HW125595   5.207   1.747   2.611
 8232SOL    HW225596   5.090   1.837   2.680
 8233SOL     OW25597   1.119   0.140   5.937
 8233SOL    HW125598   1.131   0.065   5.872
 8233SOL    HW225599   1.123   0.227   5.890
 8234SOL     OW25600   3.238   3.173   0.119
 8234SOL    HW125601   3.278   3.188   0.210
 8234SOL    HW225602   3.211   3.260   0.080
 8235SOL     OW25603   0.658   3.777   0.146
 8235SOL    HW125604   0.608   3.764   0.060
 8235SOL    HW225605   0.654   3.694   0.201
 8236SOL     OW25606   0.519   5.206   6.064
 8236SOL    HW125607   0.545   5.264   6.141
 8236SOL    HW225608   0.526   5.258   5.979
 8237SOL     OW25609   4.778   6.147   5.911
 8237SOL    HW125610   4.712   6.097   5.967
 8237SOL    HW225611   4.741   6.160   5.819
 8238SOL     OW25612   0.542   5.701   6.816
 8238SOL    HW125613   0.528   5.785   6.869
 8238SOL    HW225614   0.463   5.686   6.757
 8239SOL     OW25615   0.365   1.169   5.228
 8239SOL    HW125616   0.336   1.104   5.158
 8239SOL    HW225617   0.284   1.213   5.267
 8240SOL     OW25618   2.971   3.689   2.585
 8240SOL    HW125619   2.999   3.775   2.542
 8240SOL    HW225620   2.967   3.701   2.685
 8241SOL     OW25621   2.180   4.223   6.388
 8241SOL    HW125622   2.190   4.246   6.291
 8241SOL    HW225623   2.094   4.173   6.401
 8242SOL     OW25624   1.109   3.559   5.076
 8242SOL    HW125625   1.206   3.547   5.056
 8242SOL    HW225626   1.080   3.650   5.045
 8243SOL     OW25627   0.254   4.488   0.068
 8243SOL    HW125628   0.174   4.547   0.059
 8243SOL    HW225629   0.336   4.544   0.076
 8244SOL     OW25630   0.728   0.269   4.063
 8244SOL    HW125631   0.791   0.206   4.018
 8244SOL    HW225632   0.635   0.254   4.030
 8245SOL     OW25633   3.741   1.847   3.724
 8245SOL    HW125634   3.707   1.940   3.707
 8245SOL    HW225635   3.832   1.837   3.684
 8246SOL     OW25636   0.813   4.476   6.200
 8246SOL    HW125637   0.865   4.548   6.153
 8246SOL    HW225638   0.783   4.509   6.289
 8247SOL     OW25639   2.744   5.939   3.816
 8247SOL    HW125640   2.676   6.004   3.784
 8247SOL    HW225641   2.828   5.949   3.762
 8248SOL     OW25642   0.671   5.498   5.273
 8248SOL    HW125643   0.580   5.520   5.310
 8248SOL    HW225644   0.688   5.556   5.192
 8249SOL     OW25645   2.635   1.488   5.266
 8249SOL    HW125646   2.678   1.574   5.239
 8249SOL    HW225647   2.680   1.412   5.219
 8250SOL     OW25648   2.835   1.976   0.888
 8250SOL    HW125649   2.876   2.067   0.888
 8250SOL    HW225650   2.736   1.983   0.900
 8251SOL     OW25651   5.874   1.190   3.913
 8251SOL    HW125652   5.841   1.284   3.902
 8251SOL    HW225653   5.810   1.127   3.870
 8252SOL     OW25654   3.372   1.856   0.373
 8252SOL    HW125655   3.411   1.902   0.453
 8252SOL    HW225656   3.382   1.914   0.293
 8253SOL     OW25657   3.852   5.902   6.819
 8253SOL    HW125658   3.822   5.842   6.745
 8253SOL    HW225659   3.947   5.882   6.843
 8254SOL     OW25660   5.602   4.818   5.868
 8254SOL    HW125661   5.592   4.846   5.773
 8254SOL    HW225662   5.663   4.739   5.873
 8255SOL     OW25663   1.206   7.011   6.196
 8255SOL    HW125664   1.147   0.042   6.135
 8255SOL    HW225665   1.153   6.980   6.275
 8256SOL     OW25666   6.303   0.276   3.235
 8256SOL    HW125667   6.401   0.297   3.233
 8256SOL    HW225668   6.252   0.351   3.192
 8257SOL     OW25669   5.927   4.719   4.219
 8257SOL    HW125670   5.869   4.783   4.268
 8257SOL    HW225671   6.013   4.764   4.193
 8258SOL     OW25672   5.362   2.860   1.889
 8258SOL    HW125673   5.279   2.805   1.877
 8258SOL    HW225674   5.410   2.829   1.971
 8259SOL     OW25675   3.987   1.857   5.014
 8259SOL    HW125676   4.043   1.796   4.957
 8259SOL    HW225677   4.012   1.847   5.110
 8260SOL     OW25678   2.139   6.209   1.156
 8260SOL    HW125679   2.070   6.247   1.217
 8260SOL    HW225680   2.229   6.244   1.182
 8261SOL     OW25681   5.179   6.398   3.136
 8261SOL    HW125682   5.217   6.325   3.079
 8261SOL    HW225683   5.081   6.384   3.146
 8262SOL     OW25684   0.829   4.833   0.418
 8262SOL    HW125685   0.761   4.889   0.465
 8262SOL    HW225686   0.830   4.741   0.459
 8263SOL     OW25687   6.638   3.073   6.861
 8263SOL    HW125688   6.720   3.105   6.909
 8263SOL    HW225689   6.559   3.078   6.922
 8264SOL     OW25690   1.297   6.898   1.496
 8264SOL    HW125691   1.292   6.831   1.422
 8264SOL    HW225692   1.348   6.978   1.465
 8265SOL     OW25693   4.478   0.539   1.612
 8265SOL    HW125694   4.570   0.576   1.619
 8265SOL    HW225695   4.477   0.444   1.645
 8266SOL     OW25696   3.081   0.466   4.896
 8266SOL    HW125697   3.168   0.454   4.848
 8266SOL    HW225698   3.090   0.433   4.990
 8267SOL     OW25699   1.642   5.015   1.806
 8267SOL    HW125700   1.578   4.944   1.776
 8267SOL    HW225701   1.606   5.105   1.781
 8268SOL     OW25702   2.754   4.501   5.627
 8268SOL    HW125703   2.783   4.461   5.539
 8268SOL    HW225704   2.717   4.429   5.685
 8269SOL     OW25705   4.397   2.415   3.085
 8269SOL    HW125706   4.341   2.398   3.166
 8269SOL    HW225707   4.472   2.477   3.109
 8270SOL     OW25708   3.020   5.572   6.115
 8270SOL    HW125709   3.033   5.512   6.036
 8270SOL    HW225710   2.973   5.523   6.188
 8271SOL     OW25711   6.799   6.645   3.645
 8271SOL    HW125712   6.741   6.606   3.574
 8271SOL    HW225713   6.883   6.681   3.604
 8272SOL     OW25714   0.607   0.886   2.886
 8272SOL    HW125715   0.596   0.786   2.884
 8272SOL    HW225716   0.556   0.926   2.810
 8273SOL     OW25717   3.068   1.026   0.106
 8273SOL    HW125718   2.970   1.038   0.093
 8273SOL    HW225719   3.084   0.980   0.194
 8274SOL     OW25720   4.147   4.355   6.584
 8274SOL    HW125721   4.238   4.325   6.558
 8274SOL    HW225722   4.101   4.398   6.506
 8275SOL     OW25723   5.465   0.285   4.535
 8275SOL    HW125724   5.452   0.375   4.577
 8275SOL    HW225725   5.561   0.275   4.507
 8276SOL     OW25726   6.450   2.160   5.578
 8276SOL    HW125727   6.367   2.103   5.586
 8276SOL    HW225728   6.497   2.164   5.666
 8277SOL     OW25729   2.626   6.025   5.068
 8277SOL    HW125730   2.577   6.099   5.024
 8277SOL    HW225731   2.601   6.022   5.165
 8278SOL     OW25732   2.687   1.307   6.724
 8278SOL    HW125733   2.753   1.311   6.649
 8278SOL    HW225734   2.716   1.368   6.797
 8279SOL     OW25735   5.875   5.417   6.155
 8279SOL    HW125736   5.820   5.442   6.234
 8279SOL    HW225737   5.972   5.418   6.180
 8280SOL     OW25738   4.771   2.534   0.465
 8280SOL    HW125739   4.687   2.554   0.516
 8280SOL    HW225740   4.811   2.449   0.500
 8281SOL     OW25741   1.930   4.646   1.216
 8281SOL    HW125742   1.923   4.625   1.118
 8281SOL    HW225743   1.864   4.718   1.239
 8282SOL     OW25744   3.052   2.925   0.416
 8282SOL    HW125745   2.967   2.872   0.408
 8282SOL    HW225746   3.096   2.930   0.327
 8283SOL     OW25747   0.489   4.833   3.744
 8283SOL    HW125748   0.438   4.766   3.691
 8283SOL    HW225749   0.508   4.913   3.688
 8284SOL     OW25750   1.339   3.493   2.396
 8284SOL    HW125751   1.344   3.558   2.320
 8284SOL    HW225752   1.295   3.409   2.365
 8285SOL     OW25753   3.254   3.041   5.998
 8285SOL    HW125754   3.302   3.088   5.924
 8285SOL    HW225755   3.167   3.086   6.016
 8286SOL     OW25756   5.767   1.760   5.165
 8286SOL    HW125757   5.679   1.796   5.135
 8286SOL    HW225758   5.766   1.744   5.263
 8287SOL     OW25759   1.443   6.617   3.288
 8287SOL    HW125760   1.431   6.573   3.199
 8287SOL    HW225761   1.493   6.703   3.277
 8288SOL     OW25762   1.541   2.206   3.048
 8288SOL    HW125763   1.590   2.145   2.986
 8288SOL    HW225764   1.460   2.242   3.003
 8289SOL     OW25765   6.460   0.771   6.286
 8289SOL    HW125766   6.436   0.798   6.379
 8289SOL    HW225767   6.379   0.735   6.240
 8290SOL     OW25768   4.313   2.682   1.725
 8290SOL    HW125769   4.300   2.684   1.626
 8290SOL    HW225770   4.394   2.735   1.750
 8291SOL     OW25771   5.890   5.830   6.519
 8291SOL    HW125772   5.838   5.782   6.448
 8291SOL    HW225773   5.949   5.764   6.566
 8292SOL     OW25774   2.497   5.425   5.612
 8292SOL    HW125775   2.465   5.344   5.661
 8292SOL    HW225776   2.490   5.409   5.513
 8293SOL     OW25777   1.578   4.350   1.694
 8293SOL    HW125778   1.515   4.358   1.617
 8293SOL    HW225779   1.529   4.313   1.773
 8294SOL     OW25780   6.041   3.421   4.827
 8294SOL    HW125781   5.977   3.427   4.904
 8294SOL    HW225782   6.050   3.325   4.799
 8295SOL     OW25783   5.347   3.665   2.678
 8295SOL    HW125784   5.326   3.589   2.740
 8295SOL    HW225785   5.364   3.630   2.586
 8296SOL     OW25786   3.780   5.165   6.501
 8296SOL    HW125787   3.700   5.178   6.443
 8296SOL    HW225788   3.796   5.067   6.516
 8297SOL     OW25789   6.578   3.714   2.402
 8297SOL    HW125790   6.629   3.643   2.354
 8297SOL    HW225791   6.487   3.680   2.426
 8298SOL     OW25792   7.019   0.429   6.224
 8298SOL    HW125793   0.061   0.382   6.283
 8298SOL    HW225794   7.001   0.521   6.259
 8299SOL     OW25795   0.575   3.279   1.032
 8299SOL    HW125796   0.534   3.248   1.118
 8299SOL    HW225797   0.502   3.297   0.966
 8300SOL     OW25798   6.110   6.768   4.624
 8300SOL    HW125799   6.105   6.703   4.699
 8300SOL    HW225800   6.077   6.858   4.655
 8301SOL     OW25801   4.712   0.103   6.741
 8301SOL    HW125802   4.697   0.043   6.820
 8301SOL    HW225803   4.645   0.082   6.670
 8302SOL     OW25804   3.828   6.858   5.770
 8302SOL    HW125805   3.738   6.883   5.733
 8302SOL    HW225806   3.895   6.857   5.697
 8303SOL     OW25807   0.044   0.227   3.101
 8303SOL    HW125808   6.981   0.237   3.053
 8303SOL    HW225809   0.071   0.316   3.140
 8304SOL     OW25810   5.548   4.713   2.077
 8304SOL    HW125811   5.490   4.699   2.157
 8304SOL    HW225812   5.562   4.811   2.063
 8305SOL     OW25813   4.225   5.145   3.578
 8305SOL    HW125814   4.274   5.232   3.582
 8305SOL    HW225815   4.289   5.072   3.555
 8306SOL     OW25816   6.580   1.368   2.878
 8306SOL    HW125817   6.649   1.297   2.869
 8306SOL    HW225818   6.571   1.418   2.792
 8307SOL     OW25819   2.864   5.202   1.574
 8307SOL    HW125820   2.805   5.178   1.651
 8307SOL    HW225821   2.812   5.196   1.489
 8308SOL     OW25822   2.048   4.793   0.472
 8308SOL    HW125823   1.996   4.860   0.420
 8308SOL    HW225824   2.100   4.735   0.410
 8309SOL     OW25825   6.285   4.618   3.987
 8309SOL    HW125826   6.218   4.588   3.920
 8309SOL    HW225827   6.355   4.547   3.998
 8310SOL     OW25828   0.974   5.378   0.213
 8310SOL    HW125829   0.996   5.457   0.270
 8310SOL    HW225830   0.877   5.357   0.220
 8311SOL     OW25831   4.791   0.182   4.750
 8311SOL    HW125832   4.732   0.242   4.696
 8311SOL    HW225833   4.820   0.230   4.833
 8312SOL     OW25834   5.547   0.921   0.745
 8312SOL    HW125835   5.562   0.910   0.647
 8312SOL    HW225836   5.462   0.971   0.761
 8313SOL     OW25837   4.343   0.068   5.728
 8313SOL    HW125838   4.364   0.162   5.757
 8313SOL    HW225839   4.249   0.064   5.695
 8314SOL     OW25840   5.934   6.711   6.649
 8314SOL    HW125841   5.954   6.702   6.747
 8314SOL    HW225842   5.908   6.805   6.629
 8315SOL     OW25843   3.783   3.646   3.311
 8315SOL    HW125844   3.689   3.655   3.345
 8315SOL    HW225845   3.846   3.638   3.389
 8316SOL     OW25846   1.866   3.382   0.069
 8316SOL    HW125847   1.860   3.469   0.019
 8316SOL    HW225848   1.774   3.354   0.098
 8317SOL     OW25849   2.884   1.843   4.456
 8317SOL    HW125850   2.963   1.803   4.504
 8317SOL    HW225851   2.828   1.770   4.418
 8318SOL     OW25852   5.042   1.181   5.964
 8318SOL    HW125853   5.015   1.115   6.034
 8318SOL    HW225854   4.972   1.185   5.893
 8319SOL     OW25855   1.794   6.915   6.571
 8319SOL    HW125856   1.791   7.013   6.591
 8319SOL    HW225857   1.889   6.882   6.575
 8320SOL     OW25858   3.810   3.647   3.713
 8320SOL    HW125859   3.713   3.674   3.714
 8320SOL    HW225860   3.821   3.569   3.652
 8321SOL     OW25861   0.241   0.079   5.915
 8321SOL    HW125862   0.316   0.052   5.975
 8321SOL    HW225863   0.274   0.144   5.846
 8322SOL     OW25864   0.138   1.102   0.250
 8322SOL    HW125865   0.165   1.014   0.290
 8322SOL    HW225866   0.214   1.140   0.198
 8323SOL     OW25867   4.024   4.484   1.034
 8323SOL    HW125868   4.081   4.417   1.082
 8323SOL    HW225869   3.952   4.436   0.984
 8324SOL     OW25870   5.677   0.545   0.346
 8324SOL    HW125871   5.679   0.500   0.257
 8324SOL    HW225872   5.769   0.577   0.370
 8325SOL     OW25873   1.077   4.134   4.829
 8325SOL    HW125874   1.048   4.229   4.820
 8325SOL    HW225875   1.071   4.089   4.740
 8326SOL     OW25876   4.490   3.719   0.075
 8326SOL    HW125877   4.435   3.722   7.015
 8326SOL    HW225878   4.437   3.759   0.150
 8327SOL     OW25879   0.929   0.214   5.442
 8327SOL    HW125880   0.956   0.295   5.493
 8327SOL    HW225881   0.895   0.145   5.506
 8328SOL     OW25882   1.691   6.835   5.466
 8328SOL    HW125883   1.785   6.808   5.444
 8328SOL    HW225884   1.643   6.858   5.381
 8329SOL     OW25885   0.428   2.702   5.083
 8329SOL    HW125886   0.383   2.754   5.011
 8329SOL    HW225887   0.526   2.722   5.082
 8330SOL     OW25888   3.829   1.533   6.650
 8330SOL    HW125889   3.787   1.451   6.689
 8330SOL    HW225890   3.801   1.543   6.554
 8331SOL     OW25891   3.047   1.226   0.459
 8331SOL    HW125892   3.092   1.223   0.370
 8331SOL    HW225893   3.040   1.321   0.490
 8332SOL     OW25894   5.535   5.768   2.448
 8332SOL    HW125895   5.581   5.683   2.420
 8332SOL    HW225896   5.549   5.839   2.379
 8333SOL     OW25897   2.302   5.260   0.049
 8333SOL    HW125898   2.323   5.181   0.107
 8333SOL    HW225899   2.351   5.252   6.986
 8334SOL     OW25900   2.293   2.586   6.469
 8334SOL    HW125901   2.238   2.652   6.418
 8334SOL    HW225902   2.356   2.635   6.529
 8335SOL     OW25903   4.664   2.799   6.842
 8335SOL    HW125904   4.663   2.702   6.866
 8335SOL    HW225905   4.570   2.834   6.838
 8336SOL     OW25906   1.171   3.531   3.471
 8336SOL    HW125907   1.183   3.528   3.570
 8336SOL    HW225908   1.253   3.569   3.428
 8337SOL     OW25909   0.999   6.778   4.332
 8337SOL    HW125910   1.037   6.776   4.240
 8337SOL    HW225911   0.900   6.797   4.327
 8338SOL     OW25912   3.718   5.544   1.977
 8338SOL    HW125913   3.779   5.512   2.049
 8338SOL    HW225914   3.704   5.643   1.987
 8339SOL     OW25915   0.178   0.966   1.643
 8339SOL    HW125916   0.175   0.988   1.545
 8339SOL    HW225917   0.249   1.021   1.687
 8340SOL     OW25918   4.797   4.144   0.781
 8340SOL    HW125919   4.861   4.175   0.711
 8340SOL    HW225920   4.802   4.205   0.860
 8341SOL     OW25921   3.636   0.652   7.000
 8341SOL    HW125922   3.626   0.577   6.934
 8341SOL    HW225923   3.724   0.698   6.983
 8342SOL     OW25924   4.065   7.014   0.125
 8342SOL    HW125925   4.127   6.947   0.165
 8342SOL    HW225926   3.973   6.977   0.121
 8343SOL     OW25927   6.076   5.809   3.793
 8343SOL    HW125928   6.117   5.740   3.853
 8343SOL    HW225929   6.006   5.859   3.843
 8344SOL     OW25930   0.114   5.190   4.869
 8344SOL    HW125931   0.208   5.224   4.863
 8344SOL    HW225932   0.059   5.254   4.922
 8345SOL     OW25933   4.946   1.719   3.545
 8345SOL    HW125934   4.855   1.704   3.506
 8345SOL    HW225935   4.940   1.788   3.617
 8346SOL     OW25936   3.663   3.236   6.212
 8346SOL    HW125937   3.596   3.230   6.138
 8346SOL    HW225938   3.625   3.291   6.287
 8347SOL     OW25939   3.647   6.428   6.354
 8347SOL    HW125940   3.641   6.330   6.335
 8347SOL    HW225941   3.643   6.443   6.452
 8348SOL     OW25942   2.707   6.668   0.968
 8348SOL    HW125943   2.672   6.631   0.882
 8348SOL    HW225944   2.650   6.745   0.997
 8349SOL     OW25945   0.915   6.584   1.450
 8349SOL    HW125946   0.908   6.659   1.385
 8349SOL    HW225947   1.011   6.557   1.461
 8350SOL     OW25948   2.642   6.088   6.053
 8350SOL    HW125949   2.700   6.006   6.048
 8350SOL    HW225950   2.684   6.155   6.113
 8351SOL     OW25951   5.378   5.226   3.345
 8351SOL    HW125952   5.425   5.275   3.272
 8351SOL    HW225953   5.434   5.229   3.428
 8352SOL     OW25954   1.849   6.692   2.808
 8352SOL    HW125955   1.800   6.605   2.803
 8352SOL    HW225956   1.805   6.751   2.876
 8353SOL     OW25957   1.214   4.015   1.580
 8353SOL    HW125958   1.169   4.026   1.491
 8353SOL    HW225959   1.175   4.079   1.646
 8354SOL     OW25960   3.794   6.240   3.956
 8354SOL    HW125961   3.806   6.255   4.054
 8354SOL    HW225962   3.814   6.325   3.907
 8355SOL     OW25963   2.210   0.933   5.962
 8355SOL    HW125964   2.294   0.894   5.924
 8355SOL    HW225965   2.132   0.899   5.911
 8356SOL     OW25966   0.908   5.582   1.154
 8356SOL    HW125967   0.812   5.572   1.178
 8356SOL    HW225968   0.946   5.662   1.199
 8357SOL     OW25969   3.984   5.435   5.702
 8357SOL    HW125970   4.081   5.427   5.679
 8357SOL    HW225971   3.973   5.429   5.801
 8358SOL     OW25972   0.856   3.039   4.909
 8358SOL    HW125973   0.904   2.981   4.844
 8358SOL    HW225974   0.921   3.102   4.952
 8359SOL     OW25975   2.412   1.246   4.584
 8359SOL    HW125976   2.322   1.227   4.623
 8359SOL    HW225977   2.462   1.307   4.645
 8360SOL     OW25978   4.590   6.769   1.111
 8360SOL    HW125979   4.555   6.812   1.028
 8360SOL    HW225980   4.673   6.718   1.090
 8361SOL     OW25981   2.847   0.189   6.889
 8361SOL    HW125982   2.872   0.200   6.985
 8361SOL    HW225983   2.883   0.266   6.837
 8362SOL     OW25984   5.635   2.179   1.032
 8362SOL    HW125985   5.565   2.147   0.968
 8362SOL    HW225986   5.608   2.267   1.071
 8363SOL     OW25987   4.676   1.561   1.097
 8363SOL    HW125988   4.645   1.598   1.184
 8363SOL    HW225989   4.718   1.471   1.112
 8364SOL     OW25990   0.664   3.290   3.473
 8364SOL    HW125991   0.676   3.192   3.459
 8364SOL    HW225992   0.636   3.307   3.567
 8365SOL     OW25993   1.952   1.944   2.779
 8365SOL    HW125994   1.902   1.865   2.814
 8365SOL    HW225995   2.047   1.941   2.811
 8366SOL     OW25996   3.517   5.251   1.102
 8366SOL    HW125997   3.462   5.319   1.150
 8366SOL    HW225998   3.614   5.271   1.117
 8367SOL     OW25999   3.421   5.103   5.138
 8367SOL    HW126000   3.373   5.016   5.129
 8367SOL    HW226001   3.443   5.119   5.235
 8368SOL     OW26002   0.871   5.955   6.975
 8368SOL    HW126003   0.847   5.891   0.024
 8368SOL    HW226004   0.970   5.968   6.972
 8369SOL     OW26005   0.644   1.349   0.054
 8369SOL    HW126006   0.727   1.382   0.098
 8369SOL    HW226007   0.653   1.251   0.037
 8370SOL     OW26008   2.208   0.853   6.480
 8370SOL    HW126009   2.123   0.904   6.470
 8370SOL    HW226010   2.187   0.760   6.513
 8371SOL     OW26011   1.872   3.656   6.141
 8371SOL    HW126012   1.937   3.699   6.204
 8371SOL    HW226013   1.898   3.561   6.127
 8372SOL     OW26014   1.607   5.431   2.050
 8372SOL    HW126015   1.550   5.357   2.014
 8372SOL    HW226016   1.681   5.393   2.105
 8373SOL     OW26017   1.794   1.179   4.793
 8373SOL    HW126018   1.812   1.197   4.890
 8373SOL    HW226019   1.756   1.262   4.751
 8374SOL     OW26020   0.397   0.969   4.552
 8374SOL    HW126021   0.301   0.994   4.570
 8374SOL    HW226022   0.412   0.875   4.584
 8375SOL     OW26023   3.742   0.575   6.096
 8375SOL    HW126024   3.813   0.593   6.163
 8375SOL    HW226025   3.654   0.562   6.143
 8376SOL     OW26026   1.401   1.441   3.857
 8376SOL    HW126027   1.445   1.530   3.848
 8376SOL    HW226028   1.417   1.404   3.948
 8377SOL     OW26029   6.114   5.801   0.286
 8377SOL    HW126030   6.082   5.724   0.231
 8377SOL    HW226031   6.094   5.783   0.382
 8378SOL     OW26032   4.070   4.780   3.545
 8378SOL    HW126033   4.143   4.749   3.483
 8378SOL    HW226034   3.981   4.770   3.499
 8379SOL     OW26035   4.615   2.219   1.972
 8379SOL    HW126036   4.648   2.282   1.902
 8379SOL    HW226037   4.546   2.265   2.029
 8380SOL     OW26038   0.446   6.370   6.828
 8380SOL    HW126039   0.422   6.302   6.898
 8380SOL    HW226040   0.421   6.461   6.861
 8381SOL     OW26041   6.982   2.696   3.494
 8381SOL    HW126042   6.974   2.690   3.394
 8381SOL    HW226043   0.050   2.667   3.522
 8382SOL     OW26044   2.020   6.906   0.747
 8382SOL    HW126045   2.118   6.885   0.740
 8382SOL    HW226046   2.006   7.005   0.739
 8383SOL     OW26047   2.259   0.369   5.414
 8383SOL    HW126048   2.211   0.307   5.476
 8383SOL    HW226049   2.264   0.329   5.323
 8384SOL     OW26050   0.127   1.365   0.011
 8384SOL    HW126051   0.064   1.346   6.959
 8384SOL    HW226052   0.115   1.460   0.041
 8385SOL     OW26053   4.480   2.237   0.974
 8385SOL    HW126054   4.482   2.138   0.961
 8385SOL    HW226055   4.422   2.260   1.053
 8386SOL     OW26056   1.850   5.898   1.141
 8386SOL    HW126057   1.843   5.807   1.180
 8386SOL    HW226058   1.853   5.891   1.041
 8387SOL     OW26059   1.748   1.671   1.224
 8387SOL    HW126060   1.825   1.647   1.283
 8387SOL    HW226061   1.677   1.601   1.232
 8388SOL     OW26062   1.104   0.054   0.662
 8388SOL    HW126063   1.089   0.151   0.641
 8388SOL    HW226064   1.103   0.001   0.577
 8389SOL     OW26065   0.739   3.334   4.012
 8389SOL    HW126066   0.799   3.317   4.090
 8389SOL    HW226067   0.779   3.294   3.929
 8390SOL     OW26068   4.217   0.192   6.653
 8390SOL    HW126069   4.227   0.144   6.740
 8390SOL    HW226070   4.234   0.289   6.667
 8391SOL     OW26071   4.757   4.986   1.416
 8391SOL    HW126072   4.750   4.888   1.431
 8391SOL    HW226073   4.800   5.004   1.328
 8392SOL     OW26074   6.757   5.441   5.809
 8392SOL    HW126075   6.664   5.463   5.779
 8392SOL    HW226076   6.808   5.526   5.822
 8393SOL     OW26077   0.080   0.180   4.150
 8393SOL    HW126078   0.017   0.128   4.092
 8393SOL    HW226079   0.161   0.123   4.170
 8394SOL     OW26080   6.669   2.555   1.612
 8394SOL    HW126081   6.756   2.604   1.610
 8394SOL    HW226082   6.684   2.458   1.593
 8395SOL     OW26083   1.884   6.604   3.776
 8395SOL    HW126084   1.906   6.556   3.862
 8395SOL    HW226085   1.904   6.544   3.699
 8396SOL     OW26086   4.533   4.490   2.148
 8396SOL    HW126087   4.601   4.471   2.219
 8396SOL    HW226088   4.521   4.409   2.090
 8397SOL     OW26089   2.793   0.341   2.854
 8397SOL    HW126090   2.795   0.271   2.927
 8397SOL    HW226091   2.740   0.306   2.777
 8398SOL     OW26092   4.143   1.982   6.314
 8398SOL    HW126093   4.056   1.976   6.363
 8398SOL    HW226094   4.153   2.074   6.277
 8399SOL     OW26095   6.210   0.033   0.209
 8399SOL    HW126096   6.128   0.061   0.159
 8399SOL    HW226097   6.279   0.105   0.201
 8400SOL     OW26098   1.200   0.300   3.578
 8400SOL    HW126099   1.208   0.389   3.624
 8400SOL    HW226100   1.282   0.246   3.596
 8401SOL     OW26101   3.432   2.571   6.522
 8401SOL    HW126102   3.354   2.515   6.495
 8401SOL    HW226103   3.401   2.661   6.550
 8402SOL     OW26104   3.731   2.087   5.672
 8402SOL    HW126105   3.823   2.110   5.638
 8402SOL    HW226106   3.719   2.126   5.763
 8403SOL     OW26107   0.538   2.373   3.281
 8403SOL    HW126108   0.572   2.403   3.192
 8403SOL    HW226109   0.595   2.412   3.354
 8404SOL     OW26110   5.467   5.631   6.863
 8404SOL    HW126111   5.510   5.720   6.871
 8404SOL    HW226112   5.519   5.574   6.798
 8405SOL     OW26113   1.860   1.112   6.664
 8405SOL    HW126114   1.823   1.164   6.741
 8405SOL    HW226115   1.786   1.087   6.602
 8406SOL     OW26116   4.303   0.453   0.744
 8406SOL    HW126117   4.354   0.446   0.659
 8406SOL    HW226118   4.365   0.474   0.819
 8407SOL     OW26119   5.659   6.145   3.831
 8407SOL    HW126120   5.704   6.229   3.859
 8407SOL    HW226121   5.565   6.144   3.865
 8408SOL     OW26122   4.852   2.046   3.124
 8408SOL    HW126123   4.945   2.020   3.151
 8408SOL    HW226124   4.795   1.964   3.115
 8409SOL     OW26125   5.987   2.925   3.116
 8409SOL    HW126126   6.078   2.888   3.133
 8409SOL    HW226127   5.925   2.850   3.093
 8410SOL     OW26128   4.527   0.343   1.390
 8410SOL    HW126129   4.457   0.415   1.393
 8410SOL    HW226130   4.483   0.254   1.376
 8411SOL     OW26131   1.287   5.966   4.968
 8411SOL    HW126132   1.226   6.044   4.981
 8411SOL    HW226133   1.296   5.916   5.054
 8412SOL     OW26134   4.375   1.760   1.788
 8412SOL    HW126135   4.336   1.726   1.703
 8412SOL    HW226136   4.410   1.853   1.774
 8413SOL     OW26137   5.044   4.632   0.892
 8413SOL    HW126138   5.111   4.563   0.921
 8413SOL    HW226139   5.019   4.689   0.971
 8414SOL     OW26140   4.588   6.586   2.519
 8414SOL    HW126141   4.536   6.510   2.559
 8414SOL    HW226142   4.656   6.618   2.585
 8415SOL     OW26143   6.724   5.403   4.192
 8415SOL    HW126144   6.703   5.313   4.231
 8415SOL    HW226145   6.639   5.450   4.169
 8416SOL     OW26146   5.366   4.515   3.502
 8416SOL    HW126147   5.301   4.591   3.496
 8416SOL    HW226148   5.320   4.429   3.481
 8417SOL     OW26149   1.349   5.239   5.540
 8417SOL    HW126150   1.447   5.233   5.556
 8417SOL    HW226151   1.328   5.327   5.497
 8418SOL     OW26152   5.906   5.589   1.825
 8418SOL    HW126153   5.861   5.504   1.798
 8418SOL    HW226154   5.947   5.578   1.916
 8419SOL     OW26155   4.648   1.046   2.186
 8419SOL    HW126156   4.747   1.045   2.174
 8419SOL    HW226157   4.608   1.119   2.130
 8420SOL     OW26158   4.121   0.509   0.973
 8420SOL    HW126159   4.024   0.486   0.960
 8420SOL    HW226160   4.174   0.465   0.900
 8421SOL     OW26161   2.397   6.404   0.952
 8421SOL    HW126162   2.491   6.418   0.980
 8421SOL    HW226163   2.386   6.313   0.912
 8422SOL     OW26164   4.694   6.892   1.575
 8422SOL    HW126165   4.640   6.970   1.607
 8422SOL    HW226166   4.715   6.903   1.478
 8423SOL     OW26167   4.127   3.913   5.670
 8423SOL    HW126168   4.046   3.958   5.708
 8423SOL    HW226169   4.201   3.916   5.737
 8424SOL     OW26170   2.207   2.889   2.879
 8424SOL    HW126171   2.256   2.853   2.957
 8424SOL    HW226172   2.211   2.824   2.803
 8425SOL     OW26173   5.506   5.927   1.199
 8425SOL    HW126174   5.450   5.889   1.273
 8425SOL    HW226175   5.485   6.024   1.188
 8426SOL     OW26176   3.343   2.892   4.399
 8426SOL    HW126177   3.332   2.806   4.350
 8426SOL    HW226178   3.254   2.937   4.408
 8427SOL     OW26179   2.573   3.543   5.760
 8427SOL    HW126180   2.568   3.520   5.663
 8427SOL    HW226181   2.600   3.463   5.812
 8428SOL     OW26182   6.699   4.100   2.008
 8428SOL    HW126183   6.743   4.023   2.054
 8428SOL    HW226184   6.760   4.137   1.938
 8429SOL     OW26185   2.140   4.772   3.588
 8429SOL    HW126186   2.212   4.703   3.587
 8429SOL    HW226187   2.177   4.859   3.555
 8430SOL     OW26188   4.264   5.782   3.664
 8430SOL    HW126189   4.243   5.694   3.621
 8430SOL    HW226190   4.237   5.779   3.760
 8431SOL     OW26191   3.086   5.142   0.600
 8431SOL    HW126192   3.126   5.055   0.572
 8431SOL    HW226193   3.051   5.190   0.520
 8432SOL     OW26194   4.948   6.386   5.309
 8432SOL    HW126195   4.850   6.394   5.290
 8432SOL    HW226196   4.969   6.432   5.395
 8433SOL     OW26197   6.636   2.541   6.848
 8433SOL    HW126198   6.732   2.559   6.867
 8433SOL    HW226199   6.605   2.461   6.900
 8434SOL     OW26200   3.119   6.508   5.193
 8434SOL    HW126201   3.038   6.564   5.175
 8434SOL    HW226202   3.090   6.419   5.230
 8435SOL     OW26203   4.986   0.503   0.970
 8435SOL    HW126204   4.946   0.432   1.027
 8435SOL    HW226205   5.063   0.545   1.018
 8436SOL     OW26206   3.218   6.714   4.320
 8436SOL    HW126207   3.266   6.762   4.394
 8436SOL    HW226208   3.214   6.773   4.239
 8437SOL     OW26209   2.128   0.045   2.877
 8437SOL    HW126210   2.159   0.140   2.869
 8437SOL    HW226211   2.112   0.023   2.973
 8438SOL     OW26212   2.853   5.016   2.352
 8438SOL    HW126213   2.757   5.015   2.382
 8438SOL    HW226214   2.886   4.922   2.343
 8439SOL     OW26215   6.878   5.557   1.092
 8439SOL    HW126216   6.929   5.552   1.177
 8439SOL    HW226217   6.936   5.527   1.016
 8440SOL     OW26218   0.277   1.270   3.673
 8440SOL    HW126219   0.178   1.274   3.661
 8440SOL    HW226220   0.299   1.290   3.769
 8441SOL     OW26221   6.546   6.994   0.074
 8441SOL    HW126222   6.608   6.978   0.151
 8441SOL    HW226223   6.560   0.063   0.038
 8442SOL     OW26224   3.649   2.621   6.097
 8442SOL    HW126225   3.610   2.697   6.045
 8442SOL    HW226226   3.646   2.642   6.194
 8443SOL     OW26227   1.242   6.674   3.452
 8443SOL    HW126228   1.321   6.628   3.412
 8443SOL    HW226229   1.256   6.773   3.451
 8444SOL     OW26230   3.753   5.907   3.657
 8444SOL    HW126231   3.654   5.893   3.651
 8444SOL    HW226232   3.784   5.961   3.580
 8445SOL     OW26233   3.121   5.270   1.972
 8445SOL    HW126234   3.145   5.212   2.049
 8445SOL    HW226235   3.186   5.255   1.897
 8446SOL     OW26236   4.533   4.734   0.976
 8446SOL    HW126237   4.442   4.699   0.953
 8446SOL    HW226238   4.525   4.829   1.007
 8447SOL     OW26239   5.560   2.012   2.185
 8447SOL    HW126240   5.601   2.098   2.214
 8447SOL    HW226241   5.460   2.020   2.190
 8448SOL     OW26242   5.996   4.747   4.622
 8448SOL    HW126243   6.006   4.786   4.713
 8448SOL    HW226244   6.032   4.654   4.621
 8449SOL     OW26245   6.701   2.893   4.350
 8449SOL    HW126246   6.759   2.938   4.282
 8449SOL    HW226247   6.717   2.933   4.440
 8450SOL     OW26248   1.581   5.672   1.914
 8450SOL    HW126249   1.585   5.603   1.987
 8450SOL    HW226250   1.579   5.763   1.955
 8451SOL     OW26251   4.743   3.174   0.021
 8451SOL    HW126252   4.652   3.159   7.007
 8451SOL    HW226253   4.795   3.088   0.017
 8452SOL     OW26254   0.347   0.582   1.805
 8452SOL    HW126255   0.310   0.646   1.738
 8452SOL    HW226256   0.276   0.558   1.871
 8453SOL     OW26257   6.380   4.138   6.678
 8453SOL    HW126258   6.475   4.155   6.655
 8453SOL    HW226259   6.329   4.224   6.673
 8454SOL     OW26260   0.652   6.491   0.393
 8454SOL    HW126261   0.594   6.510   0.313
 8454SOL    HW226262   0.610   6.531   0.475
 8455SOL     OW26263   5.437   1.819   1.061
 8455SOL    HW126264   5.518   1.875   1.078
 8455SOL    HW226265   5.426   1.753   1.136
 8456SOL     OW26266   4.745   4.062   2.732
 8456SOL    HW126267   4.683   4.125   2.686
 8456SOL    HW226268   4.704   4.031   2.818
 8457SOL     OW26269   0.116   6.464   5.385
 8457SOL    HW126270   0.175   6.513   5.321
 8457SOL    HW226271   0.169   6.435   5.464
 8458SOL     OW26272   2.413   1.333   6.949
 8458SOL    HW126273   2.416   1.372   6.857
 8458SOL    HW226274   2.363   1.395   7.010
 8459SOL     OW26275   2.948   6.569   1.544
 8459SOL    HW126276   2.934   6.473   1.517
 8459SOL    HW226277   3.041   6.581   1.578
 8460SOL     OW26278   4.398   2.418   5.717
 8460SOL    HW126279   4.490   2.428   5.755
 8460SOL    HW226280   4.331   2.457   5.780
 8461SOL     OW26281   0.514   4.057   2.281
 8461SOL    HW126282   0.555   3.984   2.335
 8461SOL    HW226283   0.492   4.023   2.189
 8462SOL     OW26284   3.849   2.327   0.245
 8462SOL    HW126285   3.870   2.354   0.152
 8462SOL    HW226286   3.934   2.314   0.297
 8463SOL     OW26287   6.729   0.723   0.594
 8463SOL    HW126288   6.714   0.809   0.545
 8463SOL    HW226289   6.780   0.741   0.678
 8464SOL     OW26290   6.783   4.058   5.515
 8464SOL    HW126291   6.746   4.115   5.588
 8464SOL    HW226292   6.782   4.109   5.429
 8465SOL     OW26293   2.805   2.618   0.878
 8465SOL    HW126294   2.879   2.614   0.811
 8465SOL    HW226295   2.803   2.533   0.931
 8466SOL     OW26296   6.492   6.662   6.020
 8466SOL    HW126297   6.477   6.761   6.019
 8466SOL    HW226298   6.408   6.616   6.050
 8467SOL     OW26299   3.839   0.609   1.317
 8467SOL    HW126300   3.925   0.607   1.266
 8467SOL    HW226301   3.860   0.609   1.415
 8468SOL     OW26302   4.721   2.527   0.191
 8468SOL    HW126303   4.727   2.527   0.290
 8468SOL    HW226304   4.806   2.562   0.151
 8469SOL     OW26305   2.500   1.734   5.987
 8469SOL    HW126306   2.578   1.719   6.048
 8469SOL    HW226307   2.533   1.761   5.897
 8470SOL     OW26308   0.899   4.874   0.164
 8470SOL    HW126309   0.955   4.957   0.158
 8470SOL    HW226310   0.880   4.853   0.260
 8471SOL     OW26311   3.903   0.535   5.233
 8471SOL    HW126312   3.830   0.519   5.299
 8471SOL    HW226313   3.911   0.456   5.171
 8472SOL     OW26314   5.918   0.387   5.569
 8472SOL    HW126315   5.874   0.473   5.594
 8472SOL    HW226316   6.008   0.406   5.530
 8473SOL     OW26317   6.630   5.662   0.971
 8473SOL    HW126318   6.713   5.611   0.996
 8473SOL    HW226319   6.646   5.711   0.886
 8474SOL     OW26320   3.305   3.704   2.054
 8474SOL    HW126321   3.368   3.778   2.075
 8474SOL    HW226322   3.357   3.619   2.040
 8475SOL     OW26323   6.987   2.781   3.220
 8475SOL    HW126324   6.972   2.848   3.146
 8475SOL    HW226325   0.033   2.816   3.283
 8476SOL     OW26326   6.366   1.485   1.073
 8476SOL    HW126327   6.360   1.575   1.116
 8476SOL    HW226328   6.324   1.489   0.982
 8477SOL     OW26329   4.828   6.649   2.681
 8477SOL    HW126330   4.863   6.566   2.725
 8477SOL    HW226331   4.879   6.667   2.597
 8478SOL     OW26332   1.388   0.378   5.504
 8478SOL    HW126333   1.408   0.376   5.602
 8478SOL    HW226334   1.463   0.337   5.453
 8479SOL     OW26335   1.757   3.600   0.815
 8479SOL    HW126336   1.744   3.612   0.913
 8479SOL    HW226337   1.683   3.544   0.777
 8480SOL     OW26338   4.962   3.041   6.677
 8480SOL    HW126339   4.929   3.132   6.653
 8480SOL    HW226340   4.892   2.973   6.655
 8481SOL     OW26341   4.528   2.659   4.969
 8481SOL    HW126342   4.543   2.734   4.906
 8481SOL    HW226343   4.500   2.577   4.918
 8482SOL     OW26344   4.919   0.072   2.629
 8482SOL    HW126345   4.966   7.011   2.656
 8482SOL    HW226346   4.985   0.146   2.619
 8483SOL     OW26347   3.556   6.191   1.723
 8483SOL    HW126348   3.608   6.268   1.686
 8483SOL    HW226349   3.525   6.213   1.815
 8484SOL     OW26350   6.944   6.210   3.659
 8484SOL    HW126351   6.884   6.139   3.622
 8484SOL    HW226352   6.893   6.267   3.723
 8485SOL     OW26353   3.934   2.398   7.012
 8485SOL    HW126354   3.867   2.467   6.984
 8485SOL    HW226355   3.931   2.322   6.948
 8486SOL     OW26356   2.391   1.414   2.073
 8486SOL    HW126357   2.337   1.498   2.077
 8486SOL    HW226358   2.333   1.339   2.041
 8487SOL     OW26359   5.875   2.299   5.712
 8487SOL    HW126360   5.911   2.298   5.619
 8487SOL    HW226361   5.793   2.357   5.716
 8488SOL     OW26362   5.616   6.566   1.777
 8488SOL    HW126363   5.566   6.644   1.738
 8488SOL    HW226364   5.629   6.581   1.875
 8489SOL     OW26365   6.295   1.783   1.764
 8489SOL    HW126366   6.282   1.844   1.686
 8489SOL    HW226367   6.206   1.758   1.802
 8490SOL     OW26368   3.494   6.789   5.775
 8490SOL    HW126369   3.430   6.864   5.788
 8490SOL    HW226370   3.514   6.747   5.864
 8491SOL     OW26371   2.183   6.168   1.889
 8491SOL    HW126372   2.264   6.185   1.946
 8491SOL    HW226373   2.211   6.156   1.794
 8492SOL     OW26374   5.848   4.813   5.270
 8492SOL    HW126375   5.834   4.898   5.320
 8492SOL    HW226376   5.875   4.833   5.176
 8493SOL     OW26377   2.268   2.575   5.892
 8493SOL    HW126378   2.218   2.489   5.883
 8493SOL    HW226379   2.246   2.617   5.980
 8494SOL     OW26380   4.177   4.995   1.397
 8494SOL    HW126381   4.252   5.060   1.385
 8494SOL    HW226382   4.154   4.989   1.494
 8495SOL     OW26383   6.966   4.788   1.295
 8495SOL    HW126384   6.902   4.730   1.245
 8495SOL    HW226385   7.017   4.733   1.361
 8496SOL     OW26386   1.044   1.846   2.586
 8496SOL    HW126387   0.969   1.891   2.538
 8496SOL    HW226388   1.079   1.906   2.658
 8497SOL     OW26389   7.018   1.352   3.642
 8497SOL    HW126390   6.930   1.316   3.671
 8497SOL    HW226391   0.008   1.335   3.544
 8498SOL     OW26392   6.476   6.067   3.258
 8498SOL    HW126393   6.468   6.115   3.170
 8498SOL    HW226394   6.429   6.120   3.329
 8499SOL     OW26395   2.124   4.188   6.789
 8499SOL    HW126396   2.140   4.169   6.886
 8499SOL    HW226397   2.083   4.108   6.745
 8500SOL     OW26398   1.521   6.253   5.919
 8500SOL    HW126399   1.504   6.331   5.859
 8500SOL    HW226400   1.552   6.175   5.865
 8501SOL     OW26401   6.988   2.924   5.896
 8501SOL    HW126402   0.032   2.852   5.908
 8501SOL    HW226403   0.007   3.003   5.852
 8502SOL     OW26404   0.393   3.014   1.570
 8502SOL    HW126405   0.468   2.994   1.506
 8502SOL    HW226406   0.328   3.076   1.527
 8503SOL     OW26407   0.365   5.319   4.882
 8503SOL    HW126408   0.416   5.307   4.967
 8503SOL    HW226409   0.395   5.403   4.837
 8504SOL     OW26410   2.281   5.316   2.334
 8504SOL    HW126411   2.193   5.270   2.339
 8504SOL    HW226412   2.286   5.370   2.251
 8505SOL     OW26413   6.399   3.758   3.104
 8505SOL    HW126414   6.473   3.799   3.156
 8505SOL    HW226415   6.436   3.711   3.024
 8506SOL     OW26416   1.430   1.224   0.152
 8506SOL    HW126417   1.415   1.315   0.191
 8506SOL    HW226418   1.351   1.166   0.174
 8507SOL     OW26419   3.800   6.507   5.169
 8507SOL    HW126420   3.734   6.560   5.116
 8507SOL    HW226421   3.761   6.418   5.192
 8508SOL     OW26422   5.292   1.886   4.324
 8508SOL    HW126423   5.252   1.948   4.257
 8508SOL    HW226424   5.271   1.919   4.416
 8509SOL     OW26425   4.884   0.501   3.376
 8509SOL    HW126426   4.844   0.453   3.298
 8509SOL    HW226427   4.984   0.496   3.371
 8510SOL     OW26428   6.007   4.314   2.782
 8510SOL    HW126429   6.045   4.222   2.796
 8510SOL    HW226430   6.031   4.372   2.860
 8511SOL     OW26431   6.346   3.587   2.501
 8511SOL    HW126432   6.303   3.673   2.528
 8511SOL    HW226433   6.276   3.517   2.486
 8512SOL     OW26434   2.741   0.831   2.704
 8512SOL    HW126435   2.687   0.913   2.721
 8512SOL    HW226436   2.826   0.856   2.657
 8513SOL     OW26437   6.875   4.846   0.814
 8513SOL    HW126438   6.927   4.900   0.748
 8513SOL    HW226439   6.777   4.858   0.798
 8514SOL     OW26440   1.777   1.534   3.680
 8514SOL    HW126441   1.773   1.609   3.614
 8514SOL    HW226442   1.725   1.559   3.762
 8515SOL     OW26443   5.100   2.369   1.145
 8515SOL    HW126444   5.097   2.468   1.134
 8515SOL    HW226445   5.089   2.345   1.242
 8516SOL     OW26446   0.454   2.072   2.163
 8516SOL    HW126447   0.406   2.101   2.246
 8516SOL    HW226448   0.508   2.149   2.127
 8517SOL     OW26449   0.554   2.909   5.313
 8517SOL    HW126450   0.505   2.956   5.239
 8517SOL    HW226451   0.652   2.919   5.299
 8518SOL     OW26452   4.814   3.947   6.699
 8518SOL    HW126453   4.763   4.027   6.669
 8518SOL    HW226454   4.878   3.972   6.772
 8519SOL     OW26455   1.758   4.911   2.035
 8519SOL    HW126456   1.666   4.905   2.074
 8519SOL    HW226457   1.754   4.956   1.947
 8520SOL     OW26458   3.551   1.167   1.033
 8520SOL    HW126459   3.563   1.264   1.054
 8520SOL    HW226460   3.522   1.157   0.938
 8521SOL     OW26461   1.988   5.452   5.746
 8521SOL    HW126462   2.035   5.537   5.723
 8521SOL    HW226463   1.956   5.408   5.662
 8522SOL     OW26464   1.055   6.009   1.942
 8522SOL    HW126465   1.008   6.053   2.018
 8522SOL    HW226466   1.070   6.076   1.869
 8523SOL     OW26467   2.799   6.278   6.615
 8523SOL    HW126468   2.825   6.374   6.601
 8523SOL    HW226469   2.879   6.220   6.600
 8524SOL     OW26470   1.105   2.050   5.055
 8524SOL    HW126471   1.038   2.095   4.997
 8524SOL    HW226472   1.119   1.956   5.023
 8525SOL     OW26473   6.293   4.511   3.291
 8525SOL    HW126474   6.205   4.552   3.267
 8525SOL    HW226475   6.360   4.584   3.308
 8526SOL     OW26476   2.712   4.276   0.804
 8526SOL    HW126477   2.615   4.263   0.819
 8526SOL    HW226478   2.736   4.372   0.820
 8527SOL     OW26479   3.304   0.209   5.055
 8527SOL    HW126480   3.240   0.281   5.082
 8527SOL    HW226481   3.254   0.125   5.034
 8528SOL     OW26482   5.128   2.900   5.833
 8528SOL    HW126483   5.167   2.957   5.761
 8528SOL    HW226484   5.088   2.959   5.904
 8529SOL     OW26485   1.063   6.966   6.763
 8529SOL    HW126486   1.090   6.993   6.856
 8529SOL    HW226487   1.144   6.942   6.710
 8530SOL     OW26488   1.239   4.190   5.683
 8530SOL    HW126489   1.262   4.223   5.774
 8530SOL    HW226490   1.206   4.266   5.626
 8531SOL     OW26491   5.441   4.231   2.445
 8531SOL    HW126492   5.442   4.276   2.356
 8531SOL    HW226493   5.368   4.270   2.502
 8532SOL     OW26494   3.633   4.938   4.664
 8532SOL    HW126495   3.580   5.009   4.710
 8532SOL    HW226496   3.618   4.850   4.711
 8533SOL     OW26497   1.740   0.598   6.022
 8533SOL    HW126498   1.835   0.566   6.021
 8533SOL    HW226499   1.684   0.533   6.073
 8534SOL     OW26500   0.257   3.829   3.586
 8534SOL    HW126501   0.181   3.877   3.629
 8534SOL    HW226502   0.324   3.803   3.655
 8535SOL     OW26503   0.535   1.918   4.980
 8535SOL    HW126504   0.478   1.899   4.900
 8535SOL    HW226505   0.517   1.850   5.051
 8536SOL     OW26506   6.409   2.098   4.823
 8536SOL    HW126507   6.400   2.139   4.733
 8536SOL    HW226508   6.447   2.165   4.887
 8537SOL     OW26509   5.218   1.826   1.478
 8537SOL    HW126510   5.266   1.749   1.435
 8537SOL    HW226511   5.204   1.898   1.410
 8538SOL     OW26512   0.127   1.211   5.358
 8538SOL    HW126513   0.074   1.140   5.404
 8538SOL    HW226514   0.066   1.268   5.303
 8539SOL     OW26515   6.494   2.208   2.082
 8539SOL    HW126516   6.400   2.197   2.114
 8539SOL    HW226517   6.518   2.132   2.021
 8540SOL     OW26518   3.335   1.399   0.265
 8540SOL    HW126519   3.255   1.350   0.231
 8540SOL    HW226520   3.406   1.399   0.194
 8541SOL     OW26521   2.748   1.685   4.280
 8541SOL    HW126522   2.669   1.704   4.222
 8541SOL    HW226523   2.808   1.620   4.234
 8542SOL     OW26524   2.438   4.458   6.035
 8542SOL    HW126525   2.517   4.429   5.980
 8542SOL    HW226526   2.461   4.541   6.086
 8543SOL     OW26527   2.853   1.543   5.896
 8543SOL    HW126528   2.950   1.520   5.895
 8543SOL    HW226529   2.841   1.639   5.873
 8544SOL     OW26530   5.563   2.865   4.557
 8544SOL    HW126531   5.469   2.833   4.548
 8544SOL    HW226532   5.586   2.923   4.479
 8545SOL     OW26533   3.956   6.554   4.955
 8545SOL    HW126534   3.895   6.612   4.902
 8545SOL    HW226535   3.912   6.528   5.041
 8546SOL     OW26536   6.441   6.962   2.260
 8546SOL    HW126537   6.380   6.987   2.185
 8546SOL    HW226538   6.493   6.880   2.234
 8547SOL     OW26539   0.592   0.221   5.660
 8547SOL    HW126540   0.622   0.167   5.582
 8547SOL    HW226541   0.612   0.172   5.745
 8548SOL     OW26542   6.632   3.344   5.656
 8548SOL    HW126543   6.682   3.258   5.669
 8548SOL    HW226544   6.645   3.402   5.737
 8549SOL     OW26545   0.938   2.369   4.350
 8549SOL    HW126546   1.030   2.402   4.371
 8549SOL    HW226547   0.892   2.434   4.290
 8550SOL     OW26548   1.755   4.121   6.609
 8550SOL    HW126549   1.681   4.082   6.555
 8550SOL    HW226550   1.835   4.137   6.550
 8551SOL     OW26551   3.191   2.702   6.943
 8551SOL    HW126552   3.260   2.699   7.015
 8551SOL    HW226553   3.218   2.642   6.868
 8552SOL     OW26554   2.051   0.476   2.677
 8552SOL    HW126555   2.029   0.480   2.579
 8552SOL    HW226556   2.149   0.486   2.690
 8553SOL     OW26557   4.183   4.328   6.854
 8553SOL    HW126558   4.152   4.370   6.769
 8553SOL    HW226559   4.128   4.246   6.872
 8554SOL     OW26560   0.447   5.992   1.056
 8554SOL    HW126561   0.538   5.952   1.061
 8554SOL    HW226562   0.380   5.925   1.088
 8555SOL     OW26563   3.781   1.619   3.524
 8555SOL    HW126564   3.687   1.619   3.490
 8555SOL    HW226565   3.844   1.602   3.448
 8556SOL     OW26566   2.257   6.288   5.140
 8556SOL    HW126567   2.240   6.380   5.174
 8556SOL    HW226568   2.171   6.236   5.139
 8557SOL     OW26569   6.770   0.231   1.778
 8557SOL    HW126570   6.866   0.240   1.803
 8557SOL    HW226571   6.735   0.320   1.749
 8558SOL     OW26572   1.842   5.540   2.982
 8558SOL    HW126573   1.870   5.624   2.935
 8558SOL    HW226574   1.750   5.514   2.951
 8559SOL     OW26575   1.603   6.420   2.393
 8559SOL    HW126576   1.686   6.450   2.347
 8559SOL    HW226577   1.531   6.403   2.325
 8560SOL     OW26578   1.007   5.369   1.386
 8560SOL    HW126579   1.027   5.418   1.301
 8560SOL    HW226580   0.935   5.301   1.370
 8561SOL     OW26581   3.427   0.031   3.929
 8561SOL    HW126582   3.330   0.024   3.904
 8561SOL    HW226583   3.481   6.997   3.867
 8562SOL     OW26584   3.519   6.824   0.106
 8562SOL    HW126585   3.532   6.754   0.177
 8562SOL    HW226586   3.431   6.870   0.120
 8563SOL     OW26587   0.681   5.005   1.829
 8563SOL    HW126588   0.639   5.093   1.848
 8563SOL    HW226589   0.780   5.013   1.835
 8564SOL     OW26590   3.461   6.133   5.705
 8564SOL    HW126591   3.400   6.057   5.684
 8564SOL    HW226592   3.547   6.122   5.657
 8565SOL     OW26593   3.498   5.233   0.831
 8565SOL    HW126594   3.421   5.281   0.790
 8565SOL    HW226595   3.500   5.251   0.929
 8566SOL     OW26596   1.071   0.239   1.844
 8566SOL    HW126597   1.114   0.306   1.904
 8566SOL    HW226598   1.141   0.176   1.809
 8567SOL     OW26599   0.993   2.051   2.199
 8567SOL    HW126600   0.900   2.028   2.171
 8567SOL    HW226601   1.052   1.971   2.189
 8568SOL     OW26602   5.561   1.772   0.380
 8568SOL    HW126603   5.608   1.832   0.315
 8568SOL    HW226604   5.560   1.679   0.344
 8569SOL     OW26605   5.503   2.171   5.569
 8569SOL    HW126606   5.477   2.076   5.585
 8569SOL    HW226607   5.577   2.176   5.503
 8570SOL     OW26608   1.104   1.787   4.950
 8570SOL    HW126609   1.030   1.790   5.018
 8570SOL    HW226610   1.132   1.692   4.936
 8571SOL     OW26611   0.854   6.584   4.998
 8571SOL    HW126612   0.875   6.636   4.916
 8571SOL    HW226613   0.758   6.598   5.023
 8572SOL     OW26614   1.663   4.433   5.054
 8572SOL    HW126615   1.653   4.470   5.146
 8572SOL    HW226616   1.735   4.364   5.054
 8573SOL     OW26617   3.037   5.820   6.240
 8573SOL    HW126618   3.004   5.726   6.236
 8573SOL    HW226619   3.090   5.833   6.324
 8574SOL     OW26620   6.136   6.791   6.095
 8574SOL    HW126621   6.162   6.819   6.002
 8574SOL    HW226622   6.154   6.694   6.106
 8575SOL     OW26623   3.391   1.824   3.391
 8575SOL    HW126624   3.344   1.818   3.479
 8575SOL    HW226625   3.437   1.913   3.383
 8576SOL     OW26626   1.875   4.812   4.046
 8576SOL    HW126627   1.932   4.803   3.964
 8576SOL    HW226628   1.896   4.737   4.109
 8577SOL     OW26629   1.798   0.383   6.334
 8577SOL    HW126630   1.809   0.367   6.236
 8577SOL    HW226631   1.714   0.435   6.351
 8578SOL     OW26632   6.695   4.646   6.058
 8578SOL    HW126633   6.632   4.581   6.100
 8578SOL    HW226634   6.691   4.637   5.959
 8579SOL     OW26635   1.298   6.052   2.108
 8579SOL    HW126636   1.277   6.099   2.193
 8579SOL    HW226637   1.219   6.056   2.047
 8580SOL     OW26638   2.054   5.958   0.709
 8580SOL    HW126639   1.983   5.959   0.640
 8580SOL    HW226640   2.047   6.039   0.767
 8581SOL     OW26641   3.473   4.654   1.320
 8581SOL    HW126642   3.544   4.603   1.367
 8581SOL    HW226643   3.388   4.652   1.373
 8582SOL     OW26644   4.947   4.288   5.351
 8582SOL    HW126645   5.029   4.314   5.402
 8582SOL    HW226646   4.868   4.341   5.384
 8583SOL     OW26647   3.281   6.821   3.072
 8583SOL    HW126648   3.231   6.739   3.043
 8583SOL    HW226649   3.309   6.872   2.991
 8584SOL     OW26650   0.911   6.496   5.768
 8584SOL    HW126651   0.900   6.425   5.699
 8584SOL    HW226652   0.921   6.585   5.723
 8585SOL     OW26653   6.381   1.184   0.732
 8585SOL    HW126654   6.310   1.253   0.716
 8585SOL    HW226655   6.377   1.156   0.828
 8586SOL     OW26656   3.927   6.738   1.598
 8586SOL    HW126657   3.851   6.706   1.654
 8586SOL    HW226658   3.940   6.836   1.612
 8587SOL     OW26659   0.849   1.379   5.224
 8587SOL    HW126660   0.925   1.430   5.184
 8587SOL    HW226661   0.840   1.403   5.320
 8588SOL     OW26662   4.561   1.331   6.923
 8588SOL    HW126663   4.593   1.290   7.009
 8588SOL    HW226664   4.513   1.417   6.943
 8589SOL     OW26665   6.494   2.545   5.090
 8589SOL    HW126666   6.416   2.492   5.056
 8589SOL    HW226667   6.518   2.615   5.022
 8590SOL     OW26668   0.752   1.218   2.442
 8590SOL    HW126669   0.813   1.297   2.446
 8590SOL    HW226670   0.663   1.243   2.482
 8591SOL     OW26671   0.263   4.074   0.588
 8591SOL    HW126672   0.287   4.007   0.517
 8591SOL    HW226673   0.244   4.026   0.673
 8592SOL     OW26674   5.786   2.643   6.921
 8592SOL    HW126675   5.881   2.671   6.936
 8592SOL    HW226676   5.784   2.566   6.858
 8593SOL     OW26677   2.926   1.293   6.580
 8593SOL    HW126678   2.937   1.217   6.645
 8593SOL    HW226679   2.990   1.281   6.504
 8594SOL     OW26680   5.869   2.026   5.784
 8594SOL    HW126681   5.880   2.117   5.743
 8594SOL    HW226682   5.806   2.032   5.861
 8595SOL     OW26683   5.721   0.869   4.089
 8595SOL    HW126684   5.650   0.926   4.049
 8595SOL    HW226685   5.712   0.869   4.189
 8596SOL     OW26686   1.339   4.854   2.897
 8596SOL    HW126687   1.332   4.827   2.993
 8596SOL    HW226688   1.393   4.787   2.847
 8597SOL     OW26689   5.286   1.949   1.721
 8597SOL    HW126690   5.222   2.019   1.752
 8597SOL    HW226691   5.268   1.927   1.625
 8598SOL     OW26692   5.792   0.231   5.962
 8598SOL    HW126693   5.825   0.165   5.895
 8598SOL    HW226694   5.724   0.291   5.920
 8599SOL     OW26695   1.256   2.858   4.683
 8599SOL    HW126696   1.213   2.937   4.641
 8599SOL    HW226697   1.246   2.863   4.783
 8600SOL     OW26698   5.402   3.647   0.227
 8600SOL    HW126699   5.477   3.630   0.163
 8600SOL    HW226700   5.419   3.731   0.277
 8601SOL     OW26701   0.846   1.594   4.018
 8601SOL    HW126702   0.936   1.632   4.038
 8601SOL    HW226703   0.777   1.644   4.070
 8602SOL     OW26704   2.403   0.185   2.270
 8602SOL    HW126705   2.377   0.121   2.198
 8602SOL    HW226706   2.502   0.181   2.284
 8603SOL     OW26707   5.058   6.932   0.918
 8603SOL    HW126708   5.116   6.996   0.867
 8603SOL    HW226709   4.964   6.965   0.917
 8604SOL     OW26710   1.441   2.017   6.189
 8604SOL    HW126711   1.519   2.058   6.238
 8604SOL    HW226712   1.411   2.080   6.117
 8605SOL     OW26713   1.771   5.307   3.467
 8605SOL    HW126714   1.840   5.368   3.505
 8605SOL    HW226715   1.680   5.345   3.483
 8606SOL     OW26716   2.538   3.005   0.309
 8606SOL    HW126717   2.577   3.052   0.231
 8606SOL    HW226718   2.441   2.988   0.293
 8607SOL     OW26719   2.428   4.997   6.064
 8607SOL    HW126720   2.510   4.943   6.082
 8607SOL    HW226721   2.349   4.935   6.054
 8608SOL     OW26722   2.405   4.624   2.674
 8608SOL    HW126723   2.310   4.595   2.667
 8608SOL    HW226724   2.410   4.723   2.675
 8609SOL     OW26725   4.858   0.286   3.589
 8609SOL    HW126726   4.877   0.190   3.570
 8609SOL    HW226727   4.885   0.342   3.510
 8610SOL     OW26728   0.282   0.405   3.138
 8610SOL    HW126729   0.292   0.455   3.052
 8610SOL    HW226730   0.335   0.320   3.133
 8611SOL     OW26731   3.198   1.115   4.119
 8611SOL    HW126732   3.281   1.074   4.082
 8611SOL    HW226733   3.120   1.091   4.060
 8612SOL     OW26734   2.702   3.384   1.528
 8612SOL    HW126735   2.780   3.435   1.492
 8612SOL    HW226736   2.703   3.388   1.628
 8613SOL     OW26737   2.909   1.958   1.577
 8613SOL    HW126738   2.948   1.960   1.485
 8613SOL    HW226739   2.826   2.015   1.579
 8614SOL     OW26740   0.910   2.708   3.059
 8614SOL    HW126741   0.810   2.699   3.060
 8614SOL    HW226742   0.939   2.763   3.137
 8615SOL     OW26743   4.650   2.005   4.906
 8615SOL    HW126744   4.732   2.020   4.961
 8615SOL    HW226745   4.577   1.966   4.963
 8616SOL     OW26746   2.876   4.815   1.812
 8616SOL    HW126747   2.786   4.859   1.815
 8616SOL    HW226748   2.877   4.735   1.871
 8617SOL     OW26749   5.711   0.846   4.366
 8617SOL    HW126750   5.679   0.771   4.423
 8617SOL    HW226751   5.718   0.929   4.422
 8618SOL     OW26752   6.536   4.624   1.830
 8618SOL    HW126753   6.485   4.635   1.745
 8618SOL    HW226754   6.634   4.623   1.811
 8619SOL     OW26755   4.086   5.353   2.630
 8619SOL    HW126756   4.054   5.439   2.671
 8619SOL    HW226757   4.176   5.330   2.669
 8620SOL     OW26758   2.349   6.099   3.827
 8620SOL    HW126759   2.338   6.077   3.730
 8620SOL    HW226760   2.262   6.131   3.864
 8621SOL     OW26761   4.991   2.792   2.207
 8621SOL    HW126762   5.003   2.891   2.212
 8621SOL    HW226763   4.926   2.770   2.135
 8622SOL     OW26764   5.068   4.431   1.294
 8622SOL    HW126765   5.149   4.429   1.236
 8622SOL    HW226766   5.076   4.506   1.360
 8623SOL     OW26767   0.957   4.624   5.500
 8623SOL    HW126768   0.975   4.549   5.437
 8623SOL    HW226769   1.043   4.657   5.539
 8624SOL     OW26770   2.323   4.015   5.635
 8624SOL    HW126771   2.245   4.072   5.660
 8624SOL    HW226772   2.291   3.928   5.598
 8625SOL     OW26773   5.129   1.116   5.330
 8625SOL    HW126774   5.218   1.153   5.303
 8625SOL    HW226775   5.120   1.121   5.430
 8626SOL     OW26776   4.266   2.258   6.772
 8626SOL    HW126777   4.311   2.171   6.751
 8626SOL    HW226778   4.333   2.323   6.807
 8627SOL     OW26779   2.241   1.908   2.257
 8627SOL    HW126780   2.214   1.961   2.336
 8627SOL    HW226781   2.252   1.968   2.178
 8628SOL     OW26782   5.978   6.704   0.418
 8628SOL    HW126783   6.005   6.724   0.512
 8628SOL    HW226784   5.885   6.736   0.402
 8629SOL     OW26785   1.947   6.392   5.216
 8629SOL    HW126786   1.862   6.420   5.172
 8629SOL    HW226787   2.019   6.460   5.199
 8630SOL     OW26788   4.954   3.311   3.815
 8630SOL    HW126789   4.933   3.214   3.799
 8630SOL    HW226790   5.052   3.326   3.804
 8631SOL     OW26791   1.403   5.790   6.252
 8631SOL    HW126792   1.430   5.698   6.279
 8631SOL    HW226793   1.474   5.855   6.277
 8632SOL     OW26794   4.106   5.008   5.123
 8632SOL    HW126795   4.072   4.988   5.031
 8632SOL    HW226796   4.032   5.044   5.179
 8633SOL     OW26797   5.616   2.734   5.761
 8633SOL    HW126798   5.615   2.804   5.690
 8633SOL    HW226799   5.681   2.759   5.832
 8634SOL     OW26800   4.771   3.838   6.389
 8634SOL    HW126801   4.821   3.787   6.459
 8634SOL    HW226802   4.757   3.932   6.419
 8635SOL     OW26803   5.510   2.782   6.788
 8635SOL    HW126804   5.522   2.696   6.837
 8635SOL    HW226805   5.597   2.808   6.745
 8636SOL     OW26806   5.507   6.208   1.244
 8636SOL    HW126807   5.435   6.254   1.192
 8636SOL    HW226808   5.558   6.277   1.297
 8637SOL     OW26809   1.922   1.651   6.897
 8637SOL    HW126810   1.852   1.663   6.966
 8637SOL    HW226811   1.990   1.724   6.905
 8638SOL     OW26812   3.821   2.224   5.119
 8638SOL    HW126813   3.839   2.244   5.216
 8638SOL    HW226814   3.732   2.181   5.110
 8639SOL     OW26815   4.903   2.926   6.980
 8639SOL    HW126816   4.809   2.897   6.994
 8639SOL    HW226817   4.923   2.931   6.882
 8640SOL     OW26818   3.966   3.446   0.262
 8640SOL    HW126819   3.885   3.497   0.235
 8640SOL    HW226820   3.940   3.370   0.322
 8641SOL     OW26821   4.240   4.774   4.285
 8641SOL    HW126822   4.150   4.809   4.256
 8641SOL    HW226823   4.244   4.772   4.384
 8642SOL     OW26824   0.961   6.536   3.900
 8642SOL    HW126825   0.884   6.505   3.844
 8642SOL    HW226826   1.034   6.467   3.897
 8643SOL     OW26827   1.549   0.544   0.112
 8643SOL    HW126828   1.497   0.612   0.061
 8643SOL    HW226829   1.533   0.453   0.074
 8644SOL     OW26830   5.291   2.697   5.834
 8644SOL    HW126831   5.311   2.681   5.737
 8644SOL    HW226832   5.243   2.785   5.844
 8645SOL     OW26833   4.282   4.702   1.871
 8645SOL    HW126834   4.367   4.742   1.836
 8645SOL    HW226835   4.287   4.695   1.971
 8646SOL     OW26836   0.105   1.625   6.737
 8646SOL    HW126837   0.064   1.654   6.650
 8646SOL    HW226838   0.034   1.584   6.795
 8647SOL     OW26839   2.545   4.619   0.176
 8647SOL    HW126840   2.581   4.675   0.251
 8647SOL    HW226841   2.618   4.599   0.112
 8648SOL     OW26842   6.605   0.361   2.024
 8648SOL    HW126843   6.556   0.294   1.968
 8648SOL    HW226844   6.589   0.342   2.121
 8649SOL     OW26845   5.811   5.679   0.083
 8649SOL    HW126846   5.790   5.761   0.135
 8649SOL    HW226847   5.746   5.607   0.106
 8650SOL     OW26848   1.628   6.681   4.770
 8650SOL    HW126849   1.534   6.707   4.795
 8650SOL    HW226850   1.625   6.601   4.710
 8651SOL     OW26851   3.877   1.288   0.717
 8651SOL    HW126852   3.965   1.293   0.765
 8651SOL    HW226853   3.803   1.309   0.782
 8652SOL     OW26854   0.865   4.929   3.186
 8652SOL    HW126855   0.908   4.850   3.229
 8652SOL    HW226856   0.816   4.900   3.104
 8653SOL     OW26857   0.007   1.497   6.323
 8653SOL    HW126858   6.994   1.508   6.230
 8653SOL    HW226859   0.078   1.427   6.323
 8654SOL     OW26860   0.391   5.047   1.367
 8654SOL    HW126861   0.403   5.138   1.408
 8654SOL    HW226862   0.408   5.053   1.269
 8655SOL     OW26863   5.888   0.237   4.695
 8655SOL    HW126864   5.839   0.220   4.781
 8655SOL    HW226865   5.981   0.200   4.702
 8656SOL     OW26866   6.334   1.058   2.094
 8656SOL    HW126867   6.279   1.123   2.146
 8656SOL    HW226868   6.367   0.986   2.156
 8657SOL     OW26869   5.280   5.852   0.283
 8657SOL    HW126870   5.284   5.941   0.327
 8657SOL    HW226871   5.203   5.800   0.321
 8658SOL     OW26872   6.488   5.880   0.392
 8658SOL    HW126873   6.504   5.820   0.314
 8658SOL    HW226874   6.576   5.912   0.428
 8659SOL     OW26875   5.270   2.115   2.502
 8659SOL    HW126876   5.177   2.151   2.496
 8659SOL    HW226877   5.268   2.020   2.532
 8660SOL     OW26878   6.411   3.648   1.831
 8660SOL    HW126879   6.480   3.622   1.898
 8660SOL    HW226880   6.329   3.593   1.844
 8661SOL     OW26881   6.321   3.522   1.554
 8661SOL    HW126882   6.275   3.600   1.512
 8661SOL    HW226883   6.320   3.532   1.653
 8662SOL     OW26884   3.935   5.822   2.047
 8662SOL    HW126885   3.950   5.743   1.987
 8662SOL    HW226886   3.889   5.894   1.996
 8663SOL     OW26887   2.314   5.550   2.189
 8663SOL    HW126888   2.323   5.620   2.259
 8663SOL    HW226889   2.401   5.503   2.178
 8664SOL     OW26890   2.231   4.777   1.568
 8664SOL    HW126891   2.322   4.780   1.607
 8664SOL    HW226892   2.193   4.686   1.579
 8665SOL     OW26893   6.169   5.614   4.760
 8665SOL    HW126894   6.130   5.559   4.687
 8665SOL    HW226895   6.097   5.641   4.824
 8666SOL     OW26896   5.664   0.675   3.904
 8666SOL    HW126897   5.675   0.734   3.984
 8666SOL    HW226898   5.709   0.718   3.825
 8667SOL     OW26899   4.940   1.867   3.765
 8667SOL    HW126900   4.850   1.910   3.754
 8667SOL    HW226901   4.937   1.799   3.838
 8668SOL     OW26902   5.130   3.900   3.882
 8668SOL    HW126903   5.192   3.847   3.939
 8668SOL    HW226904   5.060   3.840   3.842
 8669SOL     OW26905   0.296   6.068   6.773
 8669SOL    HW126906   0.352   6.044   6.693
 8669SOL    HW226907   0.210   6.018   6.768
 8670SOL     OW26908   4.051   5.359   6.309
 8670SOL    HW126909   4.070   5.366   6.407
 8670SOL    HW226910   4.022   5.266   6.287
 8671SOL     OW26911   0.802   1.800   3.212
 8671SOL    HW126912   0.704   1.810   3.192
 8671SOL    HW226913   0.815   1.727   3.279
 8672SOL     OW26914   0.249   6.259   3.390
 8672SOL    HW126915   0.290   6.231   3.477
 8672SOL    HW226916   0.171   6.319   3.407
 8673SOL     OW26917   5.965   2.142   0.564
 8673SOL    HW126918   5.958   2.192   0.650
 8673SOL    HW226919   5.877   2.100   0.542
 8674SOL     OW26920   5.743   5.296   2.851
 8674SOL    HW126921   5.807   5.253   2.787
 8674SOL    HW226922   5.794   5.349   2.918
 8675SOL     OW26923   4.589   1.552   4.756
 8675SOL    HW126924   4.562   1.546   4.851
 8675SOL    HW226925   4.689   1.555   4.750
 8676SOL     OW26926   5.607   6.639   3.045
 8676SOL    HW126927   5.556   6.569   3.095
 8676SOL    HW226928   5.681   6.674   3.104
 8677SOL     OW26929   2.246   5.740   5.365
 8677SOL    HW126930   2.180   5.679   5.322
 8677SOL    HW226931   2.279   5.700   5.450
 8678SOL     OW26932   1.044   6.943   0.409
 8678SOL    HW126933   1.054   6.859   0.356
 8678SOL    HW226934   0.993   7.010   0.355
 8679SOL     OW26935   1.402   1.465   3.327
 8679SOL    HW126936   1.400   1.444   3.425
 8679SOL    HW226937   1.328   1.528   3.304
 8680SOL     OW26938   5.830   3.979   0.321
 8680SOL    HW126939   5.903   3.913   0.337
 8680SOL    HW226940   5.772   3.946   0.247
 8681SOL     OW26941   4.728   5.401   1.410
 8681SOL    HW126942   4.677   5.478   1.450
 8681SOL    HW226943   4.695   5.315   1.449
 8682SOL     OW26944   6.518   0.503   2.806
 8682SOL    HW126945   6.461   0.528   2.728
 8682SOL    HW226946   6.522   0.403   2.814
 8683SOL     OW26947   1.786   2.506   5.666
 8683SOL    HW126948   1.858   2.477   5.603
 8683SOL    HW226949   1.698   2.506   5.618
 8684SOL     OW26950   6.302   3.319   4.409
 8684SOL    HW126951   6.322   3.412   4.379
 8684SOL    HW226952   6.254   3.270   4.336
 8685SOL     OW26953   6.084   2.823   6.369
 8685SOL    HW126954   6.166   2.874   6.345
 8685SOL    HW226955   6.004   2.871   6.333
 8686SOL     OW26956   6.764   1.053   2.088
 8686SOL    HW126957   6.846   1.068   2.032
 8686SOL    HW226958   6.696   1.003   2.035
 8687SOL     OW26959   5.199   4.799   2.784
 8687SOL    HW126960   5.277   4.856   2.757
 8687SOL    HW226961   5.201   4.714   2.732
 8688SOL     OW26962   1.407   4.816   6.654
 8688SOL    HW126963   1.425   4.832   6.751
 8688SOL    HW226964   1.493   4.813   6.604
 8689SOL     OW26965   4.345   2.473   0.597
 8689SOL    HW126966   4.346   2.457   0.696
 8689SOL    HW226967   4.365   2.387   0.550
 8690SOL     OW26968   1.244   3.456   3.734
 8690SOL    HW126969   1.227   3.370   3.782
 8690SOL    HW226970   1.195   3.530   3.779
 8691SOL     OW26971   4.099   2.157   5.980
 8691SOL    HW126972   4.038   2.078   5.990
 8691SOL    HW226973   4.092   2.193   5.887
 8692SOL     OW26974   3.641   0.673   4.310
 8692SOL    HW126975   3.592   0.631   4.386
 8692SOL    HW226976   3.593   0.756   4.281
 8693SOL     OW26977   5.952   0.385   6.958
 8693SOL    HW126978   6.042   0.379   7.001
 8693SOL    HW226979   5.959   0.437   6.873
 8694SOL     OW26980   5.783   1.546   5.027
 8694SOL    HW126981   5.754   1.583   4.939
 8694SOL    HW226982   5.830   1.618   5.079
 8695SOL     OW26983   3.508   2.833   6.002
 8695SOL    HW126984   3.460   2.912   6.040
 8695SOL    HW226985   3.561   2.862   5.922
 8696SOL     OW26986   2.967   5.742   5.545
 8696SOL    HW126987   2.940   5.647   5.563
 8696SOL    HW226988   2.952   5.763   5.448
 8697SOL     OW26989   0.483   4.269   6.443
 8697SOL    HW126990   0.504   4.280   6.346
 8697SOL    HW226991   0.498   4.355   6.491
 8698SOL     OW26992   4.762   6.287   4.883
 8698SOL    HW126993   4.759   6.214   4.814
 8698SOL    HW226994   4.811   6.253   4.964
 8699SOL     OW26995   1.694   3.502   5.097
 8699SOL    HW126996   1.762   3.441   5.058
 8699SOL    HW226997   1.643   3.455   5.169
 8700SOL     OW26998   0.393   0.593   4.943
 8700SOL    HW126999   0.491   0.576   4.932
 8700SOL    HW227000   0.379   0.683   4.984
 8701SOL     OW27001   1.420   1.677   0.623
 8701SOL    HW127002   1.520   1.683   0.631
 8701SOL    HW227003   1.387   1.754   0.569
 8702SOL     OW27004   5.163   5.230   1.369
 8702SOL    HW127005   5.193   5.278   1.287
 8702SOL    HW227006   5.122   5.142   1.342
 8703SOL     OW27007   2.825   4.613   0.022
 8703SOL    HW127008   2.831   4.537   0.087
 8703SOL    HW227009   2.771   4.585   6.966
 8704SOL     OW27010   6.951   4.253   3.410
 8704SOL    HW127011   6.885   4.301   3.352
 8704SOL    HW227012   6.940   4.154   3.397
 8705SOL     OW27013   4.992   1.780   6.632
 8705SOL    HW127014   5.024   1.777   6.726
 8705SOL    HW227015   5.060   1.827   6.575
 8706SOL     OW27016   4.681   2.044   0.266
 8706SOL    HW127017   4.667   2.020   0.362
 8706SOL    HW227018   4.673   1.961   0.210
 8707SOL     OW27019   1.195   2.484   4.364
 8707SOL    HW127020   1.213   2.482   4.265
 8707SOL    HW227021   1.192   2.579   4.395
 8708SOL     OW27022   4.242   1.365   3.432
 8708SOL    HW127023   4.165   1.361   3.368
 8708SOL    HW227024   4.207   1.360   3.526
 8709SOL     OW27025   6.398   6.676   6.746
 8709SOL    HW127026   6.467   6.669   6.675
 8709SOL    HW227027   6.418   6.755   6.805
 8710SOL     OW27028   2.400   2.087   3.402
 8710SOL    HW127029   2.485   2.141   3.400
 8710SOL    HW227030   2.322   2.149   3.401
 8711SOL     OW27031   1.977   6.727   3.202
 8711SOL    HW127032   1.996   6.713   3.105
 8711SOL    HW227033   1.882   6.702   3.222
 8712SOL     OW27034   3.613   1.528   4.669
 8712SOL    HW127035   3.543   1.596   4.689
 8712SOL    HW227036   3.672   1.561   4.595
 8713SOL     OW27037   6.945   3.540   2.343
 8713SOL    HW127038   6.854   3.503   2.324
 8713SOL    HW227039   6.997   3.546   2.257
 8714SOL     OW27040   1.334   0.310   6.400
 8714SOL    HW127041   1.283   0.325   6.315
 8714SOL    HW227042   1.413   0.370   6.402
 8715SOL     OW27043   3.741   1.369   0.458
 8715SOL    HW127044   3.814   1.405   0.400
 8715SOL    HW227045   3.780   1.309   0.528
 8716SOL     OW27046   0.129   5.906   0.076
 8716SOL    HW127047   0.190   5.979   0.047
 8716SOL    HW227048   0.036   5.940   0.083
 8717SOL     OW27049   2.295   3.516   5.340
 8717SOL    HW127050   2.289   3.594   5.278
 8717SOL    HW227051   2.313   3.433   5.286
 8718SOL     OW27052   1.670   1.990   5.738
 8718SOL    HW127053   1.575   1.962   5.751
 8718SOL    HW227054   1.690   2.068   5.797
 8719SOL     OW27055   3.558   0.633   0.329
 8719SOL    HW127056   3.647   0.624   0.374
 8719SOL    HW227057   3.569   0.680   0.242
 8720SOL     OW27058   0.955   6.499   6.030
 8720SOL    HW127059   0.952   6.485   5.932
 8720SOL    HW227060   0.948   6.411   6.077
 8721SOL     OW27061   6.591   1.387   0.663
 8721SOL    HW127062   6.527   1.311   0.677
 8721SOL    HW227063   6.549   1.472   0.696
 8722SOL     OW27064   2.863   0.575   1.116
 8722SOL    HW127065   2.864   0.476   1.125
 8722SOL    HW227066   2.948   0.614   1.151
 8723SOL     OW27067   5.280   0.122   1.990
 8723SOL    HW127068   5.303   0.128   1.893
 8723SOL    HW227069   5.330   0.192   2.041
 8724SOL     OW27070   5.673   0.095   4.410
 8724SOL    HW127071   5.587   0.111   4.361
 8724SOL    HW227072   5.749   0.096   4.345
 8725SOL     OW27073   1.092   5.638   5.612
 8725SOL    HW127074   1.017   5.632   5.678
 8725SOL    HW227075   1.168   5.690   5.652
 8726SOL     OW27076   6.842   0.505   1.715
 8726SOL    HW127077   6.802   0.594   1.690
 8726SOL    HW227078   6.872   0.507   1.810
 8727SOL     OW27079   5.814   0.343   0.876
 8727SOL    HW127080   5.774   0.348   0.785
 8727SOL    HW227081   5.795   0.428   0.925
 8728SOL     OW27082   5.531   1.255   2.634
 8728SOL    HW127083   5.444   1.262   2.584
 8728SOL    HW227084   5.549   1.341   2.681
 8729SOL     OW27085   3.738   5.095   5.081
 8729SOL    HW127086   3.652   5.079   5.130
 8729SOL    HW227087   3.815   5.072   5.141
 8730SOL     OW27088   5.102   4.113   3.137
 8730SOL    HW127089   5.173   4.103   3.067
 8730SOL    HW227090   5.141   4.093   3.227
 8731SOL     OW27091   1.075   4.001   2.744
 8731SOL    HW127092   1.019   3.988   2.826
 8731SOL    HW227093   1.065   3.921   2.685
 8732SOL     OW27094   5.460   4.364   2.156
 8732SOL    HW127095   5.393   4.435   2.179
 8732SOL    HW227096   5.423   4.307   2.083
 8733SOL     OW27097   1.278   5.813   0.394
 8733SOL    HW127098   1.302   5.725   0.353
 8733SOL    HW227099   1.205   5.799   0.461
 8734SOL     OW27100   0.384   3.418   3.042
 8734SOL    HW127101   0.309   3.383   2.986
 8734SOL    HW227102   0.402   3.353   3.116
 8735SOL     OW27103   1.086   2.718   5.270
 8735SOL    HW127104   1.131   2.759   5.190
 8735SOL    HW227105   1.139   2.737   5.352
 8736SOL     OW27106   6.905   5.447   2.045
 8736SOL    HW127107   6.975   5.458   2.115
 8736SOL    HW227108   6.947   5.448   1.954
 8737SOL     OW27109   2.512   6.814   0.034
 8737SOL    HW127110   2.527   6.716   0.042
 8737SOL    HW227111   2.593   6.858   7.018
 8738SOL     OW27112   2.570   6.030   3.507
 8738SOL    HW127113   2.591   6.123   3.536
 8738SOL    HW227114   2.650   5.990   3.462
 8739SOL     OW27115   5.392   5.485   5.869
 8739SOL    HW127116   5.332   5.493   5.789
 8739SOL    HW227117   5.467   5.551   5.861
 8740SOL     OW27118   4.181   1.740   3.167
 8740SOL    HW127119   4.243   1.663   3.153
 8740SOL    HW227120   4.226   1.825   3.140
 8741SOL     OW27121   2.258   1.012   2.799
 8741SOL    HW127122   2.333   1.073   2.823
 8741SOL    HW227123   2.171   1.054   2.825
 8742SOL     OW27124   4.702   0.407   1.941
 8742SOL    HW127125   4.746   0.359   2.016
 8742SOL    HW227126   4.770   0.426   1.870
 8743SOL     OW27127   1.769   0.454   0.791
 8743SOL    HW127128   1.723   0.366   0.777
 8743SOL    HW227129   1.842   0.443   0.858
 8744SOL     OW27130   4.277   2.792   0.798
 8744SOL    HW127131   4.376   2.786   0.779
 8744SOL    HW227132   4.226   2.773   0.714
 8745SOL     OW27133   6.447   2.496   6.069
 8745SOL    HW127134   6.473   2.469   6.162
 8745SOL    HW227135   6.424   2.414   6.016
 8746SOL     OW27136   4.821   5.971   3.852
 8746SOL    HW127137   4.869   5.884   3.862
 8746SOL    HW227138   4.822   6.020   3.939
 8747SOL     OW27139   0.534   1.296   2.249
 8747SOL    HW127140   0.457   1.358   2.263
 8747SOL    HW227141   0.530   1.221   2.315
 8748SOL     OW27142   0.954   2.030   4.594
 8748SOL    HW127143   1.028   1.992   4.649
 8748SOL    HW227144   0.875   2.049   4.652
 8749SOL     OW27145   1.833   0.525   5.270
 8749SOL    HW127146   1.851   0.620   5.292
 8749SOL    HW227147   1.918   0.481   5.239
 8750SOL     OW27148   3.256   3.367   5.663
 8750SOL    HW127149   3.227   3.406   5.576
 8750SOL    HW227150   3.194   3.398   5.736
 8751SOL     OW27151   6.861   1.450   2.485
 8751SOL    HW127152   6.804   1.497   2.418
 8751SOL    HW227153   6.931   1.397   2.438
 8752SOL     OW27154   4.384   2.859   6.813
 8752SOL    HW127155   4.343   2.777   6.773
 8752SOL    HW227156   4.357   2.865   6.910
 8753SOL     OW27157   2.753   2.570   6.374
 8753SOL    HW127158   2.848   2.603   6.379
 8753SOL    HW227159   2.725   2.540   6.465
 8754SOL     OW27160   2.171   4.799   5.551
 8754SOL    HW127161   2.208   4.779   5.642
 8754SOL    HW227162   2.238   4.852   5.499
 8755SOL     OW27163   2.001   0.487   1.306
 8755SOL    HW127164   2.020   0.410   1.246
 8755SOL    HW227165   1.919   0.468   1.360
 8756SOL     OW27166   1.434   3.152   3.456
 8756SOL    HW127167   1.485   3.149   3.370
 8756SOL    HW227168   1.452   3.239   3.502
 8757SOL     OW27169   4.817   5.838   0.167
 8757SOL    HW127170   4.911   5.842   0.133
 8757SOL    HW227171   4.805   5.756   0.222
 8758SOL     OW27172   4.434   6.368   2.613
 8758SOL    HW127173   4.401   6.330   2.527
 8758SOL    HW227174   4.381   6.330   2.689
 8759SOL     OW27175   5.735   3.369   0.046
 8759SOL    HW127176   5.705   3.464   0.050
 8759SOL    HW227177   5.757   3.344   6.975
 8760SOL     OW27178   3.482   0.602   4.804
 8760SOL    HW127179   3.507   0.613   4.900
 8760SOL    HW227180   3.411   0.532   4.795
 8761SOL     OW27181   5.708   1.912   1.050
 8761SOL    HW127182   5.703   2.006   1.016
 8761SOL    HW227183   5.738   1.912   1.145
 8762SOL     OW27184   0.703   5.774   4.523
 8762SOL    HW127185   0.723   5.805   4.430
 8762SOL    HW227186   0.705   5.674   4.526
 8763SOL     OW27187   6.023   7.003   5.477
 8763SOL    HW127188   6.109   6.967   5.441
 8763SOL    HW227189   6.036   0.009   5.571
 8764SOL     OW27190   4.506   6.994   6.070
 8764SOL    HW127191   4.525   0.025   5.988
 8764SOL    HW227192   4.486   0.032   6.147
 8765SOL     OW27193   4.743   1.233   4.377
 8765SOL    HW127194   4.770   1.205   4.469
 8765SOL    HW227195   4.795   1.182   4.309
 8766SOL     OW27196   4.052   4.231   5.229
 8766SOL    HW127197   4.080   4.319   5.192
 8766SOL    HW227198   3.982   4.191   5.169
 8767SOL     OW27199   5.009   6.079   3.018
 8767SOL    HW127200   4.985   6.102   2.924
 8767SOL    HW227201   4.936   6.109   3.080
 8768SOL     OW27202   0.942   2.760   1.061
 8768SOL    HW127203   0.950   2.857   1.084
 8768SOL    HW227204   1.011   2.736   0.992
 8769SOL     OW27205   6.684   1.255   2.255
 8769SOL    HW127206   6.643   1.329   2.202
 8769SOL    HW227207   6.709   1.180   2.194
 8770SOL     OW27208   4.712   4.293   2.525
 8770SOL    HW127209   4.786   4.360   2.539
 8770SOL    HW227210   4.707   4.269   2.429
 8771SOL     OW27211   0.592   2.596   6.401
 8771SOL    HW127212   0.576   2.615   6.304
 8771SOL    HW227213   0.690   2.592   6.419
 8772SOL     OW27214   4.906   0.597   6.085
 8772SOL    HW127215   4.984   0.659   6.098
 8772SOL    HW227216   4.939   0.503   6.087
 8773SOL     OW27217   5.222   2.701   3.023
 8773SOL    HW127218   5.133   2.660   3.042
 8773SOL    HW227219   5.293   2.630   3.025
 8774SOL     OW27220   0.645   0.481   0.251
 8774SOL    HW127221   0.622   0.575   0.277
 8774SOL    HW227222   0.564   0.423   0.260
 8775SOL     OW27223   5.107   1.362   5.780
 8775SOL    HW127224   5.031   1.413   5.742
 8775SOL    HW227225   5.082   1.327   5.870
 8776SOL     OW27226   4.917   3.518   1.392
 8776SOL    HW127227   4.838   3.463   1.419
 8776SOL    HW227228   4.962   3.554   1.474
 8777SOL     OW27229   6.672   4.563   3.438
 8777SOL    HW127230   6.650   4.467   3.422
 8777SOL    HW227231   6.632   4.619   3.366
 8778SOL     OW27232   5.486   3.019   5.535
 8778SOL    HW127233   5.445   2.947   5.478
 8778SOL    HW227234   5.527   3.089   5.477
 8779SOL     OW27235   1.831   5.821   2.412
 8779SOL    HW127236   1.904   5.766   2.451
 8779SOL    HW227237   1.850   5.837   2.315
 8780SOL     OW27238   0.251   6.996   2.700
 8780SOL    HW127239   0.173   7.005   2.638
 8780SOL    HW227240   0.249   0.046   2.767
 8781SOL     OW27241   4.809   0.351   3.838
 8781SOL    HW127242   4.880   0.299   3.885
 8781SOL    HW227243   4.821   0.343   3.739
 8782SOL     OW27244   6.178   0.893   1.705
 8782SOL    HW127245   6.209   0.837   1.628
 8782SOL    HW227246   6.230   0.869   1.787
 8783SOL     OW27247   6.641   4.300   3.661
 8783SOL    HW127248   6.637   4.286   3.562
 8783SOL    HW227249   6.572   4.367   3.688
 8784SOL     OW27250   6.646   6.698   6.334
 8784SOL    HW127251   6.574   6.725   6.397
 8784SOL    HW227252   6.620   6.613   6.288
 8785SOL     OW27253   6.729   5.034   6.510
 8785SOL    HW127254   6.670   5.045   6.430
 8785SOL    HW227255   6.819   5.000   6.481
 8786SOL     OW27256   2.960   1.196   1.446
 8786SOL    HW127257   3.021   1.275   1.449
 8786SOL    HW227258   2.960   1.158   1.353
 8787SOL     OW27259   3.719   0.314   2.390
 8787SOL    HW127260   3.679   0.222   2.388
 8787SOL    HW227261   3.649   0.380   2.414
 8788SOL     OW27262   6.711   1.812   5.300
 8788SOL    HW127263   6.758   1.818   5.212
 8788SOL    HW227264   6.734   1.893   5.355
 8789SOL     OW27265   6.438   4.564   5.633
 8789SOL    HW127266   6.397   4.493   5.689
 8789SOL    HW227267   6.378   4.584   5.555
 8790SOL     OW27268   6.113   0.881   6.241
 8790SOL    HW127269   6.028   0.931   6.259
 8790SOL    HW227270   6.191   0.943   6.253
 8791SOL     OW27271   5.036   6.817   4.584
 8791SOL    HW127272   4.980   6.856   4.512
 8791SOL    HW227273   4.996   6.839   4.673
 8792SOL     OW27274   3.118   5.262   2.895
 8792SOL    HW127275   3.083   5.170   2.912
 8792SOL    HW227276   3.216   5.264   2.912
 8793SOL     OW27277   0.879   4.627   3.083
 8793SOL    HW127278   0.902   4.679   3.001
 8793SOL    HW227279   0.780   4.628   3.097
 8794SOL     OW27280   5.509   1.125   3.234
 8794SOL    HW127281   5.461   1.038   3.223
 8794SOL    HW227282   5.575   1.118   3.309
 8795SOL     OW27283   1.218   4.679   5.139
 8795SOL    HW127284   1.274   4.603   5.171
 8795SOL    HW227285   1.177   4.655   5.051
 8796SOL     OW27286   5.704   2.654   2.781
 8796SOL    HW127287   5.686   2.589   2.707
 8796SOL    HW227288   5.648   2.736   2.767
 8797SOL     OW27289   0.113   6.993   5.316
 8797SOL    HW127290   0.082   6.900   5.295
 8797SOL    HW227291   0.039   0.034   5.298
 8798SOL     OW27292   4.361   6.171   6.505
 8798SOL    HW127293   4.264   6.148   6.516
 8798SOL    HW227294   4.378   6.198   6.410
 8799SOL     OW27295   2.449   5.295   3.295
 8799SOL    HW127296   2.492   5.385   3.306
 8799SOL    HW227297   2.464   5.242   3.379
 8800SOL     OW27298   5.499   5.508   6.502
 8800SOL    HW127299   5.446   5.588   6.473
 8800SOL    HW227300   5.439   5.429   6.510
 8801SOL     OW27301   6.062   1.777   4.477
 8801SOL    HW127302   6.038   1.800   4.571
 8801SOL    HW227303   6.153   1.734   4.475
 8802SOL     OW27304   1.975   5.880   5.695
 8802SOL    HW127305   1.975   5.898   5.793
 8802SOL    HW227306   2.027   5.796   5.677
 8803SOL     OW27307   7.012   0.147   6.716
 8803SOL    HW127308   6.932   0.170   6.772
 8803SOL    HW227309   6.999   0.056   6.676
 8804SOL     OW27310   2.515   6.002   1.279
 8804SOL    HW127311   2.513   5.908   1.313
 8804SOL    HW227312   2.579   6.009   1.202
 8805SOL     OW27313   3.693   5.584   3.113
 8805SOL    HW127314   3.667   5.680   3.122
 8805SOL    HW227315   3.786   5.572   3.148
 8806SOL     OW27316   2.578   5.166   0.883
 8806SOL    HW127317   2.572   5.069   0.857
 8806SOL    HW227318   2.664   5.183   0.930
 8807SOL     OW27319   4.214   1.555   0.492
 8807SOL    HW127320   4.224   1.589   0.399
 8807SOL    HW227321   4.301   1.517   0.524
 8808SOL     OW27322   6.822   2.327   5.562
 8808SOL    HW127323   6.827   2.252   5.496
 8808SOL    HW227324   6.769   2.298   5.642
 8809SOL     OW27325   2.325   4.586   3.708
 8809SOL    HW127326   2.332   4.556   3.803
 8809SOL    HW227327   2.337   4.507   3.647
 8810SOL     OW27328   5.853   1.035   5.093
 8810SOL    HW127329   5.933   0.994   5.138
 8810SOL    HW227330   5.865   1.030   4.994
 8811SOL     OW27331   2.819   0.656   2.454
 8811SOL    HW127332   2.808   0.557   2.451
 8811SOL    HW227333   2.744   0.696   2.507
 8812SOL     OW27334   2.536   0.365   0.967
 8812SOL    HW127335   2.604   0.293   0.953
 8812SOL    HW227336   2.528   0.420   0.884
 8813SOL     OW27337   1.636   5.148   2.926
 8813SOL    HW127338   1.666   5.239   2.955
 8813SOL    HW227339   1.548   5.127   2.967
 8814SOL     OW27340   6.079   6.963   0.789
 8814SOL    HW127341   6.066   6.870   0.824
 8814SOL    HW227342   6.042   6.968   0.696
 8815SOL     OW27343   5.417   6.525   1.068
 8815SOL    HW127344   5.334   6.476   1.040
 8815SOL    HW227345   5.453   6.576   0.991
 8816SOL     OW27346   1.031   6.884   6.385
 8816SOL    HW127347   0.982   6.817   6.330
 8816SOL    HW227348   0.969   6.925   6.452
 8817SOL     OW27349   0.206   4.133   3.955
 8817SOL    HW127350   0.249   4.172   4.036
 8817SOL    HW227351   0.273   4.128   3.881
 8818SOL     OW27352   1.109   6.115   3.823
 8818SOL    HW127353   1.034   6.051   3.808
 8818SOL    HW227354   1.153   6.136   3.736
 8819SOL     OW27355   6.471   4.255   6.328
 8819SOL    HW127356   6.437   4.195   6.256
 8819SOL    HW227357   6.537   4.206   6.385
 8820SOL     OW27358   3.162   1.648   4.817
 8820SOL    HW127359   3.145   1.730   4.871
 8820SOL    HW227360   3.162   1.672   4.720
 8821SOL     OW27361   1.279   5.673   0.865
 8821SOL    HW127362   1.238   5.594   0.911
 8821SOL    HW227363   1.376   5.680   0.890
 8822SOL     OW27364   0.519   0.362   3.739
 8822SOL    HW127365   0.502   0.359   3.838
 8822SOL    HW227366   0.602   0.310   3.718
 8823SOL     OW27367   1.941   1.486   2.231
 8823SOL    HW127368   1.994   1.567   2.207
 8823SOL    HW227369   1.847   1.514   2.252
 8824SOL     OW27370   1.337   0.926   0.595
 8824SOL    HW127371   1.424   0.879   0.608
 8824SOL    HW227372   1.264   0.860   0.580
 8825SOL     OW27373   1.224   1.676   1.583
 8825SOL    HW127374   1.141   1.659   1.635
 8825SOL    HW227375   1.246   1.774   1.586
 8826SOL     OW27376   1.086   3.380   0.933
 8826SOL    HW127377   1.100   3.456   0.870
 8826SOL    HW227378   1.085   3.414   1.027
 8827SOL     OW27379   3.679   0.078   3.528
 8827SOL    HW127380   3.751   0.035   3.473
 8827SOL    HW227381   3.657   0.168   3.490
 8828SOL     OW27382   4.019   4.921   6.694
 8828SOL    HW127383   4.114   4.923   6.663
 8828SOL    HW227384   3.959   4.906   6.615
 8829SOL     OW27385   5.579   1.486   1.445
 8829SOL    HW127386   5.656   1.547   1.462
 8829SOL    HW227387   5.613   1.393   1.431
 8830SOL     OW27388   2.131   1.322   2.560
 8830SOL    HW127389   2.189   1.398   2.587
 8830SOL    HW227390   2.181   1.265   2.494
 8831SOL     OW27391   6.140   2.399   2.492
 8831SOL    HW127392   6.079   2.457   2.438
 8831SOL    HW227393   6.100   2.385   2.583
 8832SOL     OW27394   6.742   6.131   4.239
 8832SOL    HW127395   6.800   6.119   4.319
 8832SOL    HW227396   6.650   6.156   4.269
 8833SOL     OW27397   3.887   4.093   6.257
 8833SOL    HW127398   3.889   4.126   6.351
 8833SOL    HW227399   3.932   4.004   6.253
 8834SOL     OW27400   5.667   3.943   4.720
 8834SOL    HW127401   5.754   3.989   4.738
 8834SOL    HW227402   5.592   4.007   4.735
 8835SOL     OW27403   5.477   0.944   6.175
 8835SOL    HW127404   5.427   0.858   6.170
 8835SOL    HW227405   5.437   1.010   6.112
 8836SOL     OW27406   4.813   2.043   1.201
 8836SOL    HW127407   4.886   1.975   1.199
 8836SOL    HW227408   4.790   2.070   1.107
 8837SOL     OW27409   0.139   0.359   2.395
 8837SOL    HW127410   0.209   0.319   2.335
 8837SOL    HW227411   0.165   0.452   2.420
 8838SOL     OW27412   1.722   3.900   3.157
 8838SOL    HW127413   1.628   3.896   3.191
 8838SOL    HW227414   1.775   3.962   3.215
 8839SOL     OW27415   3.675   6.371   2.066
 8839SOL    HW127416   3.736   6.366   1.987
 8839SOL    HW227417   3.714   6.318   2.142
 8840SOL     OW27418   6.903   0.498   2.566
 8840SOL    HW127419   6.826   0.434   2.564
 8840SOL    HW227420   6.899   0.558   2.486
 8841SOL     OW27421   6.162   1.516   3.655
 8841SOL    HW127422   6.194   1.524   3.750
 8841SOL    HW227423   6.180   1.601   3.606
 8842SOL     OW27424   3.266   3.552   3.570
 8842SOL    HW127425   3.326   3.622   3.610
 8842SOL    HW227426   3.294   3.462   3.604
 8843SOL     OW27427   1.680   3.572   4.063
 8843SOL    HW127428   1.702   3.642   4.131
 8843SOL    HW227429   1.602   3.601   4.009
 8844SOL     OW27430   6.697   1.386   4.596
 8844SOL    HW127431   6.605   1.378   4.558
 8844SOL    HW227432   6.757   1.430   4.530
 8845SOL     OW27433   2.604   4.022   0.558
 8845SOL    HW127434   2.576   4.095   0.621
 8845SOL    HW227435   2.602   4.057   0.464
 8846SOL     OW27436   4.002   5.027   3.962
 8846SOL    HW127437   4.005   4.959   3.888
 8846SOL    HW227438   4.095   5.049   3.991
 8847SOL     OW27439   2.285   1.586   3.791
 8847SOL    HW127440   2.357   1.520   3.773
 8847SOL    HW227441   2.208   1.540   3.836
 8848SOL     OW27442   2.656   1.843   2.482
 8848SOL    HW127443   2.670   1.803   2.392
 8848SOL    HW227444   2.682   1.778   2.553
 8849SOL     OW27445   3.163   4.872   3.138
 8849SOL    HW127446   3.071   4.912   3.130
 8849SOL    HW227447   3.158   4.774   3.118
 8850SOL     OW27448   2.944   1.518   0.390
 8850SOL    HW127449   2.979   1.438   0.341
 8850SOL    HW227450   3.009   1.593   0.383
 8851SOL     OW27451   1.224   4.902   2.128
 8851SOL    HW127452   1.213   4.807   2.099
 8851SOL    HW227453   1.226   4.962   2.048
 8852SOL     OW27454   4.209   3.515   5.814
 8852SOL    HW127455   4.161   3.441   5.862
 8852SOL    HW227456   4.282   3.550   5.872
 8853SOL     OW27457   3.142   0.176   5.364
 8853SOL    HW127458   3.096   0.131   5.440
 8853SOL    HW227459   3.233   0.205   5.392
 8854SOL     OW27460   2.417   1.039   6.575
 8854SOL    HW127461   2.432   1.045   6.674
 8854SOL    HW227462   2.370   0.953   6.554
 8855SOL     OW27463   6.827   5.981   0.050
 8855SOL    HW127464   6.818   5.882   0.063
 8855SOL    HW227465   6.876   5.998   6.988
 8856SOL     OW27466   5.519   0.592   6.101
 8856SOL    HW127467   5.581   0.556   6.170
 8856SOL    HW227468   5.426   0.593   6.137
 8857SOL     OW27469   6.572   1.907   3.987
 8857SOL    HW127470   6.650   1.864   4.032
 8857SOL    HW227471   6.527   1.840   3.927
 8858SOL     OW27472   1.343   2.679   5.972
 8858SOL    HW127473   1.421   2.725   6.014
 8858SOL    HW227474   1.374   2.598   5.922
 8859SOL     OW27475   7.018   0.438   4.798
 8859SOL    HW127476   0.080   0.421   4.849
 8859SOL    HW227477   0.006   0.405   4.705
 8860SOL     OW27478   1.614   3.424   3.047
 8860SOL    HW127479   1.588   3.376   2.963
 8860SOL    HW227480   1.696   3.382   3.085
 8861SOL     OW27481   3.774   2.158   5.957
 8861SOL    HW127482   3.827   2.099   6.019
 8861SOL    HW227483   3.786   2.253   5.984
 8862SOL     OW27484   6.188   0.786   3.866
 8862SOL    HW127485   6.259   0.726   3.830
 8862SOL    HW227486   6.199   0.795   3.965
 8863SOL     OW27487   1.812   5.687   4.503
 8863SOL    HW127488   1.854   5.751   4.439
 8863SOL    HW227489   1.880   5.659   4.571
 8864SOL     OW27490   2.035   3.174   6.115
 8864SOL    HW127491   2.102   3.145   6.183
 8864SOL    HW227492   1.987   3.093   6.079
 8865SOL     OW27493   3.520   1.802   5.874
 8865SOL    HW127494   3.462   1.723   5.890
 8865SOL    HW227495   3.490   1.850   5.792
 8866SOL     OW27496   5.363   6.784   4.288
 8866SOL    HW127497   5.430   6.815   4.220
 8866SOL    HW227498   5.294   6.855   4.301
 8867SOL     OW27499   5.200   3.542   3.288
 8867SOL    HW127500   5.155   3.590   3.363
 8867SOL    HW227501   5.152   3.563   3.202
 8868SOL     OW27502   6.431   3.389   0.668
 8868SOL    HW127503   6.383   3.301   0.667
 8868SOL    HW227504   6.414   3.435   0.756
 8869SOL     OW27505   4.496   5.613   3.921
 8869SOL    HW127506   4.424   5.588   3.986
 8869SOL    HW227507   4.526   5.707   3.939
 8870SOL     OW27508   4.051   0.040   0.491
 8870SOL    HW127509   3.954   0.034   0.513
 8870SOL    HW227510   4.104   0.047   0.576
 8871SOL     OW27511   1.900   1.081   4.030
 8871SOL    HW127512   1.954   1.036   3.959
 8871SOL    HW227513   1.804   1.085   4.001
 8872SOL     OW27514   1.403   4.368   4.923
 8872SOL    HW127515   1.447   4.333   4.841
 8872SOL    HW227516   1.473   4.390   4.992
 8873SOL     OW27517   7.017   5.059   2.044
 8873SOL    HW127518   0.033   5.151   2.049
 8873SOL    HW227519   0.006   5.013   2.132
 8874SOL     OW27520   2.706   6.286   1.366
 8874SOL    HW127521   2.795   6.320   1.398
 8874SOL    HW227522   2.683   6.202   1.415
 8875SOL     OW27523   0.024   3.119   4.769
 8875SOL    HW127524   0.044   3.028   4.732
 8875SOL    HW227525   0.023   3.186   4.695
 8876SOL     OW27526   1.866   0.193   4.241
 8876SOL    HW127527   1.793   0.257   4.267
 8876SOL    HW227528   1.832   0.099   4.246
 8877SOL     OW27529   2.502   1.591   4.119
 8877SOL    HW127530   2.563   1.514   4.138
 8877SOL    HW227531   2.416   1.579   4.169
 8878SOL     OW27532   0.112   5.721   0.895
 8878SOL    HW127533   0.123   5.764   0.985
 8878SOL    HW227534   0.092   5.791   0.827
 8879SOL     OW27535   5.475   5.071   0.968
 8879SOL    HW127536   5.387   5.050   0.926
 8879SOL    HW227537   5.514   4.988   1.007
 8880SOL     OW27538   6.366   5.521   4.461
 8880SOL    HW127539   6.399   5.614   4.443
 8880SOL    HW227540   6.266   5.520   4.457
 8881SOL     OW27541   6.164   6.613   4.886
 8881SOL    HW127542   6.247   6.661   4.918
 8881SOL    HW227543   6.180   6.515   4.887
 8882SOL     OW27544   5.387   1.296   0.704
 8882SOL    HW127545   5.417   1.382   0.746
 8882SOL    HW227546   5.340   1.316   0.618
 8883SOL     OW27547   1.719   0.323   5.409
 8883SOL    HW127548   1.758   0.400   5.359
 8883SOL    HW227549   1.684   0.255   5.345
 8884SOL     OW27550   6.166   4.823   6.186
 8884SOL    HW127551   6.265   4.835   6.181
 8884SOL    HW227552   6.126   4.901   6.235
 8885SOL     OW27553   0.071   3.028   0.689
 8885SOL    HW127554   0.073   2.950   0.627
 8885SOL    HW227555   0.148   3.089   0.669
 8886SOL     OW27556   3.818   6.587   5.569
 8886SOL    HW127557   3.871   6.566   5.487
 8886SOL    HW227558   3.871   6.565   5.651
 8887SOL     OW27559   3.170   1.417   1.497
 8887SOL    HW127560   3.249   1.476   1.512
 8887SOL    HW227561   3.141   1.376   1.583
 8888SOL     OW27562   1.640   1.880   1.059
 8888SOL    HW127563   1.611   1.823   0.982
 8888SOL    HW227564   1.693   1.824   1.123
 8889SOL     OW27565   5.752   6.910   5.506
 8889SOL    HW127566   5.730   6.887   5.411
 8889SOL    HW227567   5.822   6.981   5.507
 8890SOL     OW27568   5.855   5.316   4.041
 8890SOL    HW127569   5.757   5.324   4.028
 8890SOL    HW227570   5.879   5.220   4.055
 8891SOL     OW27571   5.473   3.440   5.484
 8891SOL    HW127572   5.403   3.510   5.469
 8891SOL    HW227573   5.543   3.476   5.546
 8892SOL     OW27574   3.677   5.569   2.568
 8892SOL    HW127575   3.713   5.559   2.661
 8892SOL    HW227576   3.748   5.544   2.502
 8893SOL     OW27577   0.753   0.114   2.633
 8893SOL    HW127578   0.680   0.045   2.629
 8893SOL    HW227579   0.718   0.202   2.602
 8894SOL     OW27580   4.256   2.193   5.623
 8894SOL    HW127581   4.277   2.194   5.526
 8894SOL    HW227582   4.295   2.274   5.667
 8895SOL     OW27583   6.538   1.869   1.384
 8895SOL    HW127584   6.448   1.830   1.404
 8895SOL    HW227585   6.530   1.935   1.309
 8896SOL     OW27586   1.977   2.891   5.266
 8896SOL    HW127587   2.036   2.883   5.346
 8896SOL    HW227588   1.895   2.944   5.289
 8897SOL     OW27589   1.757   2.745   3.617
 8897SOL    HW127590   1.689   2.716   3.550
 8897SOL    HW227591   1.820   2.811   3.575
 8898SOL     OW27592   5.747   3.807   4.492
 8898SOL    HW127593   5.687   3.845   4.563
 8898SOL    HW227594   5.783   3.882   4.436
 8899SOL     OW27595   2.210   4.834   6.943
 8899SOL    HW127596   2.137   4.901   6.957
 8899SOL    HW227597   2.242   4.801   0.009
 8900SOL     OW27598   5.569   2.621   2.521
 8900SOL    HW127599   5.473   2.646   2.538
 8900SOL    HW227600   5.587   2.531   2.561
 8901SOL     OW27601   2.272   1.536   4.266
 8901SOL    HW127602   2.319   1.448   4.273
 8901SOL    HW227603   2.211   1.547   4.344
 8902SOL     OW27604   3.501   6.686   6.858
 8902SOL    HW127605   3.405   6.660   6.872
 8902SOL    HW227606   3.535   6.730   6.941
 8903SOL     OW27607   0.596   1.390   5.090
 8903SOL    HW127608   0.692   1.387   5.121
 8903SOL    HW227609   0.569   1.298   5.060
 8904SOL     OW27610   5.978   5.396   3.768
 8904SOL    HW127611   5.958   5.401   3.866
 8904SOL    HW227612   6.071   5.361   3.754
 8905SOL     OW27613   2.036   3.709   4.367
 8905SOL    HW127614   1.974   3.779   4.333
 8905SOL    HW227615   2.040   3.713   4.467
 8906SOL     OW27616   6.788   6.818   6.858
 8906SOL    HW127617   6.816   6.731   6.819
 8906SOL    HW227618   6.869   6.869   6.888
 8907SOL     OW27619   3.351   1.841   4.487
 8907SOL    HW127620   3.449   1.820   4.485
 8907SOL    HW227621   3.338   1.937   4.510
 8908SOL     OW27622   1.234   3.469   6.573
 8908SOL    HW127623   1.333   3.481   6.569
 8908SOL    HW227624   1.213   3.380   6.615
 8909SOL     OW27625   1.806   0.903   5.449
 8909SOL    HW127626   1.711   0.924   5.472
 8909SOL    HW227627   1.866   0.973   5.489
 8910SOL     OW27628   1.110   3.259   6.261
 8910SOL    HW127629   1.132   3.341   6.209
 8910SOL    HW227630   1.193   3.207   6.280
 8911SOL     OW27631   4.306   2.328   4.808
 8911SOL    HW127632   4.267   2.373   4.888
 8911SOL    HW227633   4.244   2.339   4.730
 8912SOL     OW27634   4.302   1.674   0.860
 8912SOL    HW127635   4.311   1.600   0.927
 8912SOL    HW227636   4.212   1.670   0.817
 8913SOL     OW27637   4.841   5.071   0.202
 8913SOL    HW127638   4.780   5.139   0.162
 8913SOL    HW227639   4.871   5.007   0.131
 8914SOL     OW27640   4.083   0.986   5.093
 8914SOL    HW127641   4.020   1.060   5.070
 8914SOL    HW227642   4.159   0.985   5.028
 8915SOL     OW27643   0.745   2.285   3.644
 8915SOL    HW127644   0.659   2.243   3.615
 8915SOL    HW227645   0.742   2.303   3.742
 8916SOL     OW27646   0.335   3.567   0.868
 8916SOL    HW127647   0.313   3.487   0.923
 8916SOL    HW227648   0.300   3.555   0.775
 8917SOL     OW27649   6.143   4.372   6.272
 8917SOL    HW127650   6.198   4.315   6.211
 8917SOL    HW227651   6.072   4.315   6.315
 8918SOL     OW27652   6.998   3.985   1.419
 8918SOL    HW127653   7.020   3.915   1.487
 8918SOL    HW227654   6.925   3.954   1.360
 8919SOL     OW27655   4.168   3.658   1.099
 8919SOL    HW127656   4.135   3.581   1.154
 8919SOL    HW227657   4.249   3.698   1.142
 8920SOL     OW27658   0.790   6.487   6.393
 8920SOL    HW127659   0.856   6.483   6.468
 8920SOL    HW227660   0.818   6.558   6.328
 8921SOL     OW27661   2.539   2.177   2.815
 8921SOL    HW127662   2.622   2.214   2.773
 8921SOL    HW227663   2.565   2.111   2.886
 8922SOL     OW27664   3.414   5.176   1.528
 8922SOL    HW127665   3.327   5.192   1.482
 8922SOL    HW227666   3.454   5.089   1.497
 8923SOL     OW27667   1.219   3.675   5.710
 8923SOL    HW127668   1.257   3.748   5.766
 8923SOL    HW227669   1.120   3.668   5.727
 8924SOL     OW27670   3.358   5.739   5.509
 8924SOL    HW127671   3.320   5.824   5.547
 8924SOL    HW227672   3.286   5.670   5.503
 8925SOL     OW27673   0.860   0.962   2.951
 8925SOL    HW127674   0.883   0.978   3.047
 8925SOL    HW227675   0.762   0.943   2.944
 8926SOL     OW27676   5.648   4.034   6.451
 8926SOL    HW127677   5.722   3.967   6.460
 8926SOL    HW227678   5.598   4.039   6.537
 8927SOL     OW27679   1.109   1.616   4.370
 8927SOL    HW127680   1.137   1.620   4.275
 8927SOL    HW227681   1.024   1.668   4.382
 8928SOL     OW27682   6.500   0.818   5.561
 8928SOL    HW127683   6.563   0.779   5.494
 8928SOL    HW227684   6.426   0.865   5.512
 8929SOL     OW27685   6.738   3.453   3.959
 8929SOL    HW127686   6.678   3.388   4.004
 8929SOL    HW227687   6.801   3.493   4.025
 8930SOL     OW27688   1.886   4.106   4.014
 8930SOL    HW127689   1.859   4.053   4.094
 8930SOL    HW227690   1.986   4.116   4.012
 8931SOL     OW27691   3.089   3.075   1.370
 8931SOL    HW127692   3.184   3.069   1.399
 8931SOL    HW227693   3.051   2.983   1.361
 8932SOL     OW27694   5.265   0.667   0.489
 8932SOL    HW127695   5.231   0.737   0.552
 8932SOL    HW227696   5.329   0.709   0.425
 8933SOL     OW27697   0.808   2.302   5.989
 8933SOL    HW127698   0.758   2.324   6.073
 8933SOL    HW227699   0.884   2.366   5.978
 8934SOL     OW27700   3.285   5.223   4.213
 8934SOL    HW127701   3.307   5.203   4.118
 8934SOL    HW227702   3.190   5.253   4.219
 8935SOL     OW27703   5.588   3.773   1.539
 8935SOL    HW127704   5.684   3.744   1.541
 8935SOL    HW227705   5.559   3.796   1.632
 8936SOL     OW27706   1.083   3.471   1.193
 8936SOL    HW127707   1.026   3.489   1.273
 8936SOL    HW227708   1.124   3.556   1.161
 8937SOL     OW27709   0.369   0.671   4.623
 8937SOL    HW127710   0.333   0.673   4.717
 8937SOL    HW227711   0.310   0.614   4.566
 8938SOL     OW27712   6.728   0.913   0.177
 8938SOL    HW127713   6.748   0.993   0.121
 8938SOL    HW227714   6.630   0.907   0.195
 8939SOL     OW27715   6.494   3.558   4.361
 8939SOL    HW127716   6.523   3.496   4.289
 8939SOL    HW227717   6.525   3.651   4.339
 8940SOL     OW27718   6.090   1.885   1.235
 8940SOL    HW127719   6.008   1.927   1.274
 8940SOL    HW227720   6.115   1.932   1.150
 8941SOL     OW27721   6.415   2.815   2.205
 8941SOL    HW127722   6.425   2.754   2.126
 8941SOL    HW227723   6.321   2.845   2.212
 8942SOL     OW27724   0.657   6.115   4.321
 8942SOL    HW127725   0.703   6.028   4.306
 8942SOL    HW227726   0.717   6.177   4.371
 8943SOL     OW27727   4.060   5.328   0.175
 8943SOL    HW127728   4.000   5.250   0.162
 8943SOL    HW227729   4.038   5.399   0.108
 8944SOL     OW27730   5.039   5.538   4.642
 8944SOL    HW127731   5.029   5.527   4.543
 8944SOL    HW227732   4.959   5.586   4.679
 8945SOL     OW27733   7.007   2.180   4.247
 8945SOL    HW127734   0.001   2.252   4.315
 8945SOL    HW227735   6.965   2.221   4.166
 8946SOL     OW27736   4.030   0.926   3.775
 8946SOL    HW127737   4.001   1.007   3.725
 8946SOL    HW227738   3.983   0.923   3.863
 8947SOL     OW27739   1.689   3.128   5.583
 8947SOL    HW127740   1.783   3.095   5.571
 8947SOL    HW227741   1.691   3.216   5.631
 8948SOL     OW27742   5.929   5.818   3.243
 8948SOL    HW127743   6.011   5.858   3.284
 8948SOL    HW227744   5.886   5.757   3.310
 8949SOL     OW27745   4.051   5.722   0.653
 8949SOL    HW127746   3.967   5.774   0.640
 8949SOL    HW227747   4.030   5.624   0.656
 8950SOL     OW27748   4.159   2.825   1.183
 8950SOL    HW127749   4.075   2.842   1.235
 8950SOL    HW227750   4.162   2.886   1.105
 8951SOL     OW27751   2.144   1.006   4.953
 8951SOL    HW127752   2.107   1.035   4.865
 8951SOL    HW227753   2.071   1.009   5.022
 8952SOL     OW27754   0.459   5.101   3.349
 8952SOL    HW127755   0.426   5.065   3.262
 8952SOL    HW227756   0.554   5.072   3.364
 8953SOL     OW27757   1.208   4.584   0.909
 8953SOL    HW127758   1.222   4.575   0.810
 8953SOL    HW227759   1.195   4.493   0.949
 8954SOL     OW27760   0.297   6.959   4.009
 8954SOL    HW127761   0.354   6.908   3.945
 8954SOL    HW227762   0.283   0.029   3.975
 8955SOL     OW27763   0.013   4.004   3.251
 8955SOL    HW127764   0.021   4.047   3.161
 8955SOL    HW227765   0.085   3.937   3.263
 8956SOL     OW27766   1.510   0.358   5.779
 8956SOL    HW127767   1.472   0.305   5.855
 8956SOL    HW227768   1.598   0.318   5.753
 8957SOL     OW27769   2.399   4.608   1.191
 8957SOL    HW127770   2.442   4.557   1.116
 8957SOL    HW227771   2.463   4.619   1.266
 8958SOL     OW27772   1.149   2.240   5.721
 8958SOL    HW127773   1.188   2.196   5.640
 8958SOL    HW227774   1.052   2.217   5.728
 8959SOL     OW27775   1.716   3.796   2.870
 8959SOL    HW127776   1.782   3.726   2.842
 8959SOL    HW227777   1.754   3.851   2.944
 8960SOL     OW27778   5.755   4.988   4.153
 8960SOL    HW127779   5.843   4.983   4.199
 8960SOL    HW227780   5.761   4.942   4.064
 8961SOL     OW27781   4.026   1.622   3.730
 8961SOL    HW127782   4.049   1.532   3.694
 8961SOL    HW227783   3.958   1.665   3.670
 8962SOL     OW27784   6.600   5.457   1.554
 8962SOL    HW127785   6.587   5.554   1.533
 8962SOL    HW227786   6.612   5.444   1.652
 8963SOL     OW27787   3.817   6.794   5.310
 8963SOL    HW127788   3.783   6.712   5.263
 8963SOL    HW227789   3.914   6.805   5.291
 8964SOL     OW27790   5.857   3.060   2.789
 8964SOL    HW127791   5.869   3.158   2.807
 8964SOL    HW227792   5.820   3.016   2.871
 8965SOL     OW27793   3.362   4.843   6.903
 8965SOL    HW127794   3.377   4.903   6.982
 8965SOL    HW227795   3.431   4.863   6.833
 8966SOL     OW27796   6.784   4.416   0.221
 8966SOL    HW127797   6.722   4.466   0.160
 8966SOL    HW227798   6.782   4.319   0.198
 8967SOL     OW27799   4.203   1.516   2.890
 8967SOL    HW127800   4.173   1.424   2.864
 8967SOL    HW227801   4.206   1.574   2.809
 8968SOL     OW27802   3.350   5.948   2.378
 8968SOL    HW127803   3.386   5.887   2.449
 8968SOL    HW227804   3.379   5.914   2.288
 8969SOL     OW27805   0.019   0.228   3.629
 8969SOL    HW127806   0.111   0.265   3.616
 8969SOL    HW227807   6.990   0.238   3.544
 8970SOL     OW27808   1.293   2.071   6.870
 8970SOL    HW127809   1.226   2.144   6.882
 8970SOL    HW227810   1.315   2.031   6.959
 8971SOL     OW27811   5.499   6.656   1.488
 8971SOL    HW127812   5.431   6.711   1.440
 8971SOL    HW227813   5.565   6.619   1.422
 8972SOL     OW27814   5.232   4.151   0.716
 8972SOL    HW127815   5.275   4.231   0.673
 8972SOL    HW227816   5.304   4.088   0.747
 8973SOL     OW27817   0.031   3.050   2.597
 8973SOL    HW127818   0.010   3.133   2.650
 8973SOL    HW227819   7.000   2.974   2.632
 8974SOL     OW27820   1.925   3.143   4.123
 8974SOL    HW127821   1.860   3.200   4.073
 8974SOL    HW227822   1.923   3.050   4.086
 8975SOL     OW27823   0.752   5.761   6.668
 8975SOL    HW127824   0.772   5.859   6.680
 8975SOL    HW227825   0.674   5.736   6.725
 8976SOL     OW27826   0.110   5.497   0.569
 8976SOL    HW127827   0.057   5.517   0.652
 8976SOL    HW227828   0.199   5.461   0.595
 8977SOL     OW27829   6.560   3.975   6.800
 8977SOL    HW127830   6.484   4.021   6.755
 8977SOL    HW227831   6.639   3.972   6.739
 8978SOL     OW27832   5.675   0.117   4.841
 8978SOL    HW127833   5.684   0.059   4.760
 8978SOL    HW227834   5.655   0.061   4.921
 8979SOL     OW27835   1.671   5.328   5.720
 8979SOL    HW127836   1.628   5.374   5.643
 8979SOL    HW227837   1.701   5.237   5.693
 8980SOL     OW27838   5.377   2.403   5.755
 8980SOL    HW127839   5.323   2.375   5.676
 8980SOL    HW227840   5.383   2.503   5.758
 8981SOL     OW27841   4.993   1.753   5.313
 8981SOL    HW127842   4.912   1.784   5.264
 8981SOL    HW227843   5.017   1.661   5.285
 8982SOL     OW27844   0.442   1.818   1.096
 8982SOL    HW127845   0.472   1.722   1.097
 8982SOL    HW227846   0.481   1.866   1.174
 8983SOL     OW27847   0.539   5.385   0.810
 8983SOL    HW127848   0.597   5.407   0.731
 8983SOL    HW227849   0.514   5.469   0.858
 8984SOL     OW27850   6.672   6.699   4.186
 8984SOL    HW127851   6.686   6.605   4.156
 8984SOL    HW227852   6.574   6.718   4.191
 8985SOL     OW27853   2.681   2.019   1.748
 8985SOL    HW127854   2.700   1.921   1.741
 8985SOL    HW227855   2.749   2.062   1.808
 8986SOL     OW27856   4.788   5.123   2.734
 8986SOL    HW127857   4.787   5.091   2.640
 8986SOL    HW227858   4.881   5.120   2.769
 8987SOL     OW27859   2.756   6.773   1.376
 8987SOL    HW127860   2.806   6.750   1.459
 8987SOL    HW227861   2.660   6.790   1.398
 8988SOL     OW27862   2.018   4.964   0.231
 8988SOL    HW127863   1.928   5.009   0.237
 8988SOL    HW227864   2.085   5.015   0.285
 8989SOL     OW27865   4.960   3.389   2.441
 8989SOL    HW127866   4.893   3.415   2.372
 8989SOL    HW227867   5.009   3.307   2.410
 8990SOL     OW27868   2.437   5.752   1.376
 8990SOL    HW127869   2.359   5.722   1.321
 8990SOL    HW227870   2.405   5.782   1.465
 8991SOL     OW27871   2.693   1.301   1.461
 8991SOL    HW127872   2.774   1.242   1.450
 8991SOL    HW227873   2.691   1.368   1.387
 8992SOL     OW27874   0.058   2.804   0.064
 8992SOL    HW127875   0.107   2.876   0.114
 8992SOL    HW227876   0.061   2.824   6.989
 8993SOL     OW27877   4.607   2.662   3.028
 8993SOL    HW127878   4.620   2.755   3.062
 8993SOL    HW227879   4.624   2.660   2.929
 8994SOL     OW27880   1.410   5.850   3.804
 8994SOL    HW127881   1.440   5.767   3.757
 8994SOL    HW227882   1.330   5.829   3.860
 8995SOL     OW27883   1.456   2.182   5.973
 8995SOL    HW127884   1.388   2.255   5.965
 8995SOL    HW227885   1.540   2.209   5.925
 8996SOL     OW27886   0.533   4.319   1.820
 8996SOL    HW127887   0.450   4.356   1.777
 8996SOL    HW227888   0.509   4.238   1.874
 8997SOL     OW27889   4.783   1.225   6.744
 8997SOL    HW127890   4.868   1.266   6.712
 8997SOL    HW227891   4.741   1.284   6.812
 8998SOL     OW27892   0.512   1.646   4.624
 8998SOL    HW127893   0.499   1.739   4.658
 8998SOL    HW227894   0.425   1.609   4.591
 8999SOL     OW27895   4.456   0.505   0.124
 8999SOL    HW127896   4.399   0.492   0.043
 8999SOL    HW227897   4.401   0.547   0.196
 9000SOL     OW27898   2.424   3.978   6.581
 9000SOL    HW127899   2.493   3.949   6.514
 9000SOL    HW227900   2.469   4.024   6.657
 9001SOL     OW27901   1.611   5.453   2.825
 9001SOL    HW127902   1.564   5.388   2.765
 9001SOL    HW227903   1.546   5.492   2.890
 9002SOL     OW27904   0.681   5.121   5.390
 9002SOL    HW127905   0.707   5.194   5.327
 9002SOL    HW227906   0.745   5.045   5.381
 9003SOL     OW27907   5.753   3.121   1.301
 9003SOL    HW127908   5.838   3.175   1.301
 9003SOL    HW227909   5.675   3.183   1.311
 9004SOL     OW27910   4.386   6.664   1.525
 9004SOL    HW127911   4.287   6.650   1.525
 9004SOL    HW227912   4.433   6.575   1.529
 9005SOL     OW27913   6.233   1.563   4.242
 9005SOL    HW127914   6.283   1.650   4.240
 9005SOL    HW227915   6.296   1.489   4.264
 9006SOL     OW27916   1.475   6.100   1.060
 9006SOL    HW127917   1.408   6.072   0.992
 9006SOL    HW227918   1.446   6.187   1.101
 9007SOL     OW27919   3.709   5.602   3.413
 9007SOL    HW127920   3.760   5.650   3.342
 9007SOL    HW227921   3.615   5.636   3.415
 9008SOL     OW27922   6.696   5.451   2.892
 9008SOL    HW127923   6.614   5.507   2.887
 9008SOL    HW227924   6.692   5.394   2.975
 9009SOL     OW27925   3.356   6.497   0.675
 9009SOL    HW127926   3.296   6.571   0.706
 9009SOL    HW227927   3.308   6.442   0.607
 9010SOL     OW27928   0.916   6.720   4.762
 9010SOL    HW127929   0.968   6.675   4.689
 9010SOL    HW227930   0.825   6.745   4.728
 9011SOL     OW27931   4.035   1.912   1.494
 9011SOL    HW127932   3.957   1.871   1.539
 9011SOL    HW227933   4.047   2.006   1.526
 9012SOL     OW27934   2.805   5.370   1.190
 9012SOL    HW127935   2.717   5.417   1.192
 9012SOL    HW227936   2.839   5.367   1.096
 9013SOL     OW27937   5.797   5.995   4.714
 9013SOL    HW127938   5.848   5.979   4.630
 9013SOL    HW227939   5.858   5.982   4.793
 9014SOL     OW27940   1.056   1.552   0.700
 9014SOL    HW127941   1.052   1.548   0.600
 9014SOL    HW227942   1.135   1.605   0.728
 9015SOL     OW27943   5.949   0.632   0.667
 9015SOL    HW127944   5.985   0.643   0.759
 9015SOL    HW227945   5.852   0.609   0.670
 9016SOL     OW27946   6.476   6.233   6.082
 9016SOL    HW127947   6.443   6.154   6.133
 9016SOL    HW227948   6.435   6.234   5.991
 9017SOL     OW27949   5.386   2.483   3.014
 9017SOL    HW127950   5.388   2.429   3.098
 9017SOL    HW227951   5.314   2.449   2.954
 9018SOL     OW27952   4.495   1.608   5.630
 9018SOL    HW127953   4.435   1.556   5.690
 9018SOL    HW227954   4.532   1.687   5.680
 9019SOL     OW27955   0.777   6.643   0.734
 9019SOL    HW127956   0.796   6.736   0.703
 9019SOL    HW227957   0.713   6.600   0.670
 9020SOL     OW27958   1.775   3.294   2.003
 9020SOL    HW127959   1.759   3.232   1.927
 9020SOL    HW227960   1.818   3.378   1.970
 9021SOL     OW27961   6.569   0.072   3.866
 9021SOL    HW127962   6.582   0.123   3.782
 9021SOL    HW227963   6.471   0.057   3.882
 9022SOL     OW27964   2.672   0.827   1.271
 9022SOL    HW127965   2.622   0.768   1.208
 9022SOL    HW227966   2.689   0.915   1.227
 9023SOL     OW27967   4.060   3.243   3.071
 9023SOL    HW127968   4.121   3.314   3.108
 9023SOL    HW227969   4.072   3.238   2.972
 9024SOL     OW27970   1.703   5.662   6.135
 9024SOL    HW127971   1.639   5.624   6.202
 9024SOL    HW227972   1.735   5.589   6.075
 9025SOL     OW27973   6.368   5.987   0.971
 9025SOL    HW127974   6.381   5.984   0.872
 9025SOL    HW227975   6.423   5.916   1.014
 9026SOL     OW27976   4.006   3.155   3.337
 9026SOL    HW127977   4.076   3.171   3.407
 9026SOL    HW227978   4.040   3.189   3.249
 9027SOL     OW27979   3.238   1.905   3.909
 9027SOL    HW127980   3.283   1.921   3.996
 9027SOL    HW227981   3.139   1.902   3.923
 9028SOL     OW27982   2.795   4.207   6.058
 9028SOL    HW127983   2.799   4.113   6.025
 9028SOL    HW227984   2.798   4.270   5.980
 9029SOL     OW27985   3.860   5.519   4.989
 9029SOL    HW127986   3.766   5.525   4.957
 9029SOL    HW227987   3.898   5.429   4.966
 9030SOL     OW27988   1.974   1.184   3.031
 9030SOL    HW127989   1.991   1.152   2.938
 9030SOL    HW227990   1.905   1.255   3.029
 9031SOL     OW27991   4.332   5.309   5.860
 9031SOL    HW127992   4.337   5.357   5.948
 9031SOL    HW227993   4.303   5.372   5.789
 9032SOL     OW27994   4.297   2.462   0.867
 9032SOL    HW127995   4.255   2.371   0.867
 9032SOL    HW227996   4.241   2.525   0.921
 9033SOL     OW27997   1.800   3.353   3.921
 9033SOL    HW127998   1.732   3.347   3.848
 9033SOL    HW227999   1.780   3.433   3.978
 9034SOL     OW28000   2.526   6.461   4.939
 9034SOL    HW128001   2.574   6.487   5.023
 9034SOL    HW228002   2.575   6.497   4.860
 9035SOL     OW28003   0.605   6.624   5.086
 9035SOL    HW128004   0.596   6.695   5.017
 9035SOL    HW228005   0.515   6.605   5.126
 9036SOL     OW28006   1.449   1.740   4.485
 9036SOL    HW128007   1.526   1.679   4.497
 9036SOL    HW228008   1.472   1.831   4.518
 9037SOL     OW28009   1.558   3.979   6.469
 9037SOL    HW128010   1.564   3.881   6.490
 9037SOL    HW228011   1.473   3.998   6.421
 9038SOL     OW28012   5.110   0.463   5.330
 9038SOL    HW128013   5.082   0.368   5.315
 9038SOL    HW228014   5.035   0.514   5.370
 9039SOL     OW28015   1.581   4.421   4.458
 9039SOL    HW128016   1.541   4.499   4.410
 9039SOL    HW228017   1.671   4.401   4.419
 9040SOL     OW28018   2.877   1.830   3.150
 9040SOL    HW128019   2.830   1.763   3.208
 9040SOL    HW228020   2.975   1.827   3.168
 9041SOL     OW28021   0.915   1.791   1.955
 9041SOL    HW128022   0.861   1.860   2.003
 9041SOL    HW228023   0.998   1.772   2.007
 9042SOL     OW28024   3.239   5.747   3.767
 9042SOL    HW128025   3.235   5.709   3.859
 9042SOL    HW228026   3.147   5.769   3.735
 9043SOL     OW28027   2.139   1.034   5.382
 9043SOL    HW128028   2.189   0.952   5.353
 9043SOL    HW228029   2.187   1.115   5.350
 9044SOL     OW28030   6.298   1.526   1.542
 9044SOL    HW128031   6.312   1.427   1.540
 9044SOL    HW228032   6.341   1.565   1.623
 9045SOL     OW28033   3.445   1.641   2.426
 9045SOL    HW128034   3.456   1.695   2.342
 9045SOL    HW228035   3.349   1.643   2.454
 9046SOL     OW28036   3.242   3.842   4.201
 9046SOL    HW128037   3.146   3.832   4.227
 9046SOL    HW228038   3.298   3.784   4.260
 9047SOL     OW28039   1.344   3.534   5.513
 9047SOL    HW128040   1.442   3.533   5.532
 9047SOL    HW228041   1.296   3.578   5.589
 9048SOL     OW28042   6.235   3.056   6.566
 9048SOL    HW128043   6.207   3.016   6.479
 9048SOL    HW228044   6.307   3.123   6.549
 9049SOL     OW28045   4.641   6.563   6.427
 9049SOL    HW128046   4.640   6.592   6.523
 9049SOL    HW228047   4.650   6.464   6.422
 9050SOL     OW28048   0.895   5.335   5.895
 9050SOL    HW128049   0.955   5.310   5.819
 9050SOL    HW228050   0.950   5.364   5.973
 9051SOL     OW28051   4.508   6.008   1.116
 9051SOL    HW128052   4.452   6.028   1.196
 9051SOL    HW228053   4.561   6.090   1.092
 9052SOL     OW28054   2.083   3.785   4.066
 9052SOL    HW128055   2.119   3.692   4.063
 9052SOL    HW228056   1.985   3.783   4.046
 9053SOL     OW28057   2.191   2.085   3.130
 9053SOL    HW128058   2.141   2.094   3.216
 9053SOL    HW228059   2.253   2.163   3.120
 9054SOL     OW28060   1.568   0.679   1.914
 9054SOL    HW128061   1.468   0.670   1.914
 9054SOL    HW228062   1.605   0.632   1.995
 9055SOL     OW28063   0.588   3.706   3.275
 9055SOL    HW128064   0.521   3.689   3.202
 9055SOL    HW228065   0.582   3.633   3.343
 9056SOL     OW28066   5.301   0.243   2.380
 9056SOL    HW128067   5.297   0.298   2.296
 9056SOL    HW228068   5.238   0.165   2.371
 9057SOL     OW28069   6.096   5.290   5.754
 9057SOL    HW128070   6.035   5.269   5.678
 9057SOL    HW228071   6.092   5.217   5.822
 9058SOL     OW28072   2.486   1.361   3.778
 9058SOL    HW128073   2.471   1.269   3.742
 9058SOL    HW228074   2.473   1.361   3.877
 9059SOL     OW28075   6.990   0.978   4.065
 9059SOL    HW128076   6.937   1.045   4.117
 9059SOL    HW228077   6.970   0.886   4.099
 9060SOL     OW28078   0.258   4.270   2.217
 9060SOL    HW128079   0.317   4.191   2.199
 9060SOL    HW228080   0.163   4.240   2.218
 9061SOL     OW28081   4.249   5.756   2.462
 9061SOL    HW128082   4.182   5.824   2.491
 9061SOL    HW228083   4.232   5.670   2.511
 9062SOL     OW28084   1.736   4.757   2.334
 9062SOL    HW128085   1.657   4.768   2.273
 9062SOL    HW228086   1.817   4.795   2.290
 9063SOL     OW28087   2.408   0.712   2.588
 9063SOL    HW128088   2.355   0.730   2.671
 9063SOL    HW228089   2.425   0.797   2.539
 9064SOL     OW28090   6.395   4.397   4.391
 9064SOL    HW128091   6.461   4.346   4.445
 9064SOL    HW228092   6.404   4.371   4.294
 9065SOL     OW28093   3.288   5.327   6.589
 9065SOL    HW128094   3.345   5.248   6.614
 9065SOL    HW228095   3.344   5.410   6.592
 9066SOL     OW28096   5.368   0.435   6.853
 9066SOL    HW128097   5.337   0.341   6.844
 9066SOL    HW228098   5.343   0.471   6.943
 9067SOL     OW28099   5.879   6.557   5.644
 9067SOL    HW128100   5.833   6.558   5.732
 9067SOL    HW228101   5.828   6.499   5.580
 9068SOL     OW28102   3.342   0.845   5.115
 9068SOL    HW128103   3.266   0.824   5.177
 9068SOL    HW228104   3.306   0.875   5.027
 9069SOL     OW28105   3.401   2.031   1.927
 9069SOL    HW128106   3.469   2.074   1.987
 9069SOL    HW228107   3.442   1.954   1.879
 9070SOL     OW28108   0.642   2.858   5.766
 9070SOL    HW128109   0.569   2.888   5.827
 9070SOL    HW228110   0.606   2.792   5.701
 9071SOL     OW28111   5.104   6.660   0.897
 9071SOL    HW128112   5.097   6.629   0.802
 9071SOL    HW228113   5.098   6.760   0.900
 9072SOL     OW28114   5.076   0.374   1.782
 9072SOL    HW128115   5.061   0.387   1.880
 9072SOL    HW228116   5.151   0.309   1.768
 9073SOL     OW28117   3.755   6.646   1.005
 9073SOL    HW128118   3.679   6.611   0.950
 9073SOL    HW228119   3.722   6.719   1.065
 9074SOL     OW28120   1.391   0.731   0.945
 9074SOL    HW128121   1.297   0.735   0.977
 9074SOL    HW228122   1.445   0.803   0.989
 9075SOL     OW28123   0.446   6.978   1.470
 9075SOL    HW128124   0.415   6.897   1.421
 9075SOL    HW228125   0.533   7.009   1.432
 9076SOL     OW28126   5.731   1.686   4.784
 9076SOL    HW128127   5.647   1.739   4.795
 9076SOL    HW228128   5.719   1.619   4.711
 9077SOL     OW28129   5.087   1.147   6.905
 9077SOL    HW128130   5.014   1.082   6.929
 9077SOL    HW228131   5.116   1.196   6.987
 9078SOL     OW28132   5.009   3.407   0.425
 9078SOL    HW128133   4.973   3.469   0.494
 9078SOL    HW228134   5.050   3.460   0.351
 9079SOL     OW28135   2.006   6.385   4.018
 9079SOL    HW128136   2.094   6.421   3.988
 9079SOL    HW228137   1.995   6.292   3.982
 9080SOL     OW28138   5.900   2.589   6.518
 9080SOL    HW128139   5.998   2.577   6.530
 9080SOL    HW228140   5.875   2.684   6.536
 9081SOL     OW28141   3.148   0.107   2.276
 9081SOL    HW128142   3.232   0.112   2.330
 9081SOL    HW228143   3.085   0.041   2.318
 9082SOL     OW28144   2.615   6.174   5.708
 9082SOL    HW128145   2.560   6.147   5.787
 9082SOL    HW228146   2.574   6.139   5.625
 9083SOL     OW28147   3.831   4.146   5.507
 9083SOL    HW128148   3.798   4.141   5.413
 9083SOL    HW228149   3.902   4.077   5.520
 9084SOL     OW28150   1.850   2.589   6.157
 9084SOL    HW128151   1.938   2.548   6.134
 9084SOL    HW228152   1.806   2.622   6.073
 9085SOL     OW28153   1.397   4.988   1.099
 9085SOL    HW128154   1.479   5.041   1.119
 9085SOL    HW228155   1.348   5.029   1.021
 9086SOL     OW28156   6.776   3.906   1.245
 9086SOL    HW128157   6.679   3.933   1.249
 9086SOL    HW228158   6.812   3.925   1.154
 9087SOL     OW28159   4.929   3.247   1.936
 9087SOL    HW128160   4.864   3.172   1.935
 9087SOL    HW228161   4.883   3.332   1.910
 9088SOL     OW28162   6.628   6.038   0.577
 9088SOL    HW128163   6.613   6.092   0.495
 9088SOL    HW228164   6.680   6.091   0.644
 9089SOL     OW28165   4.012   6.029   5.720
 9089SOL    HW128166   3.966   5.948   5.758
 9089SOL    HW228167   3.959   6.065   5.643
 9090SOL     OW28168   6.113   6.989   3.664
 9090SOL    HW128169   6.055   0.033   3.617
 9090SOL    HW228170   6.073   6.969   3.754
 9091SOL     OW28171   2.799   3.423   0.488
 9091SOL    HW128172   2.899   3.418   0.493
 9091SOL    HW228173   2.763   3.450   0.577
 9092SOL     OW28174   0.055   1.386   0.307
 9092SOL    HW128175   0.092   1.301   0.268
 9092SOL    HW228176   0.123   1.459   0.298
 9093SOL     OW28177   1.813   6.078   6.291
 9093SOL    HW128178   1.891   6.018   6.308
 9093SOL    HW228179   1.840   6.151   6.228
 9094SOL     OW28180   0.347   5.012   3.124
 9094SOL    HW128181   0.288   5.091   3.111
 9094SOL    HW228182   0.322   4.941   3.057
 9095SOL     OW28183   4.122   3.680   6.111
 9095SOL    HW128184   4.155   3.635   6.194
 9095SOL    HW228185   4.200   3.706   6.054
 9096SOL     OW28186   5.610   4.061   1.952
 9096SOL    HW128187   5.693   4.017   1.986
 9096SOL    HW228188   5.632   4.152   1.917
 9097SOL     OW28189   1.044   2.854   6.686
 9097SOL    HW128190   1.058   2.790   6.761
 9097SOL    HW228191   1.008   2.941   6.722
 9098SOL     OW28192   4.172   2.543   0.011
 9098SOL    HW128193   4.152   2.572   0.105
 9098SOL    HW228194   4.100   2.482   7.002
 9099SOL     OW28195   3.747   3.601   0.233
 9099SOL    HW128196   3.692   3.614   0.150
 9099SOL    HW228197   3.798   3.685   0.253
 9100SOL     OW28198   0.842   3.202   3.108
 9100SOL    HW128199   0.886   3.292   3.099
 9100SOL    HW228200   0.832   3.180   3.205
 9101SOL     OW28201   2.399   2.572   3.214
 9101SOL    HW128202   2.388   2.550   3.311
 9101SOL    HW228203   2.489   2.543   3.182
 9102SOL     OW28204   2.287   0.140   1.922
 9102SOL    HW128205   2.352   0.213   1.901
 9102SOL    HW228206   2.197   0.179   1.939
 9103SOL     OW28207   6.570   3.642   0.302
 9103SOL    HW128208   6.589   3.706   0.228
 9103SOL    HW228209   6.471   3.635   0.317
 9104SOL     OW28210   5.608   6.312   2.927
 9104SOL    HW128211   5.701   6.280   2.947
 9104SOL    HW228212   5.610   6.375   2.849
 9105SOL     OW28213   1.665   1.472   0.855
 9105SOL    HW128214   1.709   1.528   0.785
 9105SOL    HW228215   1.731   1.450   0.926
 9106SOL     OW28216   6.371   4.125   0.641
 9106SOL    HW128217   6.429   4.203   0.615
 9106SOL    HW228218   6.422   4.040   0.629
 9107SOL     OW28219   3.112   0.820   6.311
 9107SOL    HW128220   3.204   0.795   6.342
 9107SOL    HW228221   3.051   0.825   6.390
 9108SOL     OW28222   5.024   4.202   5.653
 9108SOL    HW128223   5.099   4.192   5.719
 9108SOL    HW228224   5.023   4.123   5.592
 9109SOL     OW28225   0.490   2.601   2.668
 9109SOL    HW128226   0.392   2.618   2.674
 9109SOL    HW228227   0.519   2.545   2.746
 9110SOL     OW28228   2.043   3.929   3.718
 9110SOL    HW128229   2.003   3.873   3.646
 9110SOL    HW228230   1.993   3.915   3.804
 9111SOL     OW28231   4.422   1.847   0.695
 9111SOL    HW128232   4.357   1.879   0.627
 9111SOL    HW228233   4.377   1.782   0.757
 9112SOL     OW28234   0.554   4.627   4.632
 9112SOL    HW128235   0.583   4.715   4.669
 9112SOL    HW228236   0.489   4.584   4.694
 9113SOL     OW28237   4.672   0.883   1.796
 9113SOL    HW128238   4.724   0.853   1.716
 9113SOL    HW228239   4.735   0.893   1.874
 9114SOL     OW28240   1.118   4.438   1.909
 9114SOL    HW128241   1.117   4.414   1.812
 9114SOL    HW228242   1.072   4.366   1.961
 9115SOL     OW28243   0.382   4.779   5.253
 9115SOL    HW128244   0.371   4.877   5.271
 9115SOL    HW228245   0.369   4.761   5.155
 9116SOL     OW28246   6.557   1.085   1.016
 9116SOL    HW128247   6.623   1.160   1.005
 9116SOL    HW228248   6.474   1.120   1.058
 9117SOL     OW28249   6.288   2.382   0.390
 9117SOL    HW128250   6.345   2.402   0.311
 9117SOL    HW228251   6.278   2.282   0.401
 9118SOL     OW28252   6.394   4.474   0.278
 9118SOL    HW128253   6.311   4.528   0.266
 9118SOL    HW228254   6.369   4.377   0.284
 9119SOL     OW28255   4.682   1.122   1.485
 9119SOL    HW128256   4.648   1.128   1.391
 9119SOL    HW228257   4.747   1.046   1.492
 9120SOL     OW28258   5.956   1.703   6.034
 9120SOL    HW128259   5.998   1.684   6.123
 9120SOL    HW228260   5.998   1.785   5.995
 9121SOL     OW28261   2.928   1.951   5.116
 9121SOL    HW128262   2.895   1.873   5.170
 9121SOL    HW228263   2.970   2.019   5.176
 9122SOL     OW28264   1.905   4.243   2.497
 9122SOL    HW128265   1.871   4.280   2.584
 9122SOL    HW228266   1.861   4.291   2.421
 9123SOL     OW28267   2.319   0.468   4.184
 9123SOL    HW128268   2.241   0.473   4.123
 9123SOL    HW228269   2.375   0.550   4.173
 9124SOL     OW28270   5.766   6.426   6.899
 9124SOL    HW128271   5.703   6.381   6.836
 9124SOL    HW228272   5.719   6.500   6.947
 9125SOL     OW28273   4.812   4.382   1.271
 9125SOL    HW128274   4.791   4.308   1.336
 9125SOL    HW228275   4.906   4.414   1.287
 9126SOL     OW28276   5.510   3.305   1.908
 9126SOL    HW128277   5.518   3.332   1.812
 9126SOL    HW228278   5.429   3.248   1.921
 9127SOL     OW28279   6.032   1.103   6.052
 9127SOL    HW128280   6.086   1.169   6.105
 9127SOL    HW228281   6.093   1.040   6.006
 9128SOL     OW28282   5.763   1.435   5.370
 9128SOL    HW128283   5.834   1.422   5.439
 9128SOL    HW228284   5.737   1.532   5.367
 9129SOL     OW28285   0.603   2.501   0.506
 9129SOL    HW128286   0.505   2.511   0.492
 9129SOL    HW228287   0.653   2.535   0.426
 9130SOL     OW28288   6.945   3.541   6.654
 9130SOL    HW128289   6.917   3.467   6.592
 9130SOL    HW228290   0.017   3.528   6.680
 9131SOL     OW28291   6.064   2.925   5.381
 9131SOL    HW128292   6.024   2.978   5.306
 9131SOL    HW228293   6.161   2.948   5.390
 9132SOL     OW28294   0.552   5.450   4.276
 9132SOL    HW128295   0.516   5.380   4.215
 9132SOL    HW228296   0.545   5.540   4.231
 9133SOL     OW28297   4.068   5.435   1.814
 9133SOL    HW128298   4.066   5.388   1.902
 9133SOL    HW228299   3.975   5.448   1.780
 9134SOL     OW28300   4.982   5.423   0.938
 9134SOL    HW128301   4.884   5.416   0.921
 9134SOL    HW228302   5.017   5.334   0.968
 9135SOL     OW28303   6.597   6.824   2.044
 9135SOL    HW128304   6.689   6.857   2.022
 9135SOL    HW228305   6.603   6.732   2.083
 9136SOL     OW28306   4.878   5.550   6.546
 9136SOL    HW128307   4.929   5.469   6.517
 9136SOL    HW228308   4.875   5.616   6.471
 9137SOL     OW28309   5.664   1.150   0.891
 9137SOL    HW128310   5.672   1.068   0.834
 9137SOL    HW228311   5.568   1.161   0.919
 9138SOL     OW28312   0.316   5.502   6.264
 9138SOL    HW128313   0.300   5.485   6.167
 9138SOL    HW228314   0.405   5.465   6.291
 9139SOL     OW28315   2.966   1.762   3.501
 9139SOL    HW128316   2.875   1.753   3.459
 9139SOL    HW228317   2.969   1.846   3.555
 9140SOL     OW28318   6.511   3.585   2.901
 9140SOL    HW128319   6.452   3.507   2.879
 9140SOL    HW228320   6.528   3.639   2.818
 9141SOL     OW28321   5.455   0.451   0.768
 9141SOL    HW128322   5.382   0.411   0.825
 9141SOL    HW228323   5.492   0.531   0.815
 9142SOL     OW28324   0.699   2.691   0.922
 9142SOL    HW128325   0.633   2.642   0.979
 9142SOL    HW228326   0.773   2.725   0.979
 9143SOL     OW28327   6.025   3.533   6.563
 9143SOL    HW128328   6.010   3.498   6.655
 9143SOL    HW228329   5.939   3.532   6.512
 9144SOL     OW28330   2.389   5.144   4.805
 9144SOL    HW128331   2.427   5.216   4.747
 9144SOL    HW228332   2.462   5.101   4.858
 9145SOL     OW28333   0.210   5.579   0.310
 9145SOL    HW128334   0.227   5.675   0.332
 9145SOL    HW228335   0.161   5.536   0.386
 9146SOL     OW28336   5.278   2.742   3.356
 9146SOL    HW128337   5.185   2.715   3.380
 9146SOL    HW228338   5.279   2.782   3.264
 9147SOL     OW28339   6.189   0.410   5.016
 9147SOL    HW128340   6.228   0.502   5.007
 9147SOL    HW228341   6.090   0.415   5.011
 9148SOL     OW28342   5.141   6.113   1.194
 9148SOL    HW128343   5.188   6.180   1.251
 9148SOL    HW228344   5.133   6.149   1.101
 9149SOL     OW28345   5.902   3.905   3.540
 9149SOL    HW128346   5.844   3.921   3.460
 9149SOL    HW228347   5.961   3.826   3.523
 9150SOL     OW28348   3.292   5.655   1.351
 9150SOL    HW128349   3.232   5.723   1.309
 9150SOL    HW228350   3.242   5.607   1.423
 9151SOL     OW28351   1.862   4.074   3.312
 9151SOL    HW128352   1.794   4.147   3.323
 9151SOL    HW228353   1.919   4.068   3.394
 9152SOL     OW28354   2.291   4.160   4.511
 9152SOL    HW128355   2.339   4.242   4.544
 9152SOL    HW228356   2.253   4.111   4.589
 9153SOL     OW28357   1.602   3.257   6.472
 9153SOL    HW128358   1.558   3.197   6.539
 9153SOL    HW228359   1.578   3.226   6.380
 9154SOL     OW28360   4.524   4.822   0.128
 9154SOL    HW128361   4.610   4.784   0.094
 9154SOL    HW228362   4.449   4.796   0.066
 9155SOL     OW28363   1.738   3.690   2.162
 9155SOL    HW128364   1.774   3.617   2.220
 9155SOL    HW228365   1.661   3.734   2.208
 9156SOL     OW28366   1.021   2.185   6.936
 9156SOL    HW128367   1.025   2.143   0.003
 9156SOL    HW228368   0.946   2.144   6.884
 9157SOL     OW28369   1.080   4.090   6.179
 9157SOL    HW128370   0.990   4.094   6.135
 9157SOL    HW228371   1.146   4.139   6.123
 9158SOL     OW28372   5.585   3.401   4.193
 9158SOL    HW128373   5.596   3.484   4.248
 9158SOL    HW228374   5.674   3.357   4.181
 9159SOL     OW28375   1.966   0.905   2.059
 9159SOL    HW128376   2.019   0.989   2.054
 9159SOL    HW228377   1.869   0.925   2.045
 9160SOL     OW28378   6.287   6.470   5.360
 9160SOL    HW128379   6.332   6.559   5.346
 9160SOL    HW228380   6.238   6.471   5.447
 9161SOL     OW28381   5.193   4.161   3.905
 9161SOL    HW128382   5.291   4.150   3.890
 9161SOL    HW228383   5.150   4.071   3.913
 9162SOL     OW28384   4.349   1.165   3.770
 9162SOL    HW128385   4.388   1.170   3.862
 9162SOL    HW228386   4.340   1.069   3.744
 9163SOL     OW28387   1.305   2.238   4.959
 9163SOL    HW128388   1.332   2.227   4.864
 9163SOL    HW228389   1.238   2.168   4.983
 9164SOL     OW28390   2.836   6.806   6.676
 9164SOL    HW128391   2.893   6.728   6.649
 9164SOL    HW228392   2.893   6.876   6.718
 9165SOL     OW28393   6.288   1.489   5.337
 9165SOL    HW128394   6.369   1.506   5.280
 9165SOL    HW228395   6.311   1.502   5.433
 9166SOL     OW28396   3.865   6.152   1.495
 9166SOL    HW128397   3.928   6.108   1.559
 9166SOL    HW228398   3.796   6.086   1.466
 9167SOL     OW28399   2.018   2.376   6.064
 9167SOL    HW128400   1.957   2.302   6.091
 9167SOL    HW228401   2.105   2.368   6.112
 9168SOL     OW28402   6.868   6.427   6.252
 9168SOL    HW128403   6.768   6.416   6.255
 9168SOL    HW228404   6.896   6.443   6.158
 9169SOL     OW28405   6.370   0.177   6.004
 9169SOL    HW128406   6.469   0.173   6.018
 9169SOL    HW228407   6.323   0.132   6.080
 9170SOL     OW28408   1.365   6.464   6.816
 9170SOL    HW128409   1.302   6.387   6.811
 9170SOL    HW228410   1.453   6.438   6.776
 9171SOL     OW28411   4.273   4.972   1.027
 9171SOL    HW128412   4.275   4.887   0.974
 9171SOL    HW228413   4.231   4.955   1.116
 9172SOL     OW28414   4.406   0.979   2.630
 9172SOL    HW128415   4.374   0.917   2.701
 9172SOL    HW228416   4.336   0.989   2.560
 9173SOL     OW28417   6.401   3.823   5.999
 9173SOL    HW128418   6.414   3.779   6.088
 9173SOL    HW228419   6.490   3.842   5.958
 9174SOL     OW28420   6.322   4.604   1.596
 9174SOL    HW128421   6.299   4.512   1.628
 9174SOL    HW228422   6.386   4.598   1.520
 9175SOL     OW28423   0.900   0.052   6.089
 9175SOL    HW128424   0.896   0.097   6.178
 9175SOL    HW228425   0.976   0.090   6.036
 9176SOL     OW28426   2.147   0.704   3.389
 9176SOL    HW128427   2.074   0.773   3.387
 9176SOL    HW228428   2.119   0.629   3.449
 9177SOL     OW28429   0.757   4.941   4.023
 9177SOL    HW128430   0.800   4.997   3.951
 9177SOL    HW228431   0.660   4.964   4.029
 9178SOL     OW28432   1.884   5.637   0.649
 9178SOL    HW128433   1.921   5.685   0.570
 9178SOL    HW228434   1.956   5.582   0.692
 9179SOL     OW28435   1.623   5.112   3.349
 9179SOL    HW128436   1.703   5.171   3.362
 9179SOL    HW228437   1.610   5.056   3.431
 9180SOL     OW28438   6.532   2.617   3.444
 9180SOL    HW128439   6.496   2.578   3.529
 9180SOL    HW228440   6.613   2.566   3.415
 9181SOL     OW28441   6.086   2.730   4.415
 9181SOL    HW128442   6.030   2.653   4.445
 9181SOL    HW228443   6.150   2.756   4.488
 9182SOL     OW28444   2.651   6.859   3.077
 9182SOL    HW128445   2.560   6.846   3.116
 9182SOL    HW228446   2.720   6.826   3.142
 9183SOL     OW28447   4.325   4.826   0.324
 9183SOL    HW128448   4.294   4.915   0.358
 9183SOL    HW228449   4.406   4.839   0.267
 9184SOL     OW28450   4.642   2.398   0.819
 9184SOL    HW128451   4.658   2.486   0.866
 9184SOL    HW228452   4.593   2.337   0.881
 9185SOL     OW28453   5.047   6.569   5.048
 9185SOL    HW128454   5.027   6.571   5.146
 9185SOL    HW228455   5.129   6.624   5.030
 9186SOL     OW28456   5.718   6.378   4.669
 9186SOL    HW128457   5.769   6.464   4.662
 9186SOL    HW228458   5.756   6.312   4.605
 9187SOL     OW28459   3.239   1.618   0.401
 9187SOL    HW128460   3.277   1.547   0.342
 9187SOL    HW228461   3.288   1.704   0.387
 9188SOL     OW28462   1.630   6.891   1.422
 9188SOL    HW128463   1.689   6.817   1.389
 9188SOL    HW228464   1.597   6.869   1.514
 9189SOL     OW28465   2.763   6.210   2.180
 9189SOL    HW128466   2.691   6.270   2.147
 9189SOL    HW228467   2.827   6.190   2.105
 9190SOL     OW28468   1.878   4.001   5.236
 9190SOL    HW128469   1.967   4.041   5.213
 9190SOL    HW228470   1.867   3.914   5.188
 9191SOL     OW28471   5.728   1.337   0.195
 9191SOL    HW128472   5.818   1.379   0.204
 9191SOL    HW228473   5.695   1.349   0.101
 9192SOL     OW28474   0.248   2.137   6.183
 9192SOL    HW128475   0.195   2.054   6.171
 9192SOL    HW228476   0.189   2.210   6.218
 9193SOL     OW28477   3.891   3.639   5.119
 9193SOL    HW128478   3.857   3.561   5.172
 9193SOL    HW228479   3.870   3.624   5.022
 9194SOL     OW28480   3.636   1.186   3.044
 9194SOL    HW128481   3.587   1.270   3.066
 9194SOL    HW228482   3.713   1.207   2.984
 9195SOL     OW28483   0.720   2.995   2.115
 9195SOL    HW128484   0.742   3.086   2.152
 9195SOL    HW228485   0.777   2.926   2.159
 9196SOL     OW28486   5.606   0.523   3.537
 9196SOL    HW128487   5.570   0.610   3.504
 9196SOL    HW228488   5.706   0.524   3.535
 9197SOL     OW28489   2.774   5.123   1.330
 9197SOL    HW128490   2.791   5.205   1.276
 9197SOL    HW228491   2.770   5.043   1.270
 9198SOL     OW28492   5.958   4.420   6.643
 9198SOL    HW128493   5.957   4.461   6.552
 9198SOL    HW228494   5.938   4.491   6.711
 9199SOL     OW28495   0.135   3.245   5.301
 9199SOL    HW128496   0.145   3.155   5.259
 9199SOL    HW228497   0.167   3.315   5.236
 9200SOL     OW28498   3.114   6.093   6.885
 9200SOL    HW128499   3.105   5.999   6.917
 9200SOL    HW228500   3.032   6.145   6.911
 9201SOL     OW28501   0.350   3.659   0.231
 9201SOL    HW128502   0.358   3.646   0.329
 9201SOL    HW228503   0.255   3.642   0.203
 9202SOL     OW28504   0.800   6.219   2.982
 9202SOL    HW128505   0.798   6.119   2.987
 9202SOL    HW228506   0.875   6.248   2.923
 9203SOL     OW28507   6.563   3.276   6.283
 9203SOL    HW128508   6.492   3.276   6.213
 9203SOL    HW228509   6.626   3.199   6.268
 9204SOL     OW28510   4.891   3.214   5.193
 9204SOL    HW128511   4.811   3.170   5.233
 9204SOL    HW228512   4.964   3.218   5.261
 9205SOL     OW28513   5.246   5.880   3.254
 9205SOL    HW128514   5.322   5.934   3.289
 9205SOL    HW228515   5.164   5.900   3.309
 9206SOL     OW28516   3.323   5.137   3.532
 9206SOL    HW128517   3.406   5.191   3.550
 9206SOL    HW228518   3.243   5.186   3.569
 9207SOL     OW28519   4.860   4.482   6.422
 9207SOL    HW128520   4.948   4.512   6.383
 9207SOL    HW228521   4.875   4.444   6.513
 9208SOL     OW28522   5.786   4.643   3.690
 9208SOL    HW128523   5.688   4.665   3.683
 9208SOL    HW228524   5.839   4.722   3.659
 9209SOL     OW28525   4.330   0.694   0.390
 9209SOL    HW128526   4.272   0.713   0.469
 9209SOL    HW228527   4.342   0.777   0.336
 9210SOL     OW28528   1.335   1.931   2.053
 9210SOL    HW128529   1.409   1.989   2.088
 9210SOL    HW228530   1.299   1.971   1.969
 9211SOL     OW28531   6.566   2.823   5.880
 9211SOL    HW128532   6.485   2.789   5.928
 9211SOL    HW228533   6.630   2.748   5.864
 9212SOL     OW28534   4.333   5.725   4.745
 9212SOL    HW128535   4.320   5.723   4.844
 9212SOL    HW228536   4.246   5.706   4.700
 9213SOL     OW28537   5.317   4.571   5.256
 9213SOL    HW128538   5.352   4.662   5.233
 9213SOL    HW228539   5.338   4.508   5.181
 9214SOL     OW28540   0.064   3.242   5.812
 9214SOL    HW128541   6.991   3.240   5.786
 9214SOL    HW228542   0.119   3.264   5.732
 9215SOL     OW28543   2.066   3.291   2.072
 9215SOL    HW128544   1.972   3.321   2.061
 9215SOL    HW228545   2.128   3.359   2.031
 9216SOL     OW28546   2.992   0.400   3.480
 9216SOL    HW128547   3.068   0.393   3.545
 9216SOL    HW228548   3.027   0.399   3.387
 9217SOL     OW28549   6.252   3.445   6.400
 9217SOL    HW128550   6.164   3.484   6.427
 9217SOL    HW228551   6.272   3.365   6.457
 9218SOL     OW28552   2.588   0.583   6.998
 9218SOL    HW128553   2.632   0.624   0.054
 9218SOL    HW228554   2.510   0.639   6.970
 9219SOL     OW28555   5.449   4.011   6.629
 9219SOL    HW128556   5.458   4.017   6.729
 9219SOL    HW228557   5.364   3.963   6.607
 9220SOL     OW28558   0.879   5.939   1.488
 9220SOL    HW128559   0.860   6.037   1.481
 9220SOL    HW228560   0.877   5.912   1.585
 9221SOL     OW28561   1.666   0.946   2.959
 9221SOL    HW128562   1.720   0.908   2.883
 9221SOL    HW228563   1.575   0.906   2.958
 9222SOL     OW28564   2.275   5.612   6.000
 9222SOL    HW128565   2.341   5.581   6.068
 9222SOL    HW228566   2.189   5.563   6.013
 9223SOL     OW28567   0.999   2.209   4.060
 9223SOL    HW128568   0.953   2.228   4.147
 9223SOL    HW228569   1.065   2.135   4.072
 9224SOL     OW28570   0.870   5.383   4.294
 9224SOL    HW128571   0.812   5.433   4.359
 9224SOL    HW228572   0.845   5.408   4.201
 9225SOL     OW28573   3.292   5.933   6.371
 9225SOL    HW128574   3.287   6.027   6.336
 9225SOL    HW228575   3.259   5.931   6.465
 9226SOL     OW28576   6.814   6.406   1.105
 9226SOL    HW128577   6.766   6.349   1.172
 9226SOL    HW228578   6.766   6.493   1.095
 9227SOL     OW28579   1.891   6.042   1.608
 9227SOL    HW128580   1.850   6.042   1.517
 9227SOL    HW228581   1.847   6.111   1.665
 9228SOL     OW28582   2.774   1.708   6.511
 9228SOL    HW128583   2.722   1.628   6.481
 9228SOL    HW228584   2.831   1.740   6.436
 9229SOL     OW28585   1.405   5.486   4.968
 9229SOL    HW128586   1.415   5.485   4.868
 9229SOL    HW228587   1.475   5.427   5.009
 9230SOL     OW28588   5.268   2.784   3.633
 9230SOL    HW128589   5.180   2.830   3.642
 9230SOL    HW228590   5.301   2.794   3.539
 9231SOL     OW28591   1.102   3.035   4.535
 9231SOL    HW128592   1.172   3.057   4.468
 9231SOL    HW228593   1.057   3.119   4.565
 9232SOL     OW28594   3.537   5.373   6.779
 9232SOL    HW128595   3.452   5.426   6.785
 9232SOL    HW228596   3.532   5.295   6.842
 9233SOL     OW28597   6.003   5.990   2.029
 9233SOL    HW128598   6.099   6.018   2.029
 9233SOL    HW228599   5.993   5.908   2.086
 9234SOL     OW28600   3.986   5.312   6.585
 9234SOL    HW128601   4.052   5.248   6.624
 9234SOL    HW228602   3.904   5.263   6.556
 9235SOL     OW28603   1.508   3.025   3.768
 9235SOL    HW128604   1.561   2.945   3.796
 9235SOL    HW228605   1.426   3.033   3.825
 9236SOL     OW28606   1.628   4.448   6.073
 9236SOL    HW128607   1.577   4.385   6.014
 9236SOL    HW228608   1.673   4.397   6.146
 9237SOL     OW28609   0.443   6.459   3.732
 9237SOL    HW128610   0.431   6.453   3.633
 9237SOL    HW228611   0.401   6.380   3.776
 9238SOL     OW28612   1.944   1.862   0.161
 9238SOL    HW128613   1.994   1.869   0.247
 9238SOL    HW228614   1.889   1.778   0.161
 9239SOL     OW28615   6.930   3.903   0.173
 9239SOL    HW128616   6.998   3.899   0.247
 9239SOL    HW228617   6.973   3.937   0.090
 9240SOL     OW28618   4.899   2.325   1.893
 9240SOL    HW128619   4.913   2.312   1.991
 9240SOL    HW228620   4.950   2.405   1.863
 9241SOL     OW28621   1.128   5.244   5.717
 9241SOL    HW128622   1.140   5.164   5.776
 9241SOL    HW228623   1.186   5.235   5.636
 9242SOL     OW28624   1.355   5.125   0.229
 9242SOL    HW128625   1.341   5.224   0.216
 9242SOL    HW228626   1.275   5.076   0.194
 9243SOL     OW28627   0.061   6.951   1.783
 9243SOL    HW128628   0.128   6.945   1.857
 9243SOL    HW228629   0.103   6.995   1.704
 9244SOL     OW28630   3.930   5.126   6.272
 9244SOL    HW128631   3.887   5.048   6.227
 9244SOL    HW228632   3.896   5.133   6.366
 9245SOL     OW28633   1.244   5.358   3.744
 9245SOL    HW128634   1.155   5.322   3.715
 9245SOL    HW228635   1.317   5.310   3.697
 9246SOL     OW28636   5.855   6.252   2.099
 9246SOL    HW128637   5.878   6.159   2.072
 9246SOL    HW228638   5.834   6.255   2.196
 9247SOL     OW28639   1.967   6.326   3.705
 9247SOL    HW128640   1.869   6.309   3.716
 9247SOL    HW228641   2.005   6.259   3.641
 9248SOL     OW28642   2.628   2.388   4.941
 9248SOL    HW128643   2.698   2.356   5.005
 9248SOL    HW228644   2.549   2.327   4.945
 9249SOL     OW28645   3.525   3.634   0.860
 9249SOL    HW128646   3.502   3.636   0.763
 9249SOL    HW228647   3.619   3.599   0.871
 9250SOL     OW28648   6.122   2.996   4.025
 9250SOL    HW128649   6.175   2.927   4.074
 9250SOL    HW228650   6.153   3.001   3.930
 9251SOL     OW28651   3.404   1.798   2.834
 9251SOL    HW128652   3.325   1.847   2.869
 9251SOL    HW228653   3.408   1.809   2.734
 9252SOL     OW28654   4.982   0.097   3.810
 9252SOL    HW128655   4.943   0.096   3.718
 9252SOL    HW228656   5.010   0.005   3.835
 9253SOL     OW28657   5.703   5.946   6.019
 9253SOL    HW128658   5.793   5.989   6.021
 9253SOL    HW228659   5.713   5.846   6.014
 9254SOL     OW28660   5.898   5.034   2.956
 9254SOL    HW128661   5.838   5.000   2.884
 9254SOL    HW228662   5.991   5.041   2.922
 9255SOL     OW28663   4.534   4.194   0.219
 9255SOL    HW128664   4.502   4.099   0.228
 9255SOL    HW228665   4.516   4.243   0.304
 9256SOL     OW28666   2.658   0.612   2.874
 9256SOL    HW128667   2.675   0.666   2.791
 9256SOL    HW228668   2.712   0.528   2.871
 9257SOL     OW28669   0.541   4.047   2.945
 9257SOL    HW128670   0.618   3.993   2.912
 9257SOL    HW228671   0.529   4.033   3.043
 9258SOL     OW28672   2.941   3.164   2.448
 9258SOL    HW128673   2.916   3.259   2.430
 9258SOL    HW228674   2.914   3.107   2.371
 9259SOL     OW28675   1.010   2.472   0.167
 9259SOL    HW128676   1.066   2.453   0.086
 9259SOL    HW228677   1.066   2.519   0.236
 9260SOL     OW28678   6.108   1.505   5.001
 9260SOL    HW128679   6.042   1.436   5.031
 9260SOL    HW228680   6.110   1.580   5.068
 9261SOL     OW28681   2.458   1.395   0.515
 9261SOL    HW128682   2.379   1.456   0.513
 9261SOL    HW228683   2.542   1.448   0.504
 9262SOL     OW28684   6.969   4.999   5.199
 9262SOL    HW128685   0.014   5.070   5.180
 9262SOL    HW228686   7.014   4.922   5.244
 9263SOL     OW28687   4.828   6.922   1.329
 9263SOL    HW128688   4.902   6.915   1.397
 9263SOL    HW228689   4.852   6.868   1.249
 9264SOL     OW28690   4.728   4.758   0.603
 9264SOL    HW128691   4.827   4.763   0.610
 9264SOL    HW228692   4.687   4.843   0.636
 9265SOL     OW28693   3.194   1.851   0.790
 9265SOL    HW128694   3.134   1.892   0.858
 9265SOL    HW228695   3.204   1.914   0.712
 9266SOL     OW28696   1.952   6.988   1.302
 9266SOL    HW128697   2.045   6.980   1.264
 9266SOL    HW228698   1.917   6.896   1.323
 9267SOL     OW28699   0.012   2.785   4.362
 9267SOL    HW128700   0.094   2.841   4.354
 9267SOL    HW228701   7.009   2.751   4.272
 9268SOL     OW28702   0.872   5.325   2.788
 9268SOL    HW128703   0.892   5.415   2.828
 9268SOL    HW228704   0.861   5.258   2.861
 9269SOL     OW28705   3.625   1.576   6.118
 9269SOL    HW128706   3.558   1.598   6.047
 9269SOL    HW228707   3.580   1.578   6.207
 9270SOL     OW28708   4.551   7.018   6.546
 9270SOL    HW128709   4.612   6.959   6.493
 9270SOL    HW228710   4.475   0.024   6.489
 9271SOL     OW28711   5.661   0.006   0.736
 9271SOL    HW128712   5.717   0.071   0.684
 9271SOL    HW228713   5.716   6.948   0.758
 9272SOL     OW28714   1.097   5.948   4.757
 9272SOL    HW128715   1.089   5.852   4.731
 9272SOL    HW228716   1.155   5.956   4.838
 9273SOL     OW28717   5.704   6.771   2.798
 9273SOL    HW128718   5.623   6.829   2.791
 9273SOL    HW228719   5.686   6.697   2.863
 9274SOL     OW28720   6.270   1.809   6.910
 9274SOL    HW128721   6.214   1.877   6.863
 9274SOL    HW228722   6.244   1.805   7.007
 9275SOL     OW28723   6.381   0.856   0.404
 9275SOL    HW128724   6.300   0.798   0.391
 9275SOL    HW228725   6.402   0.862   0.502
 9276SOL     OW28726   1.844   3.363   1.597
 9276SOL    HW128727   1.785   3.377   1.517
 9276SOL    HW228728   1.839   3.442   1.657
 9277SOL     OW28729   4.720   3.766   0.343
 9277SOL    HW128730   4.705   3.680   0.392
 9277SOL    HW228731   4.683   3.842   0.396
 9278SOL     OW28732   2.036   0.449   5.674
 9278SOL    HW128733   2.110   0.473   5.737
 9278SOL    HW228734   1.993   0.532   5.640
 9279SOL     OW28735   4.246   1.304   2.280
 9279SOL    HW128736   4.335   1.282   2.240
 9279SOL    HW228737   4.180   1.318   2.207
 9280SOL     OW28738   1.830   2.025   3.407
 9280SOL    HW128739   1.923   1.987   3.406
 9280SOL    HW228740   1.820   2.085   3.487
 9281SOL     OW28741   2.582   3.654   6.842
 9281SOL    HW128742   2.507   3.591   6.864
 9281SOL    HW228743   2.574   3.735   6.900
 9282SOL     OW28744   5.128   1.117   3.721
 9282SOL    HW128745   5.140   1.197   3.781
 9282SOL    HW228746   5.120   1.035   3.777
 9283SOL     OW28747   5.583   0.353   4.255
 9283SOL    HW128748   5.670   0.366   4.302
 9283SOL    HW228749   5.529   0.436   4.261
 9284SOL     OW28750   3.232   3.400   5.153
 9284SOL    HW128751   3.162   3.378   5.220
 9284SOL    HW228752   3.267   3.315   5.112
 9285SOL     OW28753   5.133   2.369   0.826
 9285SOL    HW128754   5.056   2.313   0.854
 9285SOL    HW228755   5.117   2.464   0.852
 9286SOL     OW28756   5.321   5.688   1.020
 9286SOL    HW128757   5.257   5.755   1.056
 9286SOL    HW228758   5.399   5.735   0.978
 9287SOL     OW28759   2.926   4.787   6.737
 9287SOL    HW128760   2.880   4.836   6.811
 9287SOL    HW228761   2.992   4.723   6.775
 9288SOL     OW28762   4.866   1.240   3.347
 9288SOL    HW128763   4.787   1.205   3.398
 9288SOL    HW228764   4.905   1.318   3.394
 9289SOL     OW28765   3.734   1.219   2.559
 9289SOL    HW128766   3.649   1.271   2.572
 9289SOL    HW228767   3.756   1.214   2.462
 9290SOL     OW28768   5.764   1.448   3.068
 9290SOL    HW128769   5.813   1.520   3.117
 9290SOL    HW228770   5.817   1.363   3.072
 9291SOL     OW28771   1.245   6.110   4.323
 9291SOL    HW128772   1.309   6.073   4.390
 9291SOL    HW228773   1.160   6.135   4.368
 9292SOL     OW28774   1.898   2.830   6.634
 9292SOL    HW128775   1.933   2.827   6.727
 9292SOL    HW228776   1.964   2.878   6.575
 9293SOL     OW28777   5.249   2.992   6.621
 9293SOL    HW128778   5.314   2.991   6.697
 9293SOL    HW228779   5.157   3.011   6.657
 9294SOL     OW28780   4.235   0.636   5.621
 9294SOL    HW128781   4.316   0.661   5.567
 9294SOL    HW228782   4.154   0.642   5.563
 9295SOL     OW28783   5.532   1.876   4.788
 9295SOL    HW128784   5.452   1.936   4.785
 9295SOL    HW228785   5.613   1.925   4.755
 9296SOL     OW28786   1.367   5.712   6.792
 9296SOL    HW128787   1.327   5.759   6.713
 9296SOL    HW228788   1.320   5.624   6.806
 9297SOL     OW28789   6.795   0.005   2.369
 9297SOL    HW128790   6.835   6.937   2.362
 9297SOL    HW228791   6.852   0.070   2.319
 9298SOL     OW28792   1.357   6.789   5.872
 9298SOL    HW128793   1.317   6.755   5.958
 9298SOL    HW228794   1.326   6.731   5.797
 9299SOL     OW28795   0.719   2.476   5.421
 9299SOL    HW128796   0.752   2.568   5.445
 9299SOL    HW228797   0.796   2.419   5.393
 9300SOL     OW28798   0.039   4.726   5.651
 9300SOL    HW128799   6.985   4.754   5.708
 9300SOL    HW228800   0.008   4.715   5.556
 9301SOL     OW28801   5.242   4.973   4.138
 9301SOL    HW128802   5.295   4.992   4.220
 9301SOL    HW228803   5.145   4.965   4.163
 9302SOL     OW28804   2.452   2.571   4.398
 9302SOL    HW128805   2.414   2.585   4.307
 9302SOL    HW228806   2.540   2.525   4.392
 9303SOL     OW28807   2.669   3.824   0.743
 9303SOL    HW128808   2.706   3.842   0.834
 9303SOL    HW228809   2.671   3.908   0.689
 9304SOL     OW28810   4.012   4.753   1.808
 9304SOL    HW128811   4.105   4.718   1.796
 9304SOL    HW228812   3.967   4.760   1.719
 9305SOL     OW28813   3.142   1.296   0.746
 9305SOL    HW128814   3.139   1.323   0.843
 9305SOL    HW228815   3.184   1.369   0.693
 9306SOL     OW28816   0.298   5.590   5.101
 9306SOL    HW128817   0.244   5.674   5.090
 9306SOL    HW228818   0.389   5.604   5.063
 9307SOL     OW28819   1.707   3.420   1.374
 9307SOL    HW128820   1.736   3.395   1.282
 9307SOL    HW228821   1.623   3.371   1.397
 9308SOL     OW28822   2.519   3.199   0.533
 9308SOL    HW128823   2.481   3.205   0.441
 9308SOL    HW228824   2.516   3.289   0.576
 9309SOL     OW28825   3.622   4.278   5.655
 9309SOL    HW128826   3.698   4.224   5.618
 9309SOL    HW228827   3.536   4.245   5.616
 9310SOL     OW28828   4.985   4.996   6.694
 9310SOL    HW128829   5.034   5.025   6.612
 9310SOL    HW228830   5.044   4.936   6.749
 9311SOL     OW28831   4.421   4.868   1.640
 9311SOL    HW128832   4.453   4.802   1.572
 9311SOL    HW228833   4.381   4.947   1.594
 9312SOL     OW28834   1.179   3.714   1.161
 9312SOL    HW128835   1.146   3.799   1.203
 9312SOL    HW228836   1.268   3.730   1.119
 9313SOL     OW28837   0.635   0.969   0.985
 9313SOL    HW128838   0.568   0.964   0.911
 9313SOL    HW228839   0.714   0.912   0.963
 9314SOL     OW28840   5.160   4.725   7.012
 9314SOL    HW128841   5.127   4.747   6.920
 9314SOL    HW228842   5.257   4.748   7.019
 9315SOL     OW28843   6.333   0.194   5.082
 9315SOL    HW128844   6.327   0.204   5.181
 9315SOL    HW228845   6.283   0.269   5.038
 9316SOL     OW28846   5.368   6.465   5.975
 9316SOL    HW128847   5.430   6.514   6.037
 9316SOL    HW228848   5.274   6.477   6.005
 9317SOL     OW28849   5.430   4.896   3.535
 9317SOL    HW128850   5.413   4.976   3.593
 9317SOL    HW228851   5.343   4.856   3.508
 9318SOL     OW28852   5.553   0.670   5.860
 9318SOL    HW128853   5.562   0.647   5.957
 9318SOL    HW228854   5.495   0.602   5.814
 9319SOL     OW28855   2.763   2.854   0.027
 9319SOL    HW128856   2.800   2.942   0.059
 9319SOL    HW228857   2.673   2.868   7.009
 9320SOL     OW28858   3.556   0.779   5.217
 9320SOL    HW128859   3.607   0.757   5.134
 9320SOL    HW228860   3.463   0.807   5.193
 9321SOL     OW28861   0.184   0.419   4.246
 9321SOL    HW128862   0.144   0.498   4.202
 9321SOL    HW228863   0.134   0.337   4.220
 9322SOL     OW28864   6.806   3.432   6.273
 9322SOL    HW128865   6.810   3.523   6.231
 9322SOL    HW228866   6.712   3.398   6.271
 9323SOL     OW28867   1.434   0.616   5.947
 9323SOL    HW128868   1.375   0.660   5.880
 9323SOL    HW228869   1.466   0.528   5.912
 9324SOL     OW28870   1.197   4.287   1.013
 9324SOL    HW128871   1.293   4.280   1.042
 9324SOL    HW228872   1.137   4.261   1.089
 9325SOL     OW28873   5.876   0.787   7.018
 9325SOL    HW128874   5.922   0.709   6.975
 9325SOL    HW228875   5.864   0.860   6.951
 9326SOL     OW28876   2.500   5.339   0.692
 9326SOL    HW128877   2.525   5.297   0.779
 9326SOL    HW228878   2.517   5.275   0.618
 9327SOL     OW28879   5.123   0.337   3.043
 9327SOL    HW128880   5.158   0.275   3.113
 9327SOL    HW228881   5.029   0.312   3.020
 9328SOL     OW28882   2.615   1.228   4.914
 9328SOL    HW128883   2.656   1.248   5.003
 9328SOL    HW228884   2.580   1.312   4.873
 9329SOL     OW28885   6.115   3.735   1.106
 9329SOL    HW128886   6.128   3.659   1.042
 9329SOL    HW228887   6.022   3.732   1.144
 9330SOL     OW28888   6.742   0.302   5.660
 9330SOL    HW128889   6.671   0.372   5.652
 9330SOL    HW228890   6.811   0.333   5.726
 9331SOL     OW28891   1.940   0.982   0.183
 9331SOL    HW128892   1.859   0.931   0.153
 9331SOL    HW228893   2.022   0.940   0.145
 9332SOL     OW28894   4.184   4.266   1.148
 9332SOL    HW128895   4.190   4.167   1.138
 9332SOL    HW228896   4.269   4.302   1.185
 9333SOL     OW28897   4.003   3.724   0.003
 9333SOL    HW128898   4.089   3.688   0.040
 9333SOL    HW228899   3.946   3.648   6.995
 9334SOL     OW28900   5.596   6.043   3.589
 9334SOL    HW128901   5.622   6.090   3.674
 9334SOL    HW228902   5.532   5.969   3.611
 9335SOL     OW28903   0.974   1.022   6.788
 9335SOL    HW128904   1.012   0.967   6.713
 9335SOL    HW228905   1.031   1.103   6.803
 9336SOL     OW28906   3.536   6.049   5.942
 9336SOL    HW128907   3.484   6.009   6.017
 9336SOL    HW228908   3.477   6.062   5.862
 9337SOL     OW28909   3.756   1.316   4.555
 9337SOL    HW128910   3.853   1.329   4.572
 9337SOL    HW228911   3.703   1.384   4.606
 9338SOL     OW28912   5.966   6.673   1.711
 9338SOL    HW128913   6.057   6.639   1.737
 9338SOL    HW228914   5.915   6.697   1.794
 9339SOL     OW28915   6.437   6.487   1.258
 9339SOL    HW128916   6.393   6.475   1.348
 9339SOL    HW228917   6.393   6.563   1.210
 9340SOL     OW28918   4.369   4.669   3.667
 9340SOL    HW128919   4.316   4.672   3.752
 9340SOL    HW228920   4.309   4.685   3.589
 9341SOL     OW28921   0.182   5.298   0.963
 9341SOL    HW128922   0.123   5.372   0.932
 9341SOL    HW228923   0.153   5.212   0.921
 9342SOL     OW28924   3.377   6.248   3.722
 9342SOL    HW128925   3.427   6.233   3.807
 9342SOL    HW228926   3.422   6.321   3.670
 9343SOL     OW28927   5.484   4.408   1.605
 9343SOL    HW128928   5.534   4.331   1.645
 9343SOL    HW228929   5.536   4.492   1.618
 9344SOL     OW28930   5.372   6.515   2.763
 9344SOL    HW128931   5.321   6.472   2.838
 9344SOL    HW228932   5.427   6.446   2.716
 9345SOL     OW28933   6.606   5.817   1.830
 9345SOL    HW128934   6.651   5.807   1.741
 9345SOL    HW228935   6.665   5.778   1.901
 9346SOL     OW28936   5.860   1.018   1.426
 9346SOL    HW128937   5.954   1.052   1.427
 9346SOL    HW228938   5.837   0.986   1.334
 9347SOL     OW28939   3.169   3.918   0.070
 9347SOL    HW128940   3.168   3.826   0.107
 9347SOL    HW228941   3.147   3.915   6.996
 9348SOL     OW28942   2.723   6.624   2.953
 9348SOL    HW128943   2.660   6.571   2.896
 9348SOL    HW228944   2.681   6.711   2.976
 9349SOL     OW28945   6.665   5.143   2.376
 9349SOL    HW128946   6.681   5.118   2.280
 9349SOL    HW228947   6.692   5.067   2.435
 9350SOL     OW28948   6.840   2.783   5.150
 9350SOL    HW128949   6.785   2.766   5.068
 9350SOL    HW228950   6.919   2.720   5.151
 9351SOL     OW28951   3.132   6.424   6.544
 9351SOL    HW128952   3.099   6.331   6.559
 9351SOL    HW228953   3.220   6.421   6.496
 9352SOL     OW28954   3.931   1.940   6.058
 9352SOL    HW128955   3.900   1.895   5.974
 9352SOL    HW228956   3.922   1.876   6.135
 9353SOL     OW28957   0.956   4.268   0.887
 9353SOL    HW128958   0.943   4.179   0.842
 9353SOL    HW228959   1.052   4.279   0.912
 9354SOL     OW28960   0.398   1.729   6.324
 9354SOL    HW128961   0.339   1.703   6.248
 9354SOL    HW228962   0.491   1.695   6.308
 9355SOL     OW28963   0.354   1.851   4.789
 9355SOL    HW128964   0.281   1.918   4.778
 9355SOL    HW228965   0.315   1.767   4.827
 9356SOL     OW28966   4.695   6.618   2.272
 9356SOL    HW128967   4.650   6.595   2.358
 9356SOL    HW228968   4.646   6.694   2.229
 9357SOL     OW28969   1.552   3.720   6.494
 9357SOL    HW128970   1.529   3.642   6.436
 9357SOL    HW228971   1.474   3.742   6.552
 9358SOL     OW28972   0.253   2.801   1.681
 9358SOL    HW128973   0.297   2.874   1.629
 9358SOL    HW228974   0.305   2.784   1.765
 9359SOL     OW28975   2.113   4.187   5.669
 9359SOL    HW128976   2.128   4.257   5.599
 9359SOL    HW228977   2.064   4.226   5.746
 9360SOL     OW28978   1.044   4.510   6.722
 9360SOL    HW128979   1.119   4.550   6.669
 9360SOL    HW228980   0.969   4.576   6.728
 9361SOL     OW28981   1.419   5.286   2.686
 9361SOL    HW128982   1.405   5.207   2.626
 9361SOL    HW228983   1.344   5.292   2.752
 9362SOL     OW28984   1.899   2.416   3.398
 9362SOL    HW128985   1.836   2.342   3.373
 9362SOL    HW228986   1.928   2.463   3.315
 9363SOL     OW28987   3.382   6.521   1.447
 9363SOL    HW128988   3.305   6.531   1.385
 9363SOL    HW228989   3.438   6.442   1.419
 9364SOL     OW28990   2.964   3.062   6.378
 9364SOL    HW128991   2.921   2.983   6.334
 9364SOL    HW228992   2.977   3.135   6.312
 9365SOL     OW28993   2.710   2.105   4.109
 9365SOL    HW128994   2.688   2.088   4.013
 9365SOL    HW228995   2.666   2.036   4.167
 9366SOL     OW28996   3.730   5.625   6.063
 9366SOL    HW128997   3.738   5.724   6.047
 9366SOL    HW228998   3.742   5.606   6.161
 9367SOL     OW28999   6.744   6.645   2.839
 9367SOL    HW129000   6.731   6.569   2.775
 9367SOL    HW229001   6.819   6.703   2.806
 9368SOL     OW29002   3.102   0.763   2.841
 9368SOL    HW129003   3.078   0.669   2.816
 9368SOL    HW229004   3.139   0.764   2.934
 9369SOL     OW29005   0.036   6.506   3.959
 9369SOL    HW129006   0.094   6.558   4.022
 9369SOL    HW229007   0.027   6.556   3.873
 9370SOL     OW29008   5.359   0.547   3.919
 9370SOL    HW129009   5.447   0.560   3.963
 9370SOL    HW229010   5.290   0.523   3.987
 9371SOL     OW29011   2.691   4.786   0.350
 9371SOL    HW129012   2.783   4.779   0.387
 9371SOL    HW229013   2.683   4.869   0.295
 9372SOL     OW29014   4.837   0.465   1.707
 9372SOL    HW129015   4.931   0.434   1.724
 9372SOL    HW229016   4.838   0.562   1.682
 9373SOL     OW29017   4.682   2.150   1.624
 9373SOL    HW129018   4.612   2.213   1.656
 9373SOL    HW229019   4.642   2.059   1.614
 9374SOL     OW29020   0.428   3.275   0.302
 9374SOL    HW129021   0.413   3.260   0.204
 9374SOL    HW229022   0.510   3.331   0.315
 9375SOL     OW29023   0.862   1.734   1.343
 9375SOL    HW129024   0.928   1.660   1.346
 9375SOL    HW229025   0.826   1.744   1.250
 9376SOL     OW29026   2.107   4.096   1.326
 9376SOL    HW129027   2.202   4.116   1.304
 9376SOL    HW229028   2.073   4.163   1.392
 9377SOL     OW29029   1.750   5.299   3.155
 9377SOL    HW129030   1.787   5.215   3.193
 9377SOL    HW229031   1.823   5.366   3.144
 9378SOL     OW29032   2.316   0.921   3.539
 9378SOL    HW129033   2.242   0.879   3.486
 9378SOL    HW229034   2.397   0.930   3.481
 9379SOL     OW29035   4.631   0.450   5.382
 9379SOL    HW129036   4.575   0.445   5.300
 9379SOL    HW229037   4.658   0.358   5.410
 9380SOL     OW29038   3.918   5.719   5.726
 9380SOL    HW129039   3.882   5.652   5.661
 9380SOL    HW229040   3.922   5.678   5.818
 9381SOL     OW29041   4.744   2.971   5.747
 9381SOL    HW129042   4.751   2.916   5.830
 9381SOL    HW229043   4.807   3.049   5.753
 9382SOL     OW29044   3.928   0.383   4.094
 9382SOL    HW129045   3.893   0.470   4.058
 9382SOL    HW229046   4.027   0.378   4.076
 9383SOL     OW29047   5.629   5.627   4.353
 9383SOL    HW129048   5.579   5.710   4.330
 9383SOL    HW229049   5.640   5.621   4.452
 9384SOL     OW29050   4.418   0.550   2.029
 9384SOL    HW129051   4.395   0.628   1.971
 9384SOL    HW229052   4.353   0.475   2.012
 9385SOL     OW29053   4.403   1.425   3.686
 9385SOL    HW129054   4.378   1.330   3.706
 9385SOL    HW229055   4.357   1.454   3.602
 9386SOL     OW29056   3.414   6.036   5.258
 9386SOL    HW129057   3.341   6.024   5.325
 9386SOL    HW229058   3.394   6.115   5.200
 9387SOL     OW29059   2.688   2.096   0.267
 9387SOL    HW129060   2.660   2.000   0.267
 9387SOL    HW229061   2.756   2.111   0.340
 9388SOL     OW29062   2.684   5.836   3.039
 9388SOL    HW129063   2.704   5.762   2.974
 9388SOL    HW229064   2.586   5.858   3.035
 9389SOL     OW29065   2.081   0.134   3.359
 9389SOL    HW129066   2.034   0.220   3.382
 9389SOL    HW229067   2.172   0.134   3.401
 9390SOL     OW29068   5.261   4.597   6.604
 9390SOL    HW129069   5.279   4.501   6.624
 9390SOL    HW229070   5.220   4.641   6.684
 9391SOL     OW29071   1.314   0.731   5.739
 9391SOL    HW129072   1.349   0.825   5.736
 9391SOL    HW229073   1.335   0.685   5.652
 9392SOL     OW29074   5.175   5.560   5.713
 9392SOL    HW129075   5.171   5.539   5.615
 9392SOL    HW229076   5.163   5.658   5.726
 9393SOL     OW29077   2.512   6.988   6.197
 9393SOL    HW129078   2.604   6.951   6.182
 9393SOL    HW229079   2.496   6.998   6.296
 9394SOL     OW29080   6.619   0.847   1.957
 9394SOL    HW129081   6.599   0.759   2.001
 9394SOL    HW229082   6.665   0.831   1.869
 9395SOL     OW29083   2.926   0.920   1.330
 9395SOL    HW129084   2.838   0.877   1.311
 9395SOL    HW229085   2.933   0.939   1.428
 9396SOL     OW29086   2.150   4.067   4.062
 9396SOL    HW129087   2.130   3.971   4.082
 9396SOL    HW229088   2.225   4.073   3.996
 9397SOL     OW29089   3.589   6.149   6.254
 9397SOL    HW129090   3.610   6.081   6.324
 9397SOL    HW229091   3.489   6.159   6.246
 9398SOL     OW29092   6.217   0.876   5.436
 9398SOL    HW129093   6.173   0.823   5.508
 9398SOL    HW229094   6.226   0.971   5.465
 9399SOL     OW29095   0.839   2.909   5.252
 9399SOL    HW129096   0.932   2.890   5.222
 9399SOL    HW229097   0.835   3.000   5.294
 9400SOL     OW29098   5.575   0.966   1.297
 9400SOL    HW129099   5.536   0.929   1.382
 9400SOL    HW229100   5.504   1.018   1.249
 9401SOL     OW29101   6.861   1.480   2.991
 9401SOL    HW129102   6.764   1.501   3.004
 9401SOL    HW229103   6.873   1.430   2.905
 9402SOL     OW29104   1.392   4.782   3.146
 9402SOL    HW129105   1.354   4.793   3.238
 9402SOL    HW229106   1.470   4.844   3.135
 9403SOL     OW29107   6.179   1.350   1.812
 9403SOL    HW129108   6.205   1.314   1.901
 9403SOL    HW229109   6.126   1.281   1.763
 9404SOL     OW29110   0.966   2.147   0.789
 9404SOL    HW129111   0.978   2.246   0.785
 9404SOL    HW229112   1.023   2.104   0.719
 9405SOL     OW29113   2.240   4.104   3.798
 9405SOL    HW129114   2.320   4.119   3.740
 9405SOL    HW229115   2.177   4.041   3.752
 9406SOL     OW29116   1.023   2.430   6.238
 9406SOL    HW129117   1.060   2.497   6.174
 9406SOL    HW229118   1.037   2.338   6.201
 9407SOL     OW29119   2.265   5.029   3.457
 9407SOL    HW129120   2.239   5.023   3.360
 9407SOL    HW229121   2.353   5.076   3.465
 9408SOL     OW29122   6.881   3.240   6.099
 9408SOL    HW129123   6.960   3.242   6.038
 9408SOL    HW229124   6.886   3.316   6.163
 9409SOL     OW29125   6.432   5.753   1.120
 9409SOL    HW129126   6.493   5.711   1.053
 9409SOL    HW229127   6.356   5.691   1.138
 9410SOL     OW29128   2.143   0.956   2.438
 9410SOL    HW129129   2.092   0.946   2.523
 9410SOL    HW229130   2.145   0.869   2.389
 9411SOL     OW29131   3.659   3.200   3.135
 9411SOL    HW129132   3.716   3.277   3.163
 9411SOL    HW229133   3.694   3.161   3.051
 9412SOL     OW29134   1.917   1.362   1.958
 9412SOL    HW129135   1.841   1.300   1.977
 9412SOL    HW229136   1.945   1.408   2.042
 9413SOL     OW29137   4.659   4.905   3.729
 9413SOL    HW129138   4.751   4.929   3.697
 9413SOL    HW229139   4.660   4.813   3.766
 9414SOL     OW29140   2.765   1.039   3.583
 9414SOL    HW129141   2.750   0.983   3.502
 9414SOL    HW229142   2.840   1.103   3.566
 9415SOL     OW29143   2.066   0.002   2.548
 9415SOL    HW129144   2.136   7.000   2.615
 9415SOL    HW229145   2.087   6.982   2.460
 9416SOL     OW29146   0.296   1.129   6.094
 9416SOL    HW129147   0.218   1.189   6.077
 9416SOL    HW229148   0.324   1.086   6.008
 9417SOL     OW29149   3.619   0.692   1.099
 9417SOL    HW129150   3.658   0.784   1.111
 9417SOL    HW229151   3.676   0.626   1.148
 9418SOL     OW29152   1.944   0.993   1.511
 9418SOL    HW129153   2.004   1.072   1.506
 9418SOL    HW229154   1.985   0.916   1.462
 9419SOL     OW29155   2.228   3.783   6.509
 9419SOL    HW129156   2.240   3.705   6.570
 9419SOL    HW229157   2.287   3.858   6.539
 9420SOL     OW29158   6.050   4.924   0.746
 9420SOL    HW129159   6.053   4.998   0.679
 9420SOL    HW229160   6.121   4.857   0.725
 9421SOL     OW29161   2.946   6.357   4.919
 9421SOL    HW129162   2.899   6.278   4.879
 9421SOL    HW229163   3.034   6.370   4.873
 9422SOL     OW29164   2.741   5.651   2.851
 9422SOL    HW129165   2.833   5.621   2.877
 9422SOL    HW229166   2.689   5.573   2.816
 9423SOL     OW29167   3.772   6.339   3.599
 9423SOL    HW129168   3.684   6.383   3.619
 9423SOL    HW229169   3.846   6.390   3.644
 9424SOL     OW29170   4.799   2.324   4.120
 9424SOL    HW129171   4.734   2.262   4.164
 9424SOL    HW229172   4.863   2.271   4.064
 9425SOL     OW29173   5.281   3.977   1.668
 9425SOL    HW129174   5.224   4.049   1.708
 9425SOL    HW229175   5.238   3.943   1.584
 9426SOL     OW29176   3.416   1.514   6.303
 9426SOL    HW129177   3.389   1.462   6.384
 9426SOL    HW229178   3.379   1.470   6.222
 9427SOL     OW29179   3.030   5.405   3.240
 9427SOL    HW129180   3.010   5.330   3.303
 9427SOL    HW229181   3.076   5.479   3.289
 9428SOL     OW29182   0.257   0.356   0.985
 9428SOL    HW129183   0.329   0.316   0.929
 9428SOL    HW229184   0.169   0.344   0.940
 9429SOL     OW29185   2.139   3.513   3.998
 9429SOL    HW129186   2.154   3.546   3.905
 9429SOL    HW229187   2.156   3.415   4.002
 9430SOL     OW29188   0.284   2.524   5.234
 9430SOL    HW129189   0.326   2.582   5.165
 9430SOL    HW229190   0.339   2.441   5.247
 9431SOL     OW29191   6.519   4.731   1.386
 9431SOL    HW129192   6.519   4.827   1.360
 9431SOL    HW229193   6.506   4.674   1.304
 9432SOL     OW29194   6.402   0.300   4.205
 9432SOL    HW129195   6.380   0.340   4.116
 9432SOL    HW229196   6.367   0.207   4.210
 9433SOL     OW29197   3.218   6.639   3.316
 9433SOL    HW129198   3.139   6.607   3.367
 9433SOL    HW229199   3.236   6.735   3.338
 9434SOL     OW29200   5.486   5.808   1.829
 9434SOL    HW129201   5.541   5.758   1.762
 9434SOL    HW229202   5.530   5.804   1.918
 9435SOL     OW29203   0.007   2.046   3.166
 9435SOL    HW129204   6.936   2.029   3.192
 9435SOL    HW229205   0.067   1.979   3.210
 9436SOL     OW29206   1.385   2.318   1.997
 9436SOL    HW129207   1.455   2.317   2.067
 9436SOL    HW229208   1.294   2.316   2.040
 9437SOL     OW29209   0.050   6.151   3.203
 9437SOL    HW129210   0.078   6.183   3.112
 9437SOL    HW229211   0.124   6.169   3.268
 9438SOL     OW29212   0.631   0.238   2.012
 9438SOL    HW129213   0.696   0.170   1.979
 9438SOL    HW229214   0.651   0.327   1.970
 9439SOL     OW29215   0.777   3.216   0.591
 9439SOL    HW129216   0.843   3.145   0.615
 9439SOL    HW229217   0.685   3.176   0.587
 9440SOL     OW29218   3.546   4.982   3.484
 9440SOL    HW129219   3.457   5.026   3.483
 9440SOL    HW229220   3.568   4.949   3.392
 9441SOL     OW29221   6.417   4.877   6.047
 9441SOL    HW129222   6.401   4.839   5.956
 9441SOL    HW229223   6.510   4.915   6.052
 9442SOL     OW29224   5.571   3.636   1.907
 9442SOL    HW129225   5.546   3.730   1.881
 9442SOL    HW229226   5.506   3.572   1.867
 9443SOL     OW29227   2.507   5.386   0.223
 9443SOL    HW129228   2.487   5.482   0.202
 9443SOL    HW229229   2.450   5.327   0.167
 9444SOL     OW29230   1.709   3.965   0.617
 9444SOL    HW129231   1.764   4.035   0.662
 9444SOL    HW229232   1.769   3.898   0.573
 9445SOL     OW29233   6.322   3.734   3.679
 9445SOL    HW129234   6.398   3.706   3.737
 9445SOL    HW229235   6.338   3.827   3.646
 9446SOL     OW29236   6.524   5.622   4.971
 9446SOL    HW129237   6.488   5.693   5.032
 9446SOL    HW229238   6.617   5.645   4.943
 9447SOL     OW29239   5.428   4.409   3.881
 9447SOL    HW129240   5.480   4.324   3.878
 9447SOL    HW229241   5.477   4.480   3.830
 9448SOL     OW29242   6.649   0.181   6.149
 9448SOL    HW129243   6.651   0.084   6.172
 9448SOL    HW229244   6.741   0.212   6.125
 9449SOL     OW29245   5.642   6.804   0.124
 9449SOL    HW129246   5.717   6.829   0.064
 9449SOL    HW229247   5.631   6.704   0.124
 9450SOL     OW29248   2.407   5.629   3.258
 9450SOL    HW129249   2.421   5.601   3.163
 9450SOL    HW229250   2.465   5.573   3.318
 9451SOL     OW29251   4.250   5.509   5.677
 9451SOL    HW129252   4.266   5.463   5.590
 9451SOL    HW229253   4.229   5.606   5.661
 9452SOL     OW29254   1.521   4.207   0.081
 9452SOL    HW129255   1.602   4.263   0.095
 9452SOL    HW229256   1.465   4.206   0.164
 9453SOL     OW29257   2.997   5.606   2.529
 9453SOL    HW129258   3.037   5.680   2.475
 9453SOL    HW229259   2.919   5.567   2.480
 9454SOL     OW29260   3.773   3.568   6.621
 9454SOL    HW129261   3.675   3.589   6.623
 9454SOL    HW229262   3.798   3.534   6.530
 9455SOL     OW29263   2.960   1.993   3.640
 9455SOL    HW129264   2.937   2.088   3.663
 9455SOL    HW229265   2.969   1.940   3.725
 9456SOL     OW29266   6.598   3.774   0.838
 9456SOL    HW129267   6.592   3.694   0.897
 9456SOL    HW229268   6.580   3.747   0.743
 9457SOL     OW29269   0.905   4.772   4.202
 9457SOL    HW129270   0.836   4.820   4.148
 9457SOL    HW229271   0.912   4.814   4.292
 9458SOL     OW29272   0.613   3.727   6.492
 9458SOL    HW129273   0.697   3.691   6.534
 9458SOL    HW229274   0.620   3.827   6.486
 9459SOL     OW29275   5.462   4.703   4.213
 9459SOL    HW129276   5.509   4.759   4.282
 9459SOL    HW229277   5.370   4.681   4.246
 9460SOL     OW29278   2.118   3.620   4.971
 9460SOL    HW129279   2.035   3.615   4.915
 9460SOL    HW229280   2.141   3.529   5.005
 9461SOL     OW29281   0.402   2.064   1.781
 9461SOL    HW129282   0.393   1.991   1.848
 9461SOL    HW229283   0.320   2.067   1.724
 9462SOL     OW29284   1.115   2.721   3.676
 9462SOL    HW129285   1.171   2.789   3.628
 9462SOL    HW229286   1.143   2.717   3.772
 9463SOL     OW29287   5.918   0.178   1.613
 9463SOL    HW129288   5.819   0.188   1.608
 9463SOL    HW229289   5.961   0.268   1.620
 9464SOL     OW29290   6.009   0.700   0.925
 9464SOL    HW129291   6.087   0.729   0.981
 9464SOL    HW229292   5.948   0.644   0.980
 9465SOL     OW29293   0.046   3.827   2.223
 9465SOL    HW129294   0.099   3.744   2.203
 9465SOL    HW229295   0.101   3.888   2.280
 9466SOL     OW29296   3.356   4.652   5.321
 9466SOL    HW129297   3.412   4.735   5.323
 9466SOL    HW229298   3.261   4.674   5.344
 9467SOL     OW29299   0.843   3.212   1.047
 9467SOL    HW129300   0.745   3.229   1.043
 9467SOL    HW229301   0.891   3.278   0.989
 9468SOL     OW29302   5.447   4.205   6.372
 9468SOL    HW129303   5.387   4.247   6.439
 9468SOL    HW229304   5.523   4.160   6.419
 9469SOL     OW29305   1.025   5.821   1.262
 9469SOL    HW129306   1.032   5.893   1.193
 9469SOL    HW229307   0.963   5.851   1.335
 9470SOL     OW29308   5.132   3.516   0.222
 9470SOL    HW129309   5.177   3.452   0.160
 9470SOL    HW229310   5.200   3.574   0.266
 9471SOL     OW29311   6.837   2.222   4.755
 9471SOL    HW129312   6.913   2.266   4.706
 9471SOL    HW229313   6.799   2.286   4.822
 9472SOL     OW29314   0.093   2.985   5.182
 9472SOL    HW129315   0.123   2.916   5.248
 9472SOL    HW229316   7.018   2.976   5.167
 9473SOL     OW29317   3.309   4.495   0.045
 9473SOL    HW129318   3.342   4.412   0.090
 9473SOL    HW229319   3.382   4.533   7.010
 9474SOL     OW29320   6.868   3.383   1.186
 9474SOL    HW129321   6.827   3.454   1.242
 9474SOL    HW229322   6.939   3.336   1.238
 9475SOL     OW29323   3.974   3.131   0.765
 9475SOL    HW129324   4.027   3.203   0.720
 9475SOL    HW229325   3.921   3.081   0.697
 9476SOL     OW29326   3.998   3.927   4.649
 9476SOL    HW129327   4.039   3.900   4.736
 9476SOL    HW229328   4.004   3.850   4.584
 9477SOL     OW29329   0.155   2.697   1.431
 9477SOL    HW129330   0.168   2.750   1.515
 9477SOL    HW229331   0.241   2.689   1.382
 9478SOL     OW29332   5.382   3.302   1.327
 9478SOL    HW129333   5.413   3.236   1.258
 9478SOL    HW229334   5.358   3.253   1.411
 9479SOL     OW29335   4.225   6.673   0.525
 9479SOL    HW129336   4.323   6.680   0.542
 9479SOL    HW229337   4.189   6.591   0.568
 9480SOL     OW29338   6.265   5.274   0.487
 9480SOL    HW129339   6.322   5.192   0.484
 9480SOL    HW229340   6.195   5.264   0.557
 9481SOL     OW29341   4.865   2.532   2.512
 9481SOL    HW129342   4.882   2.629   2.494
 9481SOL    HW229343   4.892   2.510   2.606
 9482SOL     OW29344   0.626   0.468   3.262
 9482SOL    HW129345   0.647   0.410   3.340
 9482SOL    HW229346   0.630   0.564   3.289
 9483SOL     OW29347   1.050   0.331   0.619
 9483SOL    HW129348   1.125   0.395   0.637
 9483SOL    HW229349   0.997   0.362   0.541
 9484SOL     OW29350   3.699   0.386   4.737
 9484SOL    HW129351   3.641   0.467   4.727
 9484SOL    HW229352   3.659   0.325   4.805
 9485SOL     OW29353   0.359   1.078   0.908
 9485SOL    HW129354   0.406   1.158   0.944
 9485SOL    HW229355   0.271   1.067   0.954
 9486SOL     OW29356   4.096   5.934   0.827
 9486SOL    HW129357   4.084   5.858   0.764
 9486SOL    HW229358   4.063   5.909   0.917
 9487SOL     OW29359   3.407   4.153   3.757
 9487SOL    HW129360   3.412   4.117   3.850
 9487SOL    HW229361   3.320   4.126   3.715
 9488SOL     OW29362   2.931   6.768   1.176
 9488SOL    HW129363   2.897   6.710   1.102
 9488SOL    HW229364   2.857   6.790   1.239
 9489SOL     OW29365   5.314   4.336   1.126
 9489SOL    HW129366   5.311   4.431   1.095
 9489SOL    HW229367   5.363   4.330   1.212
 9490SOL     OW29368   6.228   5.374   3.454
 9490SOL    HW129369   6.193   5.390   3.361
 9490SOL    HW229370   6.196   5.448   3.514
 9491SOL     OW29371   5.127   4.778   3.784
 9491SOL    HW129372   5.171   4.781   3.874
 9491SOL    HW229373   5.115   4.683   3.755
 9492SOL     OW29374   3.774   3.719   4.729
 9492SOL    HW129375   3.788   3.642   4.792
 9492SOL    HW229376   3.862   3.750   4.695
 9493SOL     OW29377   3.243   5.601   3.991
 9493SOL    HW129378   3.196   5.631   4.073
 9493SOL    HW229379   3.197   5.521   3.953
 9494SOL     OW29380   5.536   3.057   2.964
 9494SOL    HW129381   5.455   3.110   2.942
 9494SOL    HW229382   5.602   3.115   3.011
 9495SOL     OW29383   6.850   1.949   2.888
 9495SOL    HW129384   6.921   1.882   2.909
 9495SOL    HW229385   6.891   2.028   2.842
 9496SOL     OW29386   5.853   3.723   1.584
 9496SOL    HW129387   5.935   3.751   1.633
 9496SOL    HW229388   5.863   3.630   1.551
 9497SOL     OW29389   4.925   5.750   5.072
 9497SOL    HW129390   4.935   5.825   5.007
 9497SOL    HW229391   4.975   5.670   5.038
 9498SOL     OW29392   5.581   5.647   4.609
 9498SOL    HW129393   5.645   5.582   4.649
 9498SOL    HW229394   5.489   5.608   4.611
 9499SOL     OW29395   1.799   5.502   5.932
 9499SOL    HW129396   1.881   5.461   5.894
 9499SOL    HW229397   1.718   5.453   5.900
 9500SOL     OW29398   4.279   6.702   0.237
 9500SOL    HW129399   4.247   6.729   0.328
 9500SOL    HW229400   4.201   6.699   0.174
 9501SOL     OW29401   2.526   1.453   4.776
 9501SOL    HW129402   2.583   1.501   4.710
 9501SOL    HW229403   2.531   1.500   4.864
 9502SOL     OW29404   5.693   3.199   4.684
 9502SOL    HW129405   5.633   3.129   4.645
 9502SOL    HW229406   5.759   3.229   4.616
 9503SOL     OW29407   0.196   1.798   0.807
 9503SOL    HW129408   0.121   1.864   0.810
 9503SOL    HW229409   0.166   1.717   0.755
 9504SOL     OW29410   6.996   3.574   0.999
 9504SOL    HW129411   6.944   3.565   0.914
 9504SOL    HW229412   6.958   3.512   1.068
 9505SOL     OW29413   5.428   4.824   5.187
 9505SOL    HW129414   5.413   4.903   5.247
 9505SOL    HW229415   5.493   4.849   5.115
 9506SOL     OW29416   1.498   2.508   0.307
 9506SOL    HW129417   1.585   2.462   0.321
 9506SOL    HW229418   1.452   2.519   0.396
 9507SOL     OW29419   0.917   1.445   1.982
 9507SOL    HW129420   0.926   1.372   2.050
 9507SOL    HW229421   0.845   1.509   2.010
 9508SOL     OW29422   5.970   2.121   2.181
 9508SOL    HW129423   5.964   2.027   2.216
 9508SOL    HW229424   5.882   2.167   2.194
 9509SOL     OW29425   0.254   0.792   4.076
 9509SOL    HW129426   0.294   0.833   3.994
 9509SOL    HW229427   0.322   0.734   4.121
 9510SOL     OW29428   1.457   4.056   3.744
 9510SOL    HW129429   1.404   4.041   3.660
 9510SOL    HW229430   1.533   4.117   3.724
 9511SOL     OW29431   1.945   0.195   0.816
 9511SOL    HW129432   1.879   0.142   0.870
 9511SOL    HW229433   1.918   0.192   0.720
 9512SOL     OW29434   6.622   1.516   1.059
 9512SOL    HW129435   6.656   1.437   1.008
 9512SOL    HW229436   6.525   1.505   1.077
 9513SOL     OW29437   2.445   4.021   6.101
 9513SOL    HW129438   2.465   4.012   6.004
 9513SOL    HW229439   2.369   4.085   6.114
 9514SOL     OW29440   1.996   5.154   6.080
 9514SOL    HW129441   2.016   5.220   6.007
 9514SOL    HW229442   2.074   5.149   6.142
 9515SOL     OW29443   1.763   5.826   1.669
 9515SOL    HW129444   1.795   5.807   1.762
 9515SOL    HW229445   1.814   5.903   1.631
 9516SOL     OW29446   5.446   5.070   6.767
 9516SOL    HW129447   5.512   5.061   6.841
 9516SOL    HW229448   5.394   5.155   6.777
 9517SOL     OW29449   1.418   4.169   1.459
 9517SOL    HW129450   1.493   4.109   1.434
 9517SOL    HW229451   1.355   4.121   1.521
 9518SOL     OW29452   2.252   1.558   0.527
 9518SOL    HW129453   2.188   1.517   0.463
 9518SOL    HW229454   2.229   1.654   0.542
 9519SOL     OW29455   3.338   2.941   5.448
 9519SOL    HW129456   3.393   2.881   5.389
 9519SOL    HW229457   3.395   3.017   5.480
 9520SOL     OW29458   2.857   1.410   2.983
 9520SOL    HW129459   2.889   1.417   3.077
 9520SOL    HW229460   2.757   1.409   2.982
 9521SOL     OW29461   4.901   5.768   2.646
 9521SOL    HW129462   4.923   5.682   2.599
 9521SOL    HW229463   4.954   5.843   2.606
 9522SOL     OW29464   2.779   5.769   1.043
 9522SOL    HW129465   2.715   5.780   0.966
 9522SOL    HW229466   2.741   5.704   1.108
 9523SOL     OW29467   3.856   5.195   4.446
 9523SOL    HW129468   3.927   5.203   4.376
 9523SOL    HW229469   3.769   5.227   4.408
 9524SOL     OW29470   3.871   1.979   1.255
 9524SOL    HW129471   3.883   1.916   1.178
 9524SOL    HW229472   3.958   1.988   1.304
 9525SOL     OW29473   2.778   3.041   5.856
 9525SOL    HW129474   2.776   2.964   5.919
 9525SOL    HW229475   2.822   3.014   5.770
 9526SOL     OW29476   5.067   5.645   1.933
 9526SOL    HW129477   5.123   5.702   1.873
 9526SOL    HW229478   5.010   5.703   1.991
 9527SOL     OW29479   0.662   0.336   3.007
 9527SOL    HW129480   0.622   0.369   3.092
 9527SOL    HW229481   0.732   0.401   2.976
 9528SOL     OW29482   6.609   0.491   0.691
 9528SOL    HW129483   6.664   0.574   0.703
 9528SOL    HW229484   6.520   0.505   0.734
 9529SOL     OW29485   6.308   2.938   5.447
 9529SOL    HW129486   6.359   2.864   5.403
 9529SOL    HW229487   6.367   2.982   5.515
 9530SOL     OW29488   1.952   2.842   2.980
 9530SOL    HW129489   2.045   2.864   2.949
 9530SOL    HW229490   1.914   2.770   2.922
 9531SOL     OW29491   4.369   5.734   2.821
 9531SOL    HW129492   4.289   5.793   2.835
 9531SOL    HW229493   4.444   5.765   2.880
 9532SOL     OW29494   0.841   6.463   1.819
 9532SOL    HW129495   0.927   6.513   1.823
 9532SOL    HW229496   0.764   6.527   1.823
 9533SOL     OW29497   6.637   0.613   5.031
 9533SOL    HW129498   6.645   0.521   5.069
 9533SOL    HW229499   6.679   0.614   4.940
 9534SOL     OW29500   5.860   3.436   5.052
 9534SOL    HW129501   5.770   3.474   5.075
 9534SOL    HW229502   5.912   3.419   5.136
 9535SOL     OW29503   2.425   1.198   5.612
 9535SOL    HW129504   2.348   1.255   5.641
 9535SOL    HW229505   2.509   1.232   5.655
 9536SOL     OW29506   3.231   4.901   5.151
 9536SOL    HW129507   3.285   4.845   5.213
 9536SOL    HW229508   3.153   4.940   5.199
 9537SOL     OW29509   2.242   6.938   2.096
 9537SOL    HW129510   2.250   7.004   2.021
 9537SOL    HW229511   2.334   6.906   2.121
 9538SOL     OW29512   6.581   2.033   3.520
 9538SOL    HW129513   6.534   1.945   3.514
 9538SOL    HW229514   6.516   2.107   3.501
 9539SOL     OW29515   1.985   3.756   5.387
 9539SOL    HW129516   2.013   3.741   5.482
 9539SOL    HW229517   2.066   3.762   5.329
 9540SOL     OW29518   4.904   3.938   4.590
 9540SOL    HW129519   4.880   3.979   4.679
 9540SOL    HW229520   4.889   3.839   4.594
 9541SOL     OW29521   2.784   1.830   5.870
 9541SOL    HW129522   2.743   1.891   5.802
 9541SOL    HW229523   2.816   1.883   5.948
 9542SOL     OW29524   4.863   4.062   4.828
 9542SOL    HW129525   4.833   3.993   4.894
 9542SOL    HW229526   4.834   4.152   4.857
 9543SOL     OW29527   3.439   1.003   4.706
 9543SOL    HW129528   3.500   1.037   4.635
 9543SOL    HW229529   3.464   1.043   4.794
 9544SOL     OW29530   6.772   1.150   2.782
 9544SOL    HW129531   6.826   1.123   2.863
 9544SOL    HW229532   6.817   1.114   2.700
 9545SOL     OW29533   6.789   4.667   3.670
 9545SOL    HW129534   6.766   4.650   3.575
 9545SOL    HW229535   6.861   4.604   3.699
 9546SOL     OW29536   2.385   2.858   5.857
 9546SOL    HW129537   2.441   2.785   5.896
 9546SOL    HW229538   2.353   2.831   5.766
 9547SOL     OW29539   1.775   6.042   3.871
 9547SOL    HW129540   1.800   5.950   3.842
 9547SOL    HW229541   1.737   6.039   3.964
 9548SOL     OW29542   5.981   6.244   4.786
 9548SOL    HW129543   5.950   6.317   4.725
 9548SOL    HW229544   6.037   6.179   4.734
 9549SOL     OW29545   2.814   4.132   1.317
 9549SOL    HW129546   2.733   4.128   1.374
 9549SOL    HW229547   2.788   4.156   1.223
 9550SOL     OW29548   6.796   1.109   0.005
 9550SOL    HW129549   6.888   1.073   7.012
 9550SOL    HW229550   6.776   1.181   6.962
 9551SOL     OW29551   6.675   0.660   4.441
 9551SOL    HW129552   6.733   0.633   4.364
 9551SOL    HW229553   6.596   0.598   4.447
 9552SOL     OW29554   0.759   5.944   2.200
 9552SOL    HW129555   0.832   6.009   2.180
 9552SOL    HW229556   0.800   5.854   2.218
 9553SOL     OW29557   5.919   4.157   6.711
 9553SOL    HW129558   6.006   4.109   6.724
 9553SOL    HW229559   5.937   4.248   6.674
 9554SOL     OW29560   2.483   0.304   1.306
 9554SOL    HW129561   2.574   0.346   1.306
 9554SOL    HW229562   2.413   0.375   1.315
 9555SOL     OW29563   0.134   0.687   0.758
 9555SOL    HW129564   0.203   0.756   0.737
 9555SOL    HW229565   0.098   0.649   0.673
 9556SOL     OW29566   2.592   2.635   1.214
 9556SOL    HW129567   2.558   2.702   1.147
 9556SOL    HW229568   2.531   2.633   1.293
 9557SOL     OW29569   6.389   0.795   2.969
 9557SOL    HW129570   6.407   0.881   2.921
 9557SOL    HW229571   6.334   0.735   2.911
 9558SOL     OW29572   5.573   5.192   4.085
 9558SOL    HW129573   5.610   5.106   4.120
 9558SOL    HW229574   5.567   5.259   4.159
 9559SOL     OW29575   0.155   3.744   1.860
 9559SOL    HW129576   0.182   3.824   1.807
 9559SOL    HW229577   0.111   3.677   1.800
 9560SOL     OW29578   1.206   1.721   2.382
 9560SOL    HW129579   1.134   1.751   2.446
 9560SOL    HW229580   1.295   1.733   2.425
 9561SOL     OW29581   1.503   6.833   0.754
 9561SOL    HW129582   1.483   6.908   0.818
 9561SOL    HW229583   1.584   6.784   0.784
 9562SOL     OW29584   3.367   6.502   5.046
 9562SOL    HW129585   3.366   6.502   4.946
 9562SOL    HW229586   3.273   6.505   5.080
 9563SOL     OW29587   6.010   6.370   0.366
 9563SOL    HW129588   6.010   6.355   0.267
 9563SOL    HW229589   6.010   6.469   0.385
 9564SOL     OW29590   2.475   0.007   6.456
 9564SOL    HW129591   2.496   6.950   6.513
 9564SOL    HW229592   2.417   0.070   6.508
 9565SOL     OW29593   4.388   6.063   5.000
 9565SOL    HW129594   4.335   6.071   5.085
 9565SOL    HW229595   4.482   6.036   5.022
 9566SOL     OW29596   3.590   4.606   0.330
 9566SOL    HW129597   3.592   4.572   0.236
 9566SOL    HW229598   3.499   4.591   0.369
 9567SOL     OW29599   6.507   5.475   6.445
 9567SOL    HW129600   6.412   5.482   6.475
 9567SOL    HW229601   6.511   5.443   6.351
 9568SOL     OW29602   4.547   3.017   6.295
 9568SOL    HW129603   4.512   3.054   6.381
 9568SOL    HW229604   4.502   3.063   6.219
 9569SOL     OW29605   0.162   0.477   2.019
 9569SOL    HW129606   0.157   0.414   1.942
 9569SOL    HW229607   0.090   0.455   2.084
 9570SOL     OW29608   1.097   2.276   2.068
 9570SOL    HW129609   1.035   2.325   2.007
 9570SOL    HW229610   1.053   2.192   2.100
 9571SOL     OW29611   2.820   3.425   6.918
 9571SOL    HW129612   2.728   3.387   6.931
 9571SOL    HW229613   2.878   3.358   6.872
 9572SOL     OW29614   2.091   5.491   0.751
 9572SOL    HW129615   2.128   5.504   0.843
 9572SOL    HW229616   2.166   5.487   0.685
 9573SOL     OW29617   0.515   1.860   6.600
 9573SOL    HW129618   0.431   1.849   6.547
 9573SOL    HW229619   0.594   1.861   6.539
 9574SOL     OW29620   3.927   3.314   4.629
 9574SOL    HW129621   3.866   3.272   4.562
 9574SOL    HW229622   3.960   3.245   4.693
 9575SOL     OW29623   5.202   0.596   1.135
 9575SOL    HW129624   5.235   0.641   1.052
 9575SOL    HW229625   5.162   0.665   1.196
 9576SOL     OW29626   3.275   1.338   2.557
 9576SOL    HW129627   3.234   1.427   2.574
 9576SOL    HW229628   3.206   1.275   2.521
 9577SOL     OW29629   1.451   0.478   2.851
 9577SOL    HW129630   1.492   0.406   2.794
 9577SOL    HW229631   1.439   0.443   2.944
 9578SOL     OW29632   6.455   3.265   3.152
 9578SOL    HW129633   6.508   3.185   3.181
 9578SOL    HW229634   6.428   3.318   3.232
 9579SOL     OW29635   1.209   6.259   2.840
 9579SOL    HW129636   1.218   6.169   2.797
 9579SOL    HW229637   1.251   6.256   2.931
 9580SOL     OW29638   5.436   3.395   0.425
 9580SOL    HW129639   5.367   3.345   0.478
 9580SOL    HW229640   5.412   3.492   0.421
 9581SOL     OW29641   1.508   5.341   6.179
 9581SOL    HW129642   1.596   5.295   6.184
 9581SOL    HW229643   1.474   5.338   6.085
 9582SOL     OW29644   4.276   4.740   4.563
 9582SOL    HW129645   4.258   4.724   4.660
 9582SOL    HW229646   4.336   4.668   4.528
 9583SOL     OW29647   2.382   3.389   1.391
 9583SOL    HW129648   2.283   3.397   1.402
 9583SOL    HW229649   2.427   3.435   1.467
 9584SOL     OW29650   5.774   5.995   6.790
 9584SOL    HW129651   5.839   6.066   6.816
 9584SOL    HW229652   5.816   5.935   6.722
 9585SOL     OW29653   6.613   0.572   3.049
 9585SOL    HW129654   6.538   0.623   3.093
 9585SOL    HW229655   6.597   0.570   2.951
 9586SOL     OW29656   5.722   4.290   2.187
 9586SOL    HW129657   5.690   4.198   2.164
 9586SOL    HW229658   5.653   4.336   2.243
 9587SOL     OW29659   6.353   0.543   2.576
 9587SOL    HW129660   6.361   0.494   2.489
 9587SOL    HW229661   6.387   0.637   2.564
 9588SOL     OW29662   0.738   1.416   1.766
 9588SOL    HW129663   0.653   1.378   1.801
 9588SOL    HW229664   0.799   1.437   1.843
 9589SOL     OW29665   2.707   5.663   6.735
 9589SOL    HW129666   2.777   5.735   6.735
 9589SOL    HW229667   2.658   5.665   6.648
 9590SOL     OW29668   0.025   4.999   2.328
 9590SOL    HW129669   0.080   4.972   2.406
 9590SOL    HW229670   6.989   5.076   2.353
 9591SOL     OW29671   3.137   5.935   0.222
 9591SOL    HW129672   3.188   5.900   0.143
 9591SOL    HW229673   3.198   5.988   0.280
 9592SOL     OW29674   3.913   5.401   2.137
 9592SOL    HW129675   3.876   5.315   2.173
 9592SOL    HW229676   3.995   5.381   2.082
 9593SOL     OW29677   5.347   1.261   4.776
 9593SOL    HW129678   5.406   1.257   4.695
 9593SOL    HW229679   5.253   1.238   4.749
 9594SOL     OW29680   6.754   5.988   3.525
 9594SOL    HW129681   6.818   5.932   3.579
 9594SOL    HW229682   6.702   6.047   3.587
 9595SOL     OW29683   1.761   4.713   4.596
 9595SOL    HW129684   1.826   4.643   4.626
 9595SOL    HW229685   1.782   4.799   4.643
 9596SOL     OW29686   0.275   5.173   6.697
 9596SOL    HW129687   0.345   5.141   6.761
 9596SOL    HW229688   0.200   5.106   6.693
 9597SOL     OW29689   0.378   3.742   1.049
 9597SOL    HW129690   0.363   3.673   0.979
 9597SOL    HW229691   0.301   3.743   1.112
 9598SOL     OW29692   0.640   4.049   5.407
 9598SOL    HW129693   0.582   4.130   5.400
 9598SOL    HW229694   0.649   4.007   5.317
 9599SOL     OW29695   3.796   0.923   4.979
 9599SOL    HW129696   3.795   0.830   4.942
 9599SOL    HW229697   3.718   0.974   4.942
 9600SOL     OW29698   1.803   0.284   6.078
 9600SOL    HW129699   1.884   0.275   6.020
 9600SOL    HW229700   1.748   0.200   6.071
 9601SOL     OW29701   6.383   4.068   6.145
 9601SOL    HW129702   6.414   3.981   6.108
 9601SOL    HW229703   6.283   4.071   6.142
 9602SOL     OW29704   6.718   4.681   6.512
 9602SOL    HW129705   6.805   4.708   6.552
 9602SOL    HW229706   6.644   4.703   6.575
 9603SOL     OW29707   2.316   6.883   4.586
 9603SOL    HW129708   2.259   6.906   4.665
 9603SOL    HW229709   2.325   6.962   4.526
 9604SOL     OW29710   5.389   0.764   0.246
 9604SOL    HW129711   5.322   0.830   0.212
 9604SOL    HW229712   5.479   0.786   0.210
 9605SOL     OW29713   0.553   4.907   5.704
 9605SOL    HW129714   0.483   4.970   5.671
 9605SOL    HW229715   0.632   4.959   5.736
 9606SOL     OW29716   1.092   0.004   4.437
 9606SOL    HW129717   1.039   0.067   4.379
 9606SOL    HW229718   1.071   6.933   4.412
 9607SOL     OW29719   1.079   2.055   1.617
 9607SOL    HW129720   1.146   2.073   1.689
 9607SOL    HW229721   0.989   2.041   1.658
 9608SOL     OW29722   0.080   6.850   2.466
 9608SOL    HW129723   7.014   6.806   2.453
 9608SOL    HW229724   0.086   6.931   2.407
 9609SOL     OW29725   1.200   3.789   4.462
 9609SOL    HW129726   1.170   3.865   4.519
 9609SOL    HW229727   1.299   3.775   4.474
 9610SOL     OW29728   1.037   3.292   5.215
 9610SOL    HW129729   0.959   3.278   5.276
 9610SOL    HW229730   1.004   3.312   5.122
 9611SOL     OW29731   0.139   6.746   0.849
 9611SOL    HW129732   0.079   6.778   0.922
 9611SOL    HW229733   0.084   6.718   0.770
 9612SOL     OW29734   6.454   2.758   0.330
 9612SOL    HW129735   6.470   2.735   0.234
 9612SOL    HW229736   6.513   2.834   0.357
 9613SOL     OW29737   5.491   6.102   4.209
 9613SOL    HW129738   5.430   6.163   4.261
 9613SOL    HW229739   5.464   6.103   4.113
 9614SOL     OW29740   4.314   3.765   1.716
 9614SOL    HW129741   4.219   3.796   1.727
 9614SOL    HW229742   4.359   3.820   1.646
 9615SOL     OW29743   2.525   6.177   3.020
 9615SOL    HW129744   2.538   6.158   2.923
 9615SOL    HW229745   2.598   6.135   3.073
 9616SOL     OW29746   4.516   3.214   0.913
 9616SOL    HW129747   4.563   3.129   0.939
 9616SOL    HW229748   4.483   3.260   0.995
 9617SOL     OW29749   1.229   3.942   3.835
 9617SOL    HW129750   1.170   4.021   3.825
 9617SOL    HW229751   1.319   3.962   3.797
 9618SOL     OW29752   3.170   0.627   6.772
 9618SOL    HW129753   3.119   0.696   6.824
 9618SOL    HW229754   3.193   0.664   6.682
 9619SOL     OW29755   0.712   6.836   1.126
 9619SOL    HW129756   0.712   6.923   1.077
 9619SOL    HW229757   0.645   6.774   1.084
 9620SOL     OW29758   4.244   1.279   6.705
 9620SOL    HW129759   4.188   1.197   6.716
 9620SOL    HW229760   4.334   1.253   6.671
 9621SOL     OW29761   1.467   1.048   1.796
 9621SOL    HW129762   1.530   1.006   1.862
 9621SOL    HW229763   1.517   1.067   1.711
 9622SOL     OW29764   6.500   1.331   6.756
 9622SOL    HW129765   6.469   1.306   6.664
 9622SOL    HW229766   6.425   1.316   6.821
 9623SOL     OW29767   4.644   5.295   6.833
 9623SOL    HW129768   4.657   5.286   6.932
 9623SOL    HW229769   4.633   5.391   6.809
 9624SOL     OW29770   4.985   4.574   5.478
 9624SOL    HW129771   5.036   4.660   5.483
 9624SOL    HW229772   4.990   4.526   5.565
 9625SOL     OW29773   4.517   4.462   6.711
 9625SOL    HW129774   4.586   4.401   6.749
 9625SOL    HW229775   4.463   4.413   6.642
 9626SOL     OW29776   1.699   5.269   4.439
 9626SOL    HW129777   1.694   5.345   4.504
 9626SOL    HW229778   1.787   5.224   4.449
 9627SOL     OW29779   0.825   4.484   4.670
 9627SOL    HW129780   0.818   4.449   4.763
 9627SOL    HW229781   0.746   4.542   4.650
 9628SOL     OW29782   5.963   3.979   0.777
 9628SOL    HW129783   5.991   3.938   0.864
 9628SOL    HW229784   6.040   3.980   0.714
 9629SOL     OW29785   6.588   6.376   3.361
 9629SOL    HW129786   6.495   6.341   3.352
 9629SOL    HW229787   6.653   6.309   3.325
 9630SOL     OW29788   6.071   5.679   5.244
 9630SOL    HW129789   5.995   5.630   5.201
 9630SOL    HW229790   6.070   5.775   5.217
 9631SOL     OW29791   4.422   1.253   1.520
 9631SOL    HW129792   4.372   1.194   1.584
 9631SOL    HW229793   4.520   1.237   1.532
 9632SOL     OW29794   2.051   5.215   1.569
 9632SOL    HW129795   1.989   5.286   1.603
 9632SOL    HW229796   2.046   5.135   1.629
 9633SOL     OW29797   4.249   3.328   1.464
 9633SOL    HW129798   4.313   3.254   1.441
 9633SOL    HW229799   4.197   3.303   1.545
 9634SOL     OW29800   5.864   5.451   3.021
 9634SOL    HW129801   5.820   5.537   2.996
 9634SOL    HW229802   5.962   5.465   3.033
 9635SOL     OW29803   6.941   4.562   5.179
 9635SOL    HW129804   6.849   4.550   5.142
 9635SOL    HW229805   6.937   4.572   5.278
 9636SOL     OW29806   3.804   1.545   5.895
 9636SOL    HW129807   3.752   1.569   5.976
 9636SOL    HW229808   3.821   1.446   5.894
 9637SOL     OW29809   3.338   3.373   1.708
 9637SOL    HW129810   3.347   3.279   1.741
 9637SOL    HW229811   3.254   3.382   1.655
 9638SOL     OW29812   0.213   4.100   6.313
 9638SOL    HW129813   0.240   4.028   6.377
 9638SOL    HW229814   0.292   4.128   6.259
 9639SOL     OW29815   4.592   2.806   1.705
 9639SOL    HW129816   4.574   2.887   1.761
 9639SOL    HW229817   4.598   2.832   1.609
 9640SOL     OW29818   3.965   1.325   2.154
 9640SOL    HW129819   3.876   1.297   2.190
 9640SOL    HW229820   3.976   1.424   2.166
 9641SOL     OW29821   5.069   6.160   2.314
 9641SOL    HW129822   4.978   6.170   2.354
 9641SOL    HW229823   5.064   6.175   2.215
 9642SOL     OW29824   1.054   0.192   4.147
 9642SOL    HW129825   1.133   0.236   4.105
 9642SOL    HW229826   1.049   0.217   4.244
 9643SOL     OW29827   5.251   4.002   3.656
 9643SOL    HW129828   5.308   3.934   3.610
 9643SOL    HW229829   5.193   3.957   3.723
 9644SOL     OW29830   2.165   5.908   4.983
 9644SOL    HW129831   2.203   5.975   4.919
 9644SOL    HW229832   2.120   5.957   5.058
 9645SOL     OW29833   1.053   3.905   5.000
 9645SOL    HW129834   1.040   3.983   4.938
 9645SOL    HW229835   1.145   3.909   5.039
 9646SOL     OW29836   2.959   6.265   3.048
 9646SOL    HW129837   3.012   6.293   3.128
 9646SOL    HW229838   2.904   6.185   3.070
 9647SOL     OW29839   0.111   6.546   2.974
 9647SOL    HW129840   0.064   6.619   2.925
 9647SOL    HW229841   0.210   6.562   2.971
 9648SOL     OW29842   5.411   3.095   1.149
 9648SOL    HW129843   5.411   3.018   1.212
 9648SOL    HW229844   5.418   3.061   1.055
 9649SOL     OW29845   2.772   3.929   6.644
 9649SOL    HW129846   2.798   3.861   6.713
 9649SOL    HW229847   2.719   4.002   6.688
 9650SOL     OW29848   4.967   4.351   3.253
 9650SOL    HW129849   5.043   4.310   3.202
 9650SOL    HW229850   4.979   4.330   3.350
 9651SOL     OW29851   4.030   0.984   1.482
 9651SOL    HW129852   4.027   1.003   1.580
 9651SOL    HW229853   3.939   0.961   1.449
 9652SOL     OW29854   0.583   4.391   0.865
 9652SOL    HW129855   0.615   4.305   0.904
 9652SOL    HW229856   0.601   4.466   0.929
 9653SOL     OW29857   4.713   4.452   5.895
 9653SOL    HW129858   4.726   4.372   5.836
 9653SOL    HW229859   4.796   4.470   5.946
 9654SOL     OW29860   2.871   3.447   2.501
 9654SOL    HW129861   2.884   3.545   2.518
 9654SOL    HW229862   2.795   3.414   2.557
 9655SOL     OW29863   0.144   1.675   0.084
 9655SOL    HW129864   0.207   1.742   0.044
 9655SOL    HW229865   0.170   1.659   0.179
 9656SOL     OW29866   4.827   2.006   0.905
 9656SOL    HW129867   4.890   2.083   0.918
 9656SOL    HW229868   4.857   1.951   0.827
 9657SOL     OW29869   5.832   4.432   3.369
 9657SOL    HW129870   5.841   4.365   3.442
 9657SOL    HW229871   5.759   4.497   3.392
 9658SOL     OW29872   5.739   2.013   2.885
 9658SOL    HW129873   5.641   1.993   2.879
 9658SOL    HW229874   5.755   2.080   2.958
 9659SOL     OW29875   1.424   2.389   0.078
 9659SOL    HW129876   1.495   2.375   0.010
 9659SOL    HW229877   1.461   2.440   0.156
 9660SOL     OW29878   0.641   0.439   1.748
 9660SOL    HW129879   0.545   0.464   1.741
 9660SOL    HW229880   0.682   0.484   1.827
 9661SOL     OW29881   4.379   5.651   1.407
 9661SOL    HW129882   4.406   5.639   1.312
 9661SOL    HW229883   4.455   5.624   1.467
 9662SOL     OW29884   5.107   3.913   0.571
 9662SOL    HW129885   5.163   3.830   0.575
 9662SOL    HW229886   5.157   3.989   0.612
 9663SOL     OW29887   0.251   5.508   2.421
 9663SOL    HW129888   0.294   5.418   2.422
 9663SOL    HW229889   0.262   5.551   2.511
 9664SOL     OW29890   5.285   4.128   5.107
 9664SOL    HW129891   5.247   4.040   5.135
 9664SOL    HW229892   5.210   4.187   5.074
 9665SOL     OW29893   6.239   6.063   5.887
 9665SOL    HW129894   6.160   6.020   5.930
 9665SOL    HW229895   6.307   5.993   5.864
 9666SOL     OW29896   6.220   3.486   1.923
 9666SOL    HW129897   6.129   3.491   1.881
 9666SOL    HW229898   6.261   3.397   1.903
 9667SOL     OW29899   4.458   3.504   1.398
 9667SOL    HW129900   4.531   3.441   1.373
 9667SOL    HW229901   4.385   3.455   1.445
 9668SOL     OW29902   1.642   1.049   6.523
 9668SOL    HW129903   1.608   1.012   6.609
 9668SOL    HW229904   1.595   1.004   6.447
 9669SOL     OW29905   2.058   6.603   1.461
 9669SOL    HW129906   2.053   6.517   1.512
 9669SOL    HW229907   2.109   6.587   1.376
 9670SOL     OW29908   0.063   5.446   4.996
 9670SOL    HW129909   7.009   5.476   5.051
 9670SOL    HW229910   0.147   5.491   5.028
 9671SOL     OW29911   6.484   4.626   0.523
 9671SOL    HW129912   6.464   4.568   0.443
 9671SOL    HW229913   6.565   4.591   0.569
 9672SOL     OW29914   1.251   4.792   3.380
 9672SOL    HW129915   1.188   4.869   3.369
 9672SOL    HW229916   1.302   4.803   3.466
 9673SOL     OW29917   3.308   3.667   1.032
 9673SOL    HW129918   3.384   3.664   0.967
 9673SOL    HW229919   3.222   3.677   0.982
 9674SOL     OW29920   4.061   6.762   3.110
 9674SOL    HW129921   3.963   6.741   3.114
 9674SOL    HW229922   4.112   6.691   3.159
 9675SOL     OW29923   4.995   2.658   6.789
 9675SOL    HW129924   4.980   2.733   6.725
 9675SOL    HW229925   4.936   2.581   6.764
 9676SOL     OW29926   1.549   3.946   5.660
 9676SOL    HW129927   1.482   3.970   5.729
 9676SOL    HW229928   1.560   3.846   5.657
 9677SOL     OW29929   6.640   5.042   6.043
 9677SOL    HW129930   6.656   5.139   6.060
 9677SOL    HW229931   6.716   4.989   6.081
 9678SOL     OW29932   2.997   3.788   4.296
 9678SOL    HW129933   3.001   3.694   4.330
 9678SOL    HW229934   2.971   3.787   4.199
 9679SOL     OW29935   2.739   0.539   4.145
 9679SOL    HW129936   2.663   0.512   4.203
 9679SOL    HW229937   2.744   0.479   4.065
 9680SOL     OW29938   4.249   0.363   5.423
 9680SOL    HW129939   4.182   0.313   5.478
 9680SOL    HW229940   4.285   0.440   5.476
 9681SOL     OW29941   3.495   1.991   0.601
 9681SOL    HW129942   3.438   2.064   0.562
 9681SOL    HW229943   3.493   1.996   0.700
 9682SOL     OW29944   4.927   3.776   3.721
 9682SOL    HW129945   4.882   3.688   3.711
 9682SOL    HW229946   4.936   3.819   3.631
 9683SOL     OW29947   3.212   5.952   0.627
 9683SOL    HW129948   3.139   5.990   0.570
 9683SOL    HW229949   3.172   5.910   0.708
 9684SOL     OW29950   0.828   4.444   4.932
 9684SOL    HW129951   0.928   4.444   4.926
 9684SOL    HW229952   0.799   4.394   5.013
 9685SOL     OW29953   4.867   3.568   0.612
 9685SOL    HW129954   4.771   3.558   0.587
 9685SOL    HW229955   4.877   3.643   0.677
 9686SOL     OW29956   0.748   3.008   6.384
 9686SOL    HW129957   0.758   2.966   6.474
 9686SOL    HW229958   0.758   2.937   6.314
 9687SOL     OW29959   6.463   0.802   2.590
 9687SOL    HW129960   6.558   0.784   2.615
 9687SOL    HW229961   6.446   0.901   2.596
 9688SOL     OW29962   1.005   3.360   0.497
 9688SOL    HW129963   1.036   3.336   0.405
 9688SOL    HW229964   0.929   3.301   0.524
 9689SOL     OW29965   0.606   4.565   7.001
 9689SOL    HW129966   0.634   4.494   6.937
 9689SOL    HW229967   0.601   4.527   0.071
 9690SOL     OW29968   5.320   6.453   5.700
 9690SOL    HW129969   5.338   6.483   5.794
 9690SOL    HW229970   5.398   6.478   5.642
 9691SOL     OW29971   2.937   3.968   1.687
 9691SOL    HW129972   2.997   3.985   1.609
 9691SOL    HW229973   2.958   4.031   1.761
 9692SOL     OW29974   4.463   5.616   1.142
 9692SOL    HW129975   4.453   5.597   1.044
 9692SOL    HW229976   4.556   5.593   1.171
 9693SOL     OW29977   6.183   4.089   3.258
 9693SOL    HW129978   6.125   4.029   3.203
 9693SOL    HW229979   6.125   4.149   3.313
 9694SOL     OW29980   3.219   0.864   2.493
 9694SOL    HW129981   3.260   0.860   2.584
 9694SOL    HW229982   3.281   0.913   2.430
 9695SOL     OW29983   6.483   2.890   3.341
 9695SOL    HW129984   6.482   2.804   3.392
 9695SOL    HW229985   6.507   2.872   3.245
 9696SOL     OW29986   5.911   2.938   1.553
 9696SOL    HW129987   5.906   2.838   1.562
 9696SOL    HW229988   5.834   2.971   1.498
 9697SOL     OW29989   0.732   6.218   0.480
 9697SOL    HW129990   0.712   6.314   0.460
 9697SOL    HW229991   0.793   6.181   0.409
 9698SOL     OW29992   5.321   2.628   5.582
 9698SOL    HW129993   5.403   2.578   5.553
 9698SOL    HW229994   5.272   2.662   5.502
 9699SOL     OW29995   0.276   5.319   0.259
 9699SOL    HW129996   0.327   5.297   0.176
 9699SOL    HW229997   0.239   5.412   0.252
 9700SOL     OW29998   6.473   5.224   4.741
 9700SOL    HW129999   6.423   5.287   4.802
 9700SOL    HW230000   6.520   5.277   4.671
 9701SOL     OW30001   4.419   4.192   5.816
 9701SOL    HW130002   4.434   4.097   5.791
 9701SOL    HW230003   4.414   4.201   5.915
 9702SOL     OW30004   4.273   1.936   0.453
 9702SOL    HW130005   4.198   1.873   0.476
 9702SOL    HW230006   4.342   1.887   0.400
 9703SOL     OW30007   4.864   3.528   3.670
 9703SOL    HW130008   4.811   3.488   3.596
 9703SOL    HW230009   4.902   3.455   3.727
 9704SOL     OW30010   3.617   5.896   1.770
 9704SOL    HW130011   3.555   5.974   1.768
 9704SOL    HW230012   3.565   5.811   1.759
 9705SOL     OW30013   5.364   4.472   6.050
 9705SOL    HW130014   5.265   4.465   6.060
 9705SOL    HW230015   5.387   4.473   5.953
 9706SOL     OW30016   2.785   1.840   1.323
 9706SOL    HW130017   2.782   1.753   1.274
 9706SOL    HW230018   2.827   1.910   1.265
 9707SOL     OW30019   5.690   5.081   2.560
 9707SOL    HW130020   5.699   5.174   2.525
 9707SOL    HW230021   5.627   5.029   2.502
 9708SOL     OW30022   0.703   1.280   3.449
 9708SOL    HW130023   0.751   1.193   3.463
 9708SOL    HW230024   0.605   1.265   3.463
 9709SOL     OW30025   5.167   4.931   2.285
 9709SOL    HW130026   5.219   4.846   2.280
 9709SOL    HW230027   5.166   4.964   2.380
 9710SOL     OW30028   6.647   1.465   1.626
 9710SOL    HW130029   6.664   1.559   1.594
 9710SOL    HW230030   6.574   1.467   1.695
 9711SOL     OW30031   4.398   5.387   6.142
 9711SOL    HW130032   4.419   5.291   6.120
 9711SOL    HW230033   4.472   5.425   6.198
 9712SOL     OW30034   5.634   3.633   0.049
 9712SOL    HW130035   5.639   3.615   6.975
 9712SOL    HW230036   5.658   3.729   0.067
 9713SOL     OW30037   1.930   4.935   3.362
 9713SOL    HW130038   1.972   5.023   3.342
 9713SOL    HW230039   1.914   4.927   3.461
 9714SOL     OW30040   4.373   6.620   6.326
 9714SOL    HW130041   4.472   6.610   6.335
 9714SOL    HW230042   4.331   6.622   6.416
 9715SOL     OW30043   5.417   4.323   7.021
 9715SOL    HW130044   5.333   4.377   7.013
 9715SOL    HW230045   5.416   4.272   0.083
 9716SOL     OW30046   3.623   4.116   6.892
 9716SOL    HW130047   3.698   4.150   6.949
 9716SOL    HW230048   3.660   4.053   6.823
 9717SOL     OW30049   5.042   6.378   6.240
 9717SOL    HW130050   5.028   6.324   6.322
 9717SOL    HW230051   4.958   6.428   6.217
 9718SOL     OW30052   4.869   3.188   1.442
 9718SOL    HW130053   4.873   3.147   1.351
 9718SOL    HW230054   4.952   3.164   1.494
 9719SOL     OW30055   5.402   0.457   5.743
 9719SOL    HW130056   5.402   0.456   5.643
 9719SOL    HW230057   5.451   0.377   5.778
 9720SOL     OW30058   0.950   3.650   2.284
 9720SOL    HW130059   0.935   3.552   2.298
 9720SOL    HW230060   0.978   3.692   2.371
 9721SOL     OW30061   0.009   0.997   7.000
 9721SOL    HW130062   0.027   0.913   6.950
 9721SOL    HW230063   0.043   0.988   0.071
 9722SOL     OW30064   3.391   1.189   5.504
 9722SOL    HW130065   3.334   1.162   5.427
 9722SOL    HW230066   3.471   1.129   5.509
 9723SOL     OW30067   4.086   5.981   4.058
 9723SOL    HW130068   4.031   5.999   3.977
 9723SOL    HW230069   4.127   6.067   4.090
 9724SOL     OW30070   1.091   4.669   0.236
 9724SOL    HW130071   1.085   4.758   0.190
 9724SOL    HW230072   1.186   4.637   0.234
 9725SOL     OW30073   4.396   6.329   6.269
 9725SOL    HW130074   4.476   6.337   6.211
 9725SOL    HW230075   4.350   6.417   6.275
 9726SOL     OW30076   4.314   1.617   3.888
 9726SOL    HW130077   4.221   1.647   3.867
 9726SOL    HW230078   4.339   1.540   3.830
 9727SOL     OW30079   0.895   2.032   6.682
 9727SOL    HW130080   0.853   2.035   6.591
 9727SOL    HW230081   0.974   1.971   6.681
 9728SOL     OW30082   0.530   1.458   5.358
 9728SOL    HW130083   0.554   1.361   5.363
 9728SOL    HW230084   0.561   1.496   5.271
 9729SOL     OW30085   1.301   4.589   4.181
 9729SOL    HW130086   1.310   4.499   4.139
 9729SOL    HW230087   1.205   4.607   4.203
 9730SOL     OW30088   0.839   4.185   3.625
 9730SOL    HW130089   0.883   4.100   3.595
 9730SOL    HW230090   0.883   4.263   3.580
 9731SOL     OW30091   5.052   5.433   1.749
 9731SOL    HW130092   5.055   5.524   1.789
 9731SOL    HW230093   5.136   5.384   1.770
 9732SOL     OW30094   1.536   3.953   2.336
 9732SOL    HW130095   1.453   3.911   2.373
 9732SOL    HW230096   1.517   3.988   2.244
 9733SOL     OW30097   5.057   5.600   0.182
 9733SOL    HW130098   5.138   5.613   0.125
 9733SOL    HW230099   4.997   5.531   0.140
 9734SOL     OW30100   6.542   0.209   0.440
 9734SOL    HW130101   6.569   0.113   0.433
 9734SOL    HW230102   6.542   0.237   0.536
 9735SOL     OW30103   1.918   2.949   3.509
 9735SOL    HW130104   1.896   3.014   3.581
 9735SOL    HW230105   1.892   2.988   3.420
 9736SOL     OW30106   5.307   1.533   6.053
 9736SOL    HW130107   5.373   1.608   6.048
 9736SOL    HW230108   5.299   1.489   5.964
 9737SOL     OW30109   5.037   2.197   2.815
 9737SOL    HW130110   5.118   2.160   2.861
 9737SOL    HW230111   5.045   2.182   2.716
 9738SOL     OW30112   1.740   6.454   0.701
 9738SOL    HW130113   1.804   6.528   0.723
 9738SOL    HW230114   1.771   6.408   0.617
 9739SOL     OW30115   5.168   5.674   0.679
 9739SOL    HW130116   5.136   5.752   0.626
 9739SOL    HW230117   5.183   5.596   0.618
 9740SOL     OW30118   0.546   1.002   3.527
 9740SOL    HW130119   0.452   0.975   3.549
 9740SOL    HW230120   0.609   0.963   3.593
 9741SOL     OW30121   2.485   1.434   2.644
 9741SOL    HW130122   2.401   1.483   2.666
 9741SOL    HW230123   2.501   1.364   2.714
 9742SOL     OW30124   4.135   0.975   0.569
 9742SOL    HW130125   4.164   0.883   0.597
 9742SOL    HW230126   4.212   1.038   0.578
 9743SOL     OW30127   6.799   4.235   3.137
 9743SOL    HW130128   6.768   4.150   3.179
 9743SOL    HW230129   6.889   4.221   3.096
 9744SOL     OW30130   1.455   0.214   2.104
 9744SOL    HW130131   1.453   0.134   2.045
 9744SOL    HW230132   1.361   0.245   2.122
 9745SOL     OW30133   4.385   2.809   6.377
 9745SOL    HW130134   4.418   2.842   6.288
 9745SOL    HW230135   4.322   2.876   6.416
 9746SOL     OW30136   5.780   0.161   5.621
 9746SOL    HW130137   5.839   0.112   5.685
 9746SOL    HW230138   5.818   0.252   5.605
 9747SOL     OW30139   2.475   2.156   1.872
 9747SOL    HW130140   2.533   2.081   1.839
 9747SOL    HW230141   2.531   2.235   1.894
 9748SOL     OW30142   6.317   6.713   3.869
 9748SOL    HW130143   6.283   6.632   3.820
 9748SOL    HW230144   6.411   6.732   3.841
 9749SOL     OW30145   0.992   0.678   4.119
 9749SOL    HW130146   1.078   0.691   4.168
 9749SOL    HW230147   0.915   0.692   4.181
 9750SOL     OW30148   5.825   4.933   3.202
 9750SOL    HW130149   5.815   4.960   3.106
 9750SOL    HW230150   5.897   4.989   3.245
 9751SOL     OW30151   2.627   6.896   1.076
 9751SOL    HW130152   2.550   6.947   1.115
 9751SOL    HW230153   2.682   6.958   1.019
 9752SOL     OW30154   4.474   1.842   5.043
 9752SOL    HW130155   4.398   1.874   5.100
 9752SOL    HW230156   4.462   1.744   5.025
 9753SOL     OW30157   0.486   5.428   5.538
 9753SOL    HW130158   0.566   5.384   5.578
 9753SOL    HW230159   0.489   5.526   5.555
 9754SOL     OW30160   2.014   0.425   0.564
 9754SOL    HW130161   1.952   0.464   0.633
 9754SOL    HW230162   2.053   0.340   0.598
 9755SOL     OW30163   3.357   3.680   4.381
 9755SOL    HW130164   3.450   3.657   4.410
 9755SOL    HW230165   3.291   3.636   4.443
 9756SOL     OW30166   6.119   2.274   5.868
 9756SOL    HW130167   6.099   2.297   5.964
 9756SOL    HW230168   6.041   2.299   5.811
 9757SOL     OW30169   5.637   4.911   5.046
 9757SOL    HW130170   5.666   5.006   5.055
 9757SOL    HW230171   5.718   4.852   5.037
 9758SOL     OW30172   1.592   0.897   0.486
 9758SOL    HW130173   1.646   0.825   0.443
 9758SOL    HW230174   1.650   0.949   0.548
 9759SOL     OW30175   1.342   1.110   0.394
 9759SOL    HW130176   1.399   1.081   0.471
 9759SOL    HW230177   1.383   1.190   0.351
 9760SOL     OW30178   4.891   3.364   5.485
 9760SOL    HW130179   4.794   3.344   5.477
 9760SOL    HW230180   4.905   3.437   5.552
 9761SOL     OW30181   0.302   2.425   1.605
 9761SOL    HW130182   0.354   2.360   1.550
 9761SOL    HW230183   0.331   2.518   1.584
 9762SOL     OW30184   3.764   1.824   4.849
 9762SOL    HW130185   3.836   1.887   4.877
 9762SOL    HW230186   3.678   1.875   4.840
 9763SOL     OW30187   5.264   1.650   3.480
 9763SOL    HW130188   5.192   1.621   3.417
 9763SOL    HW230189   5.353   1.626   3.442
 9764SOL     OW30190   6.913   2.845   2.728
 9764SOL    HW130191   6.860   2.890   2.800
 9764SOL    HW230192   6.995   2.804   2.768
 9765SOL     OW30193   6.685   5.896   3.281
 9765SOL    HW130194   6.725   5.904   3.372
 9765SOL    HW230195   6.612   5.964   3.270
 9766SOL     OW30196   2.013   6.604   1.799
 9766SOL    HW130197   2.016   6.653   1.886
 9766SOL    HW230198   1.937   6.639   1.744
 9767SOL     OW30199   2.581   2.394   5.958
 9767SOL    HW130200   2.635   2.407   6.041
 9767SOL    HW230201   2.641   2.363   5.884
 9768SOL     OW30202   5.094   1.260   1.299
 9768SOL    HW130203   5.141   1.325   1.359
 9768SOL    HW230204   5.047   1.191   1.354
 9769SOL     OW30205   3.266   1.398   4.875
 9769SOL    HW130206   3.189   1.455   4.848
 9769SOL    HW230207   3.326   1.450   4.935
 9770SOL     OW30208   3.677   1.136   5.822
 9770SOL    HW130209   3.702   1.040   5.821
 9770SOL    HW230210   3.666   1.169   5.728
 9771SOL     OW30211   2.671   5.537   0.790
 9771SOL    HW130212   2.618   5.583   0.862
 9771SOL    HW230213   2.609   5.480   0.736
 9772SOL     OW30214   1.437   6.063   1.777
 9772SOL    HW130215   1.486   6.094   1.858
 9772SOL    HW230216   1.367   6.130   1.752
 9773SOL     OW30217   5.004   5.364   3.650
 9773SOL    HW130218   5.081   5.426   3.636
 9773SOL    HW230219   4.945   5.401   3.721
 9774SOL     OW30220   7.022   4.737   1.850
 9774SOL    HW130221   0.053   4.776   1.924
 9774SOL    HW230222   6.968   4.810   1.807
 9775SOL     OW30223   3.219   0.366   3.622
 9775SOL    HW130224   3.309   0.409   3.614
 9775SOL    HW230225   3.223   0.293   3.690
 9776SOL     OW30226   0.707   5.227   5.630
 9776SOL    HW130227   0.663   5.196   5.546
 9776SOL    HW230228   0.795   5.181   5.640
 9777SOL     OW30229   6.215   4.751   0.546
 9777SOL    HW130230   6.271   4.833   0.534
 9777SOL    HW230231   6.262   4.673   0.505
 9778SOL     OW30232   0.267   1.556   4.575
 9778SOL    HW130233   0.286   1.458   4.572
 9778SOL    HW230234   0.262   1.593   4.482
 9779SOL     OW30235   0.348   1.293   3.928
 9779SOL    HW130236   0.443   1.317   3.907
 9779SOL    HW230237   0.338   1.281   4.026
 9780SOL     OW30238   2.305   2.522   0.335
 9780SOL    HW130239   2.229   2.585   0.317
 9780SOL    HW230240   2.283   2.463   0.412
 9781SOL     OW30241   2.109   2.298   5.011
 9781SOL    HW130242   2.031   2.239   5.030
 9781SOL    HW230243   2.140   2.340   5.097
 9782SOL     OW30244   0.697   2.243   0.471
 9782SOL    HW130245   0.669   2.337   0.488
 9782SOL    HW230246   0.656   2.182   0.540
 9783SOL     OW30247   4.518   2.423   3.564
 9783SOL    HW130248   4.556   2.512   3.588
 9783SOL    HW230249   4.571   2.383   3.489
 9784SOL     OW30250   3.083   1.245   6.338
 9784SOL    HW130251   2.992   1.225   6.300
 9784SOL    HW230252   3.153   1.205   6.279
 9785SOL     OW30253   0.251   1.984   5.455
 9785SOL    HW130254   0.246   1.969   5.554
 9785SOL    HW230255   0.205   1.909   5.407
 9786SOL     OW30256   2.643   4.007   0.234
 9786SOL    HW130257   2.638   3.917   0.277
 9786SOL    HW230258   2.615   4.001   0.138
 9787SOL     OW30259   3.291   2.967   2.660
 9787SOL    HW130260   3.284   2.895   2.729
 9787SOL    HW230261   3.235   3.045   2.687
 9788SOL     OW30262   0.821   6.577   2.639
 9788SOL    HW130263   0.847   6.490   2.680
 9788SOL    HW230264   0.898   6.612   2.584
 9789SOL     OW30265   1.798   5.383   0.578
 9789SOL    HW130266   1.816   5.473   0.619
 9789SOL    HW230267   1.716   5.344   0.620
 9790SOL     OW30268   6.353   4.720   6.467
 9790SOL    HW130269   6.382   4.624   6.468
 9790SOL    HW230270   6.391   4.765   6.386
 9791SOL     OW30271   0.482   7.015   6.702
 9791SOL    HW130272   0.549   0.038   6.760
 9791SOL    HW230273   0.515   6.924   6.678
 9792SOL     OW30274   2.974   4.175   0.738
 9792SOL    HW130275   2.875   4.185   0.736
 9792SOL    HW230276   3.009   4.210   0.826
 9793SOL     OW30277   4.134   0.193   2.489
 9793SOL    HW130278   4.067   0.241   2.432
 9793SOL    HW230279   4.160   0.250   2.566
 9794SOL     OW30280   6.853   4.264   6.521
 9794SOL    HW130281   6.871   4.341   6.459
 9794SOL    HW230282   6.878   4.178   6.475
 9795SOL     OW30283   1.134   1.913   4.734
 9795SOL    HW130284   1.115   1.869   4.822
 9795SOL    HW230285   1.227   1.892   4.706
 9796SOL     OW30286   4.118   3.266   2.304
 9796SOL    HW130287   4.080   3.232   2.218
 9796SOL    HW230288   4.218   3.271   2.297
 9797SOL     OW30289   2.301   5.503   0.584
 9797SOL    HW130290   2.342   5.558   0.511
 9797SOL    HW230291   2.367   5.434   0.614
 9798SOL     OW30292   3.526   0.521   2.455
 9798SOL    HW130293   3.483   0.570   2.379
 9798SOL    HW230294   3.454   0.480   2.512
 9799SOL     OW30295   2.415   4.442   5.731
 9799SOL    HW130296   2.345   4.468   5.798
 9799SOL    HW230297   2.376   4.446   5.639
 9800SOL     OW30298   4.957   5.383   5.273
 9800SOL    HW130299   4.978   5.368   5.176
 9800SOL    HW230300   4.902   5.466   5.282
 9801SOL     OW30301   4.397   3.746   6.850
 9801SOL    HW130302   4.471   3.744   6.783
 9801SOL    HW230303   4.375   3.841   6.873
 9802SOL     OW30304   5.913   4.715   1.830
 9802SOL    HW130305   5.876   4.686   1.919
 9802SOL    HW230306   5.839   4.720   1.764
 9803SOL     OW30307   1.955   2.128   6.380
 9803SOL    HW130308   1.874   2.102   6.433
 9803SOL    HW230309   1.927   2.189   6.305
 9804SOL     OW30310   0.635   6.409   2.884
 9804SOL    HW130311   0.670   6.490   2.931
 9804SOL    HW230312   0.696   6.332   2.900
 9805SOL     OW30313   0.549   6.603   2.545
 9805SOL    HW130314   0.620   6.594   2.614
 9805SOL    HW230315   0.479   6.667   2.577
 9806SOL     OW30316   1.488   1.752   7.020
 9806SOL    HW130317   1.442   1.670   6.985
 9806SOL    HW230318   1.419   1.821   0.021
 9807SOL     OW30319   3.164   3.678   1.455
 9807SOL    HW130320   3.224   3.721   1.523
 9807SOL    HW230321   3.099   3.746   1.420
 9808SOL     OW30322   4.214   6.622   5.102
 9808SOL    HW130323   4.119   6.646   5.080
 9808SOL    HW230324   4.222   6.523   5.112
 9809SOL     OW30325   0.920   3.695   6.771
 9809SOL    HW130326   0.909   3.784   6.726
 9809SOL    HW230327   0.917   3.623   6.702
 9810SOL     OW30328   2.911   2.221   4.586
 9810SOL    HW130329   2.836   2.288   4.590
 9810SOL    HW230330   2.926   2.182   4.677
 9811SOL     OW30331   5.624   4.607   3.388
 9811SOL    HW130332   5.658   4.683   3.445
 9811SOL    HW230333   5.530   4.587   3.413
 9812SOL     OW30334   3.760   1.787   5.368
 9812SOL    HW130335   3.807   1.874   5.351
 9812SOL    HW230336   3.793   1.747   5.453
 9813SOL     OW30337   4.585   1.625   0.831
 9813SOL    HW130338   4.634   1.639   0.917
 9813SOL    HW230339   4.488   1.645   0.845
 9814SOL     OW30340   6.929   0.242   6.472
 9814SOL    HW130341   6.953   0.249   6.569
 9814SOL    HW230342   7.012   0.241   6.417
 9815SOL     OW30343   4.902   3.652   4.573
 9815SOL    HW130344   4.883   3.622   4.667
 9815SOL    HW230345   4.993   3.619   4.546
 9816SOL     OW30346   1.180   1.008   6.080
 9816SOL    HW130347   1.168   0.909   6.071
 9816SOL    HW230348   1.136   1.054   6.003
 9817SOL     OW30349   2.686   6.255   3.618
 9817SOL    HW130350   2.678   6.233   3.715
 9817SOL    HW230351   2.711   6.351   3.608
 9818SOL     OW30352   0.388   0.742   3.800
 9818SOL    HW130353   0.321   0.721   3.729
 9818SOL    HW230354   0.409   0.840   3.798
 9819SOL     OW30355   5.365   3.759   3.397
 9819SOL    HW130356   5.460   3.767   3.427
 9819SOL    HW230357   5.349   3.667   3.360
 9820SOL     OW30358   3.620   2.856   6.939
 9820SOL    HW130359   3.679   2.936   6.935
 9820SOL    HW230360   3.588   2.843   0.010
 9821SOL     OW30361   5.267   1.323   0.064
 9821SOL    HW130362   5.280   1.389   7.014
 9821SOL    HW230363   5.244   1.371   0.149
 9822SOL     OW30364   2.049   6.984   3.143
 9822SOL    HW130365   2.053   6.886   3.161
 9822SOL    HW230366   2.063   0.011   3.229
 9823SOL     OW30367   2.567   0.248   0.028
 9823SOL    HW130368   2.666   0.233   0.040
 9823SOL    HW230369   2.519   0.162   0.041
 9824SOL     OW30370   1.998   5.186   4.529
 9824SOL    HW130371   1.976   5.101   4.483
 9824SOL    HW230372   2.039   5.167   4.618
 9825SOL     OW30373   4.305   5.327   5.482
 9825SOL    HW130374   4.358   5.340   5.399
 9825SOL    HW230375   4.299   5.230   5.504
 9826SOL     OW30376   5.298   5.302   6.526
 9826SOL    HW130377   5.331   5.217   6.484
 9826SOL    HW230378   5.199   5.295   6.541
 9827SOL     OW30379   2.153   3.772   3.456
 9827SOL    HW130380   2.062   3.739   3.431
 9827SOL    HW230381   2.189   3.830   3.382
 9828SOL     OW30382   2.023   2.889   5.957
 9828SOL    HW130383   2.099   2.932   5.909
 9828SOL    HW230384   2.058   2.836   6.034
 9829SOL     OW30385   3.863   5.150   0.332
 9829SOL    HW130386   3.862   5.134   0.431
 9829SOL    HW230387   3.851   5.247   0.314
 9830SOL     OW30388   5.848   2.732   1.841
 9830SOL    HW130389   5.769   2.792   1.827
 9830SOL    HW230390   5.827   2.641   1.806
 9831SOL     OW30391   2.106   4.923   1.380
 9831SOL    HW130392   2.155   4.875   1.453
 9831SOL    HW230393   2.083   4.858   1.308
 9832SOL     OW30394   4.852   5.350   2.976
 9832SOL    HW130395   4.899   5.266   3.003
 9832SOL    HW230396   4.756   5.329   2.956
 9833SOL     OW30397   3.493   3.795   5.242
 9833SOL    HW130398   3.485   3.807   5.143
 9833SOL    HW230399   3.408   3.756   5.277
 9834SOL     OW30400   2.984   4.882   5.324
 9834SOL    HW130401   2.894   4.850   5.293
 9834SOL    HW230402   3.040   4.803   5.350
 9835SOL     OW30403   3.431   3.172   5.570
 9835SOL    HW130404   3.466   3.248   5.515
 9835SOL    HW230405   3.347   3.201   5.618
 9836SOL     OW30406   6.534   4.941   3.949
 9836SOL    HW130407   6.492   4.941   3.858
 9836SOL    HW230408   6.484   4.878   4.009
 9837SOL     OW30409   3.091   0.402   3.226
 9837SOL    HW130410   3.115   0.322   3.172
 9837SOL    HW230411   3.163   0.470   3.219
 9838SOL     OW30412   1.746   6.585   6.625
 9838SOL    HW130413   1.761   6.497   6.581
 9838SOL    HW230414   1.741   6.657   6.556
 9839SOL     OW30415   5.776   0.779   3.687
 9839SOL    HW130416   5.738   0.785   3.595
 9839SOL    HW230417   5.872   0.806   3.685
 9840SOL     OW30418   6.356   1.215   1.112
 9840SOL    HW130419   6.351   1.315   1.118
 9840SOL    HW230420   6.318   1.175   1.196
 9841SOL     OW30421   1.748   4.144   5.039
 9841SOL    HW130422   1.794   4.094   5.111
 9841SOL    HW230423   1.800   4.135   4.953
 9842SOL     OW30424   3.913   2.982   2.478
 9842SOL    HW130425   3.856   2.936   2.411
 9842SOL    HW230426   3.974   3.047   2.432
 9843SOL     OW30427   6.201   0.854   1.042
 9843SOL    HW130428   6.174   0.949   1.030
 9843SOL    HW230429   6.299   0.844   1.022
 9844SOL     OW30430   6.404   0.874   2.286
 9844SOL    HW130431   6.319   0.841   2.328
 9844SOL    HW230432   6.474   0.802   2.293
 9845SOL     OW30433   2.646   2.423   4.025
 9845SOL    HW130434   2.704   2.433   4.106
 9845SOL    HW230435   2.626   2.327   4.009
 9846SOL     OW30436   4.071   3.602   1.533
 9846SOL    HW130437   4.070   3.690   1.484
 9846SOL    HW230438   4.031   3.531   1.476
 9847SOL     OW30439   3.535   2.887   3.940
 9847SOL    HW130440   3.524   2.830   3.859
 9847SOL    HW230441   3.476   2.968   3.932
 9848SOL     OW30442   3.229   3.670   5.244
 9848SOL    HW130443   3.229   3.733   5.166
 9848SOL    HW230444   3.227   3.576   5.210
 9849SOL     OW30445   0.427   6.433   6.552
 9849SOL    HW130446   0.430   6.424   6.652
 9849SOL    HW230447   0.476   6.356   6.510
 9850SOL     OW30448   5.780   0.218   3.974
 9850SOL    HW130449   5.700   0.186   4.025
 9850SOL    HW230450   5.750   0.261   3.889
 9851SOL     OW30451   5.053   0.601   4.886
 9851SOL    HW130452   5.068   0.531   4.817
 9851SOL    HW230453   5.083   0.690   4.851
 9852SOL     OW30454   3.876   2.178   3.519
 9852SOL    HW130455   3.914   2.087   3.536
 9852SOL    HW230456   3.939   2.230   3.462
 9853SOL     OW30457   5.165   3.933   4.830
 9853SOL    HW130458   5.171   3.841   4.867
 9853SOL    HW230459   5.069   3.957   4.816
 9854SOL     OW30460   0.283   6.078   4.692
 9854SOL    HW130461   0.215   6.145   4.724
 9854SOL    HW230462   0.375   6.115   4.706
 9855SOL     OW30463   2.740   3.091   0.626
 9855SOL    HW130464   2.779   3.028   0.559
 9855SOL    HW230465   2.659   3.135   0.587
 9856SOL     OW30466   5.126   5.012   5.428
 9856SOL    HW130467   5.101   4.955   5.349
 9856SOL    HW230468   5.224   5.034   5.423
 9857SOL     OW30469   4.533   2.171   3.691
 9857SOL    HW130470   4.498   2.228   3.616
 9857SOL    HW230471   4.633   2.172   3.689
 9858SOL     OW30472   6.725   0.731   1.332
 9858SOL    HW130473   6.821   0.750   1.355
 9858SOL    HW230474   6.684   0.813   1.292
 9859SOL     OW30475   6.383   0.395   2.344
 9859SOL    HW130476   6.312   0.359   2.283
 9859SOL    HW230477   6.461   0.334   2.345
 9860SOL     OW30478   1.382   1.386   4.139
 9860SOL    HW130479   1.311   1.334   4.187
 9860SOL    HW230480   1.439   1.433   4.206
 9861SOL     OW30481   3.066   0.081   3.455
 9861SOL    HW130482   3.140   0.148   3.446
 9861SOL    HW230483   3.034   0.079   3.549
 9862SOL     OW30484   4.186   3.536   0.095
 9862SOL    HW130485   4.267   3.529   0.155
 9862SOL    HW230486   4.103   3.527   0.150
 9863SOL     OW30487   3.284   6.934   3.337
 9863SOL    HW130488   3.247   6.916   3.245
 9863SOL    HW230489   3.208   6.950   3.400
 9864SOL     OW30490   3.909   6.374   4.187
 9864SOL    HW130491   3.915   6.470   4.159
 9864SOL    HW230492   3.990   6.351   4.242
 9865SOL     OW30493   1.287   1.094   4.569
 9865SOL    HW130494   1.384   1.080   4.548
 9865SOL    HW230495   1.278   1.125   4.664
 9866SOL     OW30496   5.111   4.779   6.185
 9866SOL    HW130497   5.119   4.867   6.138
 9866SOL    HW230498   5.015   4.761   6.206
 9867SOL     OW30499   6.494   0.836   0.946
 9867SOL    HW130500   6.539   0.767   1.004
 9867SOL    HW230501   6.534   0.926   0.964
 9868SOL     OW30502   0.395   3.715   6.309
 9868SOL    HW130503   0.478   3.730   6.362
 9868SOL    HW230504   0.316   3.714   6.370
 9869SOL     OW30505   1.655   3.385   2.224
 9869SOL    HW130506   1.730   3.405   2.287
 9869SOL    HW230507   1.691   3.336   2.145
 9870SOL     OW30508   3.547   5.638   2.270
 9870SOL    HW130509   3.489   5.614   2.347
 9870SOL    HW230510   3.643   5.625   2.294
 9871SOL     OW30511   0.483   5.742   6.092
 9871SOL    HW130512   0.534   5.752   6.006
 9871SOL    HW230513   0.545   5.710   6.164
 9872SOL     OW30514   2.273   5.478   3.906
 9872SOL    HW130515   2.272   5.408   3.834
 9872SOL    HW230516   2.332   5.554   3.878
 9873SOL     OW30517   2.868   2.221   0.051
 9873SOL    HW130518   2.845   2.148   0.115
 9873SOL    HW230519   2.784   2.267   0.021
 9874SOL     OW30520   6.522   3.047   4.929
 9874SOL    HW130521   6.482   3.134   4.902
 9874SOL    HW230522   6.579   3.060   5.010
 9875SOL     OW30523   6.231   5.854   2.250
 9875SOL    HW130524   6.239   5.763   2.208
 9875SOL    HW230525   6.272   5.922   2.190
 9876SOL     OW30526   6.290   0.208   3.526
 9876SOL    HW130527   6.247   0.218   3.436
 9876SOL    HW230528   6.313   0.299   3.561
 9877SOL     OW30529   6.981   6.224   4.112
 9877SOL    HW130530   6.977   6.321   4.089
 9877SOL    HW230531   6.892   6.194   4.147
 9878SOL     OW30532   2.556   4.677   4.952
 9878SOL    HW130533   2.656   4.668   4.951
 9878SOL    HW230534   2.522   4.685   4.859
 9879SOL     OW30535   5.518   5.466   5.084
 9879SOL    HW130536   5.559   5.557   5.084
 9879SOL    HW230537   5.531   5.423   4.995
 9880SOL     OW30538   3.382   1.008   6.249
 9880SOL    HW130539   3.452   0.937   6.254
 9880SOL    HW230540   3.397   1.064   6.167
 9881SOL     OW30541   0.648   0.912   5.194
 9881SOL    HW130542   0.643   0.880   5.288
 9881SOL    HW230543   0.685   1.005   5.192
 9882SOL     OW30544   1.132   3.231   3.858
 9882SOL    HW130545   1.163   3.137   3.844
 9882SOL    HW230546   1.114   3.246   3.955
 9883SOL     OW30547   1.213   6.466   0.120
 9883SOL    HW130548   1.172   6.478   0.030
 9883SOL    HW230549   1.143   6.472   0.191
 9884SOL     OW30550   5.152   2.575   1.538
 9884SOL    HW130551   5.164   2.500   1.602
 9884SOL    HW230552   5.226   2.574   1.471
 9885SOL     OW30553   6.979   2.017   5.061
 9885SOL    HW130554   6.914   2.091   5.043
 9885SOL    HW230555   6.934   1.943   5.110
 9886SOL     OW30556   1.269   4.534   2.681
 9886SOL    HW130557   1.336   4.535   2.607
 9886SOL    HW230558   1.184   4.575   2.649
 9887SOL     OW30559   4.263   0.524   6.366
 9887SOL    HW130560   4.312   0.534   6.279
 9887SOL    HW230561   4.211   0.439   6.366
 9888SOL     OW30562   5.829   4.678   2.752
 9888SOL    HW130563   5.879   4.679   2.665
 9888SOL    HW230564   5.789   4.587   2.766
 9889SOL     OW30565   6.885   4.878   1.663
 9889SOL    HW130566   6.961   4.894   1.601
 9889SOL    HW230567   6.824   4.808   1.625
 9890SOL     OW30568   1.451   2.883   0.589
 9890SOL    HW130569   1.364   2.847   0.624
 9890SOL    HW230570   1.524   2.864   0.654
 9891SOL     OW30571   5.565   3.379   2.156
 9891SOL    HW130572   5.538   3.369   2.060
 9891SOL    HW230573   5.513   3.313   2.211
 9892SOL     OW30574   0.612   4.796   1.235
 9892SOL    HW130575   0.558   4.850   1.299
 9892SOL    HW230576   0.643   4.855   1.160
 9893SOL     OW30577   0.787   1.014   1.423
 9893SOL    HW130578   0.874   1.001   1.470
 9893SOL    HW230579   0.779   1.108   1.391
 9894SOL     OW30580   3.569   2.613   0.553
 9894SOL    HW130581   3.580   2.536   0.491
 9894SOL    HW230582   3.485   2.662   0.531
 9895SOL     OW30583   5.925   4.891   5.009
 9895SOL    HW130584   5.962   4.804   4.976
 9895SOL    HW230585   5.999   4.956   5.022
 9896SOL     OW30586   6.122   0.870   0.635
 9896SOL    HW130587   6.157   0.821   0.554
 9896SOL    HW230588   6.106   0.804   0.708
 9897SOL     OW30589   5.616   6.213   2.296
 9897SOL    HW130590   5.520   6.187   2.282
 9897SOL    HW230591   5.639   6.289   2.235
 9898SOL     OW30592   1.375   5.132   5.171
 9898SOL    HW130593   1.311   5.208   5.182
 9898SOL    HW230594   1.326   5.046   5.186
 9899SOL     OW30595   1.768   5.824   0.852
 9899SOL    HW130596   1.715   5.904   0.825
 9899SOL    HW230597   1.820   5.790   0.774
 9900SOL     OW30598   1.160   2.745   3.327
 9900SOL    HW130599   1.242   2.803   3.318
 9900SOL    HW230600   1.187   2.649   3.325
 9901SOL     OW30601   2.930   0.624   0.008
 9901SOL    HW130602   2.998   0.579   0.066
 9901SOL    HW230603   2.839   0.585   0.026
 9902SOL     OW30604   2.812   4.697   1.528
 9902SOL    HW130605   2.884   4.674   1.463
 9902SOL    HW230606   2.840   4.672   1.621
 9903SOL     OW30607   5.654   2.219   1.874
 9903SOL    HW130608   5.747   2.244   1.847
 9903SOL    HW230609   5.638   2.123   1.852
 9904SOL     OW30610   0.876   3.931   0.395
 9904SOL    HW130611   0.903   4.013   0.444
 9904SOL    HW230612   0.809   3.955   0.324
 9905SOL     OW30613   2.543   0.751   6.182
 9905SOL    HW130614   2.544   0.696   6.265
 9905SOL    HW230615   2.479   0.828   6.194
 9906SOL     OW30616   1.752   3.061   0.666
 9906SOL    HW130617   1.666   3.111   0.657
 9906SOL    HW230618   1.824   3.109   0.615
 9907SOL     OW30619   0.808   0.264   0.748
 9907SOL    HW130620   0.867   0.258   0.668
 9907SOL    HW230621   0.852   0.221   0.827
 9908SOL     OW30622   6.496   1.824   5.479
 9908SOL    HW130623   6.413   1.847   5.428
 9908SOL    HW230624   6.573   1.819   5.416
 9909SOL     OW30625   4.332   1.031   2.956
 9909SOL    HW130626   4.378   0.960   2.903
 9909SOL    HW230627   4.243   0.997   2.987
 9910SOL     OW30628   1.240   4.998   1.868
 9910SOL    HW130629   1.305   4.926   1.841
 9910SOL    HW230630   1.199   5.038   1.786
 9911SOL     OW30631   2.837   6.618   2.676
 9911SOL    HW130632   2.901   6.629   2.599
 9911SOL    HW230633   2.885   6.577   2.754
 9912SOL     OW30634   3.701   0.948   1.121
 9912SOL    HW130635   3.663   1.039   1.105
 9912SOL    HW230636   3.770   0.928   1.051
 9913SOL     OW30637   6.680   3.925   0.483
 9913SOL    HW130638   6.701   3.948   0.388
 9913SOL    HW230639   6.650   3.830   0.488
 9914SOL     OW30640   5.785   1.055   4.533
 9914SOL    HW130641   5.876   1.038   4.493
 9914SOL    HW230642   5.794   1.071   4.631
 9915SOL     OW30643   6.024   0.830   3.630
 9915SOL    HW130644   6.074   0.779   3.700
 9915SOL    HW230645   6.085   0.852   3.554
 9916SOL     OW30646   2.363   2.296   3.126
 9916SOL    HW130647   2.460   2.276   3.111
 9916SOL    HW230648   2.352   2.393   3.147
 9917SOL     OW30649   3.978   3.849   6.281
 9917SOL    HW130650   4.045   3.801   6.224
 9917SOL    HW230651   3.984   3.815   6.375
 9918SOL     OW30652   1.808   2.412   2.992
 9918SOL    HW130653   1.849   2.372   2.910
 9918SOL    HW230654   1.776   2.339   3.052
 9919SOL     OW30655   1.132   5.477   1.025
 9919SOL    HW130656   1.145   5.393   1.078
 9919SOL    HW230657   1.064   5.534   1.070
 9920SOL     OW30658   4.850   0.545   2.533
 9920SOL    HW130659   4.936   0.575   2.573
 9920SOL    HW230660   4.784   0.527   2.606
 9921SOL     OW30661   4.310   6.425   4.588
 9921SOL    HW130662   4.406   6.443   4.565
 9921SOL    HW230663   4.307   6.367   4.670
 9922SOL     OW30664   3.593   4.119   1.147
 9922SOL    HW130665   3.515   4.095   1.089
 9922SOL    HW230666   3.583   4.074   1.235
 9923SOL     OW30667   5.848   4.627   6.846
 9923SOL    HW130668   5.816   4.674   6.764
 9923SOL    HW230669   5.771   4.586   6.894
 9924SOL     OW30670   6.194   1.778   3.495
 9924SOL    HW130671   6.202   1.740   3.403
 9924SOL    HW230672   6.149   1.867   3.491
 9925SOL     OW30673   0.264   5.208   3.807
 9925SOL    HW130674   0.251   5.297   3.850
 9925SOL    HW230675   0.258   5.136   3.876
 9926SOL     OW30676   4.170   2.715   1.443
 9926SOL    HW130677   4.200   2.752   1.355
 9926SOL    HW230678   4.176   2.615   1.440
 9927SOL     OW30679   1.314   6.853   1.045
 9927SOL    HW130680   1.404   6.866   1.087
 9927SOL    HW230681   1.269   6.942   1.033
 9928SOL     OW30682   4.966   5.117   3.088
 9928SOL    HW130683   4.882   5.110   3.141
 9928SOL    HW230684   5.000   5.026   3.067
 9929SOL     OW30685   3.142   4.026   4.754
 9929SOL    HW130686   3.076   4.015   4.828
 9929SOL    HW230687   3.185   3.938   4.734
 9930SOL     OW30688   0.251   6.357   5.586
 9930SOL    HW130689   0.334   6.368   5.531
 9930SOL    HW230690   0.275   6.324   5.677
 9931SOL     OW30691   0.096   5.518   4.404
 9931SOL    HW130692   0.184   5.555   4.375
 9931SOL    HW230693   0.038   5.593   4.436
 9932SOL     OW30694   2.310   3.273   6.016
 9932SOL    HW130695   2.341   3.332   5.942
 9932SOL    HW230696   2.261   3.194   5.978
 9933SOL     OW30697   1.856   6.937   3.924
 9933SOL    HW130698   1.856   0.011   3.902
 9933SOL    HW230699   1.832   6.884   3.842
 9934SOL     OW30700   0.059   2.260   5.690
 9934SOL    HW130701   0.133   2.319   5.659
 9934SOL    HW230702   6.998   2.280   5.640
 9935SOL     OW30703   3.211   6.696   0.832
 9935SOL    HW130704   3.134   6.643   0.866
 9935SOL    HW230705   3.282   6.702   0.902
 9936SOL     OW30706   6.515   4.605   1.001
 9936SOL    HW130707   6.474   4.675   1.060
 9936SOL    HW230708   6.461   4.596   0.917
 9937SOL     OW30709   0.477   2.207   1.124
 9937SOL    HW130710   0.423   2.184   1.043
 9937SOL    HW230711   0.570   2.231   1.095
 9938SOL     OW30712   6.006   4.744   3.832
 9938SOL    HW130713   5.975   4.812   3.765
 9938SOL    HW230714   5.946   4.664   3.828
 9939SOL     OW30715   4.838   3.082   1.178
 9939SOL    HW130716   4.748   3.081   1.134
 9939SOL    HW230717   4.901   3.139   1.125
 9940SOL     OW30718   1.018   0.867   1.901
 9940SOL    HW130719   0.974   0.955   1.916
 9940SOL    HW230720   1.095   0.878   1.838
 9941SOL     OW30721   3.320   3.157   5.024
 9941SOL    HW130722   3.377   3.183   4.947
 9941SOL    HW230723   3.358   3.076   5.069
 9942SOL     OW30724   2.751   5.243   2.585
 9942SOL    HW130725   2.813   5.245   2.664
 9942SOL    HW230726   2.781   5.173   2.520
 9943SOL     OW30727   1.049   4.353   6.328
 9943SOL    HW130728   1.072   4.257   6.317
 9943SOL    HW230729   0.966   4.374   6.276
 9944SOL     OW30730   0.738   4.615   6.444
 9944SOL    HW130731   0.794   4.546   6.489
 9944SOL    HW230732   0.708   4.683   6.511
 9945SOL     OW30733   4.415   5.971   0.076
 9945SOL    HW130734   4.498   5.996   0.125
 9945SOL    HW230735   4.335   6.007   0.125
 9946SOL     OW30736   5.990   0.552   3.274
 9946SOL    HW130737   6.066   0.613   3.249
 9946SOL    HW230738   5.903   0.596   3.250
 9947SOL     OW30739   2.926   2.186   4.874
 9947SOL    HW130740   2.848   2.161   4.932
 9947SOL    HW230741   2.997   2.228   4.930
 9948SOL     OW30742   6.816   4.863   6.160
 9948SOL    HW130743   6.893   4.858   6.223
 9948SOL    HW230744   6.787   4.771   6.134
 9949SOL     OW30745   6.580   4.450   3.976
 9949SOL    HW130746   6.538   4.495   3.897
 9949SOL    HW230747   6.676   4.431   3.957
 9950SOL     OW30748   5.444   6.104   5.967
 9950SOL    HW130749   5.444   6.172   5.894
 9950SOL    HW230750   5.503   6.027   5.941
 9951SOL     OW30751   1.446   2.229   4.129
 9951SOL    HW130752   1.441   2.267   4.037
 9951SOL    HW230753   1.385   2.150   4.136
 9952SOL     OW30754   1.348   4.969   0.607
 9952SOL    HW130755   1.262   4.919   0.605
 9952SOL    HW230756   1.423   4.907   0.586
 9953SOL     OW30757   6.200   2.422   4.097
 9953SOL    HW130758   6.198   2.327   4.063
 9953SOL    HW230759   6.256   2.426   4.179
 9954SOL     OW30760   0.972   0.883   5.939
 9954SOL    HW130761   1.027   0.934   5.872
 9954SOL    HW230762   0.917   0.948   5.993
 9955SOL     OW30763   5.630   4.126   5.898
 9955SOL    HW130764   5.706   4.124   5.962
 9955SOL    HW230765   5.613   4.220   5.868
 9956SOL     OW30766   0.379   5.751   2.882
 9956SOL    HW130767   0.478   5.740   2.878
 9956SOL    HW230768   0.356   5.823   2.947
 9957SOL     OW30769   5.716   0.252   1.959
 9957SOL    HW130770   5.711   0.152   1.959
 9957SOL    HW230771   5.776   0.283   1.885
 9958SOL     OW30772   1.850   5.575   6.547
 9958SOL    HW130773   1.866   5.501   6.481
 9958SOL    HW230774   1.757   5.569   6.583
 9959SOL     OW30775   4.107   3.686   4.223
 9959SOL    HW130776   4.113   3.656   4.128
 9959SOL    HW230777   4.197   3.677   4.267
 9960SOL     OW30778   6.717   0.286   2.561
 9960SOL    HW130779   6.712   0.210   2.626
 9960SOL    HW230780   6.647   0.275   2.491
 9961SOL     OW30781   1.483   5.143   4.540
 9961SOL    HW130782   1.468   5.067   4.476
 9961SOL    HW230783   1.567   5.191   4.517
 9962SOL     OW30784   4.568   6.824   1.842
 9962SOL    HW130785   4.470   6.806   1.829
 9962SOL    HW230786   4.617   6.804   1.757
 9963SOL     OW30787   2.503   2.703   6.027
 9963SOL    HW130788   2.519   2.607   6.004
 9963SOL    HW230789   2.590   2.746   6.051
 9964SOL     OW30790   4.595   3.477   5.625
 9964SOL    HW130791   4.570   3.414   5.552
 9964SOL    HW230792   4.603   3.570   5.589
 9965SOL     OW30793   3.787   4.891   6.491
 9965SOL    HW130794   3.852   4.869   6.418
 9965SOL    HW230795   3.725   4.815   6.504
 9966SOL     OW30796   2.368   5.949   2.320
 9966SOL    HW130797   2.445   5.884   2.318
 9966SOL    HW230798   2.297   5.915   2.382
 9967SOL     OW30799   6.153   6.557   2.211
 9967SOL    HW130800   6.101   6.576   2.295
 9967SOL    HW230801   6.096   6.578   2.131
 9968SOL     OW30802   3.151   3.633   6.664
 9968SOL    HW130803   3.086   3.558   6.656
 9968SOL    HW230804   3.208   3.618   6.745
 9969SOL     OW30805   1.781   2.559   4.479
 9969SOL    HW130806   1.838   2.487   4.440
 9969SOL    HW230807   1.821   2.648   4.458
 9970SOL     OW30808   5.508   4.270   2.790
 9970SOL    HW130809   5.440   4.268   2.717
 9970SOL    HW230810   5.593   4.227   2.759
 9971SOL     OW30811   2.794   3.620   0.083
 9971SOL    HW130812   2.803   3.715   0.053
 9971SOL    HW230813   2.797   3.560   0.003
 9972SOL     OW30814   3.811   4.545   0.492
 9972SOL    HW130815   3.754   4.553   0.411
 9972SOL    HW230816   3.860   4.458   0.490
 9973SOL     OW30817   4.379   1.779   4.106
 9973SOL    HW130818   4.369   1.715   4.029
 9973SOL    HW230819   4.466   1.828   4.098
 9974SOL     OW30820   6.698   4.082   3.410
 9974SOL    HW130821   6.748   4.057   3.493
 9974SOL    HW230822   6.666   4.176   3.418
 9975SOL     OW30823   6.522   4.352   0.603
 9975SOL    HW130824   6.593   4.402   0.555
 9975SOL    HW230825   6.558   4.264   0.634
 9976SOL     OW30826   0.259   6.088   5.473
 9976SOL    HW130827   0.219   6.172   5.510
 9976SOL    HW230828   0.300   6.035   5.546
 9977SOL     OW30829   0.353   4.998   6.175
 9977SOL    HW130830   0.409   5.070   6.135
 9977SOL    HW230831   0.346   4.922   6.112
 9978SOL     OW30832   6.134   3.202   3.399
 9978SOL    HW130833   6.117   3.209   3.301
 9978SOL    HW230834   6.101   3.284   3.446
 9979SOL     OW30835   6.322   5.039   5.663
 9979SOL    HW130836   6.364   5.031   5.572
 9979SOL    HW230837   6.223   5.048   5.654
 9980SOL     OW30838   1.793   1.656   6.206
 9980SOL    HW130839   1.808   1.677   6.302
 9980SOL    HW230840   1.770   1.559   6.197
 9981SOL     OW30841   2.331   2.035   1.619
 9981SOL    HW130842   2.308   2.131   1.637
 9981SOL    HW230843   2.362   2.026   1.524
 9982SOL     OW30844   0.419   1.007   3.823
 9982SOL    HW130845   0.343   1.034   3.763
 9982SOL    HW230846   0.471   1.088   3.848
 9983SOL     OW30847   1.200   2.398   2.730
 9983SOL    HW130848   1.264   2.327   2.759
 9983SOL    HW230849   1.245   2.487   2.734
 9984SOL     OW30850   1.301   0.786   0.345
 9984SOL    HW130851   1.292   0.770   0.246
 9984SOL    HW230852   1.329   0.880   0.361
 9985SOL     OW30853   2.076   1.024   1.809
 9985SOL    HW130854   2.167   1.041   1.845
 9985SOL    HW230855   2.042   1.107   1.764
 9986SOL     OW30856   4.764   4.100   6.436
 9986SOL    HW130857   4.749   4.152   6.520
 9986SOL    HW230858   4.821   4.153   6.373
 9987SOL     OW30859   6.275   2.231   3.052
 9987SOL    HW130860   6.240   2.248   3.145
 9987SOL    HW230861   6.215   2.165   3.006
 9988SOL     OW30862   0.557   6.160   4.719
 9988SOL    HW130863   0.529   6.190   4.628
 9988SOL    HW230864   0.643   6.110   4.712
 9989SOL     OW30865   6.202   4.346   3.532
 9989SOL    HW130866   6.195   4.387   3.441
 9989SOL    HW230867   6.234   4.415   3.597
 9990SOL     OW30868   2.755   6.820   2.333
 9990SOL    HW130869   2.816   6.865   2.399
 9990SOL    HW230870   2.807   6.798   2.250
 9991SOL     OW30871   2.139   3.254   3.972
 9991SOL    HW130872   2.067   3.199   4.014
 9991SOL    HW230873   2.213   3.195   3.941
 9992SOL     OW30874   4.939   4.222   0.540
 9992SOL    HW130875   4.844   4.251   0.525
 9992SOL    HW230876   4.958   4.141   0.484
 9993SOL     OW30877   3.619   0.433   2.056
 9993SOL    HW130878   3.678   0.500   2.100
 9993SOL    HW230879   3.533   0.477   2.028
 9994SOL     OW30880   7.014   4.663   3.920
 9994SOL    HW130881   6.947   4.591   3.902
 9994SOL    HW230882   7.013   4.687   4.017
 9995SOL     OW30883   3.461   0.992   2.973
 9995SOL    HW130884   3.526   1.068   2.975
 9995SOL    HW230885   3.473   0.935   3.054
 9996SOL     OW30886   2.671   3.353   1.812
 9996SOL    HW130887   2.578   3.386   1.828
 9996SOL    HW230888   2.668   3.256   1.786
 9997SOL     OW30889   3.607   1.398   1.143
 9997SOL    HW130890   3.541   1.474   1.141
 9997SOL    HW230891   3.597   1.347   1.228
 9998SOL     OW30892   6.057   4.719   1.479
 9998SOL    HW130893   6.015   4.633   1.510
 9998SOL    HW230894   6.156   4.714   1.490
 9999SOL     OW30895   6.260   3.266   5.122
 9999SOL    HW130896   6.235   3.170   5.135
 9999SOL    HW230897   6.351   3.282   5.160
10000SOL     OW30898   6.253   3.593   0.073
10000SOL    HW130899   6.256   3.493   0.070
10000SOL    HW230900   6.295   3.626   0.158
10001SOL     OW30901   5.296   0.493   1.894
10001SOL    HW130902   5.287   0.570   1.956
10001SOL    HW230903   5.229   0.501   1.820
10002SOL     OW30904   1.737   0.559   1.654
10002SOL    HW130905   1.711   0.589   1.745
10002SOL    HW230906   1.703   0.624   1.586
10003SOL     OW30907   3.967   1.668   4.179
10003SOL    HW130908   3.993   1.726   4.102
10003SOL    HW230909   3.892   1.607   4.151
10004SOL     OW30910   4.303   2.369   4.302
10004SOL    HW130911   4.356   2.450   4.329
10004SOL    HW230912   4.300   2.363   4.202
10005SOL     OW30913   4.172   0.284   3.963
10005SOL    HW130914   4.125   0.281   3.874
10005SOL    HW230915   4.231   0.365   3.966
10006SOL     OW30916   5.316   0.853   3.596
10006SOL    HW130917   5.297   0.761   3.632
10006SOL    HW230918   5.293   0.921   3.665
10007SOL     OW30919   0.568   5.158   4.775
10007SOL    HW130920   0.644   5.172   4.839
10007SOL    HW230921   0.490   5.214   4.803
10008SOL     OW30922   4.166   1.305   4.728
10008SOL    HW130923   4.099   1.243   4.768
10008SOL    HW230924   4.190   1.376   4.794
10009SOL     OW30925   1.799   3.733   1.622
10009SOL    HW130926   1.868   3.764   1.687
10009SOL    HW230927   1.825   3.760   1.530
10010SOL     OW30928   1.839   6.905   6.124
10010SOL    HW130929   1.902   6.951   6.186
10010SOL    HW230930   1.756   6.961   6.113
10011SOL     OW30931   5.936   1.856   4.729
10011SOL    HW130932   6.006   1.883   4.796
10011SOL    HW230933   5.873   1.790   4.772
10012SOL     OW30934   4.906   0.960   3.548
10012SOL    HW130935   4.948   0.953   3.638
10012SOL    HW230936   4.826   1.020   3.552
10013SOL     OW30937   1.134   1.613   3.509
10013SOL    HW130938   1.059   1.548   3.525
10013SOL    HW230939   1.167   1.603   3.415
10014SOL     OW30940   6.872   3.501   0.059
10014SOL    HW130941   6.964   3.486   0.023
10014SOL    HW230942   6.804   3.476   7.013
10015SOL     OW30943   2.223   4.075   0.385
10015SOL    HW130944   2.267   3.988   0.362
10015SOL    HW230945   2.288   4.149   0.368
10016SOL     OW30946   1.994   0.884   5.824
10016SOL    HW130947   1.955   0.814   5.764
10016SOL    HW230948   1.924   0.914   5.889
10017SOL     OW30949   2.771   2.291   2.698
10017SOL    HW130950   2.718   2.343   2.632
10017SOL    HW230951   2.806   2.207   2.655
10018SOL     OW30952   5.198   0.027   5.349
10018SOL    HW130953   5.205   6.976   5.416
10018SOL    HW230954   5.236   7.019   5.262
10019SOL     OW30955   0.140   2.009   2.730
10019SOL    HW130956   0.126   1.969   2.821
10019SOL    HW230957   0.206   2.084   2.737
10020SOL     OW30958   1.187   2.771   1.553
10020SOL    HW130959   1.214   2.811   1.641
10020SOL    HW230960   1.137   2.686   1.569
10021SOL     OW30961   0.259   2.381   1.113
10021SOL    HW130962   0.352   2.350   1.133
10021SOL    HW230963   0.194   2.310   1.140
10022SOL     OW30964   3.125   0.103   6.542
10022SOL    HW130965   3.183   0.056   6.476
10022SOL    HW230966   3.167   0.099   6.633
10023SOL     OW30967   1.216   5.184   6.178
10023SOL    HW130968   1.283   5.141   6.117
10023SOL    HW230969   1.261   5.211   6.263
10024SOL     OW30970   1.650   6.550   1.582
10024SOL    HW130971   1.646   6.649   1.595
10024SOL    HW230972   1.665   6.529   1.486
10025SOL     OW30973   1.772   1.713   1.600
10025SOL    HW130974   1.836   1.736   1.527
10025SOL    HW230975   1.729   1.625   1.581
10026SOL     OW30976   5.488   6.736   3.822
10026SOL    HW130977   5.577   6.753   3.779
10026SOL    HW230978   5.428   6.814   3.804
10027SOL     OW30979   6.508   4.094   5.283
10027SOL    HW130980   6.595   4.143   5.282
10027SOL    HW230981   6.471   4.089   5.190
10028SOL     OW30982   1.928   1.538   1.383
10028SOL    HW130983   1.986   1.474   1.331
10028SOL    HW230984   1.876   1.487   1.452
10029SOL     OW30985   4.265   2.037   4.783
10029SOL    HW130986   4.177   2.046   4.830
10029SOL    HW230987   4.322   2.117   4.802
10030SOL     OW30988   2.658   6.776   3.681
10030SOL    HW130989   2.748   6.781   3.637
10030SOL    HW230990   2.602   6.854   3.654
10031SOL     OW30991   6.438   4.884   4.378
10031SOL    HW130992   6.368   4.814   4.368
10031SOL    HW230993   6.415   4.943   4.455
10032SOL     OW30994   2.437   1.851   5.434
10032SOL    HW130995   2.353   1.829   5.384
10032SOL    HW230996   2.469   1.943   5.408
10033SOL     OW30997   6.084   2.049   3.460
10033SOL    HW130998   5.993   2.085   3.483
10033SOL    HW230999   6.151   2.082   3.526
10034SOL     OW31000   2.768   0.189   4.385
10034SOL    HW131001   2.700   0.262   4.392
10034SOL    HW231002   2.742   0.126   4.311
10035SOL     OW31003   6.456   4.235   2.057
10035SOL    HW131004   6.552   4.214   2.038
10035SOL    HW231005   6.406   4.242   1.970
10036SOL     OW31006   6.304   2.378   1.614
10036SOL    HW131007   6.318   2.426   1.527
10036SOL    HW231008   6.359   2.294   1.616
10037SOL     OW31009   6.863   0.923   0.835
10037SOL    HW131010   6.904   0.942   0.924
10037SOL    HW231011   6.799   0.997   0.812
10038SOL     OW31012   5.138   0.897   0.121
10038SOL    HW131013   5.063   0.941   0.071
10038SOL    HW231014   5.122   0.798   0.123
10039SOL     OW31015   3.393   0.605   3.446
10039SOL    HW131016   3.312   0.650   3.485
10039SOL    HW231017   3.439   0.553   3.518
10040SOL     OW31018   5.012   5.318   6.482
10040SOL    HW131019   4.953   5.241   6.458
10040SOL    HW231020   5.037   5.368   6.399
10041SOL     OW31021   3.929   6.335   6.701
10041SOL    HW131022   3.880   6.248   6.689
10041SOL    HW231023   3.950   6.375   6.612
10042SOL     OW31024   0.763   2.314   3.926
10042SOL    HW131025   0.714   2.239   3.970
10042SOL    HW231026   0.852   2.327   3.972
10043SOL     OW31027   6.376   1.086   5.155
10043SOL    HW131028   6.379   1.169   5.100
10043SOL    HW231029   6.386   1.110   5.252
10044SOL     OW31030   2.005   1.858   4.160
10044SOL    HW131031   2.079   1.924   4.169
10044SOL    HW231032   2.021   1.800   4.080
10045SOL     OW31033   4.260   0.419   2.273
10045SOL    HW131034   4.234   0.323   2.279
10045SOL    HW231035   4.182   0.473   2.240
10046SOL     OW31036   1.934   3.664   0.611
10046SOL    HW131037   1.895   3.614   0.534
10046SOL    HW231038   1.895   3.630   0.697
10047SOL     OW31039   1.175   3.203   4.832
10047SOL    HW131040   1.160   3.136   4.904
10047SOL    HW231041   1.272   3.205   4.807
10048SOL     OW31042   0.041   0.146   2.537
10048SOL    HW131043   6.975   0.143   2.584
10048SOL    HW231044   0.056   0.237   2.499
10049SOL     OW31045   1.433   1.273   5.725
10049SOL    HW131046   1.366   1.253   5.653
10049SOL    HW231047   1.390   1.265   5.814
10050SOL     OW31048   5.675   3.942   5.261
10050SOL    HW131049   5.614   3.952   5.340
10050SOL    HW231050   5.647   3.863   5.208
10051SOL     OW31051   0.179   3.972   4.848
10051SOL    HW131052   0.251   3.908   4.876
10051SOL    HW231053   0.149   3.951   4.756
10052SOL     OW31054   2.289   1.271   3.467
10052SOL    HW131055   2.269   1.176   3.445
10052SOL    HW231056   2.351   1.275   3.545
10053SOL     OW31057   4.484   6.013   4.302
10053SOL    HW131058   4.415   5.974   4.363
10053SOL    HW231059   4.544   6.073   4.355
10054SOL     OW31060   5.771   5.634   5.601
10054SOL    HW131061   5.748   5.653   5.505
10054SOL    HW231062   5.847   5.694   5.629
10055SOL     OW31063   6.106   1.710   5.250
10055SOL    HW131064   6.136   1.620   5.282
10055SOL    HW231065   6.075   1.765   5.328
10056SOL     OW31066   5.143   4.557   3.030
10056SOL    HW131067   5.123   4.565   3.128
10056SOL    HW231068   5.167   4.647   2.993
10057SOL     OW31069   5.119   3.722   5.573
10057SOL    HW131070   5.217   3.729   5.593
10057SOL    HW231071   5.081   3.644   5.622
10058SOL     OW31072   6.227   3.647   5.057
10058SOL    HW131073   6.251   3.661   5.153
10058SOL    HW231074   6.221   3.549   5.038
10059SOL     OW31075   0.347   1.257   0.143
10059SOL    HW131076   0.267   1.286   0.090
10059SOL    HW231077   0.419   1.227   0.080
10060SOL     OW31078   2.157   2.666   2.673
10060SOL    HW131079   2.228   2.597   2.685
10060SOL    HW231080   2.116   2.657   2.582
10061SOL     OW31081   4.667   1.129   3.489
10061SOL    HW131082   4.610   1.211   3.483
10061SOL    HW231083   4.610   1.047   3.487
10062SOL     OW31084   6.724   0.220   4.417
10062SOL    HW131085   6.724   0.288   4.344
10062SOL    HW231086   6.681   0.136   4.385
10063SOL     OW31087   3.247   1.428   4.431
10063SOL    HW131088   3.199   1.349   4.393
10063SOL    HW231089   3.317   1.397   4.495
10064SOL     OW31090   4.906   6.502   6.655
10064SOL    HW131091   4.817   6.532   6.690
10064SOL    HW231092   4.941   6.569   6.590
10065SOL     OW31093   2.090   1.269   1.491
10065SOL    HW131094   2.053   1.301   1.578
10065SOL    HW231095   2.190   1.275   1.492
10066SOL     OW31096   0.509   2.354   5.274
10066SOL    HW131097   0.565   2.288   5.224
10066SOL    HW231098   0.568   2.418   5.322
10067SOL     OW31099   0.278   2.925   6.481
10067SOL    HW131100   0.188   2.883   6.485
10067SOL    HW231101   0.275   3.014   6.528
10068SOL     OW31102   1.020   3.811   3.118
10068SOL    HW131103   1.001   3.882   3.050
10068SOL    HW231104   0.945   3.807   3.183
10069SOL     OW31105   3.093   4.975   1.555
10069SOL    HW131106   3.044   5.058   1.531
10069SOL    HW231107   3.154   4.949   1.480
10070SOL     OW31108   0.298   5.409   5.301
10070SOL    HW131109   0.292   5.496   5.252
10070SOL    HW231110   0.358   5.420   5.380
10071SOL     OW31111   0.709   0.142   4.316
10071SOL    HW131112   0.717   0.220   4.255
10071SOL    HW231113   0.749   0.061   4.273
10072SOL     OW31114   0.234   0.960   3.603
10072SOL    HW131115   0.219   0.875   3.553
10072SOL    HW231116   0.151   0.984   3.652
10073SOL     OW31117   0.058   3.960   3.726
10073SOL    HW131118   7.022   3.903   3.783
10073SOL    HW231119   0.103   4.029   3.783
10074SOL     OW31120   2.078   6.369   6.637
10074SOL    HW131121   2.012   6.390   6.565
10074SOL    HW231122   2.064   6.275   6.668
10075SOL     OW31123   1.094   1.245   2.567
10075SOL    HW131124   1.034   1.325   2.558
10075SOL    HW231125   1.181   1.264   2.521
10076SOL     OW31126   4.615   5.508   2.860
10076SOL    HW131127   4.656   5.551   2.941
10076SOL    HW231128   4.679   5.513   2.784
10077SOL     OW31129   4.791   2.628   1.077
10077SOL    HW131130   4.700   2.642   1.039
10077SOL    HW231131   4.784   2.608   1.175
10078SOL     OW31132   6.999   6.243   4.526
10078SOL    HW131133   0.029   6.159   4.515
10078SOL    HW231134   0.035   6.322   4.511
10079SOL     OW31135   5.977   2.597   2.413
10079SOL    HW131136   5.905   2.632   2.473
10079SOL    HW231137   5.940   2.585   2.321
10080SOL     OW31138   4.424   1.063   6.350
10080SOL    HW131139   4.338   1.109   6.327
10080SOL    HW231140   4.489   1.131   6.385
10081SOL     OW31141   0.912   1.549   0.079
10081SOL    HW131142   0.850   1.617   0.118
10081SOL    HW231143   0.893   1.538   7.005
10082SOL     OW31144   0.983   5.393   3.049
10082SOL    HW131145   0.983   5.309   3.102
10082SOL    HW231146   1.063   5.394   2.989
10083SOL     OW31147   3.201   0.176   3.784
10083SOL    HW131148   3.205   0.196   3.882
10083SOL    HW231149   3.106   0.161   3.757
10084SOL     OW31150   0.685   6.878   5.367
10084SOL    HW131151   0.668   6.977   5.371
10084SOL    HW231152   0.753   6.860   5.296
10085SOL     OW31153   3.664   0.171   0.595
10085SOL    HW131154   3.716   0.087   0.580
10085SOL    HW231155   3.676   0.201   0.690
10086SOL     OW31156   5.800   6.838   3.470
10086SOL    HW131157   5.746   6.903   3.418
10086SOL    HW231158   5.859   6.786   3.408
10087SOL     OW31159   6.681   6.449   4.053
10087SOL    HW131160   6.590   6.424   4.017
10087SOL    HW231161   6.699   6.397   4.136
10088SOL     OW31162   6.919   0.389   1.487
10088SOL    HW131163   6.876   0.299   1.487
10088SOL    HW231164   6.911   0.430   1.578
10089SOL     OW31165   2.979   1.939   2.847
10089SOL    HW131166   2.922   1.969   2.770
10089SOL    HW231167   2.976   1.840   2.854
10090SOL     OW31168   0.325   4.785   2.012
10090SOL    HW131169   0.356   4.820   1.923
10090SOL    HW231170   0.327   4.859   2.079
10091SOL     OW31171   6.495   5.992   0.054
10091SOL    HW131172   6.568   5.931   0.085
10091SOL    HW231173   6.520   6.033   6.990
10092SOL     OW31174   1.121   3.030   5.305
10092SOL    HW131175   1.098   3.124   5.328
10092SOL    HW231176   1.209   3.006   5.346
10093SOL     OW31177   4.956   3.658   4.867
10093SOL    HW131178   5.050   3.680   4.891
10093SOL    HW231179   4.898   3.662   4.948
10094SOL     OW31180   2.326   6.517   0.626
10094SOL    HW131181   2.291   6.518   0.532
10094SOL    HW231182   2.289   6.437   0.674
10095SOL     OW31183   5.370   1.615   4.373
10095SOL    HW131184   5.458   1.605   4.326
10095SOL    HW231185   5.341   1.710   4.368
10096SOL     OW31186   4.520   0.425   3.024
10096SOL    HW131187   4.526   0.496   2.954
10096SOL    HW231188   4.560   0.340   2.988
10097SOL     OW31189   2.421   2.200   6.402
10097SOL    HW131190   2.500   2.143   6.376
10097SOL    HW231191   2.451   2.294   6.414
10098SOL     OW31192   2.974   6.871   5.154
10098SOL    HW131193   2.929   6.796   5.106
10098SOL    HW231194   2.976   6.851   5.252
10099SOL     OW31195   6.611   4.484   2.188
10099SOL    HW131196   6.535   4.424   2.162
10099SOL    HW231197   6.695   4.453   2.144
10100SOL     OW31198   5.460   6.052   5.650
10100SOL    HW131199   5.493   6.125   5.710
10100SOL    HW231200   5.361   6.040   5.663
10101SOL     OW31201   6.710   3.050   1.630
10101SOL    HW131202   6.621   3.088   1.657
10101SOL    HW231203   6.709   2.951   1.645
10102SOL     OW31204   6.526   0.363   1.460
10102SOL    HW131205   6.440   0.375   1.411
10102SOL    HW231206   6.554   0.450   1.501
10103SOL     OW31207   1.562   0.218   4.875
10103SOL    HW131208   1.504   0.297   4.896
10103SOL    HW231209   1.508   0.149   4.826
10104SOL     OW31210   2.123   1.138   6.114
10104SOL    HW131211   2.143   1.050   6.071
10104SOL    HW231212   2.077   1.197   6.048
10105SOL     OW31213   1.878   1.011   6.197
10105SOL    HW131214   1.955   1.069   6.172
10105SOL    HW231215   1.822   0.993   6.117
10106SOL     OW31216   3.795   6.341   1.140
10106SOL    HW131217   3.805   6.440   1.151
10106SOL    HW231218   3.856   6.310   1.067
10107SOL     OW31219   5.523   1.784   6.051
10107SOL    HW131220   5.620   1.763   6.061
10107SOL    HW231221   5.512   1.867   5.996
10108SOL     OW31222   0.541   2.856   0.793
10108SOL    HW131223   0.462   2.798   0.771
10108SOL    HW231224   0.606   2.804   0.848
10109SOL     OW31225   0.700   1.056   0.337
10109SOL    HW131226   0.721   1.154   0.341
10109SOL    HW231227   0.785   1.004   0.346
10110SOL     OW31228   4.734   4.931   3.401
10110SOL    HW131229   4.768   5.025   3.406
10110SOL    HW231230   4.666   4.916   3.472
10111SOL     OW31231   0.134   3.463   2.804
10111SOL    HW131232   0.164   3.502   2.891
10111SOL    HW231233   0.160   3.525   2.730
10112SOL     OW31234   6.016   3.543   3.436
10112SOL    HW131235   6.082   3.619   3.436
10112SOL    HW231236   6.049   3.471   3.497
10113SOL     OW31237   4.084   0.362   0.431
10113SOL    HW131238   4.101   0.264   0.433
10113SOL    HW231239   4.033   0.388   0.513
10114SOL     OW31240   3.739   2.106   3.281
10114SOL    HW131241   3.763   2.153   3.366
10114SOL    HW231242   3.823   2.083   3.232
10115SOL     OW31243   3.822   1.657   4.483
10115SOL    HW131244   3.893   1.719   4.517
10115SOL    HW231245   3.841   1.634   4.388
10116SOL     OW31246   6.873   0.291   6.046
10116SOL    HW131247   6.826   0.371   6.008
10116SOL    HW231248   6.948   0.321   6.104
10117SOL     OW31249   6.772   6.017   5.822
10117SOL    HW131250   6.826   6.101   5.819
10117SOL    HW231251   6.834   5.939   5.835
10118SOL     OW31252   2.702   4.762   4.211
10118SOL    HW131253   2.665   4.670   4.222
10118SOL    HW231254   2.800   4.757   4.195
10119SOL     OW31255   6.872   5.407   4.483
10119SOL    HW131256   6.857   5.440   4.576
10119SOL    HW231257   6.966   5.425   4.456
10120SOL     OW31258   1.077   3.082   3.568
10120SOL    HW131259   1.002   3.033   3.611
10120SOL    HW231260   1.163   3.036   3.588
10121SOL     OW31261   5.888   4.496   1.103
10121SOL    HW131262   5.932   4.413   1.137
10121SOL    HW231263   5.799   4.507   1.148
10122SOL     OW31264   6.448   2.298   3.876
10122SOL    HW131265   6.433   2.284   3.973
10122SOL    HW231266   6.524   2.242   3.845
10123SOL     OW31267   6.064   6.690   0.672
10123SOL    HW131268   6.157   6.665   0.701
10123SOL    HW231269   6.002   6.613   0.687
10124SOL     OW31270   1.639   5.500   1.696
10124SOL    HW131271   1.607   5.545   1.779
10124SOL    HW231272   1.604   5.548   1.616
10125SOL     OW31273   2.280   0.991   1.335
10125SOL    HW131274   2.279   0.894   1.310
10125SOL    HW231275   2.369   1.013   1.375
10126SOL     OW31276   6.322   6.988   6.190
10126SOL    HW131277   6.300   7.014   6.284
10126SOL    HW231278   6.285   6.897   6.172
10127SOL     OW31279   1.390   4.028   6.089
10127SOL    HW131280   1.485   3.998   6.101
10127SOL    HW231281   1.328   3.952   6.107
10128SOL     OW31282   2.991   0.399   6.805
10128SOL    HW131283   3.036   0.376   6.719
10128SOL    HW231284   3.024   0.487   6.838
10129SOL     OW31285   0.343   1.490   2.211
10129SOL    HW131286   0.299   1.458   2.127
10129SOL    HW231287   0.407   1.564   2.188
10130SOL     OW31288   0.955   2.884   1.394
10130SOL    HW131289   0.990   2.900   1.302
10130SOL    HW231290   1.031   2.863   1.456
10131SOL     OW31291   1.733   0.412   4.290
10131SOL    HW131292   1.806   0.474   4.260
10131SOL    HW231293   1.670   0.396   4.214
10132SOL     OW31294   1.091   0.775   2.332
10132SOL    HW131295   1.047   0.863   2.314
10132SOL    HW231296   1.051   0.734   2.415
10133SOL     OW31297   4.207   6.131   1.149
10133SOL    HW131298   4.245   6.139   1.057
10133SOL    HW231299   4.108   6.119   1.142
10134SOL     OW31300   0.080   1.898   2.962
10134SOL    HW131301   0.061   1.970   3.028
10134SOL    HW231302   0.166   1.853   2.984
10135SOL     OW31303   5.487   1.402   3.577
10135SOL    HW131304   5.438   1.315   3.573
10135SOL    HW231305   5.486   1.445   3.487
10136SOL     OW31306   4.718   2.297   2.502
10136SOL    HW131307   4.742   2.373   2.442
10136SOL    HW231308   4.745   2.318   2.596
10137SOL     OW31309   0.640   4.833   6.150
10137SOL    HW131310   0.628   4.801   6.056
10137SOL    HW231311   0.588   4.776   6.213
10138SOL     OW31312   5.315   2.028   0.055
10138SOL    HW131313   5.323   2.115   0.104
10138SOL    HW231314   5.397   2.014   7.022
10139SOL     OW31315   3.720   3.244   4.965
10139SOL    HW131316   3.789   3.206   5.026
10139SOL    HW231317   3.666   3.169   4.925
10140SOL     OW31318   6.919   6.570   6.486
10140SOL    HW131319   7.016   6.569   6.510
10140SOL    HW231320   6.905   6.516   6.403
10141SOL     OW31321   4.309   0.661   3.169
10141SOL    HW131322   4.399   0.701   3.185
10141SOL    HW231323   4.244   0.697   3.237
10142SOL     OW31324   5.780   6.570   5.156
10142SOL    HW131325   5.843   6.508   5.203
10142SOL    HW231326   5.796   6.566   5.057
10143SOL     OW31327   5.895   3.180   0.139
10143SOL    HW131328   5.962   3.162   0.067
10143SOL    HW231329   5.829   3.247   0.106
10144SOL     OW31330   4.009   6.975   5.587
10144SOL    HW131331   4.038   0.043   5.559
10144SOL    HW231332   4.034   6.909   5.516
10145SOL     OW31333   4.278   6.208   2.809
10145SOL    HW131334   4.213   6.142   2.772
10145SOL    HW231335   4.233   6.296   2.821
10146SOL     OW31336   0.034   4.038   4.580
10146SOL    HW131337   6.976   4.021   4.524
10146SOL    HW231338   0.029   4.130   4.618
10147SOL     OW31339   4.882   4.911   6.993
10147SOL    HW131340   4.836   4.823   7.000
10147SOL    HW231341   4.838   4.966   6.923
10148SOL     OW31342   6.313   4.164   1.622
10148SOL    HW131343   6.290   4.261   1.628
10148SOL    HW231344   6.411   4.155   1.601
10149SOL     OW31345   4.791   4.619   1.102
10149SOL    HW131346   4.715   4.645   1.042
10149SOL    HW231347   4.755   4.571   1.182
10150SOL     OW31348   5.312   3.534   1.763
10150SOL    HW131349   5.350   3.526   1.671
10150SOL    HW231350   5.248   3.459   1.780
10151SOL     OW31351   0.408   6.732   5.798
10151SOL    HW131352   0.356   6.805   5.755
10151SOL    HW231353   0.480   6.701   5.736
10152SOL     OW31354   6.157   5.817   3.408
10152SOL    HW131355   6.179   5.771   3.322
10152SOL    HW231356   6.160   5.750   3.482
10153SOL     OW31357   4.498   5.773   3.481
10153SOL    HW131358   4.423   5.707   3.471
10153SOL    HW231359   4.465   5.853   3.531
10154SOL     OW31360   4.172   5.523   6.119
10154SOL    HW131361   4.120   5.499   6.201
10154SOL    HW231362   4.264   5.484   6.125
10155SOL     OW31363   4.977   2.045   6.153
10155SOL    HW131364   4.959   2.094   6.067
10155SOL    HW231365   4.981   1.947   6.134
10156SOL     OW31366   4.508   0.239   1.050
10156SOL    HW131367   4.566   0.180   0.994
10156SOL    HW231368   4.476   0.316   0.996
10157SOL     OW31369   0.235   2.222   0.506
10157SOL    HW131370   0.158   2.177   0.462
10157SOL    HW231371   0.279   2.160   0.571
10158SOL     OW31372   6.045   6.484   2.640
10158SOL    HW131373   6.010   6.405   2.690
10158SOL    HW231374   6.035   6.566   2.696
10159SOL     OW31375   3.474   3.179   2.867
10159SOL    HW131376   3.449   3.082   2.865
10159SOL    HW231377   3.565   3.191   2.829
10160SOL     OW31378   2.316   4.351   3.132
10160SOL    HW131379   2.270   4.439   3.148
10160SOL    HW231380   2.303   4.292   3.212
10161SOL     OW31381   3.839   4.379   6.661
10161SOL    HW131382   3.904   4.454   6.644
10161SOL    HW231383   3.811   4.381   6.757
10162SOL     OW31384   1.888   4.536   1.465
10162SOL    HW131385   1.822   4.462   1.454
10162SOL    HW231386   1.913   4.572   1.375
10163SOL     OW31387   0.951   5.740   5.885
10163SOL    HW131388   0.998   5.706   5.965
10163SOL    HW231389   1.015   5.792   5.828
10164SOL     OW31390   6.265   3.376   3.839
10164SOL    HW131391   6.325   3.298   3.825
10164SOL    HW231392   6.314   3.460   3.819
10165SOL     OW31393   6.123   2.375   3.733
10165SOL    HW131394   6.102   2.435   3.810
10165SOL    HW231395   6.205   2.321   3.753
10166SOL     OW31396   1.964   2.950   0.763
10166SOL    HW131397   1.879   2.993   0.732
10166SOL    HW231398   1.946   2.896   0.845
10167SOL     OW31399   0.257   4.784   6.931
10167SOL    HW131400   0.235   4.852   7.001
10167SOL    HW231401   0.312   4.827   6.860
10168SOL     OW31402   5.823   1.225   5.861
10168SOL    HW131403   5.904   1.248   5.806
10168SOL    HW231404   5.850   1.208   5.955
10169SOL     OW31405   6.817   3.931   2.976
10169SOL    HW131406   6.768   3.908   3.060
10169SOL    HW231407   6.879   4.008   2.994
10170SOL     OW31408   6.405   5.141   6.625
10170SOL    HW131409   6.463   5.100   6.695
10170SOL    HW231410   6.445   5.122   6.535
10171SOL     OW31411   1.177   2.540   5.609
10171SOL    HW131412   1.178   2.627   5.560
10171SOL    HW231413   1.094   2.534   5.665
10172SOL     OW31414   0.279   0.030   4.277
10172SOL    HW131415   0.373   0.036   4.311
10172SOL    HW231416   0.264   6.962   4.239
10173SOL     OW31417   2.926   4.090   0.013
10173SOL    HW131418   2.989   4.131   0.080
10173SOL    HW231419   2.965   4.004   7.002
10174SOL     OW31420   5.174   5.429   3.353
10174SOL    HW131421   5.205   5.507   3.299
10174SOL    HW231422   5.252   5.371   3.376
10175SOL     OW31423   6.728   1.474   3.443
10175SOL    HW131424   6.823   1.504   3.439
10175SOL    HW231425   6.686   1.482   3.353
10176SOL     OW31426   6.506   3.689   5.305
10176SOL    HW131427   6.518   3.590   5.306
10176SOL    HW231428   6.547   3.727   5.222
10177SOL     OW31429   2.056   0.303   1.117
10177SOL    HW131430   2.137   0.352   1.085
10177SOL    HW231431   2.059   0.209   1.085
10178SOL     OW31432   1.117   0.650   1.035
10178SOL    HW131433   1.195   0.602   1.075
10178SOL    HW231434   1.086   0.601   0.953
10179SOL     OW31435   0.063   4.061   7.014
10179SOL    HW131436   0.115   4.141   0.020
10179SOL    HW231437   7.019   4.088   6.946
10180SOL     OW31438   4.893   6.988   0.627
10180SOL    HW131439   4.963   0.000   0.565
10180SOL    HW231440   4.815   0.027   0.628
10181SOL     OW31441   6.942   3.050   1.066
10181SOL    HW131442   6.929   3.101   1.151
10181SOL    HW231443   6.984   2.961   1.087
10182SOL     OW31444   5.122   1.122   0.445
10182SOL    HW131445   5.065   1.073   0.511
10182SOL    HW231446   5.210   1.074   0.436
10183SOL     OW31447   5.863   2.829   5.869
10183SOL    HW131448   5.939   2.824   5.804
10183SOL    HW231449   5.832   2.924   5.877
10184SOL     OW31450   5.542   2.739   6.030
10184SOL    HW131451   5.519   2.714   5.936
10184SOL    HW231452   5.480   2.810   6.062
10185SOL     OW31453   4.654   6.217   2.728
10185SOL    HW131454   4.594   6.279   2.678
10185SOL    HW231455   4.623   6.209   2.823
10186SOL     OW31456   4.847   3.928   5.069
10186SOL    HW131457   4.830   3.835   5.102
10186SOL    HW231458   4.797   3.993   5.126
10187SOL     OW31459   2.093   4.112   5.126
10187SOL    HW131460   2.108   4.211   5.137
10187SOL    HW231461   2.174   4.071   5.084
10188SOL     OW31462   3.296   5.483   6.902
10188SOL    HW131463   3.296   5.388   6.933
10188SOL    HW231464   3.203   5.509   6.876
10189SOL     OW31465   1.463   0.653   6.890
10189SOL    HW131466   1.394   0.725   6.882
10189SOL    HW231467   1.428   0.569   6.847
10190SOL     OW31468   3.426   3.518   1.445
10190SOL    HW131469   3.370   3.452   1.494
10190SOL    HW231470   3.386   3.609   1.454
10191SOL     OW31471   5.852   5.904   1.353
10191SOL    HW131472   5.795   5.831   1.391
10191SOL    HW231473   5.873   5.970   1.425
10192SOL     OW31474   2.641   2.144   4.727
10192SOL    HW131475   2.656   2.073   4.659
10192SOL    HW231476   2.649   2.106   4.818
10193SOL     OW31477   3.288   3.951   2.536
10193SOL    HW131478   3.276   3.891   2.616
10193SOL    HW231479   3.203   3.953   2.483
10194SOL     OW31480   3.506   0.027   5.150
10194SOL    HW131481   3.459   0.116   5.154
10194SOL    HW231482   3.450   6.986   5.098
10195SOL     OW31483   6.666   6.986   1.739
10195SOL    HW131484   6.736   6.931   1.693
10195SOL    HW231485   6.684   0.060   1.721
10196SOL     OW31486   5.691   2.169   3.246
10196SOL    HW131487   5.767   2.144   3.187
10196SOL    HW231488   5.716   2.154   3.341
10197SOL     OW31489   5.264   0.903   4.343
10197SOL    HW131490   5.355   0.892   4.383
10197SOL    HW231491   5.271   0.897   4.243
10198SOL     OW31492   3.680   6.330   0.552
10198SOL    HW131493   3.676   6.308   0.650
10198SOL    HW231494   3.713   6.423   0.540
10199SOL     OW31495   0.759   1.204   6.727
10199SOL    HW131496   0.663   1.200   6.700
10199SOL    HW231497   0.803   1.116   6.711
10200SOL     OW31498   5.182   2.940   5.205
10200SOL    HW131499   5.239   3.022   5.213
10200SOL    HW231500   5.142   2.935   5.113
10201SOL     OW31501   0.328   6.042   1.362
10201SOL    HW131502   0.262   6.006   1.429
10201SOL    HW231503   0.281   6.105   1.300
10202SOL     OW31504   1.454   3.422   0.370
10202SOL    HW131505   1.413   3.462   0.287
10202SOL    HW231506   1.391   3.434   0.447
10203SOL     OW31507   1.624   2.858   1.833
10203SOL    HW131508   1.593   2.953   1.836
10203SOL    HW231509   1.691   2.847   1.759
10204SOL     OW31510   4.044   4.891   6.094
10204SOL    HW131511   4.058   4.989   6.076
10204SOL    HW231512   3.979   4.854   6.027
10205SOL     OW31513   4.051   0.979   2.992
10205SOL    HW131514   4.056   1.017   3.084
10205SOL    HW231515   4.020   0.884   2.997
10206SOL     OW31516   5.357   5.964   6.194
10206SOL    HW131517   5.270   5.930   6.159
10206SOL    HW231518   5.406   6.013   6.121
10207SOL     OW31519   1.318   0.501   1.156
10207SOL    HW131520   1.388   0.571   1.173
10207SOL    HW231521   1.255   0.497   1.233
10208SOL     OW31522   6.653   4.874   4.635
10208SOL    HW131523   6.746   4.910   4.640
10208SOL    HW231524   6.654   4.787   4.586
10209SOL     OW31525   0.556   0.869   5.432
10209SOL    HW131526   0.469   0.920   5.435
10209SOL    HW231527   0.580   0.840   5.525
10210SOL     OW31528   4.940   0.069   1.579
10210SOL    HW131529   4.867   0.129   1.544
10210SOL    HW231530   4.930   0.059   1.677
10211SOL     OW31531   4.580   6.596   5.901
10211SOL    HW131532   4.483   6.570   5.894
10211SOL    HW231533   4.616   6.614   5.809
10212SOL     OW31534   0.322   1.283   4.524
10212SOL    HW131535   0.264   1.215   4.478
10212SOL    HW231536   0.411   1.243   4.545
10213SOL     OW31537   6.182   1.791   2.851
10213SOL    HW131538   6.277   1.763   2.847
10213SOL    HW231539   6.128   1.722   2.900
10214SOL     OW31540   0.735   1.503   2.267
10214SOL    HW131541   0.740   1.571   2.193
10214SOL    HW231542   0.663   1.437   2.245
10215SOL     OW31543   3.421   2.927   5.111
10215SOL    HW131544   3.517   2.929   5.141
10215SOL    HW231545   3.367   2.872   5.174
10216SOL     OW31546   6.871   0.154   0.855
10216SOL    HW131547   6.953   0.136   0.909
10216SOL    HW231548   6.792   0.161   0.915
10217SOL     OW31549   2.489   1.130   3.641
10217SOL    HW131550   2.589   1.130   3.642
10217SOL    HW231551   2.457   1.065   3.573
10218SOL     OW31552   1.066   1.159   1.095
10218SOL    HW131553   1.125   1.207   1.030
10218SOL    HW231554   1.107   1.165   1.187
10219SOL     OW31555   0.505   3.060   1.804
10219SOL    HW131556   0.601   3.087   1.806
10219SOL    HW231557   0.477   3.044   1.710
10220SOL     OW31558   4.036   1.608   2.259
10220SOL    HW131559   4.127   1.642   2.235
10220SOL    HW231560   3.998   1.664   2.332
10221SOL     OW31561   1.367   1.862   3.921
10221SOL    HW131562   1.277   1.820   3.927
10221SOL    HW231563   1.417   1.847   4.007
10222SOL     OW31564   0.856   3.382   5.530
10222SOL    HW131565   0.872   3.463   5.587
10222SOL    HW231566   0.760   3.380   5.501
10223SOL     OW31567   1.850   5.844   6.514
10223SOL    HW131568   1.857   5.746   6.534
10223SOL    HW231569   1.941   5.886   6.518
10224SOL     OW31570   0.133   0.991   4.634
10224SOL    HW131571   0.087   1.035   4.557
10224SOL    HW231572   0.069   0.934   4.684
10225SOL     OW31573   1.698   6.311   5.378
10225SOL    HW131574   1.783   6.322   5.326
10225SOL    HW231575   1.623   6.357   5.330
10226SOL     OW31576   2.739   0.340   0.356
10226SOL    HW131577   2.672   0.401   0.314
10226SOL    HW231578   2.780   0.282   0.286
10227SOL     OW31579   4.776   4.553   0.802
10227SOL    HW131580   4.860   4.554   0.856
10227SOL    HW231581   4.743   4.646   0.790
10228SOL     OW31582   0.740   5.471   2.372
10228SOL    HW131583   0.705   5.506   2.459
10228SOL    HW231584   0.803   5.396   2.390
10229SOL     OW31585   1.016   1.388   4.468
10229SOL    HW131586   1.038   1.470   4.414
10229SOL    HW231587   1.029   1.307   4.411
10230SOL     OW31588   6.758   6.976   3.522
10230SOL    HW131589   6.773   6.966   3.424
10230SOL    HW231590   6.678   0.011   3.538
10231SOL     OW31591   0.367   6.036   5.964
10231SOL    HW131592   0.316   5.973   6.022
10231SOL    HW231593   0.428   6.091   6.019
10232SOL     OW31594   3.187   0.562   4.228
10232SOL    HW131595   3.160   0.545   4.133
10232SOL    HW231596   3.232   0.651   4.235
10233SOL     OW31597   5.279   3.323   5.029
10233SOL    HW131598   5.338   3.360   4.958
10233SOL    HW231599   5.184   3.323   4.996
10234SOL     OW31600   5.464   0.536   1.224
10234SOL    HW131601   5.491   0.440   1.229
10234SOL    HW231602   5.366   0.545   1.239
10235SOL     OW31603   4.621   2.011   0.556
10235SOL    HW131604   4.534   2.020   0.605
10235SOL    HW231605   4.667   1.928   0.586
10236SOL     OW31606   1.404   6.376   2.199
10236SOL    HW131607   1.330   6.431   2.159
10236SOL    HW231608   1.368   6.285   2.222
10237SOL     OW31609   6.037   4.271   1.131
10237SOL    HW131610   6.036   4.173   1.150
10237SOL    HW231611   6.116   4.313   1.176
10238SOL     OW31612   3.453   4.179   4.271
10238SOL    HW131613   3.514   4.173   4.350
10238SOL    HW231614   3.362   4.148   4.297
10239SOL     OW31615   1.292   3.935   5.145
10239SOL    HW131616   1.324   3.847   5.181
10239SOL    HW231617   1.329   4.010   5.200
10240SOL     OW31618   1.790   4.749   3.007
10240SOL    HW131619   1.845   4.779   2.929
10240SOL    HW231620   1.741   4.828   3.044
10241SOL     OW31621   0.150   0.750   2.017
10241SOL    HW131622   0.157   0.650   2.005
10241SOL    HW231623   0.235   0.784   2.058
10242SOL     OW31624   6.552   1.865   6.988
10242SOL    HW131625   6.559   1.828   0.058
10242SOL    HW231626   6.470   1.828   6.944
10243SOL     OW31627   0.348   5.345   1.175
10243SOL    HW131628   0.437   5.302   1.157
10243SOL    HW231629   0.285   5.323   1.100
10244SOL     OW31630   1.945   4.708   0.184
10244SOL    HW131631   1.884   4.703   0.104
10244SOL    HW231632   1.982   4.800   0.191
10245SOL     OW31633   3.050   4.270   0.165
10245SOL    HW131634   2.967   4.326   0.175
10245SOL    HW231635   3.116   4.320   0.109
10246SOL     OW31636   2.956   3.786   4.029
10246SOL    HW131637   2.866   3.760   3.992
10246SOL    HW231638   3.021   3.713   4.013
10247SOL     OW31639   0.415   5.529   4.661
10247SOL    HW131640   0.410   5.451   4.599
10247SOL    HW231641   0.449   5.609   4.612
10248SOL     OW31642   2.932   6.879   1.775
10248SOL    HW131643   2.892   6.810   1.836
10248SOL    HW231644   3.031   6.871   1.776
10249SOL     OW31645   3.165   0.883   6.033
10249SOL    HW131646   3.118   0.968   6.010
10249SOL    HW231647   3.155   0.864   6.131
10250SOL     OW31648   0.137   1.676   1.378
10250SOL    HW131649   0.094   1.759   1.343
10250SOL    HW231650   0.171   1.621   1.302
10251SOL     OW31651   2.309   2.634   5.095
10251SOL    HW131652   2.334   2.591   5.008
10251SOL    HW231653   2.238   2.702   5.078
10252SOL     OW31654   6.969   5.792   0.289
10252SOL    HW131655   0.043   5.787   0.312
10252SOL    HW231656   6.938   5.887   0.289
10253SOL     OW31657   5.343   6.086   0.455
10253SOL    HW131658   5.419   6.142   0.424
10253SOL    HW231659   5.368   6.041   0.541
10254SOL     OW31660   4.124   2.168   5.110
10254SOL    HW131661   4.028   2.147   5.126
10254SOL    HW231662   4.132   2.263   5.079
10255SOL     OW31663   2.343   5.145   1.585
10255SOL    HW131664   2.244   5.155   1.580
10255SOL    HW231665   2.380   5.205   1.656
10256SOL     OW31666   5.501   0.408   1.686
10256SOL    HW131667   5.441   0.455   1.621
10256SOL    HW231668   5.567   0.472   1.723
10257SOL     OW31669   2.122   5.217   4.182
10257SOL    HW131670   2.132   5.316   4.175
10257SOL    HW231671   2.041   5.188   4.130
10258SOL     OW31672   4.560   0.282   3.943
10258SOL    HW131673   4.491   0.352   3.925
10258SOL    HW231674   4.645   0.307   3.897
10259SOL     OW31675   0.694   5.322   3.403
10259SOL    HW131676   0.650   5.308   3.491
10259SOL    HW231677   0.624   5.338   3.333
10260SOL     OW31678   0.438   0.152   3.156
10260SOL    HW131679   0.361   0.116   3.209
10260SOL    HW231680   0.492   0.076   3.120
10261SOL     OW31681   6.681   5.999   2.332
10261SOL    HW131682   6.686   5.900   2.347
10261SOL    HW231683   6.731   6.045   2.405
10262SOL     OW31684   2.767   6.169   4.721
10262SOL    HW131685   2.719   6.081   4.723
10262SOL    HW231686   2.704   6.241   4.692
10263SOL     OW31687   4.511   1.273   6.595
10263SOL    HW131688   4.548   1.201   6.654
10263SOL    HW231689   4.580   1.301   6.529
10264SOL     OW31690   5.533   2.048   6.921
10264SOL    HW131691   5.485   2.056   6.834
10264SOL    HW231692   5.621   2.097   6.915
10265SOL     OW31693   3.254   2.142   2.764
10265SOL    HW131694   3.186   2.209   2.792
10265SOL    HW231695   3.243   2.122   2.667
10266SOL     OW31696   3.549   2.799   5.353
10266SOL    HW131697   3.598   2.851   5.284
10266SOL    HW231698   3.573   2.702   5.346
10267SOL     OW31699   6.197   2.013   6.194
10267SOL    HW131700   6.181   2.091   6.256
10267SOL    HW231701   6.110   1.965   6.178
10268SOL     OW31702   3.845   6.031   1.879
10268SOL    HW131703   3.805   6.116   1.913
10268SOL    HW231704   3.774   5.975   1.835
10269SOL     OW31705   1.816   1.806   5.380
10269SOL    HW131706   1.905   1.825   5.424
10269SOL    HW231707   1.748   1.788   5.450
10270SOL     OW31708   2.188   5.334   2.794
10270SOL    HW131709   2.252   5.308   2.866
10270SOL    HW231710   2.230   5.403   2.736
10271SOL     OW31711   4.242   3.220   0.163
10271SOL    HW131712   4.194   3.133   0.176
10271SOL    HW231713   4.180   3.288   0.124
10272SOL     OW31714   1.060   0.292   4.401
10272SOL    HW131715   0.986   0.342   4.446
10272SOL    HW231716   1.146   0.309   4.449
10273SOL     OW31717   4.801   5.224   3.305
10273SOL    HW131718   4.840   5.314   3.322
10273SOL    HW231719   4.746   5.226   3.222
10274SOL     OW31720   1.090   4.410   4.892
10274SOL    HW131721   1.180   4.371   4.905
10274SOL    HW231722   1.099   4.505   4.861
10275SOL     OW31723   0.703   6.802   2.093
10275SOL    HW131724   0.676   6.860   2.170
10275SOL    HW231725   0.798   6.821   2.069
10276SOL     OW31726   6.244   5.639   6.185
10276SOL    HW131727   6.188   5.710   6.228
10276SOL    HW231728   6.333   5.635   6.230
10277SOL     OW31729   2.746   5.706   4.255
10277SOL    HW131730   2.817   5.776   4.249
10277SOL    HW231731   2.757   5.654   4.340
10278SOL     OW31732   5.481   0.976   4.797
10278SOL    HW131733   5.407   1.029   4.757
10278SOL    HW231734   5.473   0.977   4.897
10279SOL     OW31735   2.465   6.445   3.963
10279SOL    HW131736   2.514   6.492   4.037
10279SOL    HW231737   2.464   6.502   3.882
10280SOL     OW31738   1.999   3.766   1.155
10280SOL    HW131739   2.073   3.698   1.160
10280SOL    HW231740   1.996   3.818   1.240
10281SOL     OW31741   6.612   2.409   2.586
10281SOL    HW131742   6.514   2.428   2.574
10281SOL    HW231743   6.658   2.415   2.498
10282SOL     OW31744   6.504   4.020   4.274
10282SOL    HW131745   6.408   4.045   4.268
10282SOL    HW231746   6.560   4.103   4.275
10283SOL     OW31747   1.051   3.308   0.236
10283SOL    HW131748   1.138   3.262   0.217
10283SOL    HW231749   1.059   3.404   0.209
10284SOL     OW31750   5.023   4.465   5.730
10284SOL    HW131751   5.024   4.369   5.704
10284SOL    HW231752   5.065   4.476   5.821
10285SOL     OW31753   4.742   0.452   0.778
10285SOL    HW131754   4.825   0.507   0.770
10285SOL    HW231755   4.750   0.370   0.721
10286SOL     OW31756   3.284   2.172   4.048
10286SOL    HW131757   3.194   2.212   4.031
10286SOL    HW231758   3.295   2.153   4.145
10287SOL     OW31759   1.378   6.461   1.623
10287SOL    HW131760   1.476   6.463   1.607
10287SOL    HW231761   1.349   6.367   1.642
10288SOL     OW31762   5.328   6.349   2.193
10288SOL    HW131763   5.356   6.397   2.110
10288SOL    HW231764   5.278   6.412   2.253
10289SOL     OW31765   4.010   0.596   2.442
10289SOL    HW131766   4.083   0.661   2.424
10289SOL    HW231767   3.924   0.632   2.406
10290SOL     OW31768   3.974   3.696   2.901
10290SOL    HW131769   3.992   3.771   2.837
10290SOL    HW231770   4.042   3.698   2.975
10291SOL     OW31771   4.097   1.057   4.186
10291SOL    HW131772   4.057   1.091   4.272
10291SOL    HW231773   4.038   0.986   4.148
10292SOL     OW31774   0.686   1.360   4.790
10292SOL    HW131775   0.638   1.305   4.722
10292SOL    HW231776   0.675   1.320   4.880
10293SOL     OW31777   1.926   6.077   3.321
10293SOL    HW131778   1.850   6.015   3.336
10293SOL    HW231779   1.896   6.155   3.267
10294SOL     OW31780   4.865   3.642   3.262
10294SOL    HW131781   4.935   3.625   3.192
10294SOL    HW231782   4.892   3.596   3.347
10295SOL     OW31783   6.268   5.208   6.040
10295SOL    HW131784   6.346   5.214   5.978
10295SOL    HW231785   6.196   5.154   5.997
10296SOL     OW31786   4.949   2.949   6.317
10296SOL    HW131787   4.982   2.868   6.366
10296SOL    HW231788   4.915   3.017   6.382
10297SOL     OW31789   2.144   6.580   5.184
10297SOL    HW131790   2.184   6.571   5.092
10297SOL    HW231791   2.161   6.672   5.219
10298SOL     OW31792   4.068   5.143   2.408
10298SOL    HW131793   4.032   5.206   2.476
10298SOL    HW231794   4.157   5.109   2.437
10299SOL     OW31795   4.506   4.460   2.613
10299SOL    HW131796   4.483   4.463   2.710
10299SOL    HW231797   4.563   4.379   2.595
10300SOL     OW31798   2.453   4.879   2.678
10300SOL    HW131799   2.466   4.899   2.775
10300SOL    HW231800   2.387   4.943   2.639
10301SOL     OW31801   6.072   2.148   2.686
10301SOL    HW131802   6.003   2.087   2.646
10301SOL    HW231803   6.030   2.237   2.704
10302SOL     OW31804   0.931   6.247   4.042
10302SOL    HW131805   1.016   6.287   4.075
10302SOL    HW231806   0.941   6.222   3.946
10303SOL     OW31807   3.175   5.067   1.185
10303SOL    HW131808   3.212   4.999   1.248
10303SOL    HW231809   3.213   5.052   1.093
10304SOL     OW31810   5.368   0.997   2.813
10304SOL    HW131811   5.385   0.979   2.716
10304SOL    HW231812   5.412   1.083   2.839
10305SOL     OW31813   0.171   5.421   6.674
10305SOL    HW131814   0.255   5.475   6.672
10305SOL    HW231815   0.193   5.325   6.692
10306SOL     OW31816   4.415   6.348   6.705
10306SOL    HW131817   4.321   6.369   6.734
10306SOL    HW231818   4.412   6.283   6.629
10307SOL     OW31819   2.562   1.776   4.488
10307SOL    HW131820   2.624   1.748   4.415
10307SOL    HW231821   2.615   1.797   4.571
10308SOL     OW31822   2.709   5.210   3.885
10308SOL    HW131823   2.773   5.134   3.879
10308SOL    HW231824   2.688   5.229   3.981
10309SOL     OW31825   6.381   0.557   3.875
10309SOL    HW131826   6.365   0.624   3.947
10309SOL    HW231827   6.364   0.465   3.912
10310SOL     OW31828   3.789   2.780   1.638
10310SOL    HW131829   3.735   2.795   1.555
10310SOL    HW231830   3.733   2.731   1.705
10311SOL     OW31831   0.622   5.804   0.850
10311SOL    HW131832   0.624   5.813   0.949
10311SOL    HW231833   0.557   5.733   0.824
10312SOL     OW31834   3.132   5.621   0.903
10312SOL    HW131835   3.224   5.587   0.921
10312SOL    HW231836   3.111   5.611   0.806
10313SOL     OW31837   3.824   6.857   2.247
10313SOL    HW131838   3.785   6.766   2.263
10313SOL    HW231839   3.870   6.859   2.159
10314SOL     OW31840   5.897   0.834   1.772
10314SOL    HW131841   5.815   0.890   1.754
10314SOL    HW231842   5.979   0.887   1.751
10315SOL     OW31843   6.168   6.055   4.697
10315SOL    HW131844   6.195   5.961   4.718
10315SOL    HW231845   6.210   6.083   4.611
10316SOL     OW31846   6.564   3.792   5.044
10316SOL    HW131847   6.510   3.876   5.039
10316SOL    HW231848   6.659   3.814   5.067
10317SOL     OW31849   3.711   4.702   6.188
10317SOL    HW131850   3.615   4.727   6.204
10317SOL    HW231851   3.742   4.641   6.261
10318SOL     OW31852   6.666   5.470   1.271
10318SOL    HW131853   6.603   5.547   1.258
10318SOL    HW231854   6.675   5.451   1.368
10319SOL     OW31855   1.134   3.323   5.538
10319SOL    HW131856   1.048   3.366   5.509
10319SOL    HW231857   1.211   3.372   5.497
10320SOL     OW31858   0.623   0.934   0.658
10320SOL    HW131859   0.605   0.849   0.707
10320SOL    HW231860   0.561   0.942   0.580
10321SOL     OW31861   4.048   0.422   4.985
10321SOL    HW131862   4.132   0.368   4.987
10321SOL    HW231863   4.070   0.519   4.981
10322SOL     OW31864   6.275   5.801   0.057
10322SOL    HW131865   6.326   5.886   0.042
10322SOL    HW231866   6.210   5.815   0.132
10323SOL     OW31867   6.743   3.693   6.224
10323SOL    HW131868   6.682   3.733   6.292
10323SOL    HW231869   6.807   3.763   6.191
10324SOL     OW31870   3.102   3.064   3.318
10324SOL    HW131871   3.178   3.000   3.318
10324SOL    HW231872   3.060   3.066   3.227
10325SOL     OW31873   6.514   4.550   3.745
10325SOL    HW131874   6.423   4.580   3.716
10325SOL    HW231875   6.584   4.599   3.693
10326SOL     OW31876   4.929   2.762   0.437
10326SOL    HW131877   4.907   2.674   0.394
10326SOL    HW231878   4.886   2.766   0.527
10327SOL     OW31879   2.751   1.637   2.311
10327SOL    HW131880   2.733   1.538   2.313
10327SOL    HW231881   2.722   1.674   2.223
10328SOL     OW31882   6.123   3.348   1.464
10328SOL    HW131883   6.199   3.406   1.491
10328SOL    HW231884   6.124   3.264   1.518
10329SOL     OW31885   2.858   0.131   4.888
10329SOL    HW131886   2.940   0.133   4.945
10329SOL    HW231887   2.804   0.049   4.910
10330SOL     OW31888   3.142   5.519   2.746
10330SOL    HW131889   3.128   5.424   2.775
10330SOL    HW231890   3.064   5.548   2.691
10331SOL     OW31891   6.287   0.665   3.191
10331SOL    HW131892   6.255   0.585   3.141
10331SOL    HW231893   6.308   0.738   3.126
10332SOL     OW31894   6.437   1.623   0.712
10332SOL    HW131895   6.359   1.678   0.683
10332SOL    HW231896   6.500   1.679   0.766
10333SOL     OW31897   5.775   4.292   4.510
10333SOL    HW131898   5.703   4.325   4.571
10333SOL    HW231899   5.734   4.251   4.429
10334SOL     OW31900   2.476   5.928   3.255
10334SOL    HW131901   2.473   5.973   3.344
10334SOL    HW231902   2.498   5.831   3.267
10335SOL     OW31903   1.717   4.343   6.771
10335SOL    HW131904   1.623   4.354   6.805
10335SOL    HW231905   1.721   4.263   6.710
10336SOL     OW31906   5.241   6.669   3.146
10336SOL    HW131907   5.153   6.712   3.126
10336SOL    HW231908   5.232   6.569   3.138
10337SOL     OW31909   0.061   5.797   5.599
10337SOL    HW131910   0.029   5.890   5.611
10337SOL    HW231911   0.008   5.735   5.657
10338SOL     OW31912   3.440   6.323   1.259
10338SOL    HW131913   3.528   6.370   1.251
10338SOL    HW231914   3.373   6.365   1.197
10339SOL     OW31915   3.590   4.560   0.667
10339SOL    HW131916   3.669   4.570   0.607
10339SOL    HW231917   3.602   4.481   0.727
10340SOL     OW31918   1.595   5.874   6.889
10340SOL    HW131919   1.519   5.819   6.854
10340SOL    HW231920   1.572   5.908   6.980
10341SOL     OW31921   2.254   2.940   1.764
10341SOL    HW131922   2.198   2.988   1.697
10341SOL    HW231923   2.350   2.964   1.749
10342SOL     OW31924   2.394   5.702   5.601
10342SOL    HW131925   2.444   5.616   5.608
10342SOL    HW231926   2.451   5.777   5.635
10343SOL     OW31927   2.573   3.938   6.996
10343SOL    HW131928   2.476   3.934   7.020
10343SOL    HW231929   2.590   4.018   6.939
10344SOL     OW31930   4.062   3.700   3.219
10344SOL    HW131931   3.965   3.682   3.237
10344SOL    HW231932   4.097   3.767   3.284
10345SOL     OW31933   2.028   0.578   6.470
10345SOL    HW131934   1.961   0.519   6.516
10345SOL    HW231935   1.983   0.629   6.398
10346SOL     OW31936   6.068   0.828   1.343
10346SOL    HW131937   6.162   0.829   1.308
10346SOL    HW231938   6.005   0.843   1.266
10347SOL     OW31939   5.404   2.204   1.304
10347SOL    HW131940   5.442   2.225   1.213
10347SOL    HW231941   5.307   2.184   1.296
10348SOL     OW31942   6.807   1.006   6.471
10348SOL    HW131943   6.721   1.023   6.520
10348SOL    HW231944   6.820   0.908   6.460
10349SOL     OW31945   6.304   0.547   1.183
10349SOL    HW131946   6.269   0.491   1.258
10349SOL    HW231947   6.261   0.518   1.098
10350SOL     OW31948   3.170   6.338   4.747
10350SOL    HW131949   3.116   6.316   4.665
10350SOL    HW231950   3.238   6.267   4.762
10351SOL     OW31951   6.029   4.994   5.648
10351SOL    HW131952   5.988   5.071   5.599
10351SOL    HW231953   5.974   4.973   5.729
10352SOL     OW31954   5.612   2.272   6.221
10352SOL    HW131955   5.665   2.356   6.234
10352SOL    HW231956   5.654   2.197   6.272
10353SOL     OW31957   6.641   2.997   3.986
10353SOL    HW131958   6.620   2.901   3.964
10353SOL    HW231959   6.730   3.002   4.030
10354SOL     OW31960   0.990   3.519   0.728
10354SOL    HW131961   0.971   3.468   0.644
10354SOL    HW231962   0.920   3.498   0.797
10355SOL     OW31963   0.962   0.921   1.036
10355SOL    HW131964   1.027   0.847   1.050
10355SOL    HW231965   1.006   1.009   1.056
10356SOL     OW31966   6.866   3.323   6.513
10356SOL    HW131967   6.852   3.377   6.430
10356SOL    HW231968   6.872   3.226   6.490
10357SOL     OW31969   3.074   2.194   6.010
10357SOL    HW131970   3.051   2.288   6.035
10357SOL    HW231971   3.063   2.182   5.911
10358SOL     OW31972   1.077   3.214   3.328
10358SOL    HW131973   0.997   3.273   3.324
10358SOL    HW231974   1.078   3.165   3.415
10359SOL     OW31975   4.865   2.327   2.158
10359SOL    HW131976   4.888   2.265   2.232
10359SOL    HW231977   4.765   2.332   2.148
10360SOL     OW31978   4.974   5.281   2.335
10360SOL    HW131979   4.921   5.327   2.264
10360SOL    HW231980   5.071   5.300   2.321
10361SOL     OW31981   2.543   0.495   2.499
10361SOL    HW131982   2.492   0.571   2.538
10361SOL    HW231983   2.558   0.426   2.569
10362SOL     OW31984   0.723   4.933   2.441
10362SOL    HW131985   0.749   4.839   2.420
10362SOL    HW231986   0.749   4.992   2.364
10363SOL     OW31987   5.001   2.611   0.894
10363SOL    HW131988   4.942   2.610   0.975
10363SOL    HW231989   4.986   2.696   0.844
10364SOL     OW31990   5.097   4.726   1.785
10364SOL    HW131991   4.998   4.726   1.796
10364SOL    HW231992   5.132   4.633   1.799
10365SOL     OW31993   5.946   4.738   0.410
10365SOL    HW131994   6.010   4.765   0.482
10365SOL    HW231995   5.857   4.782   0.426
10366SOL     OW31996   4.349   6.716   3.678
10366SOL    HW131997   4.291   6.635   3.685
10366SOL    HW231998   4.292   6.798   3.688
10367SOL     OW31999   0.057   1.620   2.052
10367SOL    HW132000   7.022   1.693   2.019
10367SOL    HW232001   0.071   1.631   2.151
10368SOL     OW32002   1.989   1.104   2.764
10368SOL    HW132003   1.976   1.013   2.724
10368SOL    HW232004   2.002   1.171   2.691
10369SOL     OW32005   2.525   6.573   6.092
10369SOL    HW132006   2.525   6.581   6.191
10369SOL    HW232007   2.450   6.629   6.054
10370SOL     OW32008   6.266   1.654   4.806
10370SOL    HW132009   6.217   1.740   4.822
10370SOL    HW232010   6.224   1.581   4.860
10371SOL     OW32011   2.927   6.797   3.576
10371SOL    HW132012   2.952   6.858   3.651
10371SOL    HW232013   2.987   6.717   3.577
10372SOL     OW32014   2.753   1.034   1.088
10372SOL    HW132015   2.838   1.086   1.091
10372SOL    HW232016   2.681   1.089   1.045
10373SOL     OW32017   0.626   6.630   4.784
10373SOL    HW132018   0.564   6.551   4.785
10373SOL    HW232019   0.581   6.708   4.828
10374SOL     OW32020   3.015   0.028   4.675
10374SOL    HW132021   2.972   6.976   4.625
10374SOL    HW232022   2.951   0.063   4.744
10375SOL     OW32023   2.753   2.407   6.160
10375SOL    HW132024   2.832   2.437   6.107
10375SOL    HW232025   2.744   2.462   6.243
10376SOL     OW32026   1.172   6.351   3.947
10376SOL    HW132027   1.167   6.273   3.885
10376SOL    HW232028   1.245   6.337   4.014
10377SOL     OW32029   0.613   2.108   1.613
10377SOL    HW132030   0.662   2.024   1.592
10377SOL    HW232031   0.560   2.095   1.697
10378SOL     OW32032   6.695   5.356   6.081
10378SOL    HW132033   6.744   5.412   6.149
10378SOL    HW232034   6.703   5.399   5.991
10379SOL     OW32035   3.623   5.531   3.656
10379SOL    HW132036   3.654   5.546   3.562
10379SOL    HW232037   3.669   5.451   3.694
10380SOL     OW32038   0.780   2.360   5.006
10380SOL    HW132039   0.692   2.394   4.974
10380SOL    HW232040   0.815   2.420   5.078
10381SOL     OW32041   4.349   3.813   0.529
10381SOL    HW132042   4.334   3.822   0.628
10381SOL    HW232043   4.299   3.734   0.494
10382SOL     OW32044   2.943   6.265   1.802
10382SOL    HW132045   2.865   6.214   1.840
10382SOL    HW232046   2.952   6.352   1.850
10383SOL     OW32047   2.328   3.813   0.376
10383SOL    HW132048   2.294   3.721   0.359
10383SOL    HW232049   2.369   3.817   0.467
10384SOL     OW32050   6.808   6.449   0.593
10384SOL    HW132051   6.753   6.393   0.531
10384SOL    HW232052   6.750   6.519   0.635
10385SOL     OW32053   4.088   6.213   6.449
10385SOL    HW132054   4.109   6.191   6.353
10385SOL    HW232055   4.064   6.310   6.456
10386SOL     OW32056   0.927   0.764   5.654
10386SOL    HW132057   0.940   0.778   5.752
10386SOL    HW232058   0.830   0.764   5.633
10387SOL     OW32059   4.784   2.337   2.766
10387SOL    HW132060   4.737   2.335   2.854
10387SOL    HW232061   4.867   2.282   2.771
10388SOL     OW32062   1.766   6.743   0.759
10388SOL    HW132063   1.791   6.714   0.852
10388SOL    HW232064   1.799   6.837   0.745
10389SOL     OW32065   5.417   3.492   1.521
10389SOL    HW132066   5.395   3.436   1.441
10389SOL    HW232067   5.472   3.570   1.493
10390SOL     OW32068   1.874   2.569   6.587
10390SOL    HW132069   1.888   2.667   6.598
10390SOL    HW232070   1.817   2.552   6.507
10391SOL     OW32071   0.706   6.209   3.654
10391SOL    HW132072   0.749   6.294   3.683
10391SOL    HW232073   0.752   6.174   3.572
10392SOL     OW32074   5.740   5.350   5.315
10392SOL    HW132075   5.828   5.398   5.318
10392SOL    HW232076   5.677   5.391   5.382
10393SOL     OW32077   2.135   3.625   3.752
10393SOL    HW132078   2.151   3.605   3.656
10393SOL    HW232079   2.100   3.718   3.761
10394SOL     OW32080   2.527   5.409   4.723
10394SOL    HW132081   2.554   5.487   4.780
10394SOL    HW232082   2.442   5.430   4.676
10395SOL     OW32083   0.090   0.176   1.390
10395SOL    HW132084   0.142   0.237   1.329
10395SOL    HW232085   0.037   0.230   1.454
10396SOL     OW32086   3.676   1.634   3.883
10396SOL    HW132087   3.756   1.573   3.880
10396SOL    HW232088   3.690   1.710   3.820
10397SOL     OW32089   3.169   1.653   4.124
10397SOL    HW132090   3.257   1.692   4.098
10397SOL    HW232091   3.179   1.554   4.136
10398SOL     OW32092   6.253   2.805   0.757
10398SOL    HW132093   6.169   2.859   0.748
10398SOL    HW232094   6.314   2.825   0.680
10399SOL     OW32095   5.353   2.340   3.233
10399SOL    HW132096   5.277   2.295   3.280
10399SOL    HW232097   5.426   2.275   3.217
10400SOL     OW32098   4.288   5.719   0.024
10400SOL    HW132099   4.325   5.812   0.030
10400SOL    HW232100   4.194   5.719   0.060
10401SOL     OW32101   0.217   6.464   1.995
10401SOL    HW132102   0.249   6.557   2.010
10401SOL    HW232103   0.138   6.446   2.053
10402SOL     OW32104   6.568   1.832   5.751
10402SOL    HW132105   6.645   1.777   5.783
10402SOL    HW232106   6.554   1.816   5.654
10403SOL     OW32107   4.858   2.068   3.500
10403SOL    HW132108   4.808   2.138   3.448
10403SOL    HW232109   4.945   2.048   3.454
10404SOL     OW32110   5.792   6.153   4.189
10404SOL    HW132111   5.795   6.230   4.126
10404SOL    HW232112   5.702   6.109   4.185
10405SOL     OW32113   0.849   0.167   4.714
10405SOL    HW132114   0.929   0.108   4.706
10405SOL    HW232115   0.872   0.258   4.679
10406SOL     OW32116   2.033   4.153   3.526
10406SOL    HW132117   2.039   4.250   3.548
10406SOL    HW232118   2.035   4.099   3.610
10407SOL     OW32119   2.965   6.743   6.358
10407SOL    HW132120   2.915   6.663   6.390
10407SOL    HW232121   2.934   6.825   6.407
10408SOL     OW32122   4.455   0.091   1.308
10408SOL    HW132123   4.480   7.017   1.311
10408SOL    HW232124   4.475   0.126   1.216
10409SOL     OW32125   0.361   4.953   0.866
10409SOL    HW132126   0.376   4.882   0.798
10409SOL    HW232127   0.263   4.976   0.869
10410SOL     OW32128   5.200   2.326   1.650
10410SOL    HW132129   5.169   2.261   1.719
10410SOL    HW232130   5.151   2.310   1.565
10411SOL     OW32131   3.535   6.780   3.366
10411SOL    HW132132   3.531   6.684   3.338
10411SOL    HW232133   3.446   6.824   3.347
10412SOL     OW32134   0.259   1.127   6.701
10412SOL    HW132135   0.181   1.171   6.655
10412SOL    HW232136   0.229   1.040   6.740
10413SOL     OW32137   0.207   3.023   0.159
10413SOL    HW132138   0.191   3.110   0.205
10413SOL    HW232139   0.306   3.006   0.151
10414SOL     OW32140   3.943   5.497   5.955
10414SOL    HW132141   4.026   5.516   6.007
10414SOL    HW232142   3.866   5.545   5.996
10415SOL     OW32143   1.828   3.722   5.170
10415SOL    HW132144   1.805   3.631   5.136
10415SOL    HW232145   1.890   3.714   5.248
10416SOL     OW32146   5.947   0.412   5.146
10416SOL    HW132147   5.897   0.326   5.157
10416SOL    HW232148   5.919   0.477   5.217
10417SOL     OW32149   3.079   5.398   3.941
10417SOL    HW132150   3.000   5.454   3.917
10417SOL    HW232151   3.055   5.338   4.018
10418SOL     OW32152   6.781   3.993   6.643
10418SOL    HW132153   6.824   4.047   6.715
10418SOL    HW232154   6.842   3.917   6.617
10419SOL     OW32155   2.750   6.898   5.814
10419SOL    HW132156   2.661   6.903   5.858
10419SOL    HW232157   2.739   6.902   5.715
10420SOL     OW32158   0.618   3.920   3.583
10420SOL    HW132159   0.571   3.988   3.527
10420SOL    HW232160   0.680   3.866   3.526
10421SOL     OW32161   0.664   2.009   3.977
10421SOL    HW132162   0.713   1.980   3.895
10421SOL    HW232163   0.589   2.070   3.951
10422SOL     OW32164   6.050   3.410   5.244
10422SOL    HW132165   6.130   3.371   5.199
10422SOL    HW232166   6.078   3.484   5.304
10423SOL     OW32167   6.279   5.335   5.514
10423SOL    HW132168   6.260   5.374   5.604
10423SOL    HW232169   6.377   5.334   5.497
10424SOL     OW32170   5.277   2.849   0.044
10424SOL    HW132171   5.225   2.859   0.129
10424SOL    HW232172   5.297   2.939   0.007
10425SOL     OW32173   0.927   6.865   1.953
10425SOL    HW132174   1.020   6.879   1.986
10425SOL    HW232175   0.929   6.823   1.863
10426SOL     OW32176   5.717   5.250   0.493
10426SOL    HW132177   5.722   5.349   0.500
10426SOL    HW232178   5.622   5.221   0.486
10427SOL     OW32179   3.932   0.919   6.147
10427SOL    HW132180   4.024   0.904   6.184
10427SOL    HW232181   3.878   0.972   6.213
10428SOL     OW32182   3.479   1.096   4.014
10428SOL    HW132183   3.459   0.998   4.009
10428SOL    HW232184   3.455   1.139   3.927
10429SOL     OW32185   0.138   4.017   1.176
10429SOL    HW132186   0.138   3.919   1.195
10429SOL    HW232187   0.065   4.039   1.111
10430SOL     OW32188   4.872   0.146   4.474
10430SOL    HW132189   4.851   0.053   4.443
10430SOL    HW232190   4.894   0.144   4.572
10431SOL     OW32191   2.706   6.064   4.318
10431SOL    HW132192   2.754   5.996   4.373
10431SOL    HW232193   2.764   6.093   4.242
10432SOL     OW32194   5.341   6.968   5.096
10432SOL    HW132195   5.350   6.944   5.000
10432SOL    HW232196   5.357   0.042   5.108
10433SOL     OW32197   1.305   5.586   1.552
10433SOL    HW132198   1.332   5.658   1.616
10433SOL    HW232199   1.218   5.547   1.581
10434SOL     OW32200   4.306   5.992   3.514
10434SOL    HW132201   4.246   6.062   3.552
10434SOL    HW232202   4.296   5.907   3.566
10435SOL     OW32203   6.552   0.984   4.987
10435SOL    HW132204   6.465   1.018   5.022
10435SOL    HW232205   6.574   1.030   4.901
10436SOL     OW32206   0.219   4.997   5.879
10436SOL    HW132207   0.207   5.071   5.945
10436SOL    HW232208   0.161   4.920   5.905
10437SOL     OW32209   4.666   4.026   5.629
10437SOL    HW132210   4.733   3.956   5.651
10437SOL    HW232211   4.579   3.983   5.603
10438SOL     OW32212   6.062   6.635   0.146
10438SOL    HW132213   6.033   6.660   0.239
10438SOL    HW232214   6.151   6.676   0.128
10439SOL     OW32215   3.835   1.308   5.591
10439SOL    HW132216   3.807   1.215   5.569
10439SOL    HW232217   3.926   1.307   5.633
10440SOL     OW32218   1.235   0.247   0.128
10440SOL    HW132219   1.326   0.261   0.167
10440SOL    HW232220   1.172   0.317   0.162
10441SOL     OW32221   3.173   0.492   1.666
10441SOL    HW132222   3.098   0.488   1.600
10441SOL    HW232223   3.149   0.439   1.747
10442SOL     OW32224   3.466   6.673   6.032
10442SOL    HW132225   3.415   6.595   5.996
10442SOL    HW232226   3.554   6.642   6.068
10443SOL     OW32227   4.756   4.202   4.057
10443SOL    HW132228   4.716   4.294   4.065
10443SOL    HW232229   4.780   4.184   3.962
10444SOL     OW32230   4.007   6.151   4.379
10444SOL    HW132231   4.050   6.241   4.385
10444SOL    HW232232   3.968   6.127   4.468
10445SOL     OW32233   0.514   4.895   4.666
10445SOL    HW132234   0.542   4.964   4.733
10445SOL    HW232235   0.489   4.941   4.580
10446SOL     OW32236   1.485   2.823   5.176
10446SOL    HW132237   1.492   2.903   5.116
10446SOL    HW232238   1.456   2.851   5.267
10447SOL     OW32239   0.424   1.136   1.593
10447SOL    HW132240   0.406   1.047   1.551
10447SOL    HW232241   0.441   1.204   1.522
10448SOL     OW32242   4.417   0.595   2.492
10448SOL    HW132243   4.407   0.518   2.430
10448SOL    HW232244   4.430   0.679   2.440
10449SOL     OW32245   2.854   5.104   4.567
10449SOL    HW132246   2.783   5.062   4.510
10449SOL    HW232247   2.815   5.128   4.656
10450SOL     OW32248   0.928   1.987   0.443
10450SOL    HW132249   0.909   2.084   0.427
10450SOL    HW232250   0.925   1.967   0.541
10451SOL     OW32251   0.984   5.623   2.511
10451SOL    HW132252   0.958   5.668   2.425
10451SOL    HW232253   1.009   5.528   2.492
10452SOL     OW32254   6.459   3.236   2.299
10452SOL    HW132255   6.377   3.184   2.327
10452SOL    HW232256   6.432   3.329   2.276
10453SOL     OW32257   3.848   6.610   1.328
10453SOL    HW132258   3.848   6.673   1.406
10453SOL    HW232259   3.829   6.661   1.244
10454SOL     OW32260   4.234   3.594   0.434
10454SOL    HW132261   4.288   3.536   0.372
10454SOL    HW232262   4.146   3.550   0.453
10455SOL     OW32263   6.333   6.234   3.418
10455SOL    HW132264   6.283   6.301   3.364
10455SOL    HW232265   6.287   6.222   3.506
10456SOL     OW32266   3.329   6.270   0.818
10456SOL    HW132267   3.323   6.360   0.774
10456SOL    HW232268   3.398   6.215   0.771
10457SOL     OW32269   3.008   3.754   2.174
10457SOL    HW132270   2.935   3.690   2.198
10457SOL    HW232271   3.090   3.703   2.149
10458SOL     OW32272   7.003   1.682   6.506
10458SOL    HW132273   7.004   1.612   6.435
10458SOL    HW232274   6.909   1.699   6.535
10459SOL     OW32275   4.664   5.800   1.318
10459SOL    HW132276   4.687   5.770   1.225
10459SOL    HW232277   4.579   5.853   1.316
10460SOL     OW32278   1.552   4.493   2.054
10460SOL    HW132279   1.543   4.393   2.057
10460SOL    HW232280   1.637   4.517   2.008
10461SOL     OW32281   1.015   5.172   5.417
10461SOL    HW132282   1.064   5.249   5.458
10461SOL    HW232283   0.986   5.108   5.488
10462SOL     OW32284   6.455   1.788   3.513
10462SOL    HW132285   6.356   1.796   3.502
10462SOL    HW232286   6.477   1.700   3.555
10463SOL     OW32287   3.835   3.133   5.662
10463SOL    HW132288   3.819   3.220   5.615
10463SOL    HW232289   3.853   3.062   5.595
10464SOL     OW32290   6.323   6.703   1.128
10464SOL    HW132291   6.252   6.740   1.187
10464SOL    HW232292   6.281   6.657   1.050
10465SOL     OW32293   6.597   5.726   1.466
10465SOL    HW132294   6.546   5.796   1.415
10465SOL    HW232295   6.679   5.767   1.506
10466SOL     OW32296   4.336   5.302   6.412
10466SOL    HW132297   4.436   5.296   6.404
10466SOL    HW232298   4.297   5.332   6.325
10467SOL     OW32299   1.818   2.174   6.144
10467SOL    HW132300   1.740   2.175   6.206
10467SOL    HW232301   1.851   2.081   6.134
10468SOL     OW32302   3.402   4.955   3.027
10468SOL    HW132303   3.313   4.932   3.065
10468SOL    HW232304   3.445   5.026   3.083
10469SOL     OW32305   3.998   3.668   5.721
10469SOL    HW132306   4.070   3.600   5.736
10469SOL    HW232307   4.039   3.754   5.690
10470SOL     OW32308   2.678   2.419   3.736
10470SOL    HW132309   2.695   2.453   3.829
10470SOL    HW232310   2.582   2.394   3.726
10471SOL     OW32311   2.622   2.225   0.914
10471SOL    HW132312   2.558   2.235   0.837
10471SOL    HW232313   2.584   2.161   0.981
10472SOL     OW32314   3.591   5.535   0.325
10472SOL    HW132315   3.595   5.461   0.259
10472SOL    HW232316   3.547   5.615   0.283
10473SOL     OW32317   6.661   0.793   6.925
10473SOL    HW132318   6.714   0.863   6.973
10473SOL    HW232319   6.605   0.836   6.854
10474SOL     OW32320   4.910   1.640   4.540
10474SOL    HW132321   4.828   1.620   4.487
10474SOL    HW232322   4.901   1.730   4.583
10475SOL     OW32323   5.323   6.968   2.575
10475SOL    HW132324   5.290   0.006   2.503
10475SOL    HW232325   5.245   6.924   2.619
10476SOL     OW32326   6.884   6.326   6.679
10476SOL    HW132327   6.939   6.330   6.596
10476SOL    HW232328   6.926   6.383   6.750
10477SOL     OW32329   6.799   1.770   4.057
10477SOL    HW132330   6.898   1.781   4.062
10477SOL    HW232331   6.777   1.683   4.013
10478SOL     OW32332   0.123   0.640   1.034
10478SOL    HW132333   0.183   0.565   1.060
10478SOL    HW232334   0.148   0.674   0.944
10479SOL     OW32335   6.905   2.635   1.357
10479SOL    HW132336   6.873   2.680   1.441
10479SOL    HW232337   7.004   2.638   1.353
10480SOL     OW32338   6.473   0.605   2.030
10480SOL    HW132339   6.516   0.516   2.042
10480SOL    HW232340   6.374   0.597   2.047
10481SOL     OW32341   2.409   0.131   4.847
10481SOL    HW132342   2.484   0.193   4.871
10481SOL    HW232343   2.351   0.173   4.779
10482SOL     OW32344   0.145   5.604   4.736
10482SOL    HW132345   0.222   5.591   4.674
10482SOL    HW232346   0.173   5.664   4.811
10483SOL     OW32347   6.898   5.386   0.430
10483SOL    HW132348   6.970   5.442   0.471
10483SOL    HW232349   6.836   5.354   0.502
10484SOL     OW32350   5.984   1.544   1.744
10484SOL    HW132351   6.066   1.489   1.760
10484SOL    HW232352   5.987   1.627   1.800
10485SOL     OW32353   3.151   4.009   2.125
10485SOL    HW132354   3.091   3.932   2.104
10485SOL    HW232355   3.213   4.025   2.049
10486SOL     OW32356   6.183   0.739   6.000
10486SOL    HW132357   6.160   0.793   6.080
10486SOL    HW232358   6.138   0.650   6.005
10487SOL     OW32359   4.467   2.026   1.799
10487SOL    HW132360   4.461   2.099   1.731
10487SOL    HW232361   4.544   2.045   1.861
10488SOL     OW32362   2.364   1.619   6.246
10488SOL    HW132363   2.326   1.665   6.326
10488SOL    HW232364   2.382   1.685   6.174
10489SOL     OW32365   5.821   6.684   4.499
10489SOL    HW132366   5.723   6.692   4.514
10489SOL    HW232367   5.861   6.775   4.489
10490SOL     OW32368   6.052   1.600   0.831
10490SOL    HW132369   6.082   1.600   0.926
10490SOL    HW232370   5.957   1.632   0.825
10491SOL     OW32371   2.438   2.315   5.233
10491SOL    HW132372   2.401   2.330   5.325
10491SOL    HW232373   2.535   2.339   5.231
10492SOL     OW32374   4.872   6.011   1.249
10492SOL    HW132375   4.951   6.010   1.309
10492SOL    HW232376   4.802   5.949   1.285
10493SOL     OW32377   2.545   6.634   1.909
10493SOL    HW132378   2.486   6.704   1.869
10493SOL    HW232379   2.612   6.605   1.841
10494SOL     OW32380   5.611   4.509   6.185
10494SOL    HW132381   5.628   4.606   6.204
10494SOL    HW232382   5.531   4.500   6.126
10495SOL     OW32383   0.042   0.412   0.782
10495SOL    HW132384   0.087   0.501   0.785
10495SOL    HW232385   6.990   0.414   0.717
10496SOL     OW32386   6.256   4.566   6.102
10496SOL    HW132387   6.217   4.509   6.175
10496SOL    HW232388   6.221   4.659   6.111
10497SOL     OW32389   1.041   6.415   2.058
10497SOL    HW132390   1.106   6.491   2.063
10497SOL    HW232391   0.949   6.449   2.075
10498SOL     OW32392   5.755   5.517   0.506
10498SOL    HW132393   5.848   5.544   0.479
10498SOL    HW232394   5.743   5.531   0.604
10499SOL     OW32395   4.822   0.247   2.120
10499SOL    HW132396   4.802   0.283   2.212
10499SOL    HW232397   4.765   0.167   2.102
10500SOL     OW32398   5.923   1.742   5.683
10500SOL    HW132399   5.850   1.696   5.732
10500SOL    HW232400   5.929   1.838   5.712
10501SOL     OW32401   2.534   5.442   1.822
10501SOL    HW132402   2.525   5.520   1.760
10501SOL    HW232403   2.629   5.434   1.852
10502SOL     OW32404   2.882   3.487   1.195
10502SOL    HW132405   2.788   3.456   1.183
10502SOL    HW232406   2.944   3.408   1.187
10503SOL     OW32407   5.948   3.481   0.543
10503SOL    HW132408   5.940   3.411   0.614
10503SOL    HW232409   5.928   3.442   0.454
10504SOL     OW32410   0.077   2.951   5.627
10504SOL    HW132411   7.011   2.989   5.602
10504SOL    HW232412   0.120   2.910   5.546
10505SOL     OW32413   5.955   5.909   1.104
10505SOL    HW132414   5.935   5.883   1.198
10505SOL    HW232415   5.915   5.999   1.086
10506SOL     OW32416   0.710   3.379   7.017
10506SOL    HW132417   0.783   3.446   0.010
10506SOL    HW232418   0.716   3.345   6.923
10507SOL     OW32419   2.030   5.335   0.115
10507SOL    HW132420   2.126   5.308   0.120
10507SOL    HW232421   2.003   5.375   0.202
10508SOL     OW32422   0.126   6.020   4.457
10508SOL    HW132423   0.086   5.929   4.445
10508SOL    HW232424   0.185   6.020   4.538
10509SOL     OW32425   6.167   4.784   4.823
10509SOL    HW132426   6.161   4.737   4.911
10509SOL    HW232427   6.261   4.778   4.789
10510SOL     OW32428   4.332   6.366   0.258
10510SOL    HW132429   4.387   6.357   0.340
10510SOL    HW232430   4.323   6.463   0.234
10511SOL     OW32431   3.066   1.187   2.362
10511SOL    HW132432   3.111   1.103   2.392
10511SOL    HW232433   3.108   1.219   2.278
10512SOL     OW32434   3.299   0.417   6.204
10512SOL    HW132435   3.276   0.505   6.245
10512SOL    HW232436   3.216   0.363   6.190
10513SOL     OW32437   6.671   3.092   3.257
10513SOL    HW132438   6.609   3.091   3.335
10513SOL    HW232439   6.682   2.999   3.222
10514SOL     OW32440   1.028   2.547   1.561
10514SOL    HW132441   0.931   2.556   1.585
10514SOL    HW232442   1.047   2.454   1.531
10515SOL     OW32443   1.597   3.531   4.381
10515SOL    HW132444   1.652   3.594   4.327
10515SOL    HW232445   1.500   3.547   4.363
10516SOL     OW32446   2.927   1.627   0.117
10516SOL    HW132447   2.923   1.710   0.173
10516SOL    HW232448   2.865   1.558   0.156
10517SOL     OW32449   1.046   4.122   1.751
10517SOL    HW132450   0.947   4.134   1.745
10517SOL    HW232451   1.068   4.072   1.834
10518SOL     OW32452   6.899   6.332   1.614
10518SOL    HW132453   6.992   6.330   1.577
10518SOL    HW232454   6.842   6.267   1.565
10519SOL     OW32455   3.003   3.910   0.693
10519SOL    HW132456   3.011   4.010   0.698
10519SOL    HW232457   2.953   3.885   0.610
10520SOL     OW32458   0.345   2.477   5.884
10520SOL    HW132459   0.298   2.532   5.953
10520SOL    HW232460   0.374   2.390   5.925
10521SOL     OW32461   0.254   5.573   1.309
10521SOL    HW132462   0.156   5.563   1.325
10521SOL    HW232463   0.291   5.488   1.271
10522SOL     OW32464   0.192   2.666   3.622
10522SOL    HW132465   0.236   2.756   3.613
10522SOL    HW232466   0.146   2.661   3.711
10523SOL     OW32467   0.650   4.516   3.244
10523SOL    HW132468   0.607   4.605   3.258
10523SOL    HW232469   0.676   4.477   3.332
10524SOL     OW32470   0.200   6.431   4.383
10524SOL    HW132471   0.225   6.398   4.292
10524SOL    HW232472   0.117   6.487   4.376
10525SOL     OW32473   3.754   0.960   5.270
10525SOL    HW132474   3.767   1.009   5.184
10525SOL    HW232475   3.686   0.888   5.258
10526SOL     OW32476   0.947   0.217   1.582
10526SOL    HW132477   0.967   0.236   1.678
10526SOL    HW232478   0.853   0.186   1.573
10527SOL     OW32479   1.539   0.893   6.057
10527SOL    HW132480   1.499   0.917   6.145
10527SOL    HW232481   1.515   0.799   6.034
10528SOL     OW32482   1.358   4.111   6.366
10528SOL    HW132483   1.370   4.206   6.392
10528SOL    HW232484   1.384   4.098   6.270
10529SOL     OW32485   2.202   5.958   4.460
10529SOL    HW132486   2.203   5.916   4.370
10529SOL    HW232487   2.290   6.004   4.476
10530SOL     OW32488   1.195   6.740   6.101
10530SOL    HW132489   1.200   6.831   6.142
10530SOL    HW232490   1.223   6.671   6.168
10531SOL     OW32491   2.688   2.040   4.365
10531SOL    HW132492   2.714   2.111   4.300
10531SOL    HW232493   2.770   1.989   4.393
10532SOL     OW32494   0.222   6.710   6.242
10532SOL    HW132495   0.261   6.645   6.176
10532SOL    HW232496   0.164   6.775   6.193
10533SOL     OW32497   3.444   5.700   3.414
10533SOL    HW132498   3.396   5.618   3.382
10533SOL    HW232499   3.456   5.764   3.338
10534SOL     OW32500   6.323   4.550   2.297
10534SOL    HW132501   6.326   4.580   2.201
10534SOL    HW232502   6.241   4.494   2.312
10535SOL     OW32503   2.028   1.745   2.240
10535SOL    HW132504   1.957   1.808   2.209
10535SOL    HW232505   2.115   1.794   2.246
10536SOL     OW32506   4.528   0.893   4.139
10536SOL    HW132507   4.465   0.967   4.163
10536SOL    HW232508   4.612   0.900   4.192
10537SOL     OW32509   5.000   6.841   3.893
10537SOL    HW132510   5.012   6.760   3.834
10537SOL    HW232511   4.903   6.863   3.899
10538SOL     OW32512   6.852   3.410   0.356
10538SOL    HW132513   6.809   3.320   0.364
10538SOL    HW232514   6.858   3.436   0.259
10539SOL     OW32515   6.229   6.068   1.202
10539SOL    HW132516   6.136   6.033   1.216
10539SOL    HW232517   6.269   6.025   1.121
10540SOL     OW32518   2.360   2.805   5.572
10540SOL    HW132519   2.414   2.855   5.504
10540SOL    HW232520   2.285   2.757   5.526
10541SOL     OW32521   3.857   3.344   3.258
10541SOL    HW132522   3.907   3.272   3.307
10541SOL    HW232523   3.914   3.380   3.185
10542SOL     OW32524   6.701   1.105   5.183
10542SOL    HW132525   6.631   1.058   5.128
10542SOL    HW232526   6.764   1.037   5.222
10543SOL     OW32527   1.006   1.803   4.167
10543SOL    HW132528   0.977   1.875   4.104
10543SOL    HW232529   0.956   1.812   4.252
10544SOL     OW32530   1.964   6.325   1.793
10544SOL    HW132531   2.024   6.258   1.836
10544SOL    HW232532   1.997   6.417   1.814
10545SOL     OW32533   1.880   2.688   1.474
10545SOL    HW132534   1.825   2.612   1.509
10545SOL    HW232535   1.855   2.772   1.521
10546SOL     OW32536   2.951   6.285   0.648
10546SOL    HW132537   2.899   6.370   0.650
10546SOL    HW232538   2.929   6.231   0.729
10547SOL     OW32539   5.503   2.358   3.924
10547SOL    HW132540   5.491   2.450   3.962
10547SOL    HW232541   5.500   2.362   3.825
10548SOL     OW32542   0.226   4.497   4.216
10548SOL    HW132543   0.141   4.445   4.221
10548SOL    HW232544   0.235   4.538   4.125
10549SOL     OW32545   0.938   1.591   0.944
10549SOL    HW132546   0.933   1.574   0.845
10549SOL    HW232547   1.020   1.548   0.981
10550SOL     OW32548   4.590   6.260   3.885
10550SOL    HW132549   4.636   6.307   3.810
10550SOL    HW232550   4.552   6.173   3.851
10551SOL     OW32551   1.748   1.667   0.083
10551SOL    HW132552   1.741   1.571   0.110
10551SOL    HW232553   1.656   1.705   0.073
10552SOL     OW32554   1.735   0.875   5.185
10552SOL    HW132555   1.650   0.907   5.144
10552SOL    HW232556   1.728   0.881   5.285
10553SOL     OW32557   0.596   4.546   1.326
10553SOL    HW132558   0.631   4.617   1.265
10553SOL    HW232559   0.571   4.465   1.272
10554SOL     OW32560   5.009   5.488   1.439
10554SOL    HW132561   5.082   5.421   1.450
10554SOL    HW232562   4.923   5.441   1.422
10555SOL     OW32563   2.615   2.821   0.775
10555SOL    HW132564   2.675   2.743   0.792
10555SOL    HW232565   2.640   2.897   0.835
10556SOL     OW32566   2.432   0.574   3.427
10556SOL    HW132567   2.406   0.620   3.511
10556SOL    HW232568   2.498   0.630   3.376
10557SOL     OW32569   1.662   2.820   3.867
10557SOL    HW132570   1.587   2.754   3.873
10557SOL    HW232571   1.721   2.796   3.790
10558SOL     OW32572   3.907   6.104   5.496
10558SOL    HW132573   3.928   6.034   5.428
10558SOL    HW232574   3.808   6.105   5.513
10559SOL     OW32575   3.814   0.288   1.534
10559SOL    HW132576   3.892   0.269   1.475
10559SOL    HW232577   3.730   0.282   1.481
10560SOL     OW32578   4.956   6.892   2.833
10560SOL    HW132579   4.895   6.818   2.805
10560SOL    HW232580   5.050   6.857   2.837
10561SOL     OW32581   3.625   4.376   1.733
10561SOL    HW132582   3.718   4.363   1.699
10561SOL    HW232583   3.617   4.466   1.775
10562SOL     OW32584   4.035   5.474   0.407
10562SOL    HW132585   4.053   5.429   0.319
10562SOL    HW232586   3.971   5.549   0.393
10563SOL     OW32587   0.931   1.134   1.877
10563SOL    HW132588   0.847   1.113   1.826
10563SOL    HW232589   0.909   1.192   1.956
10564SOL     OW32590   5.767   6.428   3.625
10564SOL    HW132591   5.858   6.447   3.587
10564SOL    HW232592   5.757   6.330   3.639
10565SOL     OW32593   6.554   6.000   5.482
10565SOL    HW132594   6.532   6.019   5.578
10565SOL    HW232595   6.636   6.052   5.457
10566SOL     OW32596   3.354   1.756   6.443
10566SOL    HW132597   3.339   1.834   6.382
10566SOL    HW232598   3.363   1.673   6.388
10567SOL     OW32599   1.992   2.790   5.664
10567SOL    HW132600   2.058   2.751   5.601
10567SOL    HW232601   2.023   2.776   5.758
10568SOL     OW32602   6.309   3.169   0.662
10568SOL    HW132603   6.308   3.156   0.761
10568SOL    HW232604   6.230   3.123   0.621
10569SOL     OW32605   5.552   0.713   2.402
10569SOL    HW132606   5.568   0.724   2.500
10569SOL    HW232607   5.459   0.680   2.386
10570SOL     OW32608   1.642   4.724   3.631
10570SOL    HW132609   1.725   4.780   3.627
10570SOL    HW232610   1.666   4.631   3.657
10571SOL     OW32611   7.012   4.152   4.896
10571SOL    HW132612   0.020   4.214   4.968
10571SOL    HW232613   0.057   4.080   4.883
10572SOL     OW32614   6.751   4.669   2.712
10572SOL    HW132615   6.851   4.672   2.720
10572SOL    HW232616   6.710   4.684   2.802
10573SOL     OW32617   4.905   0.345   4.954
10573SOL    HW132618   4.939   0.439   4.952
10573SOL    HW232619   4.828   0.340   5.018
10574SOL     OW32620   0.227   1.662   4.158
10574SOL    HW132621   0.252   1.720   4.236
10574SOL    HW232622   0.299   1.595   4.142
10575SOL     OW32623   0.194   0.681   3.618
10575SOL    HW132624   0.193   0.636   3.529
10575SOL    HW232625   0.126   0.638   3.677
10576SOL     OW32626   0.922   5.929   3.534
10576SOL    HW132627   0.891   5.940   3.440
10576SOL    HW232628   0.996   5.861   3.537
10577SOL     OW32629   1.652   4.410   0.394
10577SOL    HW132630   1.745   4.415   0.357
10577SOL    HW232631   1.633   4.316   0.423
10578SOL     OW32632   3.730   1.566   2.996
10578SOL    HW132633   3.743   1.531   2.903
10578SOL    HW232634   3.809   1.542   3.052
10579SOL     OW32635   4.035   2.888   1.651
10579SOL    HW132636   3.941   2.855   1.660
10579SOL    HW232637   4.095   2.811   1.629
10580SOL     OW32638   6.678   6.439   5.982
10580SOL    HW132639   6.628   6.367   6.030
10580SOL    HW232640   6.639   6.528   6.006
10581SOL     OW32641   5.907   0.658   2.891
10581SOL    HW132642   5.822   0.686   2.936
10581SOL    HW232643   5.926   0.562   2.911
10582SOL     OW32644   4.452   4.733   5.977
10582SOL    HW132645   4.434   4.690   5.888
10582SOL    HW232646   4.418   4.827   5.975
10583SOL     OW32647   4.634   0.781   3.716
10583SOL    HW132648   4.587   0.839   3.650
10583SOL    HW232649   4.581   0.777   3.801
10584SOL     OW32650   6.316   0.276   0.297
10584SOL    HW132651   6.267   0.329   0.367
10584SOL    HW232652   6.399   0.236   0.338
10585SOL     OW32653   2.967   1.793   5.376
10585SOL    HW132654   2.962   1.725   5.303
10585SOL    HW232655   3.060   1.796   5.412
10586SOL     OW32656   5.393   4.999   5.857
10586SOL    HW132657   5.328   4.992   5.782
10586SOL    HW232658   5.447   4.915   5.862
10587SOL     OW32659   6.633   4.983   6.747
10587SOL    HW132660   6.671   5.001   6.656
10587SOL    HW232661   6.601   4.889   6.752
10588SOL     OW32662   1.679   1.910   4.931
10588SOL    HW132663   1.724   1.890   5.017
10588SOL    HW232664   1.659   2.008   4.925
10589SOL     OW32665   4.833   0.806   4.702
10589SOL    HW132666   4.901   0.835   4.769
10589SOL    HW232667   4.872   0.734   4.644
10590SOL     OW32668   7.002   0.305   0.438
10590SOL    HW132669   6.919   0.317   0.493
10590SOL    HW232670   0.032   0.228   0.475
10591SOL     OW32671   2.455   2.279   0.517
10591SOL    HW132672   2.510   2.317   0.591
10591SOL    HW232673   2.503   2.290   0.430
10592SOL     OW32674   5.387   4.030   4.120
10592SOL    HW132675   5.398   4.047   4.022
10592SOL    HW232676   5.463   4.073   4.170
10593SOL     OW32677   3.227   5.999   0.964
10593SOL    HW132678   3.147   5.962   0.916
10593SOL    HW232679   3.225   6.099   0.959
10594SOL     OW32680   4.843   1.831   2.016
10594SOL    HW132681   4.756   1.825   2.066
10594SOL    HW232682   4.919   1.819   2.080
10595SOL     OW32683   5.794   0.072   0.285
10595SOL    HW132684   5.757   7.003   0.301
10595SOL    HW232685   5.731   0.140   0.322
10596SOL     OW32686   4.352   0.955   0.242
10596SOL    HW132687   4.431   0.915   0.196
10596SOL    HW232688   4.330   1.043   0.200
10597SOL     OW32689   3.388   1.555   5.917
10597SOL    HW132690   3.348   1.517   6.001
10597SOL    HW232691   3.422   1.480   5.860
10598SOL     OW32692   3.750   2.617   6.974
10598SOL    HW132693   3.689   2.693   6.996
10598SOL    HW232694   3.841   2.653   6.952
10599SOL     OW32695   5.665   3.576   6.801
10599SOL    HW132696   5.736   3.646   6.802
10599SOL    HW232697   5.628   3.567   6.708
10600SOL     OW32698   3.213   2.540   1.613
10600SOL    HW132699   3.153   2.597   1.669
10600SOL    HW232700   3.158   2.476   1.559
10601SOL     OW32701   1.232   4.698   5.555
10601SOL    HW132702   1.259   4.778   5.501
10601SOL    HW232703   1.312   4.642   5.575
10602SOL     OW32704   1.037   1.527   1.396
10602SOL    HW132705   1.070   1.445   1.350
10602SOL    HW232706   1.102   1.553   1.468
10603SOL     OW32707   4.154   0.030   3.362
10603SOL    HW132708   4.198   0.115   3.392
10603SOL    HW232709   4.223   6.993   3.319
10604SOL     OW32710   6.564   5.154   5.220
10604SOL    HW132711   6.656   5.155   5.181
10604SOL    HW232712   6.525   5.246   5.217
10605SOL     OW32713   2.017   6.605   6.973
10605SOL    HW132714   1.997   6.679   0.013
10605SOL    HW232715   1.931   6.562   6.943
10606SOL     OW32716   7.008   0.954   1.057
10606SOL    HW132717   0.058   0.914   1.002
10606SOL    HW232718   0.023   0.997   1.138
10607SOL     OW32719   4.112   4.820   6.968
10607SOL    HW132720   4.210   4.806   6.958
10607SOL    HW232721   4.066   4.731   6.978
10608SOL     OW32722   0.132   3.657   4.309
10608SOL    HW132723   0.221   3.621   4.341
10608SOL    HW232724   0.147   3.720   4.233
10609SOL     OW32725   3.069   6.632   6.670
10609SOL    HW132726   3.090   6.554   6.613
10609SOL    HW232727   3.120   6.625   6.756
10610SOL     OW32728   0.491   2.164   3.828
10610SOL    HW132729   0.421   2.197   3.890
10610SOL    HW232730   0.455   2.162   3.735
10611SOL     OW32731   2.980   4.456   6.707
10611SOL    HW132732   2.946   4.434   6.615
10611SOL    HW232733   3.044   4.386   6.736
10612SOL     OW32734   4.958   2.043   4.273
10612SOL    HW132735   5.052   2.070   4.250
10612SOL    HW232736   4.954   2.021   4.371
10613SOL     OW32737   6.385   5.832   5.839
10613SOL    HW132738   6.403   5.832   5.741
10613SOL    HW232739   6.322   5.758   5.861
10614SOL     OW32740   4.948   1.420   4.080
10614SOL    HW132741   4.988   1.464   4.160
10614SOL    HW232742   5.020   1.381   4.023
10615SOL     OW32743   3.511   1.206   6.070
10615SOL    HW132744   3.541   1.167   5.983
10615SOL    HW232745   3.589   1.246   6.118
10616SOL     OW32746   3.230   6.580   6.897
10616SOL    HW132747   3.257   6.484   6.902
10616SOL    HW232748   3.169   6.602   6.974
10617SOL     OW32749   3.112   4.104   1.544
10617SOL    HW132750   3.045   4.158   1.594
10617SOL    HW232751   3.106   4.125   1.446
10618SOL     OW32752   1.270   4.294   6.033
10618SOL    HW132753   1.288   4.374   5.975
10618SOL    HW232754   1.350   4.235   6.034
10619SOL     OW32755   0.048   3.001   3.844
10619SOL    HW132756   7.023   2.950   3.773
10619SOL    HW232757   0.067   3.094   3.812
10620SOL     OW32758   1.089   0.051   4.700
10620SOL    HW132759   1.124   6.994   4.749
10620SOL    HW232760   1.083   0.031   4.602
10621SOL     OW32761   0.907   4.891   1.925
10621SOL    HW132762   1.001   4.908   1.896
10621SOL    HW232763   0.892   4.793   1.936
10622SOL     OW32764   4.652   2.055   2.407
10622SOL    HW132765   4.644   2.153   2.424
10622SOL    HW232766   4.637   2.005   2.492
10623SOL     OW32767   6.463   5.178   5.849
10623SOL    HW132768   6.410   5.120   5.788
10623SOL    HW232769   6.516   5.121   5.911
10624SOL     OW32770   0.564   2.597   5.682
10624SOL    HW132771   0.564   2.568   5.587
10624SOL    HW232772   0.546   2.518   5.741
10625SOL     OW32773   0.977   4.174   1.153
10625SOL    HW132774   0.980   4.074   1.161
10625SOL    HW232775   0.884   4.202   1.131
10626SOL     OW32776   3.601   2.820   0.759
10626SOL    HW132777   3.578   2.742   0.701
10626SOL    HW232778   3.518   2.869   0.784
10627SOL     OW32779   5.815   1.693   0.082
10627SOL    HW132780   5.872   1.621   0.121
10627SOL    HW232781   5.776   1.662   7.019
10628SOL     OW32782   4.381   6.538   1.092
10628SOL    HW132783   4.403   6.448   1.129
10628SOL    HW232784   4.453   6.603   1.118
10629SOL     OW32785   2.644   4.937   4.435
10629SOL    HW132786   2.604   4.878   4.505
10629SOL    HW232787   2.670   4.882   4.355
10630SOL     OW32788   6.434   1.736   2.754
10630SOL    HW132789   6.502   1.798   2.792
10630SOL    HW232790   6.480   1.653   2.720
10631SOL     OW32791   3.995   4.713   5.241
10631SOL    HW132792   3.907   4.743   5.277
10631SOL    HW232793   4.068   4.743   5.303
10632SOL     OW32794   5.426   6.586   3.412
10632SOL    HW132795   5.359   6.517   3.439
10632SOL    HW232796   5.380   6.659   3.363
10633SOL     OW32797   2.815   2.660   1.507
10633SOL    HW132798   2.740   2.674   1.573
10633SOL    HW232799   2.794   2.581   1.450
10634SOL     OW32800   2.260   4.892   0.683
10634SOL    HW132801   2.207   4.919   0.764
10634SOL    HW232802   2.209   4.823   0.632
10635SOL     OW32803   1.891   3.495   6.696
10635SOL    HW132804   1.833   3.440   6.756
10635SOL    HW232805   1.962   3.437   6.656
10636SOL     OW32806   0.712   2.287   1.009
10636SOL    HW132807   0.809   2.307   1.019
10636SOL    HW232808   0.670   2.351   0.945
10637SOL     OW32809   0.952   4.949   5.925
10637SOL    HW132810   0.981   4.980   6.015
10637SOL    HW232811   0.866   4.994   5.900
10638SOL     OW32812   5.531   5.910   2.825
10638SOL    HW132813   5.509   5.818   2.792
10638SOL    HW232814   5.504   5.977   2.757
10639SOL     OW32815   1.438   3.736   2.813
10639SOL    HW132816   1.519   3.692   2.852
10639SOL    HW232817   1.449   3.835   2.816
10640SOL     OW32818   4.420   0.049   3.609
10640SOL    HW132819   4.328   0.026   3.641
10640SOL    HW232820   4.486   0.034   3.682
10641SOL     OW32821   2.274   1.668   2.039
10641SOL    HW132822   2.191   1.696   2.088
10641SOL    HW232823   2.354   1.703   2.087
10642SOL     OW32824   6.599   1.757   0.920
10642SOL    HW132825   6.558   1.694   0.986
10642SOL    HW232826   6.693   1.729   0.901
10643SOL     OW32827   2.500   5.773   4.523
10643SOL    HW132828   2.473   5.859   4.478
10643SOL    HW232829   2.426   5.707   4.515
10644SOL     OW32830   5.741   2.894   1.153
10644SOL    HW132831   5.736   2.984   1.195
10644SOL    HW232832   5.725   2.823   1.222
10645SOL     OW32833   1.744   2.827   4.200
10645SOL    HW132834   1.662   2.867   4.160
10645SOL    HW232835   1.794   2.777   4.130
10646SOL     OW32836   0.531   6.896   5.971
10646SOL    HW132837   0.599   6.950   5.921
10646SOL    HW232838   0.487   6.831   5.909
10647SOL     OW32839   3.253   5.747   4.216
10647SOL    HW132840   3.181   5.699   4.267
10647SOL    HW232841   3.341   5.702   4.232
10648SOL     OW32842   5.663   4.754   6.252
10648SOL    HW132843   5.688   4.847   6.225
10648SOL    HW232844   5.680   4.742   6.349
10649SOL     OW32845   0.484   4.299   2.850
10649SOL    HW132846   0.520   4.208   2.868
10649SOL    HW232847   0.536   4.367   2.901
10650SOL     OW32848   0.923   6.968   4.079
10650SOL    HW132849   0.975   6.890   4.044
10650SOL    HW232850   0.984   0.024   4.091
10651SOL     OW32851   5.987   6.572   6.882
10651SOL    HW132852   6.073   6.548   6.836
10651SOL    HW232853   5.920   6.499   6.867
10652SOL     OW32854   2.983   6.350   5.880
10652SOL    HW132855   2.949   6.301   5.800
10652SOL    HW232856   2.907   6.393   5.928
10653SOL     OW32857   4.088   5.622   4.638
10653SOL    HW132858   4.064   5.583   4.549
10653SOL    HW232859   4.061   5.718   4.642
10654SOL     OW32860   5.143   0.444   6.698
10654SOL    HW132861   5.137   0.362   6.642
10654SOL    HW232862   5.226   0.441   6.754
10655SOL     OW32863   2.360   5.712   0.422
10655SOL    HW132864   2.297   5.788   0.442
10655SOL    HW232865   2.387   5.716   0.326
10656SOL     OW32866   0.411   1.823   2.490
10656SOL    HW132867   0.332   1.781   2.535
10656SOL    HW232868   0.491   1.817   2.550
10657SOL     OW32869   6.024   0.074   5.153
10657SOL    HW132870   6.060   0.159   5.190
10657SOL    HW232871   5.947   0.043   5.210
10658SOL     OW32872   6.865   4.548   4.667
10658SOL    HW132873   6.787   4.563   4.606
10658SOL    HW232874   6.844   4.474   4.730
10659SOL     OW32875   0.922   5.587   0.845
10659SOL    HW132876   0.983   5.510   0.828
10659SOL    HW232877   0.902   5.593   0.943
10660SOL     OW32878   5.160   3.735   6.257
10660SOL    HW132879   5.259   3.742   6.245
10660SOL    HW232880   5.140   3.666   6.326
10661SOL     OW32881   0.764   0.267   1.305
10661SOL    HW132882   0.686   0.293   1.362
10661SOL    HW232883   0.808   0.350   1.271
10662SOL     OW32884   4.794   0.334   2.364
10662SOL    HW132885   4.738   0.301   2.440
10662SOL    HW232886   4.830   0.425   2.385
10663SOL     OW32887   0.827   1.980   2.490
10663SOL    HW132888   0.774   1.927   2.424
10663SOL    HW232889   0.796   2.076   2.489
10664SOL     OW32890   6.002   4.384   4.930
10664SOL    HW132891   6.026   4.341   5.017
10664SOL    HW232892   5.969   4.314   4.866
10665SOL     OW32893   0.715   1.783   0.079
10665SOL    HW132894   0.730   1.810   7.008
10665SOL    HW232895   0.711   1.864   0.137
10666SOL     OW32896   3.560   3.693   1.678
10666SOL    HW132897   3.578   3.608   1.727
10666SOL    HW232898   3.647   3.734   1.648
10667SOL     OW32899   4.811   2.443   3.886
10667SOL    HW132900   4.768   2.411   3.970
10667SOL    HW232901   4.782   2.385   3.810
10668SOL     OW32902   2.710   1.207   5.171
10668SOL    HW132903   2.714   1.113   5.139
10668SOL    HW232904   2.803   1.244   5.177
10669SOL     OW32905   5.655   0.220   1.570
10669SOL    HW132906   5.621   0.138   1.524
10669SOL    HW232907   5.577   0.277   1.598
10670SOL     OW32908   5.540   5.167   5.238
10670SOL    HW132909   5.583   5.256   5.225
10670SOL    HW232910   5.448   5.168   5.200
10671SOL     OW32911   2.064   2.048   3.854
10671SOL    HW132912   2.080   2.116   3.783
10671SOL    HW232913   1.969   2.051   3.883
10672SOL     OW32914   6.208   4.141   1.877
10672SOL    HW132915   6.253   4.065   1.924
10672SOL    HW232916   6.242   4.146   1.783
10673SOL     OW32917   0.637   0.791   6.947
10673SOL    HW132918   0.602   0.858   6.882
10673SOL    HW232919   0.583   0.707   6.942
10674SOL     OW32920   3.729   3.753   3.052
10674SOL    HW132921   3.801   3.715   2.995
10674SOL    HW232922   3.730   3.707   3.142
10675SOL     OW32923   1.862   6.810   0.093
10675SOL    HW132924   1.850   6.829   7.019
10675SOL    HW232925   1.774   6.817   0.140
10676SOL     OW32926   6.556   5.822   5.288
10676SOL    HW132927   6.539   5.887   5.362
10676SOL    HW232928   6.490   5.837   5.215
10677SOL     OW32929   1.486   0.927   1.155
10677SOL    HW132930   1.487   0.984   1.237
10677SOL    HW232931   1.495   0.984   1.074
10678SOL     OW32932   4.739   5.740   4.329
10678SOL    HW132933   4.684   5.675   4.382
10678SOL    HW232934   4.686   5.773   4.251
10679SOL     OW32935   4.578   5.557   6.792
10679SOL    HW132936   4.614   5.630   6.849
10679SOL    HW232937   4.595   5.577   6.696
10680SOL     OW32938   4.049   1.822   4.537
10680SOL    HW132939   4.144   1.800   4.515
10680SOL    HW232940   4.030   1.917   4.513
10681SOL     OW32941   1.063   3.989   0.732
10681SOL    HW132942   1.129   4.058   0.702
10681SOL    HW232943   1.105   3.899   0.727
10682SOL     OW32944   0.596   1.184   5.371
10682SOL    HW132945   0.683   1.135   5.379
10682SOL    HW232946   0.532   1.129   5.317
10683SOL     OW32947   4.671   1.870   3.853
10683SOL    HW132948   4.709   1.810   3.923
10683SOL    HW232949   4.574   1.886   3.871
10684SOL     OW32950   5.072   4.880   2.993
10684SOL    HW132951   5.142   4.861   3.062
10684SOL    HW232952   5.110   4.865   2.902
10685SOL     OW32953   0.899   5.726   1.688
10685SOL    HW132954   0.891   5.754   1.784
10685SOL    HW232955   0.992   5.693   1.670
10686SOL     OW32956   1.020   4.394   5.703
10686SOL    HW132957   0.959   4.457   5.751
10686SOL    HW232958   0.982   4.302   5.704
10687SOL     OW32959   5.835   5.296   3.548
10687SOL    HW132960   5.842   5.352   3.631
10687SOL    HW232961   5.905   5.224   3.551
10688SOL     OW32962   6.652   3.521   2.025
10688SOL    HW132963   6.711   3.449   1.989
10688SOL    HW232964   6.633   3.503   2.121
10689SOL     OW32965   0.010   6.398   3.472
10689SOL    HW132966   6.959   6.359   3.417
10689SOL    HW232967   0.022   6.344   3.555
10690SOL     OW32968   6.912   5.648   4.203
10690SOL    HW132969   6.836   5.599   4.245
10690SOL    HW232970   6.880   5.738   4.171
10691SOL     OW32971   0.865   2.768   2.162
10691SOL    HW132972   0.856   2.753   2.260
10691SOL    HW232973   0.809   2.702   2.113
10692SOL     OW32974   3.292   6.162   3.466
10692SOL    HW132975   3.326   6.223   3.538
10692SOL    HW232976   3.302   6.067   3.495
10693SOL     OW32977   2.101   6.182   0.127
10693SOL    HW132978   2.165   6.188   0.051
10693SOL    HW232979   2.012   6.217   0.098
10694SOL     OW32980   5.576   6.990   1.509
10694SOL    HW132981   5.663   6.951   1.478
10694SOL    HW232982   5.501   6.954   1.454
10695SOL     OW32983   6.961   2.495   2.539
10695SOL    HW132984   7.002   2.506   2.449
10695SOL    HW232985   0.007   2.511   2.609
10696SOL     OW32986   0.396   4.092   3.757
10696SOL    HW132987   0.356   4.156   3.692
10696SOL    HW232988   0.471   4.137   3.806
10697SOL     OW32989   6.790   5.692   4.967
10697SOL    HW132990   6.807   5.603   5.010
10697SOL    HW232991   6.847   5.761   5.011
10698SOL     OW32992   5.088   4.383   6.016
10698SOL    HW132993   5.118   4.339   6.100
10698SOL    HW232994   5.029   4.461   6.039
10699SOL     OW32995   4.053   3.916   2.086
10699SOL    HW132996   3.976   3.902   2.149
10699SOL    HW232997   4.075   4.013   2.081
10700SOL     OW32998   6.666   6.633   1.039
10700SOL    HW132999   6.626   6.700   1.102
10700SOL    HW233000   6.593   6.580   0.996
10701SOL     OW33001   3.280   6.311   6.903
10701SOL    HW133002   3.257   6.216   6.882
10701SOL    HW233003   3.374   6.330   6.875
10702SOL     OW33004   5.904   2.670   1.521
10702SOL    HW133005   5.885   2.633   1.430
10702SOL    HW233006   5.951   2.601   1.576
10703SOL     OW33007   3.081   3.026   5.042
10703SOL    HW133008   3.169   3.073   5.037
10703SOL    HW233009   3.089   2.946   5.101
10704SOL     OW33010   6.067   6.026   1.547
10704SOL    HW133011   6.131   6.093   1.510
10704SOL    HW233012   5.994   6.073   1.597
10705SOL     OW33013   5.704   4.781   2.384
10705SOL    HW133014   5.795   4.748   2.359
10705SOL    HW233015   5.666   4.725   2.457
10706SOL     OW33016   5.237   6.907   2.112
10706SOL    HW133017   5.185   6.848   2.050
10706SOL    HW233018   5.251   6.996   2.068
10707SOL     OW33019   0.041   7.021   4.418
10707SOL    HW133020   0.132   0.003   4.377
10707SOL    HW233021   7.006   6.962   4.363
10708SOL     OW33022   4.025   0.574   2.068
10708SOL    HW133023   4.082   0.622   2.001
10708SOL    HW233024   3.930   0.605   2.060
10709SOL     OW33025   5.744   5.753   5.345
10709SOL    HW133026   5.829   5.805   5.352
10709SOL    HW233027   5.666   5.816   5.343
10710SOL     OW33028   0.060   0.037   4.670
10710SOL    HW133029   0.157   0.030   4.692
10710SOL    HW233030   0.047   0.024   4.572
10711SOL     OW33031   1.664   6.670   4.126
10711SOL    HW133032   1.656   6.764   4.093
10711SOL    HW233033   1.738   6.623   4.077
10712SOL     OW33034   3.203   0.708   1.901
10712SOL    HW133035   3.154   0.654   1.832
10712SOL    HW233036   3.269   0.767   1.855
10713SOL     OW33037   0.503   3.557   1.616
10713SOL    HW133038   0.566   3.635   1.616
10713SOL    HW233039   0.555   3.473   1.600
10714SOL     OW33040   6.374   4.032   5.039
10714SOL    HW133041   6.400   4.066   4.949
10714SOL    HW233042   6.289   3.979   5.031
10715SOL     OW33043   4.809   0.784   2.421
10715SOL    HW133044   4.803   0.697   2.470
10715SOL    HW233045   4.738   0.846   2.455
10716SOL     OW33046   5.688   2.219   4.121
10716SOL    HW133047   5.716   2.289   4.055
10716SOL    HW233048   5.768   2.179   4.163
10717SOL     OW33049   1.253   2.165   0.962
10717SOL    HW133050   1.252   2.121   1.051
10717SOL    HW233051   1.164   2.151   0.917
10718SOL     OW33052   1.139   2.833   6.396
10718SOL    HW133053   1.237   2.850   6.387
10718SOL    HW233054   1.113   2.838   6.492
10719SOL     OW33055   6.280   5.569   2.147
10719SOL    HW133056   6.244   5.502   2.212
10719SOL    HW233057   6.378   5.553   2.134
10720SOL     OW33058   0.645   4.087   4.944
10720SOL    HW133059   0.561   4.140   4.938
10720SOL    HW233060   0.668   4.051   4.853
10721SOL     OW33061   5.603   4.424   4.695
10721SOL    HW133062   5.510   4.435   4.659
10721SOL    HW233063   5.599   4.418   4.795
10722SOL     OW33064   1.066   5.328   0.517
10722SOL    HW133065   1.132   5.367   0.452
10722SOL    HW233066   1.004   5.267   0.468
10723SOL     OW33067   0.593   3.976   6.105
10723SOL    HW133068   0.627   4.065   6.075
10723SOL    HW233069   0.603   3.910   6.031
10724SOL     OW33070   5.463   0.959   6.998
10724SOL    HW133071   5.490   1.023   0.047
10724SOL    HW233072   5.506   0.870   7.015
10725SOL     OW33073   0.783   5.241   4.621
10725SOL    HW133074   0.786   5.207   4.527
10725SOL    HW233075   0.695   5.216   4.662
10726SOL     OW33076   5.148   0.254   5.549
10726SOL    HW133077   5.199   0.185   5.497
10726SOL    HW233078   5.175   0.346   5.519
10727SOL     OW33079   0.210   5.036   4.525
10727SOL    HW133080   0.221   4.942   4.556
10727SOL    HW233081   0.294   5.066   4.478
10728SOL     OW33082   6.911   6.427   0.308
10728SOL    HW133083   6.835   6.376   0.268
10728SOL    HW233084   6.924   6.398   0.403
10729SOL     OW33085   5.322   1.536   1.790
10729SOL    HW133086   5.262   1.612   1.766
10729SOL    HW233087   5.415   1.570   1.806
10730SOL     OW33088   1.897   0.257   1.705
10730SOL    HW133089   1.898   0.356   1.692
10730SOL    HW233090   1.803   0.225   1.714
10731SOL     OW33091   3.167   6.349   0.505
10731SOL    HW133092   3.198   6.268   0.455
10731SOL    HW233093   3.094   6.323   0.568
10732SOL     OW33094   5.214   4.726   3.423
10732SOL    HW133095   5.221   4.776   3.337
10732SOL    HW233096   5.121   4.734   3.459
10733SOL     OW33097   6.469   2.430   0.190
10733SOL    HW133098   6.475   2.362   0.116
10733SOL    HW233099   6.506   2.517   0.158
10734SOL     OW33100   0.825   0.554   6.625
10734SOL    HW133101   0.901   0.522   6.569
10734SOL    HW233102   0.776   0.626   6.576
10735SOL     OW33103   1.548   3.133   3.174
10735SOL    HW133104   1.545   3.105   3.079
10735SOL    HW233105   1.620   3.202   3.186
10736SOL     OW33106   1.420   0.257   3.350
10736SOL    HW133107   1.400   0.242   3.253
10736SOL    HW233108   1.340   0.299   3.394
10737SOL     OW33109   1.950   1.947   6.930
10737SOL    HW133110   1.858   1.913   6.911
10737SOL    HW233111   1.962   1.958   0.005
10738SOL     OW33112   2.552   0.657   3.885
10738SOL    HW133113   2.588   0.574   3.928
10738SOL    HW233114   2.624   0.698   3.829
10739SOL     OW33115   0.438   1.529   0.771
10739SOL    HW133116   0.497   1.458   0.733
10739SOL    HW233117   0.444   1.527   0.871
10740SOL     OW33118   0.540   4.691   5.482
10740SOL    HW133119   0.475   4.734   5.419
10740SOL    HW233120   0.559   4.753   5.558
10741SOL     OW33121   0.081   6.915   2.118
10741SOL    HW133122   0.040   6.826   2.097
10741SOL    HW233123   0.015   6.988   2.096
10742SOL     OW33124   6.029   0.757   1.993
10742SOL    HW133125   6.127   0.776   1.993
10742SOL    HW233126   5.987   0.791   1.909
10743SOL     OW33127   3.252   2.273   5.660
10743SOL    HW133128   3.312   2.245   5.735
10743SOL    HW233129   3.307   2.282   5.576
10744SOL     OW33130   3.455   0.810   1.800
10744SOL    HW133131   3.424   0.789   1.708
10744SOL    HW233132   3.555   0.800   1.804
10745SOL     OW33133   0.730   5.246   0.265
10745SOL    HW133134   0.666   5.192   0.319
10745SOL    HW233135   0.726   5.217   0.169
10746SOL     OW33136   1.603   3.950   1.312
10746SOL    HW133137   1.556   3.866   1.285
10746SOL    HW233138   1.664   3.979   1.238
10747SOL     OW33139   3.998   0.726   2.953
10747SOL    HW133140   3.998   0.754   2.857
10747SOL    HW233141   4.072   0.661   2.968
10748SOL     OW33142   3.914   0.645   1.590
10748SOL    HW133143   3.876   0.571   1.646
10748SOL    HW233144   4.011   0.656   1.612
10749SOL     OW33145   6.837   5.229   3.249
10749SOL    HW133146   6.925   5.266   3.276
10749SOL    HW233147   6.850   5.145   3.197
10750SOL     OW33148   4.646   6.108   4.568
10750SOL    HW133149   4.746   6.099   4.570
10750SOL    HW233150   4.604   6.026   4.607
10751SOL     OW33151   1.621   4.867   4.155
10751SOL    HW133152   1.705   4.885   4.103
10751SOL    HW233153   1.602   4.769   4.155
10752SOL     OW33154   5.944   4.503   6.392
10752SOL    HW133155   5.939   4.602   6.378
10752SOL    HW233156   6.031   4.469   6.354
10753SOL     OW33157   4.171   6.831   4.292
10753SOL    HW133158   4.264   6.796   4.284
10753SOL    HW233159   4.150   6.844   4.389
10754SOL     OW33160   1.343   1.430   3.581
10754SOL    HW133161   1.276   1.503   3.573
10754SOL    HW233162   1.369   1.418   3.676
10755SOL     OW33163   0.381   1.510   6.528
10755SOL    HW133164   0.434   1.594   6.520
10755SOL    HW233165   0.299   1.527   6.583
10756SOL     OW33166   6.649   4.114   0.652
10756SOL    HW133167   6.668   4.058   0.571
10756SOL    HW233168   6.664   4.060   0.735
10757SOL     OW33169   1.424   2.713   0.128
10757SOL    HW133170   1.465   2.796   0.167
10757SOL    HW233171   1.434   2.637   0.193
10758SOL     OW33172   0.691   6.749   4.540
10758SOL    HW133173   0.628   6.763   4.464
10758SOL    HW233174   0.642   6.709   4.618
10759SOL     OW33175   1.780   2.814   0.259
10759SOL    HW133176   1.689   2.829   0.296
10759SOL    HW233177   1.802   2.886   0.193
10760SOL     OW33178   6.294   1.756   1.373
10760SOL    HW133179   6.270   1.677   1.429
10760SOL    HW233180   6.211   1.795   1.332
10761SOL     OW33181   0.937   1.602   6.441
10761SOL    HW133182   0.955   1.525   6.502
10761SOL    HW233183   0.996   1.594   6.360
10762SOL     OW33184   3.905   2.110   4.882
10762SOL    HW133185   3.938   2.023   4.918
10762SOL    HW233186   3.877   2.169   4.958
10763SOL     OW33187   4.690   6.259   1.709
10763SOL    HW133188   4.680   6.230   1.804
10763SOL    HW233189   4.787   6.263   1.685
10764SOL     OW33190   5.636   2.235   5.929
10764SOL    HW133191   5.656   2.309   5.865
10764SOL    HW233192   5.634   2.271   6.022
10765SOL     OW33193   5.287   2.558   0.560
10765SOL    HW133194   5.316   2.509   0.642
10765SOL    HW233195   5.253   2.649   0.585
10766SOL     OW33196   5.094   3.220   1.106
10766SOL    HW133197   5.137   3.307   1.082
10766SOL    HW233198   5.148   3.176   1.179
10767SOL     OW33199   0.820   0.699   0.397
10767SOL    HW133200   0.810   0.792   0.435
10767SOL    HW233201   0.915   0.671   0.404
10768SOL     OW33202   4.552   4.252   1.167
10768SOL    HW133203   4.510   4.162   1.154
10768SOL    HW233204   4.651   4.241   1.175
10769SOL     OW33205   2.526   4.746   4.671
10769SOL    HW133206   2.621   4.744   4.701
10769SOL    HW233207   2.510   4.672   4.605
10770SOL     OW33208   5.624   0.372   4.860
10770SOL    HW133209   5.527   0.392   4.876
10770SOL    HW233210   5.634   0.276   4.833
10771SOL     OW33211   5.011   0.909   3.121
10771SOL    HW133212   5.000   0.826   3.067
10771SOL    HW233213   5.052   0.887   3.210
10772SOL     OW33214   6.923   6.921   4.838
10772SOL    HW133215   6.977   6.842   4.869
10772SOL    HW233216   6.969   6.964   4.761
10773SOL     OW33217   6.724   5.606   6.825
10773SOL    HW133218   6.717   5.692   6.777
10773SOL    HW233219   6.798   5.551   6.785
10774SOL     OW33220   1.619   0.996   6.799
10774SOL    HW133221   1.545   0.997   6.866
10774SOL    HW233222   1.707   0.995   6.846
10775SOL     OW33223   0.724   3.827   1.064
10775SOL    HW133224   0.703   3.770   0.985
10775SOL    HW233225   0.667   3.799   1.142
10776SOL     OW33226   1.313   6.175   6.402
10776SOL    HW133227   1.342   6.169   6.307
10776SOL    HW233228   1.222   6.135   6.412
10777SOL     OW33229   3.652   6.189   3.244
10777SOL    HW133230   3.587   6.173   3.170
10777SOL    HW233231   3.709   6.268   3.222
10778SOL     OW33232   5.609   6.575   4.869
10778SOL    HW133233   5.694   6.542   4.829
10778SOL    HW233234   5.542   6.501   4.873
10779SOL     OW33235   6.662   5.266   3.480
10779SOL    HW133236   6.740   5.271   3.543
10779SOL    HW233237   6.682   5.319   3.398
10780SOL     OW33238   1.664   0.442   3.693
10780SOL    HW133239   1.742   0.407   3.745
10780SOL    HW233240   1.689   0.451   3.597
10781SOL     OW33241   4.089   0.416   3.408
10781SOL    HW133242   4.178   0.442   3.444
10781SOL    HW233243   4.101   0.345   3.339
10782SOL     OW33244   5.858   1.935   2.624
10782SOL    HW133245   5.808   1.946   2.710
10782SOL    HW233246   5.793   1.921   2.549
10783SOL     OW33247   0.641   3.535   3.049
10783SOL    HW133248   0.711   3.476   3.090
10783SOL    HW233249   0.554   3.487   3.047
10784SOL     OW33250   3.774   0.656   4.085
10784SOL    HW133251   3.734   0.681   4.173
10784SOL    HW233252   3.701   0.634   4.020
10785SOL     OW33253   0.112   5.543   1.864
10785SOL    HW133254   0.140   5.546   1.960
10785SOL    HW233255   0.167   5.475   1.816
10786SOL     OW33256   4.819   4.486   2.814
10786SOL    HW133257   4.782   4.446   2.898
10786SOL    HW233258   4.855   4.578   2.834
10787SOL     OW33259   2.353   1.670   4.653
10787SOL    HW133260   2.402   1.709   4.575
10787SOL    HW233261   2.414   1.608   4.703
10788SOL     OW33262   2.236   5.157   6.237
10788SOL    HW133263   2.308   5.121   6.178
10788SOL    HW233264   2.268   5.239   6.284
10789SOL     OW33265   6.423   2.659   6.646
10789SOL    HW133266   6.460   2.626   6.733
10789SOL    HW233267   6.498   2.672   6.581
10790SOL     OW33268   1.544   1.307   1.876
10790SOL    HW133269   1.527   1.243   1.800
10790SOL    HW233270   1.514   1.265   1.962
10791SOL     OW33271   0.570   6.779   0.075
10791SOL    HW133272   0.566   6.830   7.013
10791SOL    HW233273   0.499   6.812   0.137
10792SOL     OW33274   3.370   3.314   3.646
10792SOL    HW133275   3.336   3.240   3.588
10792SOL    HW233276   3.469   3.304   3.659
10793SOL     OW33277   5.985   3.523   4.353
10793SOL    HW133278   5.899   3.568   4.328
10793SOL    HW233279   6.044   3.516   4.273
10794SOL     OW33280   3.017   3.719   3.724
10794SOL    HW133281   3.067   3.789   3.775
10794SOL    HW233282   3.065   3.632   3.732
10795SOL     OW33283   6.959   4.235   2.711
10795SOL    HW133284   6.983   4.309   2.648
10795SOL    HW233285   6.861   4.240   2.732
10796SOL     OW33286   5.718   6.824   0.396
10796SOL    HW133287   5.656   6.877   0.454
10796SOL    HW233288   5.671   6.800   0.311
10797SOL     OW33289   4.190   2.438   1.403
10797SOL    HW133290   4.206   2.348   1.445
10797SOL    HW233291   4.103   2.437   1.354
10798SOL     OW33292   2.933   6.419   0.240
10798SOL    HW133293   3.002   6.441   0.309
10798SOL    HW233294   2.978   6.403   0.152
10799SOL     OW33295   3.796   0.752   2.365
10799SOL    HW133296   3.734   0.777   2.439
10799SOL    HW233297   3.840   0.835   2.329
10800SOL     OW33298   0.377   6.829   6.459
10800SOL    HW133299   0.319   6.792   6.386
10800SOL    HW233300   0.451   6.765   6.478
10801SOL     OW33301   0.481   5.962   6.320
10801SOL    HW133302   0.500   5.895   6.248
10801SOL    HW233303   0.535   6.045   6.304
10802SOL     OW33304   0.585   2.140   3.065
10802SOL    HW133305   0.616   2.207   3.132
10802SOL    HW233306   0.496   2.167   3.030
10803SOL     OW33307   3.034   3.895   5.667
10803SOL    HW133308   2.965   3.850   5.610
10803SOL    HW233309   3.014   3.993   5.671
10804SOL     OW33310   5.842   3.640   1.915
10804SOL    HW133311   5.743   3.638   1.905
10804SOL    HW233312   5.885   3.589   1.841
10805SOL     OW33313   4.107   0.238   0.062
10805SOL    HW133314   4.049   0.286   0.128
10805SOL    HW233315   4.082   0.142   0.058
10806SOL     OW33316   4.709   3.660   6.184
10806SOL    HW133317   4.779   3.589   6.177
10806SOL    HW233318   4.742   3.735   6.241
10807SOL     OW33319   1.146   6.871   2.160
10807SOL    HW133320   1.106   6.947   2.210
10807SOL    HW233321   1.230   6.841   2.206
10808SOL     OW33322   6.431   3.234   6.522
10808SOL    HW133323   6.496   3.239   6.599
10808SOL    HW233324   6.476   3.266   6.439
10809SOL     OW33325   3.349   5.470   3.368
10809SOL    HW133326   3.382   5.436   3.456
10809SOL    HW233327   3.341   5.393   3.304
10810SOL     OW33328   1.602   0.372   4.551
10810SOL    HW133329   1.654   0.294   4.584
10810SOL    HW233330   1.629   0.394   4.457
10811SOL     OW33331   3.706   4.298   5.914
10811SOL    HW133332   3.666   4.327   5.827
10811SOL    HW233333   3.711   4.198   5.916
10812SOL     OW33334   0.960   3.907   1.167
10812SOL    HW133335   0.869   3.891   1.127
10812SOL    HW233336   0.970   3.852   1.249
10813SOL     OW33337   2.056   5.195   6.420
10813SOL    HW133338   2.122   5.268   6.441
10813SOL    HW233339   2.100   5.127   6.362
10814SOL     OW33340   1.749   6.419   6.136
10814SOL    HW133341   1.809   6.339   6.128
10814SOL    HW233342   1.668   6.406   6.079
10815SOL     OW33343   4.277   4.696   3.400
10815SOL    HW133344   4.221   4.746   3.333
10815SOL    HW233345   4.344   4.639   3.352
10816SOL     OW33346   3.100   3.368   1.548
10816SOL    HW133347   3.075   3.465   1.544
10816SOL    HW233348   3.142   3.341   1.461
10817SOL     OW33349   4.782   6.677   3.041
10817SOL    HW133350   4.753   6.756   2.988
10817SOL    HW233351   4.852   6.627   2.991
10818SOL     OW33352   4.169   4.791   5.429
10818SOL    HW133353   4.172   4.890   5.444
10818SOL    HW233354   4.137   4.746   5.513
10819SOL     OW33355   6.447   4.608   6.961
10819SOL    HW133356   6.425   4.511   6.974
10819SOL    HW233357   6.363   4.659   6.948
10820SOL     OW33358   6.137   5.848   4.293
10820SOL    HW133359   6.198   5.834   4.371
10820SOL    HW233360   6.117   5.946   4.284
10821SOL     OW33361   5.989   0.490   2.330
10821SOL    HW133362   5.932   0.566   2.360
10821SOL    HW233363   6.041   0.454   2.408
10822SOL     OW33364   0.008   3.328   3.111
10822SOL    HW133365   0.016   3.416   3.159
10822SOL    HW233366   6.935   3.312   3.088
10823SOL     OW33367   1.379   6.321   1.177
10823SOL    HW133368   1.375   6.396   1.111
10823SOL    HW233369   1.286   6.288   1.196
10824SOL     OW33370   6.931   0.576   3.482
10824SOL    HW133371   6.965   0.536   3.397
10824SOL    HW233372   6.920   0.675   3.469
10825SOL     OW33373   2.408   1.012   6.863
10825SOL    HW133374   2.315   1.029   6.830
10825SOL    HW233375   2.438   1.090   6.917
10826SOL     OW33376   1.431   2.646   3.866
10826SOL    HW133377   1.386   2.578   3.808
10826SOL    HW233378   1.361   2.700   3.914
10827SOL     OW33379   6.368   3.701   4.563
10827SOL    HW133380   6.268   3.695   4.563
10827SOL    HW233381   6.404   3.644   4.489
10828SOL     OW33382   0.979   5.095   0.984
10828SOL    HW133383   0.914   5.163   1.017
10828SOL    HW233384   0.964   5.078   0.886
10829SOL     OW33385   3.782   2.164   1.045
10829SOL    HW133386   3.874   2.127   1.035
10829SOL    HW233387   3.733   2.112   1.115
10830SOL     OW33388   5.796   2.320   2.966
10830SOL    HW133389   5.876   2.357   2.919
10830SOL    HW233390   5.824   2.245   3.026
10831SOL     OW33391   2.932   5.742   2.194
10831SOL    HW133392   2.860   5.756   2.125
10831SOL    HW233393   2.991   5.667   2.165
10832SOL     OW33394   0.867   2.575   6.417
10832SOL    HW133395   0.923   2.504   6.373
10832SOL    HW233396   0.875   2.660   6.366
10833SOL     OW33397   1.457   0.971   2.097
10833SOL    HW133398   1.538   1.030   2.098
10833SOL    HW233399   1.402   0.993   2.016
10834SOL     OW33400   0.917   2.232   0.316
10834SOL    HW133401   0.837   2.235   0.377
10834SOL    HW233402   0.921   2.315   0.262
10835SOL     OW33403   5.966   2.028   6.866
10835SOL    HW133404   5.930   1.935   6.865
10835SOL    HW233405   5.977   2.058   6.961
10836SOL     OW33406   6.556   1.746   5.041
10836SOL    HW133407   6.567   1.798   4.956
10836SOL    HW233408   6.566   1.649   5.023
10837SOL     OW33409   6.934   5.418   1.543
10837SOL    HW133410   6.887   5.347   1.596
10837SOL    HW233411   6.929   5.505   1.593
10838SOL     OW33412   5.434   6.076   4.834
10838SOL    HW133413   5.412   6.063   4.931
10838SOL    HW233414   5.514   6.020   4.811
10839SOL     OW33415   4.308   3.184   1.786
10839SOL    HW133416   4.314   3.283   1.773
10839SOL    HW233417   4.398   3.148   1.813
10840SOL     OW33418   3.205   5.429   2.268
10840SOL    HW133419   3.148   5.460   2.192
10840SOL    HW233420   3.194   5.330   2.280
10841SOL     OW33421   5.389   5.320   6.779
10841SOL    HW133422   5.338   5.357   6.701
10841SOL    HW233423   5.337   5.335   6.863
10842SOL     OW33424   4.926   2.588   1.795
10842SOL    HW133425   4.938   2.646   1.714
10842SOL    HW233426   4.829   2.568   1.807
10843SOL     OW33427   1.427   2.830   1.393
10843SOL    HW133428   1.368   2.811   1.472
10843SOL    HW233429   1.523   2.821   1.421
10844SOL     OW33430   0.159   6.808   3.268
10844SOL    HW133431   0.117   6.738   3.325
10844SOL    HW233432   0.253   6.823   3.296
10845SOL     OW33433   3.402   0.228   5.424
10845SOL    HW133434   3.490   0.258   5.388
10845SOL    HW233435   3.377   0.282   5.504
10846SOL     OW33436   4.708   1.751   0.609
10846SOL    HW133437   4.656   1.721   0.688
10846SOL    HW233438   4.758   1.674   0.570
10847SOL     OW33439   3.782   3.073   6.847
10847SOL    HW133440   3.719   3.140   6.887
10847SOL    HW233441   3.739   3.032   6.767
10848SOL     OW33442   3.460   3.484   6.831
10848SOL    HW133443   3.389   3.544   6.869
10848SOL    HW233444   3.497   3.525   6.748
10849SOL     OW33445   1.915   6.237   2.674
10849SOL    HW133446   1.887   6.203   2.584
10849SOL    HW233447   2.001   6.193   2.702
10850SOL     OW33448   2.864   4.955   6.320
10850SOL    HW133449   2.955   4.978   6.357
10850SOL    HW233450   2.823   4.884   6.377
10851SOL     OW33451   1.737   3.294   6.778
10851SOL    HW133452   1.664   3.312   6.843
10851SOL    HW233453   1.745   3.195   6.763
10852SOL     OW33454   1.133   0.475   6.520
10852SOL    HW133455   1.212   0.424   6.486
10852SOL    HW233456   1.163   0.563   6.557
10853SOL     OW33457   2.077   1.957   5.849
10853SOL    HW133458   2.030   1.939   5.935
10853SOL    HW233459   2.173   1.931   5.858
10854SOL     OW33460   4.126   5.548   4.900
10854SOL    HW133461   4.038   5.563   4.946
10854SOL    HW233462   4.113   5.557   4.801
10855SOL     OW33463   2.761   6.944   0.644
10855SOL    HW133464   2.719   6.945   0.734
10855SOL    HW233465   2.756   0.012   0.604
10856SOL     OW33466   5.807   1.495   0.547
10856SOL    HW133467   5.745   1.511   0.470
10856SOL    HW233468   5.802   1.571   0.612
10857SOL     OW33469   6.988   2.762   2.241
10857SOL    HW133470   6.992   2.662   2.242
10857SOL    HW233471   6.929   2.794   2.315
10858SOL     OW33472   0.405   1.841   5.879
10858SOL    HW133473   0.355   1.920   5.845
10858SOL    HW233474   0.358   1.803   5.958
10859SOL     OW33475   2.098   3.439   4.297
10859SOL    HW133476   2.107   3.456   4.199
10859SOL    HW233477   2.081   3.525   4.344
10860SOL     OW33478   6.796   1.681   5.771
10860SOL    HW133479   6.834   1.746   5.836
10860SOL    HW233480   6.762   1.600   5.820
10861SOL     OW33481   3.592   3.465   2.907
10861SOL    HW133482   3.593   3.365   2.910
10861SOL    HW233483   3.670   3.497   2.853
10862SOL     OW33484   2.298   1.796   6.440
10862SOL    HW133485   2.327   1.750   6.523
10862SOL    HW233486   2.343   1.885   6.433
10863SOL     OW33487   3.583   0.814   3.579
10863SOL    HW133488   3.546   0.774   3.495
10863SOL    HW233489   3.661   0.760   3.610
10864SOL     OW33490   2.842   5.155   0.173
10864SOL    HW133491   2.751   5.114   0.184
10864SOL    HW233492   2.908   5.084   0.148
10865SOL     OW33493   6.904   1.390   2.738
10865SOL    HW133494   6.875   1.398   2.643
10865SOL    HW233495   6.880   1.300   2.773
10866SOL     OW33496   5.002   4.904   0.367
10866SOL    HW133497   4.943   4.955   0.304
10866SOL    HW233498   4.988   4.806   0.353
10867SOL     OW33499   3.744   3.465   0.541
10867SOL    HW133500   3.772   3.516   0.459
10867SOL    HW233501   3.764   3.520   0.622
10868SOL     OW33502   3.566   2.100   4.156
10868SOL    HW133503   3.566   2.169   4.083
10868SOL    HW233504   3.493   2.035   4.140
10869NA      NA33505   0.356   2.196   5.390
10870NA      NA33506   4.301   4.639   5.248
10871NA      NA33507   1.973   4.018   2.496
10872NA      NA33508   4.846   4.021   4.172
10873NA      NA33509   4.403   2.597   5.170
10874NA      NA33510   3.109   4.882   1.763
10875NA      NA33511   0.083   4.226   0.575
10876NA      NA33512   3.118   3.487   3.358
10877NA      NA33513   5.132   5.603   0.901
10878NA      NA33514   3.588   6.649   5.589
10879NA      NA33515   6.024   5.560   1.614
10880NA      NA33516   2.135   0.839   4.482
10881NA      NA33517   3.762   5.062   2.022
10882NA      NA33518   4.031   3.578   1.769
   7.02327   7.02327   7.02327
