Generated by trjconv : CNT in water t= 202.00000
33518
    1C        C    1   2.847   2.770   4.746
    1C        C    2   2.896   2.721   4.868
    1C        C    3   2.843   2.778   4.985
    1C        C    4   2.850   2.773   4.260
    1C        C    5   2.901   2.724   4.383
    1C        C    6   2.845   2.769   4.505
    1C        C    7   3.013   2.636   4.626
    1C        C    8   2.899   2.718   4.625
    1C        C    9   3.076   2.605   4.748
    1C        C   10   3.008   2.635   4.868
    1C        C   11   3.177   2.486   4.977
    1C        C   12   3.054   2.553   4.973
    1C        C   13   2.847   2.767   3.771
    1C        C   14   2.899   2.718   3.893
    1C        C   15   2.848   2.769   4.014
    1C        C   16   3.014   2.641   4.137
    1C        C   17   2.899   2.723   4.138
    1C        C   18   3.077   2.609   4.259
    1C        C   19   3.015   2.641   4.382
    1C        C   20   3.208   2.554   4.505
    1C        C   21   3.074   2.598   4.503
    1C        C   22   3.275   2.535   4.628
    1C        C   23   3.206   2.547   4.750
    1C        C   24   3.411   2.482   4.864
    1C        C   25   3.270   2.501   4.868
    1C        C   26   3.488   2.486   4.982
    1C        C   27   2.850   2.766   3.281
    1C        C   28   2.905   2.725   3.405
    1C        C   29   2.851   2.771   3.527
    1C        C   30   3.015   2.637   3.649
    1C        C   31   2.903   2.723   3.649
    1C        C   32   3.077   2.601   3.771
    1C        C   33   3.016   2.638   3.893
    1C        C   34   3.207   2.552   4.016
    1C        C   35   3.075   2.601   4.016
    1C        C   36   3.278   2.538   4.138
    1C        C   37   3.210   2.561   4.259
    1C        C   38   3.415   2.514   4.382
    1C        C   39   3.275   2.537   4.382
    1C        C   40   3.486   2.509   4.504
    1C        C   41   3.414   2.506   4.625
    1C        C   42   3.629   2.495   4.746
    1C        C   43   3.487   2.486   4.744
    1C        C   44   3.705   2.496   4.865
    1C        C   45   3.627   2.483   4.980
    1C        C   46   2.841   2.756   2.792
    1C        C   47   2.896   2.714   2.915
    1C        C   48   2.844   2.759   3.038
    1C        C   49   3.018   2.634   3.163
    1C        C   50   2.903   2.716   3.160
    1C        C   51   3.078   2.601   3.286
    1C        C   52   3.019   2.642   3.408
    1C        C   53   3.209   2.546   3.527
    1C        C   54   3.079   2.601   3.529
    1C        C   55   3.277   2.526   3.650
    1C        C   56   3.207   2.545   3.771
    1C        C   57   3.414   2.509   3.894
    1C        C   58   3.274   2.527   3.894
    1C        C   59   3.485   2.502   4.016
    1C        C   60   3.415   2.506   4.139
    1C        C   61   3.627   2.511   4.261
    1C        C   62   3.486   2.502   4.261
    1C        C   63   3.699   2.520   4.382
    1C        C   64   3.627   2.508   4.502
    1C        C   65   3.835   2.551   4.623
    1C        C   66   3.698   2.515   4.624
    1C        C   67   3.906   2.570   4.743
    1C        C   68   3.842   2.532   4.863
    1C        C   69   4.053   2.587   4.977
    1C        C   70   3.925   2.530   4.976
    1C        C   71   2.821   2.730   2.307
    1C        C   72   2.882   2.693   2.429
    1C        C   73   2.829   2.746   2.549
    1C        C   74   3.005   2.625   2.672
    1C        C   75   2.886   2.701   2.670
    1C        C   76   3.069   2.593   2.794
    1C        C   77   3.010   2.630   2.917
    1C        C   78   3.207   2.549   3.036
    1C        C   79   3.076   2.601   3.038
    1C        C   80   3.275   2.530   3.159
    1C        C   81   3.207   2.544   3.282
    1C        C   82   3.414   2.501   3.404
    1C        C   83   3.274   2.522   3.404
    1C        C   84   3.485   2.499   3.526
    1C        C   85   3.417   2.509   3.650
    1C        C   86   3.628   2.504   3.770
    1C        C   87   3.486   2.507   3.773
    1C        C   88   3.695   2.517   3.894
    1C        C   89   3.626   2.512   4.016
    1C        C   90   3.835   2.553   4.136
    1C        C   91   3.697   2.522   4.138
    1C        C   92   3.903   2.580   4.257
    1C        C   93   3.835   2.559   4.379
    1C        C   94   4.028   2.643   4.500
    1C        C   95   3.902   2.580   4.502
    1C        C   96   4.096   2.675   4.619
    1C        C   97   4.035   2.629   4.738
    1C        C   98   4.195   2.764   4.859
    1C        C   99   4.097   2.659   4.862
    1C        C  100   4.226   2.837   4.975
    1C        C  101   2.828   2.730   2.069
    1C        C  102   2.989   2.586   2.191
    1C        C  103   2.875   2.673   2.188
    1C        C  104   3.065   2.575   2.311
    1C        C  105   3.004   2.621   2.429
    1C        C  106   3.201   2.540   2.551
    1C        C  107   3.069   2.591   2.551
    1C        C  108   3.270   2.518   2.672
    1C        C  109   3.200   2.541   2.793
    1C        C  110   3.411   2.497   2.913
    1C        C  111   3.272   2.522   2.913
    1C        C  112   3.482   2.492   3.035
    1C        C  113   3.413   2.500   3.158
    1C        C  114   3.625   2.498   3.281
    1C        C  115   3.484   2.499   3.281
    1C        C  116   3.695   2.512   3.403
    1C        C  117   3.626   2.507   3.526
    1C        C  118   3.832   2.556   3.649
    1C        C  119   3.697   2.513   3.648
    1C        C  120   3.898   2.579   3.772
    1C        C  121   3.832   2.554   3.894
    1C        C  122   4.028   2.640   4.014
    1C        C  123   3.902   2.578   4.015
    1C        C  124   4.091   2.679   4.134
    1C        C  125   4.027   2.647   4.256
    1C        C  126   4.201   2.768   4.375
    1C        C  127   4.087   2.685   4.378
    1C        C  128   4.249   2.825   4.495
    1C        C  129   4.198   2.773   4.617
    1C        C  130   4.336   2.932   4.740
    1C        C  131   4.249   2.819   4.740
    1C        C  132   4.369   2.998   4.860
    1C        C  133   4.299   2.955   4.973
    1C        C  134   3.176   2.474   2.077
    1C        C  135   3.040   2.507   2.084
    1C        C  136   3.260   2.480   2.189
    1C        C  137   3.198   2.526   2.308
    1C        C  138   3.407   2.483   2.427
    1C        C  139   3.269   2.512   2.429
    1C        C  140   3.480   2.480   2.548
    1C        C  141   3.410   2.498   2.669
    1C        C  142   3.622   2.494   2.791
    1C        C  143   3.481   2.492   2.791
    1C        C  144   3.693   2.506   2.913
    1C        C  145   3.623   2.498   3.035
    1C        C  146   3.829   2.544   3.158
    1C        C  147   3.694   2.504   3.158
    1C        C  148   3.897   2.572   3.279
    1C        C  149   3.831   2.553   3.402
    1C        C  150   4.025   2.634   3.522
    1C        C  151   3.896   2.575   3.525
    1C        C  152   4.086   2.671   3.644
    1C        C  153   4.027   2.636   3.768
    1C        C  154   4.194   2.768   3.886
    1C        C  155   4.083   2.680   3.890
    1C        C  156   4.248   2.816   4.008
    1C        C  157   4.200   2.769   4.132
    1C        C  158   4.346   2.923   4.252
    1C        C  159   4.257   2.813   4.253
    1C        C  160   4.387   2.983   4.373
    1C        C  161   4.342   2.931   4.497
    1C        C  162   4.449   3.114   4.616
    1C        C  163   4.374   2.994   4.619
    1C        C  164   4.481   3.178   4.737
    1C        C  165   4.446   3.116   4.859
    1C        C  166   4.513   3.324   4.969
    1C        C  167   4.490   3.187   4.972
    1C        C  168   3.476   2.440   2.071
    1C        C  169   3.400   2.460   2.187
    1C        C  170   3.618   2.462   2.309
    1C        C  171   3.476   2.462   2.306
    1C        C  172   3.692   2.491   2.426
    1C        C  173   3.621   2.491   2.548
    1C        C  174   3.827   2.548   2.668
    1C        C  175   3.691   2.508   2.669
    1C        C  176   3.897   2.563   2.790
    1C        C  177   3.830   2.541   2.912
    1C        C  178   4.023   2.626   3.033
    1C        C  179   3.895   2.567   3.035
    1C        C  180   4.087   2.662   3.154
    1C        C  181   4.027   2.627   3.277
    1C        C  182   4.196   2.757   3.399
    1C        C  183   4.085   2.668   3.399
    1C        C  184   4.248   2.806   3.520
    1C        C  185   4.194   2.762   3.643
    1C        C  186   4.343   2.918   3.763
    1C        C  187   4.246   2.815   3.763
    1C        C  188   4.381   2.979   3.885
    1C        C  189   4.341   2.922   4.008
    1C        C  190   4.456   3.101   4.128
    1C        C  191   4.390   2.976   4.129
    1C        C  192   4.482   3.168   4.249
    1C        C  193   4.458   3.105   4.373
    1C        C  194   4.522   3.310   4.492
    1C        C  195   4.483   3.175   4.493
    1C        C  196   4.533   3.383   4.612
    1C        C  197   4.522   3.315   4.735
    1C        C  198   4.561   3.536   4.846
    1C        C  199   4.540   3.395   4.851
    1C        C  200   4.581   3.616   4.964
    1C        C  201   3.616   2.427   2.071
    1C        C  202   3.822   2.518   2.184
    1C        C  203   3.692   2.459   2.187
    1C        C  204   3.897   2.542   2.302
    1C        C  205   3.831   2.518   2.424
    1C        C  206   4.023   2.615   2.543
    1C        C  207   3.894   2.558   2.544
    1C        C  208   4.082   2.658   2.664
    1C        C  209   4.025   2.624   2.788
    1C        C  210   4.196   2.747   2.908
    1C        C  211   4.084   2.661   2.911
    1C        C  212   4.250   2.796   3.029
    1C        C  213   4.199   2.749   3.152
    1C        C  214   4.333   2.913   3.271
    1C        C  215   4.245   2.803   3.274
    1C        C  216   4.375   2.971   3.393
    1C        C  217   4.338   2.914   3.517
    1C        C  218   4.442   3.099   3.637
    1C        C  219   4.385   2.970   3.639
    1C        C  220   4.470   3.166   3.758
    1C        C  221   4.447   3.103   3.883
    1C        C  222   4.506   3.306   4.001
    1C        C  223   4.478   3.168   4.005
    1C        C  224   4.516   3.376   4.124
    1C        C  225   4.509   3.307   4.246
    1C        C  226   4.519   3.520   4.366
    1C        C  227   4.522   3.378   4.368
    1C        C  228   4.515   3.594   4.486
    1C        C  229   4.532   3.524   4.607
    1C        C  230   4.502   3.742   4.727
    1C        C  231   4.538   3.604   4.723
    1C        C  232   4.492   3.816   4.846
    1C        C  233   4.546   3.751   4.958
    1C        C  234   4.019   2.610   2.066
    1C        C  235   3.899   2.541   2.068
    1C        C  236   4.091   2.640   2.182
    1C        C  237   4.023   2.610   2.302
    1C        C  238   4.204   2.729   2.421
    1C        C  239   4.088   2.647   2.422
    1C        C  240   4.255   2.782   2.542
    1C        C  241   4.197   2.740   2.664
    1C        C  242   4.338   2.901   2.786
    1C        C  243   4.248   2.793   2.785
    1C        C  244   4.383   2.960   2.906
    1C        C  245   4.338   2.907   3.029
    1C        C  246   4.442   3.094   3.147
    1C        C  247   4.377   2.969   3.149
    1C        C  248   4.466   3.160   3.270
    1C        C  249   4.434   3.099   3.393
    1C        C  250   4.496   3.304   3.511
    1C        C  251   4.460   3.167   3.514
    1C        C  252   4.514   3.370   3.635
    1C        C  253   4.508   3.302   3.758
    1C        C  254   4.531   3.515   3.878
    1C        C  255   4.521   3.374   3.879
    1C        C  256   4.525   3.586   4.000
    1C        C  257   4.528   3.517   4.123
    1C        C  258   4.488   3.728   4.243
    1C        C  259   4.517   3.590   4.243
    1C        C  260   4.464   3.801   4.362
    1C        C  261   4.482   3.731   4.483
    1C        C  262   4.420   3.936   4.602
    1C        C  263   4.472   3.805   4.604
    1C        C  264   4.401   4.009   4.721
    1C        C  265   4.437   3.946   4.842
    1C        C  266   4.323   4.131   4.957
    1C        C  267   4.399   4.015   4.958
    1C        C  268   4.260   2.778   2.063
    1C        C  269   4.201   2.729   2.180
    1C        C  270   4.347   2.889   2.300
    1C        C  271   4.257   2.779   2.300
    1C        C  272   4.388   2.950   2.421
    1C        C  273   4.346   2.890   2.541
    1C        C  274   4.443   3.081   2.660
    1C        C  275   4.383   2.953   2.662
    1C        C  276   4.474   3.149   2.780
    1C        C  277   4.455   3.082   2.903
    1C        C  278   4.509   3.290   3.025
    1C        C  279   4.474   3.153   3.023
    1C        C  280   4.517   3.365   3.144
    1C        C  281   4.504   3.297   3.267
    1C        C  282   4.518   3.511   3.388
    1C        C  283   4.511   3.370   3.388
    1C        C  284   4.515   3.581   3.511
    1C        C  285   4.520   3.512   3.634
    1C        C  286   4.494   3.723   3.753
    1C        C  287   4.524   3.585   3.755
    1C        C  288   4.475   3.791   3.875
    1C        C  289   4.496   3.725   3.999
    1C        C  290   4.424   3.926   4.115
    1C        C  291   4.474   3.794   4.119
    1C        C  292   4.390   3.994   4.234
    1C        C  293   4.420   3.935   4.359
    1C        C  294   4.320   4.124   4.475
    1C        C  295   4.390   4.002   4.480
    1C        C  296   4.281   4.183   4.598
    1C        C  297   4.323   4.129   4.721
    1C        C  298   4.197   4.311   4.837
    1C        C  299   4.280   4.194   4.840
    1C        C  300   4.170   4.403   4.944
    1C        C  301   4.351   2.882   2.062
    1C        C  302   4.465   3.071   2.176
    1C        C  303   4.393   2.948   2.179
    1C        C  304   4.482   3.142   2.298
    1C        C  305   4.456   3.074   2.419
    1C        C  306   4.508   3.284   2.536
    1C        C  307   4.478   3.146   2.539
    1C        C  308   4.514   3.356   2.657
    1C        C  309   4.503   3.287   2.780
    1C        C  310   4.526   3.499   2.898
    1C        C  311   4.514   3.358   2.901
    1C        C  312   4.518   3.574   3.018
    1C        C  313   4.521   3.506   3.142
    1C        C  314   4.489   3.716   3.262
    1C        C  315   4.518   3.578   3.264
    1C        C  316   4.473   3.785   3.385
    1C        C  317   4.488   3.720   3.510
    1C        C  318   4.424   3.923   3.626
    1C        C  319   4.471   3.790   3.631
    1C        C  320   4.389   3.983   3.749
    1C        C  321   4.421   3.921   3.872
    1C        C  322   4.316   4.109   3.989
    1C        C  323   4.390   3.989   3.993
    1C        C  324   4.273   4.168   4.110
    1C        C  325   4.315   4.114   4.234
    1C        C  326   4.183   4.285   4.354
    1C        C  327   4.275   4.178   4.353
    1C        C  328   4.129   4.334   4.475
    1C        C  329   4.185   4.287   4.596
    1C        C  330   4.024   4.433   4.715
    1C        C  331   4.137   4.347   4.714
    1C        C  332   3.970   4.490   4.832
    1C        C  333   4.050   4.475   4.946
    1C        C  334   4.556   3.263   2.064
    1C        C  335   4.533   3.125   2.062
    1C        C  336   4.536   3.347   2.174
    1C        C  337   4.522   3.279   2.296
    1C        C  338   4.527   3.496   2.412
    1C        C  339   4.531   3.354   2.415
    1C        C  340   4.523   3.568   2.534
    1C        C  341   4.519   3.497   2.656
    1C        C  342   4.493   3.710   2.773
    1C        C  343   4.516   3.571   2.777
    1C        C  344   4.474   3.779   2.895
    1C        C  345   4.487   3.712   3.019
    1C        C  346   4.417   3.915   3.138
    1C        C  347   4.466   3.782   3.139
    1C        C  348   4.390   3.980   3.260
    1C        C  349   4.427   3.918   3.382
    1C        C  350   4.313   4.100   3.502
    1C        C  351   4.394   3.984   3.502
    1C        C  352   4.272   4.160   3.623
    1C        C  353   4.312   4.101   3.745
    1C        C  354   4.175   4.265   3.866
    1C        C  355   4.268   4.160   3.866
    1C        C  356   4.123   4.317   3.987
    1C        C  357   4.174   4.269   4.109
    1C        C  358   4.010   4.403   4.232
    1C        C  359   4.128   4.326   4.230
    1C        C  360   3.948   4.445   4.352
    1C        C  361   4.013   4.414   4.474
    1C        C  362   3.826   4.513   4.593
    1C        C  363   3.958   4.465   4.594
    1C        C  364   3.762   4.550   4.714
    1C        C  365   3.839   4.543   4.833
    1C        C  366   3.630   4.596   4.950
    1C        C  367   3.768   4.582   4.947
    1C        C  368   4.512   3.563   2.050
    1C        C  369   4.526   3.488   2.168
    1C        C  370   4.497   3.701   2.286
    1C        C  371   4.518   3.562   2.288
    1C        C  372   4.480   3.774   2.406
    1C        C  373   4.498   3.707   2.529
    1C        C  374   4.421   3.907   2.649
    1C        C  375   4.473   3.776   2.649
    1C        C  376   4.395   3.975   2.770
    1C        C  377   4.423   3.910   2.892
    1C        C  378   4.311   4.093   3.011
    1C        C  379   4.386   3.973   3.013
    1C        C  380   4.269   4.151   3.133
    1C        C  381   4.313   4.098   3.257
    1C        C  382   4.170   4.254   3.377
    1C        C  383   4.269   4.154   3.379
    1C        C  384   4.116   4.300   3.499
    1C        C  385   4.171   4.260   3.623
    1C        C  386   4.007   4.396   3.744
    1C        C  387   4.121   4.312   3.744
    1C        C  388   3.943   4.431   3.865
    1C        C  389   4.004   4.393   3.986
    1C        C  390   3.817   4.489   4.107
    1C        C  391   3.948   4.436   4.109
    1C        C  392   3.751   4.520   4.228
    1C        C  393   3.819   4.503   4.351
    1C        C  394   3.614   4.550   4.475
    1C        C  395   3.755   4.532   4.473
    1C        C  396   3.545   4.566   4.597
    1C        C  397   3.622   4.568   4.715
    1C        C  398   3.410   4.556   4.840
    1C        C  399   3.550   4.576   4.836
    1C        C  400   3.343   4.519   4.957
    1C        C  401   4.500   3.702   2.048
    1C        C  402   4.449   3.912   2.167
    1C        C  403   4.485   3.776   2.166
    1C        C  404   4.406   3.974   2.287
    1C        C  405   4.430   3.906   2.408
    1C        C  406   4.326   4.097   2.523
    1C        C  407   4.395   3.973   2.527
    1C        C  408   4.275   4.149   2.644
    1C        C  409   4.316   4.092   2.767
    1C        C  410   4.177   4.254   2.887
    1C        C  411   4.272   4.150   2.888
    1C        C  412   4.126   4.303   3.009
    1C        C  413   4.175   4.256   3.133
    1C        C  414   4.003   4.382   3.251
    1C        C  415   4.120   4.304   3.254
    1C        C  416   3.943   4.417   3.375
    1C        C  417   4.005   4.387   3.498
    1C        C  418   3.816   4.482   3.620
    1C        C  419   3.947   4.429   3.620
    1C        C  420   3.746   4.502   3.741
    1C        C  421   3.812   4.483   3.865
    1C        C  422   3.607   4.536   3.988
    1C        C  423   3.746   4.509   3.987
    1C        C  424   3.540   4.545   4.112
    1C        C  425   3.613   4.549   4.233
    1C        C  426   3.401   4.551   4.356
    1C        C  427   3.542   4.558   4.354
    1C        C  428   3.330   4.548   4.479
    1C        C  429   3.404   4.557   4.599
    1C        C  430   3.194   4.522   4.723
    1C        C  431   3.334   4.545   4.721
    1C        C  432   3.123   4.497   4.844
    1C        C  433   3.205   4.499   4.957
    1C        C  434   4.386   4.124   2.052
    1C        C  435   4.448   3.998   2.056
    1C        C  436   4.299   4.160   2.160
    1C        C  437   4.328   4.093   2.282
    1C        C  438   4.178   4.250   2.402
    1C        C  439   4.278   4.150   2.401
    1C        C  440   4.125   4.297   2.524
    1C        C  441   4.174   4.248   2.647
    1C        C  442   4.005   4.382   2.764
    1C        C  443   4.120   4.300   2.766
    1C        C  444   3.944   4.416   2.887
    1C        C  445   4.007   4.380   3.008
    1C        C  446   3.813   4.473   3.131
    1C        C  447   3.942   4.416   3.128
    1C        C  448   3.748   4.496   3.254
    1C        C  449   3.814   4.475   3.377
    1C        C  450   3.609   4.529   3.497
    1C        C  451   3.748   4.504   3.498
    1C        C  452   3.541   4.546   3.619
    1C        C  453   3.610   4.540   3.743
    1C        C  454   3.398   4.546   3.865
    1C        C  455   3.539   4.550   3.865
    1C        C  456   3.331   4.535   3.989
    1C        C  457   3.399   4.540   4.113
    1C        C  458   3.193   4.498   4.238
    1C        C  459   3.329   4.539   4.236
    1C        C  460   3.127   4.477   4.361
    1C        C  461   3.193   4.514   4.480
    1C        C  462   2.997   4.434   4.604
    1C        C  463   3.125   4.493   4.602
    1C        C  464   2.930   4.403   4.724
    1C        C  465   2.989   4.447   4.846
    1C        C  466   2.801   4.337   4.960
    1C        C  467   2.904   4.431   4.960
    1C        C  468   4.119   4.283   2.043
    1C        C  469   4.189   4.251   2.160
    1C        C  470   4.006   4.371   2.278
    1C        C  471   4.128   4.298   2.279
    1C        C  472   3.939   4.401   2.399
    1C        C  473   4.006   4.373   2.520
    1C        C  474   3.813   4.465   2.641
    1C        C  475   3.945   4.417   2.641
    1C        C  476   3.747   4.490   2.764
    1C        C  477   3.815   4.473   2.886
    1C        C  478   3.610   4.527   3.009
    1C        C  479   3.748   4.498   3.008
    1C        C  480   3.539   4.528   3.131
    1C        C  481   3.609   4.523   3.253
    1C        C  482   3.397   4.530   3.376
    1C        C  483   3.539   4.538   3.375
    1C        C  484   3.329   4.526   3.499
    1C        C  485   3.400   4.540   3.621
    1C        C  486   3.193   4.497   3.745
    1C        C  487   3.329   4.533   3.743
    1C        C  488   3.127   4.474   3.868
    1C        C  489   3.195   4.497   3.990
    1C        C  490   3.004   4.409   4.115
    1C        C  491   3.131   4.472   4.114
    1C        C  492   2.943   4.377   4.238
    1C        C  493   3.000   4.417   4.361
    1C        C  494   2.825   4.302   4.485
    1C        C  495   2.937   4.388   4.484
    1C        C  496   2.779   4.250   4.608
    1C        C  497   2.822   4.310   4.729
    1C        C  498   2.658   4.167   4.845
    1C        C  499   2.752   4.272   4.846
    1C        C  500   2.598   4.112   4.959
    1C        C  501   4.003   4.360   2.039
    1C        C  502   3.813   4.464   2.156
    1C        C  503   3.940   4.402   2.157
    1C        C  504   3.745   4.486   2.278
    1C        C  505   3.810   4.458   2.400
    1C        C  506   3.603   4.508   2.521
    1C        C  507   3.743   4.486   2.521
    1C        C  508   3.535   4.516   2.644
    1C        C  509   3.607   4.514   2.766
    1C        C  510   3.396   4.528   2.887
    1C        C  511   3.537   4.532   2.887
    1C        C  512   3.325   4.523   3.009
    1C        C  513   3.398   4.533   3.130
    1C        C  514   3.192   4.488   3.253
    1C        C  515   3.329   4.523   3.253
    1C        C  516   3.126   4.464   3.376
    1C        C  517   3.192   4.491   3.498
    1C        C  518   3.001   4.410   3.626
    1C        C  519   3.127   4.475   3.622
    1C        C  520   2.943   4.370   3.749
    1C        C  521   3.005   4.403   3.872
    1C        C  522   2.832   4.282   3.997
    1C        C  523   2.942   4.371   3.994
    1C        C  524   2.782   4.235   4.120
    1C        C  525   2.834   4.288   4.241
    1C        C  526   2.695   4.132   4.365
    1C        C  527   2.781   4.244   4.364
    1C        C  528   2.648   4.078   4.487
    1C        C  529   2.689   4.141   4.607
    1C        C  530   2.581   3.960   4.732
    1C        C  531   2.637   4.091   4.728
    1C        C  532   2.536   3.901   4.853
    1C        C  533   2.527   3.991   4.963
    1C        C  534   3.616   4.551   2.036
    1C        C  535   3.750   4.512   2.040
    1C        C  536   3.536   4.533   2.153
    1C        C  537   3.605   4.510   2.275
    1C        C  538   3.393   4.518   2.399
    1C        C  539   3.535   4.516   2.398
    1C        C  540   3.325   4.506   2.522
    1C        C  541   3.394   4.520   2.645
    1C        C  542   3.186   4.480   2.766
    1C        C  543   3.322   4.518   2.767
    1C        C  544   3.121   4.460   2.890
    1C        C  545   3.189   4.487   3.010
    1C        C  546   2.998   4.394   3.135
    1C        C  547   3.124   4.459   3.133
    1C        C  548   2.943   4.357   3.260
    1C        C  549   2.999   4.402   3.382
    1C        C  550   2.829   4.281   3.508
    1C        C  551   2.941   4.368   3.506
    1C        C  552   2.777   4.233   3.630
    1C        C  553   2.832   4.283   3.750
    1C        C  554   2.699   4.121   3.875
    1C        C  555   2.783   4.234   3.873
    1C        C  556   2.661   4.061   3.997
    1C        C  557   2.694   4.124   4.119
    1C        C  558   2.592   3.945   4.246
    1C        C  559   2.656   4.070   4.244
    1C        C  560   2.560   3.883   4.369
    1C        C  561   2.582   3.954   4.489
    1C        C  562   2.533   3.749   4.615
    1C        C  563   2.560   3.887   4.612
    1C        C  564   2.516   3.681   4.738
    1C        C  565   2.516   3.759   4.857
    1C        C  566   2.531   3.545   4.976
    1C        C  567   2.528   3.684   4.974
    1C        C  568   3.326   4.476   2.042
    1C        C  569   3.395   4.514   2.158
    1C        C  570   3.182   4.477   2.281
    1C        C  571   3.320   4.511   2.279
    1C        C  572   3.115   4.453   2.403
    1C        C  573   3.187   4.475   2.523
    1C        C  574   2.989   4.400   2.647
    1C        C  575   3.118   4.456   2.645
    1C        C  576   2.933   4.359   2.770
    1C        C  577   2.996   4.393   2.892
    1C        C  578   2.826   4.267   3.017
    1C        C  579   2.937   4.354   3.014
    1C        C  580   2.778   4.219   3.141
    1C        C  581   2.832   4.270   3.262
    1C        C  582   2.693   4.117   3.387
    1C        C  583   2.781   4.228   3.386
    1C        C  584   2.660   4.056   3.510
    1C        C  585   2.691   4.121   3.632
    1C        C  586   2.592   3.935   3.756
    1C        C  587   2.652   4.063   3.755
    1C        C  588   2.568   3.873   3.880
    1C        C  589   2.594   3.937   4.003
    1C        C  590   2.533   3.736   4.126
    1C        C  591   2.567   3.873   4.127
    1C        C  592   2.524   3.671   4.251
    1C        C  593   2.524   3.746   4.370
    1C        C  594   2.514   3.537   4.496
    1C        C  595   2.518   3.678   4.494
    1C        C  596   2.521   3.464   4.617
    1C        C  597   2.518   3.539   4.737
    1C        C  598   2.535   3.327   4.860
    1C        C  599   2.527   3.468   4.859
    1C        C  600   2.533   3.251   4.978
    1C        C  601   3.192   4.445   2.041
    1C        C  602   2.980   4.401   2.159
    1C        C  603   3.117   4.444   2.160
    1C        C  604   2.923   4.359   2.283
    1C        C  605   2.989   4.390   2.404
    1C        C  606   2.815   4.272   2.530
    1C        C  607   2.927   4.358   2.527
    1C        C  608   2.773   4.216   2.652
    1C        C  609   2.827   4.266   2.772
    1C        C  610   2.681   4.114   2.896
    1C        C  611   2.772   4.222   2.895
    1C        C  612   2.647   4.054   3.019
    1C        C  613   2.685   4.112   3.142
    1C        C  614   2.592   3.928   3.265
    1C        C  615   2.649   4.057   3.267
    1C        C  616   2.565   3.866   3.389
    1C        C  617   2.595   3.931   3.511
    1C        C  618   2.530   3.731   3.637
    1C        C  619   2.565   3.868   3.634
    1C        C  620   2.521   3.664   3.761
    1C        C  621   2.535   3.735   3.882
    1C        C  622   2.511   3.525   4.010
    1C        C  623   2.522   3.666   4.004
    1C        C  624   2.516   3.455   4.132
    1C        C  625   2.518   3.530   4.252
    1C        C  626   2.538   3.323   4.378
    1C        C  627   2.514   3.462   4.376
    1C        C  628   2.557   3.252   4.498
    1C        C  629   2.539   3.324   4.618
    1C        C  630   2.593   3.118   4.744
    1C        C  631   2.550   3.254   4.740
    1C        C  632   2.614   3.048   4.866
    1C        C  633   2.564   3.115   4.983
    1C        C  634   2.781   4.306   2.057
    1C        C  635   2.892   4.390   2.047
    1C        C  636   2.739   4.235   2.170
    1C        C  637   2.807   4.277   2.287
    1C        C  638   2.679   4.109   2.411
    1C        C  639   2.761   4.223   2.409
    1C        C  640   2.639   4.046   2.531
    1C        C  641   2.684   4.106   2.651
    1C        C  642   2.590   3.920   2.775
    1C        C  643   2.646   4.050   2.775
    1C        C  644   2.566   3.856   2.898
    1C        C  645   2.590   3.924   3.019
    1C        C  646   2.533   3.723   3.147
    1C        C  647   2.571   3.859   3.143
    1C        C  648   2.520   3.657   3.271
    1C        C  649   2.530   3.729   3.392
    1C        C  650   2.509   3.520   3.517
    1C        C  651   2.515   3.661   3.515
    1C        C  652   2.516   3.452   3.641
    1C        C  653   2.515   3.523   3.764
    1C        C  654   2.537   3.315   3.887
    1C        C  655   2.514   3.454   3.887
    1C        C  656   2.554   3.248   4.011
    1C        C  657   2.543   3.316   4.134
    1C        C  658   2.609   3.120   4.257
    1C        C  659   2.554   3.250   4.258
    1C        C  660   2.642   3.057   4.380
    1C        C  661   2.608   3.120   4.502
    1C        C  662   2.709   2.936   4.625
    1C        C  663   2.632   3.055   4.624
    1C        C  664   2.750   2.875   4.745
    1C        C  665   2.690   2.927   4.863
    1C        C  666   2.741   2.872   4.981
    1C        C  667   2.688   4.019   2.056
    1C        C  668   2.687   4.104   2.168
    1C        C  669   2.584   3.917   2.290
    1C        C  670   2.641   4.047   2.289
    1C        C  671   2.557   3.849   2.410
    1C        C  672   2.586   3.915   2.532
    1C        C  673   2.516   3.717   2.657
    1C        C  674   2.562   3.851   2.655
    1C        C  675   2.511   3.648   2.781
    1C        C  676   2.533   3.718   2.901
    1C        C  677   2.507   3.511   3.030
    1C        C  678   2.523   3.652   3.026
    1C        C  679   2.509   3.442   3.154
    1C        C  680   2.507   3.517   3.274
    1C        C  681   2.534   3.307   3.398
    1C        C  682   2.510   3.447   3.396
    1C        C  683   2.553   3.242   3.522
    1C        C  684   2.540   3.313   3.643
    1C        C  685   2.605   3.112   3.771
    1C        C  686   2.560   3.246   3.766
    1C        C  687   2.637   3.051   3.894
    1C        C  688   2.605   3.116   4.015
    1C        C  689   2.713   2.933   4.138
    1C        C  690   2.636   3.051   4.136
    1C        C  691   2.758   2.881   4.261
    1C        C  692   2.713   2.935   4.383
    1C        C  693   2.755   2.877   4.505
    1C        C  694   2.624   3.895   2.058
    1C        C  695   2.526   3.704   2.173
    1C        C  696   2.567   3.839   2.173
    1C        C  697   2.502   3.638   2.296
    1C        C  698   2.519   3.713   2.415
    1C        C  699   2.488   3.505   2.541
    1C        C  700   2.499   3.645   2.537
    1C        C  701   2.505   3.435   2.663
    1C        C  702   2.504   3.507   2.784
    1C        C  703   2.527   3.300   2.910
    1C        C  704   2.505   3.440   2.908
    1C        C  705   2.546   3.232   3.032
    1C        C  706   2.533   3.303   3.154
    1C        C  707   2.602   3.105   3.278
    1C        C  708   2.555   3.238   3.277
    1C        C  709   2.630   3.042   3.402
    1C        C  710   2.603   3.110   3.524
    1C        C  711   2.707   2.928   3.649
    1C        C  712   2.631   3.048   3.648
    1C        C  713   2.755   2.874   3.771
    1C        C  714   2.715   2.933   3.893
    1C        C  715   2.760   2.879   4.016
    1C        C  716   2.457   3.495   2.060
    1C        C  717   2.489   3.631   2.059
    1C        C  718   2.464   3.421   2.182
    1C        C  719   2.475   3.499   2.301
    1C        C  720   2.507   3.288   2.426
    1C        C  721   2.486   3.428   2.422
    1C        C  722   2.532   3.218   2.546
    1C        C  723   2.524   3.295   2.665
    1C        C  724   2.598   3.099   2.790
    1C        C  725   2.544   3.230   2.789
    1C        C  726   2.632   3.038   2.912
    1C        C  727   2.597   3.101   3.034
    1C        C  728   2.708   2.921   3.159
    1C        C  729   2.630   3.039   3.157
    1C        C  730   2.755   2.871   3.282
    1C        C  731   2.706   2.923   3.404
    1C        C  732   2.753   2.873   3.528
    1C        C  733   2.487   3.195   2.073
    1C        C  734   2.489   3.280   2.185
    1C        C  735   2.584   3.087   2.305
    1C        C  736   2.528   3.217   2.306
    1C        C  737   2.608   3.017   2.425
    1C        C  738   2.578   3.084   2.546
    1C        C  739   2.696   2.911   2.669
    1C        C  740   2.617   3.028   2.669
    1C        C  741   2.741   2.857   2.792
    1C        C  742   2.706   2.918   2.914
    1C        C  743   2.749   2.862   3.037
    1C        C  744   2.547   3.070   2.073
    1C        C  745   2.682   2.895   2.184
    1C        C  746   2.612   3.017   2.185
    1C        C  747   2.725   2.835   2.304
    1C        C  748   2.684   2.898   2.424
    1C        C  749   2.737   2.854   2.547
    1C        C  750   2.740   2.837   2.070
    1C        C  751   3.666   2.321   1.981
    1C        O  752   3.692   2.207   2.028
    1C        O  753   3.632   2.330   1.846
    1C        C  754   4.639   3.045   1.997
    1C        O  755   4.624   3.038   1.872
    1C        O  756   4.765   3.041   2.057
    1C        C  757   4.452   4.233   1.978
    1C        O  758   4.565   4.277   2.011
    1C        O  759   4.421   4.257   1.843
    1C        C  760   3.595   4.645   1.924
    1C        O  761   3.645   4.760   1.939
    1C        O  762   3.614   4.602   1.792
    1C        C  763   2.875   4.502   1.951
    1C        O  764   2.871   4.479   1.827
    1C        O  765   2.826   4.630   1.976
    1C        C  766   2.332   3.475   1.983
    1C        O  767   2.329   3.464   1.858
    1C        O  768   2.214   3.518   2.044
    1C        C  769   4.680   3.570   5.064
    1C        O  770   4.655   3.584   5.187
    1C        O  771   4.814   3.562   5.025
    1C        C  772   4.288   4.465   5.008
    1C        O  773   4.307   4.425   5.127
    1C        O  774   4.416   4.478   4.953
    1C        C  775   4.127   2.538   5.096
    1C        O  776   4.228   2.463   5.092
    1C        O  777   4.077   2.574   5.222
    1C        C  778   2.865   4.556   5.029
    1C        O  779   2.828   4.659   4.966
    1C        O  780   2.890   4.579   5.165
    1C        C  781   2.485   3.036   5.080
    1C        O  782   2.391   2.959   5.045
    1C        O  783   2.458   3.074   5.211
    1C        C  784   2.415   3.992   5.060
    1C        O  785   2.316   4.065   5.035
    1C        O  786   2.438   3.991   5.199
    1C        C  787   2.948   2.418   2.008
    1C        O  788   2.930   2.450   1.887
    1C        O  789   2.952   2.279   2.012
    1C        C  790   3.193   2.377   5.076
    1C        O  791   3.130   2.271   5.049
    1C        O  792   3.230   2.408   5.207
    1C        H  793   4.304   3.016   5.061
    1C        H  794   4.223   2.784   5.068
    1C        H  795   4.550   3.130   5.041
    1C        H  796   4.479   3.379   5.055
    1C        H  797   4.596   3.814   5.029
    1C        H  798   4.475   4.013   5.033
    1C        H  799   4.275   4.153   5.051
    1C        H  800   4.012   4.488   5.045
    1C        H  801   3.816   4.645   5.019
    1C        H  802   3.582   4.616   5.043
    1C        H  803   3.392   4.499   5.050
    1C        H  804   3.160   4.525   5.051
    1C        H  805   3.882   2.516   5.073
    1C        H  806   3.671   2.496   5.077
    1C        H  807   3.010   2.573   5.068
    1C        H  808   3.444   2.523   5.072
    1C        H  809   2.888   2.755   5.080
    1C        H  810   2.686   2.876   5.073
    1C        H  811   2.541   3.299   5.073
    1C        H  812   2.560   3.500   5.069
    1C        H  813   2.558   3.734   5.064
    1C        H  814   2.606   4.162   5.053
    1C        H  815   2.773   4.293   5.054
    1C        H  816   2.696   2.855   1.974
    1C        H  817   2.889   2.724   1.981
    1C        H  818   3.221   2.503   1.984
    1C        H  819   3.423   2.407   1.984
    1C        H  820   3.842   2.542   1.978
    1C        H  821   4.022   2.686   1.990
    1C        H  822   4.244   2.725   1.971
    1C        H  823   4.390   2.916   1.968
    1C        H  824   4.631   3.295   1.994
    1C        H  825   4.462   3.509   1.972
    1C        H  826   4.478   3.748   1.954
    1C        H  827   3.783   4.465   1.950
    1C        H  828   3.976   4.401   1.944
    1C        H  829   4.154   4.250   1.948
    1C        H  830   4.465   3.953   1.961
    1C        H  831   2.652   3.828   1.979
    1C        H  832   2.758   4.032   1.976
    1C        H  833   2.736   4.280   1.964
    1C        H  834   3.378   4.439   1.956
    1C        H  835   3.135   4.457   1.951
    1C        H  836   2.511   2.997   2.003
    1C        H  837   2.399   3.207   2.013
    1C        H  838   2.453   3.687   1.976
    2V3OU   H29  839   2.803   3.555   2.061
    2V3OU   C27  840   2.782   3.503   2.158
    2V3OU   H27  841   2.722   3.568   2.227
    2V3OU   H28  842   2.729   3.406   2.136
    2V3OU   O11  843   2.909   3.483   2.222
    2V3OU   C15  844   2.926   3.400   2.331
    2V3OU   C13  845   3.054   3.372   2.383
    2V3OU   C14  846   3.080   3.262   2.466
    2V3OU   C16  847   2.975   3.185   2.516
    2V3OU    H6  848   2.994   3.096   2.577
    2V3OU   C12  849   3.214   3.226   2.516
    2V3OU    O2  850   3.235   3.124   2.586
    2V3OU   C10  851   3.326   3.304   2.462
    2V3OU    C8  852   3.456   3.268   2.497
    2V3OU   O10  853   3.488   3.152   2.560
    2V3OU   H26  854   3.398   3.114   2.561
    2V3OU    C6  855   3.568   3.351   2.466
    2V3OU    C5  856   3.543   3.471   2.400
    2V3OU    C4  857   3.705   3.292   2.471
    2V3OU    H4  858   3.723   3.221   2.557
    2V3OU    H5  859   3.708   3.227   2.379
    2V3OU    C2  860   3.816   3.396   2.456
    2V3OU    O6  861   3.815   3.477   2.573
    2V3OU   H21  862   3.764   3.553   2.540
    2V3OU    C3  863   3.782   3.493   2.343
    2V3OU    H2  864   3.855   3.576   2.327
    2V3OU    H3  865   3.783   3.436   2.247
    2V3OU   C25  866   3.951   3.324   2.442
    2V3OU    O7  867   3.996   3.298   2.331
    2V3OU   C26  868   4.034   3.288   2.564
    2V3OU   H22  869   4.076   3.385   2.601
    2V3OU   H23  870   4.118   3.220   2.533
    2V3OU    O8  871   3.972   3.210   2.664
    2V3OU   H24  872   3.917   3.273   2.714
    2V3OU    C1  873   3.649   3.567   2.356
    2V3OU    H1  874   3.625   3.617   2.257
    2V3OU    O3  875   3.659   3.658   2.465
    2V3OU   C19  876   3.618   3.792   2.436
    2V3OU    H9  877   3.515   3.802   2.390
    2V3OU    O4  878   3.716   3.844   2.349
    2V3OU   C20  879   3.844   3.870   2.408
    2V3OU   H10  880   3.896   3.771   2.426
    2V3OU   C24  881   3.606   3.855   2.575
    2V3OU   H16  882   3.535   3.798   2.640
    2V3OU   H17  883   3.572   3.960   2.554
    2V3OU   C23  884   3.746   3.873   2.635
    2V3OU   H15  885   3.789   3.770   2.658
    2V3OU    N1  886   3.739   3.956   2.754
    2V3OU   H19  887   3.813   3.928   2.815
    2V3OU   H20  888   3.645   3.929   2.775
    2V3OU   C21  889   3.846   3.946   2.541
    2V3OU   H11  890   3.946   3.938   2.593
    2V3OU    O5  891   3.816   4.085   2.532
    2V3OU   H18  892   3.764   4.101   2.612
    2V3OU   C22  893   3.921   3.943   2.300
    2V3OU   H12  894   3.874   4.044   2.283
    2V3OU   H13  895   3.913   3.886   2.204
    2V3OU   H14  896   4.026   3.963   2.333
    2V3OU   C11  897   3.162   3.469   2.358
    2V3OU    O1  898   3.132   3.589   2.338
    2V3OU    C9  899   3.299   3.424   2.391
    2V3OU    C7  900   3.408   3.506   2.366
    2V3OU    O9  901   3.382   3.627   2.305
    2V3OU   H25  902   3.286   3.632   2.313
    2V3OU   C17  903   2.826   3.310   2.374
    2V3OU    H7  904   2.725   3.345   2.353
    2V3OU   C18  905   2.847   3.209   2.468
    2V3OU    H8  906   2.781   3.167   2.545
    3SOL     OW  907   3.368   4.738   1.185
    3SOL    HW1  908   3.329   4.647   1.175
    3SOL    HW2  909   3.302   4.807   1.155
    4SOL     OW  910   6.445   5.615   1.378
    4SOL    HW1  911   6.398   5.702   1.366
    4SOL    HW2  912   6.516   5.605   1.309
    5SOL     OW  913   4.610   1.330   2.751
    5SOL    HW1  914   4.653   1.336   2.661
    5SOL    HW2  915   4.614   1.236   2.784
    6SOL     OW  916   3.995   1.192   1.431
    6SOL    HW1  917   4.007   1.255   1.354
    6SOL    HW2  918   4.084   1.168   1.469
    7SOL     OW  919   0.030   3.606   2.435
    7SOL    HW1  920   0.097   3.561   2.495
    7SOL    HW2  921   6.970   3.624   2.487
    8SOL     OW  922   2.356   0.262   6.433
    8SOL    HW1  923   2.401   0.345   6.466
    8SOL    HW2  924   2.263   0.258   6.468
    9SOL     OW  925   6.596   6.422   6.576
    9SOL    HW1  926   6.678   6.409   6.520
    9SOL    HW2  927   6.556   6.511   6.557
   10SOL     OW  928   1.090   5.054   6.087
   10SOL    HW1  929   1.098   5.146   6.126
   10SOL    HW2  930   1.043   5.059   5.999
   11SOL     OW  931   2.472   0.499   6.514
   11SOL    HW1  932   2.571   0.503   6.512
   11SOL    HW2  933   2.441   0.502   6.609
   12SOL     OW  934   3.454   6.825   3.829
   12SOL    HW1  935   3.536   6.775   3.858
   12SOL    HW2  936   3.382   6.760   3.807
   13SOL     OW  937   3.636   5.455   3.683
   13SOL    HW1  938   3.648   5.544   3.727
   13SOL    HW2  939   3.592   5.392   3.746
   14SOL     OW  940   4.594   5.119   5.651
   14SOL    HW1  941   4.689   5.114   5.622
   14SOL    HW2  942   4.534   5.085   5.579
   15SOL     OW  943   1.605   5.713   1.593
   15SOL    HW1  944   1.652   5.673   1.514
   15SOL    HW2  945   1.533   5.775   1.560
   16SOL     OW  946   5.465   2.895   5.739
   16SOL    HW1  947   5.473   2.994   5.729
   16SOL    HW2  948   5.556   2.856   5.755
   17SOL     OW  949   5.262   6.102   5.595
   17SOL    HW1  950   5.164   6.087   5.605
   17SOL    HW2  951   5.310   6.056   5.670
   18SOL     OW  952   3.419   1.061   5.962
   18SOL    HW1  953   3.404   1.022   5.870
   18SOL    HW2  954   3.516   1.056   5.985
   19SOL     OW  955   0.072   0.530   3.353
   19SOL    HW1  956   0.110   0.485   3.272
   19SOL    HW2  957   0.098   0.626   3.353
   20SOL     OW  958   5.445   2.854   4.226
   20SOL    HW1  959   5.450   2.848   4.126
   20SOL    HW2  960   5.374   2.919   4.252
   21SOL     OW  961   3.080   2.163   2.519
   21SOL    HW1  962   3.026   2.164   2.435
   21SOL    HW2  963   3.170   2.124   2.500
   22SOL     OW  964   2.084   6.586   6.925
   22SOL    HW1  965   2.099   6.684   6.911
   22SOL    HW2  966   2.032   6.572   7.009
   23SOL     OW  967   4.987   6.546   2.872
   23SOL    HW1  968   4.905   6.546   2.815
   23SOL    HW2  969   5.040   6.629   2.856
   24SOL     OW  970   4.582   1.289   3.144
   24SOL    HW1  971   4.530   1.237   3.212
   24SOL    HW2  972   4.524   1.362   3.107
   25SOL     OW  973   3.257   0.184   5.029
   25SOL    HW1  974   3.290   0.228   4.946
   25SOL    HW2  975   3.260   0.249   5.105
   26SOL     OW  976   0.081   0.673   0.720
   26SOL    HW1  977   0.084   0.589   0.775
   26SOL    HW2  978   0.164   0.680   0.666
   27SOL     OW  979   1.020   1.632   2.056
   27SOL    HW1  980   1.051   1.717   2.015
   27SOL    HW2  981   1.098   1.571   2.069
   28SOL     OW  982   3.856   1.668   6.492
   28SOL    HW1  983   3.938   1.612   6.483
   28SOL    HW2  984   3.880   1.757   6.530
   29SOL     OW  985   4.762   2.731   1.989
   29SOL    HW1  986   4.709   2.734   1.905
   29SOL    HW2  987   4.769   2.823   2.027
   30SOL     OW  988   3.536   1.302   4.010
   30SOL    HW1  989   3.616   1.348   3.973
   30SOL    HW2  990   3.466   1.295   3.939
   31SOL     OW  991   0.904   2.618   6.102
   31SOL    HW1  992   0.822   2.592   6.153
   31SOL    HW2  993   0.885   2.701   6.049
   32SOL     OW  994   0.306   1.602   3.161
   32SOL    HW1  995   0.372   1.626   3.232
   32SOL    HW2  996   0.308   1.670   3.089
   33SOL     OW  997   2.104   4.133   6.405
   33SOL    HW1  998   2.103   4.215   6.462
   33SOL    HW2  999   2.196   4.094   6.404
   34SOL     OW 1000   2.220   1.656   3.990
   34SOL    HW1 1001   2.179   1.721   4.053
   34SOL    HW2 1002   2.194   1.563   4.018
   35SOL     OW 1003   3.560   3.523   6.748
   35SOL    HW1 1004   3.541   3.426   6.728
   35SOL    HW2 1005   3.579   3.571   6.663
   36SOL     OW 1006   6.059   0.532   5.444
   36SOL    HW1 1007   6.155   0.506   5.452
   36SOL    HW2 1008   6.050   0.616   5.391
   37SOL     OW 1009   0.925   0.572   0.562
   37SOL    HW1 1010   0.902   0.667   0.583
   37SOL    HW2 1011   0.865   0.511   0.614
   38SOL     OW 1012   0.098   5.081   2.927
   38SOL    HW1 1013   0.061   5.000   2.971
   38SOL    HW2 1014   0.131   5.145   2.996
   39SOL     OW 1015   7.017   5.294   6.894
   39SOL    HW1 1016   0.030   5.309   6.802
   39SOL    HW2 1017   0.060   5.240   6.947
   40SOL     OW 1018   5.095   2.235   1.609
   40SOL    HW1 1019   5.018   2.205   1.664
   40SOL    HW2 1020   5.164   2.277   1.668
   41SOL     OW 1021   6.792   6.171   4.429
   41SOL    HW1 1022   6.873   6.134   4.474
   41SOL    HW2 1023   6.817   6.205   4.338
   42SOL     OW 1024   2.570   5.008   5.542
   42SOL    HW1 1025   2.661   5.047   5.559
   42SOL    HW2 1026   2.557   4.997   5.443
   43SOL     OW 1027   5.547   6.177   5.620
   43SOL    HW1 1028   5.590   6.104   5.566
   43SOL    HW2 1029   5.454   6.192   5.587
   44SOL     OW 1030   5.656   1.855   6.783
   44SOL    HW1 1031   5.572   1.801   6.782
   44SOL    HW2 1032   5.718   1.821   6.711
   45SOL     OW 1033   3.556   6.802   3.090
   45SOL    HW1 1034   3.537   6.822   3.186
   45SOL    HW2 1035   3.647   6.762   3.080
   46SOL     OW 1036   0.649   3.390   2.920
   46SOL    HW1 1037   0.672   3.453   2.994
   46SOL    HW2 1038   0.658   3.296   2.952
   47SOL     OW 1039   5.169   4.881   1.551
   47SOL    HW1 1040   5.181   4.807   1.618
   47SOL    HW2 1041   5.231   4.866   1.474
   48SOL     OW 1042   6.526   2.481   5.626
   48SOL    HW1 1043   6.482   2.408   5.678
   48SOL    HW2 1044   6.606   2.445   5.577
   49SOL     OW 1045   5.111   3.966   1.908
   49SOL    HW1 1046   5.140   3.870   1.901
   49SOL    HW2 1047   5.018   3.975   1.873
   50SOL     OW 1048   6.278   1.636   5.233
   50SOL    HW1 1049   6.312   1.711   5.175
   50SOL    HW2 1050   6.205   1.588   5.185
   51SOL     OW 1051   3.041   6.184   2.864
   51SOL    HW1 1052   2.964   6.226   2.818
   51SOL    HW2 1053   3.112   6.253   2.880
   52SOL     OW 1054   5.051   2.276   3.468
   52SOL    HW1 1055   4.980   2.346   3.471
   52SOL    HW2 1056   5.076   2.257   3.373
   53SOL     OW 1057   3.602   6.677   4.624
   53SOL    HW1 1058   3.584   6.772   4.649
   53SOL    HW2 1059   3.623   6.624   4.706
   54SOL     OW 1060   3.589   4.777   1.037
   54SOL    HW1 1061   3.508   4.758   1.092
   54SOL    HW2 1062   3.606   4.700   0.975
   55SOL     OW 1063   2.679   1.549   6.331
   55SOL    HW1 1064   2.760   1.560   6.388
   55SOL    HW2 1065   2.598   1.581   6.381
   56SOL     OW 1066   0.379   0.633   1.538
   56SOL    HW1 1067   0.426   0.712   1.576
   56SOL    HW2 1068   0.350   0.653   1.444
   57SOL     OW 1069   5.489   0.690   1.156
   57SOL    HW1 1070   5.540   0.706   1.241
   57SOL    HW2 1071   5.428   0.767   1.139
   58SOL     OW 1072   6.151   6.809   5.867
   58SOL    HW1 1073   6.115   6.725   5.826
   58SOL    HW2 1074   6.237   6.834   5.821
   59SOL     OW 1075   0.609   1.754   5.623
   59SOL    HW1 1076   0.630   1.688   5.551
   59SOL    HW2 1077   0.695   1.786   5.664
   60SOL     OW 1078   5.252   1.421   5.795
   60SOL    HW1 1079   5.213   1.374   5.874
   60SOL    HW2 1080   5.345   1.453   5.817
   61SOL     OW 1081   5.164   2.304   4.825
   61SOL    HW1 1082   5.144   2.338   4.733
   61SOL    HW2 1083   5.080   2.299   4.879
   62SOL     OW 1084   0.366   1.017   2.370
   62SOL    HW1 1085   0.321   1.046   2.454
   62SOL    HW2 1086   0.374   1.096   2.308
   63SOL     OW 1087   5.343   1.119   4.171
   63SOL    HW1 1088   5.394   1.205   4.183
   63SOL    HW2 1089   5.259   1.137   4.120
   64SOL     OW 1090   0.137   3.596   5.847
   64SOL    HW1 1091   0.214   3.533   5.860
   64SOL    HW2 1092   0.055   3.555   5.886
   65SOL     OW 1093   6.969   5.013   5.730
   65SOL    HW1 1094   6.977   4.948   5.654
   65SOL    HW2 1095   6.873   5.031   5.749
   66SOL     OW 1096   3.612   0.808   5.686
   66SOL    HW1 1097   3.657   0.799   5.597
   66SOL    HW2 1098   3.680   0.826   5.757
   67SOL     OW 1099   5.535   4.249   5.627
   67SOL    HW1 1100   5.468   4.235   5.554
   67SOL    HW2 1101   5.487   4.254   5.715
   68SOL     OW 1102   5.602   0.773   6.898
   68SOL    HW1 1103   5.517   0.735   6.935
   68SOL    HW2 1104   5.580   0.842   6.829
   69SOL     OW 1105   0.494   3.750   5.993
   69SOL    HW1 1106   0.432   3.766   6.069
   69SOL    HW2 1107   0.458   3.794   5.910
   70SOL     OW 1108   5.416   4.551   4.491
   70SOL    HW1 1109   5.462   4.491   4.425
   70SOL    HW2 1110   5.449   4.531   4.583
   71SOL     OW 1111   3.727   1.793   3.114
   71SOL    HW1 1112   3.806   1.787   3.175
   71SOL    HW2 1113   3.732   1.720   3.046
   72SOL     OW 1114   2.535   6.708   4.321
   72SOL    HW1 1115   2.525   6.726   4.418
   72SOL    HW2 1116   2.446   6.682   4.282
   73SOL     OW 1117   3.124   1.261   0.812
   73SOL    HW1 1118   3.073   1.230   0.731
   73SOL    HW2 1119   3.222   1.252   0.796
   74SOL     OW 1120   5.318   6.815   6.845
   74SOL    HW1 1121   5.381   6.747   6.808
   74SOL    HW2 1122   5.282   6.783   6.932
   75SOL     OW 1123   3.484   0.187   0.109
   75SOL    HW1 1124   3.447   0.208   0.199
   75SOL    HW2 1125   3.482   0.269   0.052
   76SOL     OW 1126   3.020   3.023   0.790
   76SOL    HW1 1127   2.974   2.935   0.777
   76SOL    HW2 1128   2.960   3.097   0.758
   77SOL     OW 1129   6.701   6.652   3.530
   77SOL    HW1 1130   6.687   6.555   3.512
   77SOL    HW2 1131   6.728   6.699   3.446
   78SOL     OW 1132   5.754   0.699   0.097
   78SOL    HW1 1133   5.678   0.706   0.162
   78SOL    HW2 1134   5.726   0.738   0.009
   79SOL     OW 1135   3.252   6.005   0.555
   79SOL    HW1 1136   3.286   5.925   0.603
   79SOL    HW2 1137   3.316   6.032   0.483
   80SOL     OW 1138   5.112   1.880   3.840
   80SOL    HW1 1139   5.177   1.919   3.905
   80SOL    HW2 1140   5.056   1.953   3.801
   81SOL     OW 1141   2.092   6.948   2.848
   81SOL    HW1 1142   2.060   0.001   2.791
   81SOL    HW2 1143   2.187   6.928   2.827
   82SOL     OW 1144   6.571   4.963   1.122
   82SOL    HW1 1145   6.517   4.899   1.177
   82SOL    HW2 1146   6.515   4.998   1.047
   83SOL     OW 1147   0.307   0.906   0.416
   83SOL    HW1 1148   0.393   0.886   0.369
   83SOL    HW2 1149   0.318   0.890   0.514
   84SOL     OW 1150   5.736   2.831   3.463
   84SOL    HW1 1151   5.773   2.912   3.507
   84SOL    HW2 1152   5.682   2.858   3.383
   85SOL     OW 1153   1.779   1.903   4.356
   85SOL    HW1 1154   1.786   1.921   4.257
   85SOL    HW2 1155   1.723   1.974   4.398
   86SOL     OW 1156   6.956   0.805   4.978
   86SOL    HW1 1157   6.863   0.772   4.966
   86SOL    HW2 1158   7.019   0.727   4.982
   87SOL     OW 1159   5.337   3.509   0.515
   87SOL    HW1 1160   5.286   3.436   0.560
   87SOL    HW2 1161   5.292   3.533   0.429
   88SOL     OW 1162   3.444   1.990   6.086
   88SOL    HW1 1163   3.449   1.917   6.018
   88SOL    HW2 1164   3.536   2.019   6.112
   89SOL     OW 1165   0.904   2.553   5.439
   89SOL    HW1 1166   0.854   2.532   5.523
   89SOL    HW2 1167   0.839   2.570   5.365
   90SOL     OW 1168   3.434   5.696   2.417
   90SOL    HW1 1169   3.492   5.623   2.379
   90SOL    HW2 1170   3.441   5.777   2.360
   91SOL     OW 1171   4.660   4.310   5.025
   91SOL    HW1 1172   4.655   4.326   5.124
   91SOL    HW2 1173   4.581   4.351   4.980
   92SOL     OW 1174   4.287   4.715   0.531
   92SOL    HW1 1175   4.292   4.674   0.441
   92SOL    HW2 1176   4.280   4.815   0.522
   93SOL     OW 1177   3.013   4.135   6.641
   93SOL    HW1 1178   2.936   4.111   6.581
   93SOL    HW2 1179   3.058   4.218   6.606
   94SOL     OW 1180   2.286   5.667   6.319
   94SOL    HW1 1181   2.272   5.760   6.284
   94SOL    HW2 1182   2.379   5.658   6.355
   95SOL     OW 1183   1.226   0.669   3.236
   95SOL    HW1 1184   1.236   0.678   3.137
   95SOL    HW2 1185   1.264   0.580   3.265
   96SOL     OW 1186   3.227   0.420   5.378
   96SOL    HW1 1187   3.175   0.337   5.395
   96SOL    HW2 1188   3.166   0.490   5.340
   97SOL     OW 1189   2.028   3.148   5.855
   97SOL    HW1 1190   2.086   3.066   5.859
   97SOL    HW2 1191   1.991   3.157   5.762
   98SOL     OW 1192   6.965   3.274   0.838
   98SOL    HW1 1193   6.899   3.240   0.771
   98SOL    HW2 1194   0.007   3.334   0.792
   99SOL     OW 1195   3.864   3.741   1.139
   99SOL    HW1 1196   3.850   3.798   1.058
   99SOL    HW2 1197   3.860   3.645   1.114
  100SOL     OW 1198   6.481   6.871   5.291
  100SOL    HW1 1199   6.539   6.894   5.213
  100SOL    HW2 1200   6.512   6.784   5.331
  101SOL     OW 1201   1.782   5.153   2.257
  101SOL    HW1 1202   1.785   5.240   2.208
  101SOL    HW2 1203   1.686   5.128   2.274
  102SOL     OW 1204   3.986   6.309   2.644
  102SOL    HW1 1205   3.965   6.373   2.570
  102SOL    HW2 1206   4.019   6.223   2.605
  103SOL     OW 1207   2.321   1.195   2.167
  103SOL    HW1 1208   2.353   1.270   2.224
  103SOL    HW2 1209   2.400   1.151   2.123
  104SOL     OW 1210   0.411   5.693   2.784
  104SOL    HW1 1211   0.349   5.715   2.709
  104SOL    HW2 1212   0.362   5.644   2.855
  105SOL     OW 1213   6.286   2.761   6.678
  105SOL    HW1 1214   6.296   2.672   6.723
  105SOL    HW2 1215   6.376   2.798   6.657
  106SOL     OW 1216   3.494   6.173   4.892
  106SOL    HW1 1217   3.423   6.238   4.864
  106SOL    HW2 1218   3.452   6.094   4.936
  107SOL     OW 1219   2.084   1.262   1.174
  107SOL    HW1 1220   2.011   1.225   1.117
  107SOL    HW2 1221   2.051   1.272   1.268
  108SOL     OW 1222   3.542   4.949   5.983
  108SOL    HW1 1223   3.455   4.956   6.032
  108SOL    HW2 1224   3.532   4.885   5.907
  109SOL     OW 1225   6.857   0.563   1.711
  109SOL    HW1 1226   6.863   0.586   1.808
  109SOL    HW2 1227   6.920   0.621   1.659
  110SOL     OW 1228   3.214   5.759   4.964
  110SOL    HW1 1229   3.132   5.806   4.933
  110SOL    HW2 1230   3.190   5.691   5.033
  111SOL     OW 1231   2.270   1.393   4.190
  111SOL    HW1 1232   2.224   1.398   4.278
  111SOL    HW2 1233   2.365   1.425   4.199
  112SOL     OW 1234   4.475   6.716   6.398
  112SOL    HW1 1235   4.527   6.723   6.483
  112SOL    HW2 1236   4.453   6.807   6.364
  113SOL     OW 1237   6.165   6.366   2.944
  113SOL    HW1 1238   6.217   6.305   2.884
  113SOL    HW2 1239   6.191   6.351   3.039
  114SOL     OW 1240   0.464   0.082   1.577
  114SOL    HW1 1241   0.402   0.144   1.530
  114SOL    HW2 1242   0.519   0.033   1.509
  115SOL     OW 1243   4.236   1.509   3.271
  115SOL    HW1 1244   4.179   1.588   3.246
  115SOL    HW2 1245   4.302   1.492   3.198
  116SOL     OW 1246   5.668   4.716   1.075
  116SOL    HW1 1247   5.720   4.745   1.155
  116SOL    HW2 1248   5.589   4.663   1.105
  117SOL     OW 1249   1.315   2.032   0.330
  117SOL    HW1 1250   1.249   2.036   0.405
  117SOL    HW2 1251   1.291   2.098   0.260
  118SOL     OW 1252   1.634   0.847   3.732
  118SOL    HW1 1253   1.666   0.810   3.645
  118SOL    HW2 1254   1.706   0.839   3.800
  119SOL     OW 1255   0.674   1.139   0.183
  119SOL    HW1 1256   0.596   1.202   0.174
  119SOL    HW2 1257   0.724   1.135   0.097
  120SOL     OW 1258   6.159   7.007   0.027
  120SOL    HW1 1259   6.152   0.065   6.993
  120SOL    HW2 1260   6.124   0.003   0.118
  121SOL     OW 1261   1.692   3.572   5.752
  121SOL    HW1 1262   1.687   3.478   5.717
  121SOL    HW2 1263   1.611   3.591   5.808
  122SOL     OW 1264   2.130   3.593   6.243
  122SOL    HW1 1265   2.068   3.598   6.165
  122SOL    HW2 1266   2.221   3.568   6.212
  123SOL     OW 1267   0.497   0.672   2.573
  123SOL    HW1 1268   0.411   0.709   2.608
  123SOL    HW2 1269   0.525   0.725   2.493
  124SOL     OW 1270   4.711   2.966   0.586
  124SOL    HW1 1271   4.667   2.877   0.575
  124SOL    HW2 1272   4.656   3.023   0.646
  125SOL     OW 1273   3.201   1.880   1.259
  125SOL    HW1 1274   3.222   1.797   1.310
  125SOL    HW2 1275   3.125   1.862   1.196
  126SOL     OW 1276   2.400   3.905   0.840
  126SOL    HW1 1277   2.438   3.904   0.748
  126SOL    HW2 1278   2.363   3.996   0.861
  127SOL     OW 1279   0.772   5.348   6.805
  127SOL    HW1 1280   0.695   5.290   6.781
  127SOL    HW2 1281   0.811   5.319   6.892
  128SOL     OW 1282   5.236   2.943   1.421
  128SOL    HW1 1283   5.223   3.019   1.357
  128SOL    HW2 1284   5.177   2.867   1.396
  129SOL     OW 1285   2.312   3.367   6.408
  129SOL    HW1 1286   2.223   3.397   6.374
  129SOL    HW2 1287   2.349   3.298   6.346
  130SOL     OW 1288   0.663   2.264   4.004
  130SOL    HW1 1289   0.746   2.224   3.964
  130SOL    HW2 1290   0.688   2.318   4.084
  131SOL     OW 1291   5.334   1.679   3.749
  131SOL    HW1 1292   5.297   1.604   3.804
  131SOL    HW2 1293   5.274   1.758   3.756
  132SOL     OW 1294   2.581   2.333   1.169
  132SOL    HW1 1295   2.504   2.282   1.206
  132SOL    HW2 1296   2.664   2.310   1.220
  133SOL     OW 1297   4.819   6.767   3.620
  133SOL    HW1 1298   4.783   6.845   3.671
  133SOL    HW2 1299   4.918   6.777   3.609
  134SOL     OW 1300   6.375   1.189   2.556
  134SOL    HW1 1301   6.422   1.151   2.636
  134SOL    HW2 1302   6.277   1.198   2.576
  135SOL     OW 1303   5.656   4.078   3.611
  135SOL    HW1 1304   5.605   4.152   3.567
  135SOL    HW2 1305   5.696   4.111   3.697
  136SOL     OW 1306   3.154   3.919   5.872
  136SOL    HW1 1307   3.118   3.938   5.963
  136SOL    HW2 1308   3.106   3.975   5.805
  137SOL     OW 1309   5.693   2.212   4.466
  137SOL    HW1 1310   5.609   2.257   4.437
  137SOL    HW2 1311   5.772   2.266   4.436
  138SOL     OW 1312   0.938   4.245   2.252
  138SOL    HW1 1313   0.869   4.316   2.261
  138SOL    HW2 1314   0.915   4.186   2.174
  139SOL     OW 1315   1.872   6.858   4.636
  139SOL    HW1 1316   1.776   6.864   4.663
  139SOL    HW2 1317   1.884   6.785   4.569
  140SOL     OW 1318   1.125   5.803   3.069
  140SOL    HW1 1319   1.103   5.737   2.998
  140SOL    HW2 1320   1.067   5.884   3.060
  141SOL     OW 1321   6.647   3.044   5.290
  141SOL    HW1 1322   6.573   2.977   5.293
  141SOL    HW2 1323   6.735   2.997   5.299
  142SOL     OW 1324   0.965   4.263   0.999
  142SOL    HW1 1325   1.006   4.318   1.071
  142SOL    HW2 1326   1.016   4.177   0.991
  143SOL     OW 1327   5.940   4.022   1.293
  143SOL    HW1 1328   5.956   3.926   1.271
  143SOL    HW2 1329   5.855   4.031   1.345
  144SOL     OW 1330   1.208   6.042   5.754
  144SOL    HW1 1331   1.163   5.956   5.779
  144SOL    HW2 1332   1.275   6.024   5.683
  145SOL     OW 1333   6.757   5.412   0.500
  145SOL    HW1 1334   6.793   5.328   0.460
  145SOL    HW2 1335   6.827   5.483   0.498
  146SOL     OW 1336   4.884   0.236   0.069
  146SOL    HW1 1337   4.938   0.281   7.021
  146SOL    HW2 1338   4.838   0.156   0.030
  147SOL     OW 1339   6.310   3.945   6.403
  147SOL    HW1 1340   6.299   3.958   6.305
  147SOL    HW2 1341   6.344   4.029   6.445
  148SOL     OW 1342   6.485   5.595   6.667
  148SOL    HW1 1343   6.483   5.694   6.678
  148SOL    HW2 1344   6.477   5.551   6.757
  149SOL     OW 1345   3.234   1.818   3.829
  149SOL    HW1 1346   3.178   1.743   3.794
  149SOL    HW2 1347   3.318   1.823   3.775
  150SOL     OW 1348   5.862   5.699   6.719
  150SOL    HW1 1349   5.839   5.779   6.664
  150SOL    HW2 1350   5.779   5.645   6.735
  151SOL     OW 1351   2.943   2.132   0.771
  151SOL    HW1 1352   2.943   2.173   0.863
  151SOL    HW2 1353   3.028   2.156   0.724
  152SOL     OW 1354   1.268   1.039   2.440
  152SOL    HW1 1355   1.169   1.052   2.444
  152SOL    HW2 1356   1.294   0.962   2.499
  153SOL     OW 1357   2.866   0.645   1.488
  153SOL    HW1 1358   2.833   0.569   1.433
  153SOL    HW2 1359   2.945   0.616   1.542
  154SOL     OW 1360   0.778   1.885   2.325
  154SOL    HW1 1361   0.873   1.854   2.325
  154SOL    HW2 1362   0.749   1.903   2.231
  155SOL     OW 1363   6.858   1.707   3.087
  155SOL    HW1 1364   6.854   1.641   3.012
  155SOL    HW2 1365   6.891   1.661   3.170
  156SOL     OW 1366   0.218   2.476   0.707
  156SOL    HW1 1367   0.192   2.409   0.637
  156SOL    HW2 1368   0.226   2.566   0.665
  157SOL     OW 1369   5.773   2.962   1.772
  157SOL    HW1 1370   5.762   3.052   1.729
  157SOL    HW2 1371   5.708   2.953   1.847
  158SOL     OW 1372   2.212   4.980   2.533
  158SOL    HW1 1373   2.147   4.999   2.606
  158SOL    HW2 1374   2.235   5.066   2.487
  159SOL     OW 1375   4.607   4.768   2.339
  159SOL    HW1 1376   4.545   4.819   2.280
  159SOL    HW2 1377   4.622   4.677   2.302
  160SOL     OW 1378   5.517   5.427   0.530
  160SOL    HW1 1379   5.588   5.447   0.462
  160SOL    HW2 1380   5.545   5.350   0.587
  161SOL     OW 1381   1.898   5.800   4.104
  161SOL    HW1 1382   1.810   5.757   4.083
  161SOL    HW2 1383   1.936   5.840   4.021
  162SOL     OW 1384   3.682   5.611   0.123
  162SOL    HW1 1385   3.723   5.676   0.187
  162SOL    HW2 1386   3.661   5.525   0.171
  163SOL     OW 1387   6.304   5.187   1.053
  163SOL    HW1 1388   6.330   5.172   0.958
  163SOL    HW2 1389   6.281   5.283   1.067
  164SOL     OW 1390   0.152   4.749   0.674
  164SOL    HW1 1391   0.093   4.733   0.753
  164SOL    HW2 1392   0.100   4.735   0.590
  165SOL     OW 1393   5.017   3.100   1.673
  165SOL    HW1 1394   5.101   3.051   1.649
  165SOL    HW2 1395   4.986   3.071   1.764
  166SOL     OW 1396   0.019   4.063   3.037
  166SOL    HW1 1397   6.955   4.097   3.069
  166SOL    HW2 1398   0.037   4.098   2.945
  167SOL     OW 1399   4.936   3.132   0.374
  167SOL    HW1 1400   4.926   3.229   0.393
  167SOL    HW2 1401   4.852   3.084   0.400
  168SOL     OW 1402   2.368   2.989   1.025
  168SOL    HW1 1403   2.346   2.892   1.024
  168SOL    HW2 1404   2.450   3.004   1.080
  169SOL     OW 1405   4.838   1.412   1.913
  169SOL    HW1 1406   4.766   1.357   1.871
  169SOL    HW2 1407   4.901   1.443   1.842
  170SOL     OW 1408   0.937   1.187   3.583
  170SOL    HW1 1409   1.031   1.155   3.569
  170SOL    HW2 1410   0.879   1.110   3.610
  171SOL     OW 1411   3.859   4.483   6.551
  171SOL    HW1 1412   3.919   4.535   6.611
  171SOL    HW2 1413   3.767   4.522   6.552
  172SOL     OW 1414   5.852   2.006   3.065
  172SOL    HW1 1415   5.825   2.093   3.105
  172SOL    HW2 1416   5.941   2.014   3.021
  173SOL     OW 1417   6.568   1.953   4.621
  173SOL    HW1 1418   6.479   1.971   4.579
  173SOL    HW2 1419   6.583   2.016   4.696
  174SOL     OW 1420   3.745   5.170   3.363
  174SOL    HW1 1421   3.819   5.207   3.419
  174SOL    HW2 1422   3.659   5.175   3.414
  175SOL     OW 1423   2.542   0.285   1.497
  175SOL    HW1 1424   2.540   0.189   1.525
  175SOL    HW2 1425   2.522   0.292   1.399
  176SOL     OW 1426   0.774   4.567   0.639
  176SOL    HW1 1427   0.751   4.659   0.608
  176SOL    HW2 1428   0.826   4.520   0.568
  177SOL     OW 1429   5.641   2.923   2.899
  177SOL    HW1 1430   5.705   2.867   2.952
  177SOL    HW2 1431   5.685   3.010   2.874
  178SOL     OW 1432   2.365   3.141   6.779
  178SOL    HW1 1433   2.434   3.073   6.755
  178SOL    HW2 1434   2.385   3.227   6.732
  179SOL     OW 1435   3.726   0.705   5.427
  179SOL    HW1 1436   3.658   0.683   5.358
  179SOL    HW2 1437   3.784   0.626   5.445
  180SOL     OW 1438   1.725   6.646   0.251
  180SOL    HW1 1439   1.754   6.710   0.179
  180SOL    HW2 1440   1.626   6.637   0.249
  181SOL     OW 1441   3.538   2.957   6.262
  181SOL    HW1 1442   3.619   2.949   6.204
  181SOL    HW2 1443   3.476   2.881   6.243
  182SOL     OW 1444   3.947   1.663   4.940
  182SOL    HW1 1445   3.870   1.721   4.912
  182SOL    HW2 1446   3.936   1.571   4.903
  183SOL     OW 1447   3.773   2.160   3.206
  183SOL    HW1 1448   3.799   2.221   3.282
  183SOL    HW2 1449   3.855   2.129   3.159
  184SOL     OW 1450   1.280   6.403   4.490
  184SOL    HW1 1451   1.313   6.320   4.446
  184SOL    HW2 1452   1.199   6.382   4.544
  185SOL     OW 1453   0.088   1.582   6.084
  185SOL    HW1 1454   0.105   1.525   6.164
  185SOL    HW2 1455   0.170   1.586   6.027
  186SOL     OW 1456   5.691   0.576   4.820
  186SOL    HW1 1457   5.751   0.539   4.749
  186SOL    HW2 1458   5.693   0.516   4.900
  187SOL     OW 1459   4.015   0.042   3.025
  187SOL    HW1 1460   4.013   0.012   3.120
  187SOL    HW2 1461   4.109   0.037   2.991
  188SOL     OW 1462   0.333   1.848   3.025
  188SOL    HW1 1463   0.426   1.849   2.989
  188SOL    HW2 1464   0.323   1.920   3.093
  189SOL     OW 1465   2.266   5.259   1.433
  189SOL    HW1 1466   2.190   5.323   1.427
  189SOL    HW2 1467   2.251   5.197   1.510
  190SOL     OW 1468   5.407   2.192   4.782
  190SOL    HW1 1469   5.474   2.266   4.774
  190SOL    HW2 1470   5.319   2.230   4.810
  191SOL     OW 1471   6.210   6.598   0.015
  191SOL    HW1 1472   6.142   6.555   0.075
  191SOL    HW2 1473   6.231   6.536   6.962
  192SOL     OW 1474   0.876   6.029   2.217
  192SOL    HW1 1475   0.858   6.118   2.174
  192SOL    HW2 1476   0.973   6.007   2.208
  193SOL     OW 1477   4.828   2.681   5.388
  193SOL    HW1 1478   4.878   2.751   5.338
  193SOL    HW2 1479   4.747   2.655   5.337
  194SOL     OW 1480   3.616   0.572   2.939
  194SOL    HW1 1481   3.624   0.671   2.925
  194SOL    HW2 1482   3.691   0.525   2.893
  195SOL     OW 1483   1.958   0.044   5.222
  195SOL    HW1 1484   2.056   0.021   5.223
  195SOL    HW2 1485   1.919   0.018   5.133
  196SOL     OW 1486   2.805   0.318   0.791
  196SOL    HW1 1487   2.876   0.389   0.792
  196SOL    HW2 1488   2.848   0.228   0.795
  197SOL     OW 1489   2.662   6.989   1.564
  197SOL    HW1 1490   2.597   6.949   1.498
  197SOL    HW2 1491   2.642   6.954   1.655
  198SOL     OW 1492   4.617   0.572   2.488
  198SOL    HW1 1493   4.703   0.543   2.531
  198SOL    HW2 1494   4.566   0.491   2.458
  199SOL     OW 1495   6.604   1.890   3.978
  199SOL    HW1 1496   6.678   1.955   3.959
  199SOL    HW2 1497   6.621   1.805   3.930
  200SOL     OW 1498   1.096   4.035   0.911
  200SOL    HW1 1499   1.078   4.000   1.003
  200SOL    HW2 1500   1.083   3.962   0.844
  201SOL     OW 1501   0.038   6.946   5.849
  201SOL    HW1 1502   0.081   6.987   5.929
  201SOL    HW2 1503   0.069   6.992   5.766
  202SOL     OW 1504   4.127   1.169   0.059
  202SOL    HW1 1505   4.148   1.252   0.112
  202SOL    HW2 1506   4.033   1.174   0.026
  203SOL     OW 1507   5.808   2.320   5.229
  203SOL    HW1 1508   5.802   2.420   5.239
  203SOL    HW2 1509   5.880   2.285   5.289
  204SOL     OW 1510   1.305   0.509   5.216
  204SOL    HW1 1511   1.218   0.492   5.262
  204SOL    HW2 1512   1.296   0.489   5.118
  205SOL     OW 1513   0.124   2.294   2.933
  205SOL    HW1 1514   0.130   2.195   2.942
  205SOL    HW2 1515   0.072   2.332   3.010
  206SOL     OW 1516   1.011   4.470   0.783
  206SOL    HW1 1517   0.989   4.405   0.856
  206SOL    HW2 1518   0.928   4.518   0.755
  207SOL     OW 1519   6.277   1.927   3.499
  207SOL    HW1 1520   6.311   1.843   3.455
  207SOL    HW2 1521   6.212   1.903   3.571
  208SOL     OW 1522   6.669   4.033   5.265
  208SOL    HW1 1523   6.595   3.991   5.212
  208SOL    HW2 1524   6.757   3.997   5.233
  209SOL     OW 1525   0.516   5.600   4.302
  209SOL    HW1 1526   0.469   5.670   4.356
  209SOL    HW2 1527   0.601   5.575   4.347
  210SOL     OW 1528   4.315   2.135   0.556
  210SOL    HW1 1529   4.242   2.089   0.605
  210SOL    HW2 1530   4.318   2.103   0.461
  211SOL     OW 1531   1.864   6.594   2.647
  211SOL    HW1 1532   1.809   6.537   2.586
  211SOL    HW2 1533   1.954   6.553   2.658
  212SOL     OW 1534   1.059   4.107   1.983
  212SOL    HW1 1535   0.966   4.143   1.984
  212SOL    HW2 1536   1.124   4.183   1.982
  213SOL     OW 1537   3.117   0.258   0.571
  213SOL    HW1 1538   3.049   0.194   0.536
  213SOL    HW2 1539   3.102   0.348   0.530
  214SOL     OW 1540   4.192   5.331   2.195
  214SOL    HW1 1541   4.185   5.375   2.284
  214SOL    HW2 1542   4.220   5.236   2.207
  215SOL     OW 1543   2.518   3.823   0.614
  215SOL    HW1 1544   2.586   3.782   0.675
  215SOL    HW2 1545   2.541   3.801   0.519
  216SOL     OW 1546   1.585   6.037   3.961
  216SOL    HW1 1547   1.615   6.113   4.019
  216SOL    HW2 1548   1.661   6.008   3.904
  217SOL     OW 1549   1.519   2.693   3.904
  217SOL    HW1 1550   1.440   2.646   3.944
  217SOL    HW2 1551   1.490   2.778   3.861
  218SOL     OW 1552   0.207   3.539   4.467
  218SOL    HW1 1553   0.184   3.457   4.414
  218SOL    HW2 1554   0.218   3.617   4.405
  219SOL     OW 1555   4.402   0.572   0.299
  219SOL    HW1 1556   4.411   0.477   0.269
  219SOL    HW2 1557   4.400   0.633   0.220
  220SOL     OW 1558   3.387   6.645   1.579
  220SOL    HW1 1559   3.425   6.737   1.589
  220SOL    HW2 1560   3.289   6.648   1.596
  221SOL     OW 1561   6.322   4.188   0.799
  221SOL    HW1 1562   6.321   4.212   0.702
  221SOL    HW2 1563   6.255   4.115   0.815
  222SOL     OW 1564   1.980   4.524   5.732
  222SOL    HW1 1565   1.912   4.462   5.772
  222SOL    HW2 1566   1.936   4.610   5.707
  223SOL     OW 1567   6.386   3.624   6.300
  223SOL    HW1 1568   6.390   3.524   6.298
  223SOL    HW2 1569   6.410   3.656   6.392
  224SOL     OW 1570   2.770   1.748   5.157
  224SOL    HW1 1571   2.697   1.739   5.090
  224SOL    HW2 1572   2.763   1.837   5.203
  225SOL     OW 1573   4.918   3.961   6.622
  225SOL    HW1 1574   4.834   4.009   6.595
  225SOL    HW2 1575   4.906   3.923   6.713
  226SOL     OW 1576   0.987   1.425   5.795
  226SOL    HW1 1577   0.988   1.354   5.865
  226SOL    HW2 1578   1.070   1.419   5.740
  227SOL     OW 1579   1.414   3.988   1.930
  227SOL    HW1 1580   1.485   4.009   1.997
  227SOL    HW2 1581   1.331   3.959   1.977
  228SOL     OW 1582   2.518   0.130   3.704
  228SOL    HW1 1583   2.501   0.077   3.787
  228SOL    HW2 1584   2.616   0.146   3.695
  229SOL     OW 1585   6.079   6.277   6.620
  229SOL    HW1 1586   6.045   6.235   6.704
  229SOL    HW2 1587   6.176   6.298   6.631
  230SOL     OW 1588   3.425   4.973   3.998
  230SOL    HW1 1589   3.441   5.060   4.045
  230SOL    HW2 1590   3.335   4.974   3.955
  231SOL     OW 1591   6.032   1.802   6.582
  231SOL    HW1 1592   6.015   1.777   6.677
  231SOL    HW2 1593   5.954   1.777   6.526
  232SOL     OW 1594   0.540   3.206   6.657
  232SOL    HW1 1595   0.565   3.155   6.574
  232SOL    HW2 1596   0.565   3.152   6.738
  233SOL     OW 1597   3.367   1.290   2.998
  233SOL    HW1 1598   3.350   1.215   3.062
  233SOL    HW2 1599   3.360   1.377   3.046
  234SOL     OW 1600   5.632   0.725   6.089
  234SOL    HW1 1601   5.610   0.705   5.993
  234SOL    HW2 1602   5.574   0.671   6.149
  235SOL     OW 1603   4.301   2.635   1.665
  235SOL    HW1 1604   4.396   2.619   1.693
  235SOL    HW2 1605   4.248   2.551   1.677
  236SOL     OW 1606   5.667   2.703   6.265
  236SOL    HW1 1607   5.588   2.722   6.208
  236SOL    HW2 1608   5.706   2.789   6.298
  237SOL     OW 1609   6.479   4.698   1.714
  237SOL    HW1 1610   6.520   4.737   1.796
  237SOL    HW2 1611   6.541   4.712   1.636
  238SOL     OW 1612   5.457   1.446   0.652
  238SOL    HW1 1613   5.469   1.526   0.593
  238SOL    HW2 1614   5.533   1.441   0.717
  239SOL     OW 1615   0.599   5.101   6.960
  239SOL    HW1 1616   0.508   5.067   6.980
  239SOL    HW2 1617   0.653   5.029   6.915
  240SOL     OW 1618   6.796   2.901   3.349
  240SOL    HW1 1619   6.830   2.985   3.307
  240SOL    HW2 1620   6.872   2.850   3.389
  241SOL     OW 1621   2.903   2.212   5.175
  241SOL    HW1 1622   2.991   2.245   5.141
  241SOL    HW2 1623   2.829   2.264   5.134
  242SOL     OW 1624   4.106   3.754   3.954
  242SOL    HW1 1625   4.119   3.685   4.025
  242SOL    HW2 1626   4.093   3.709   3.866
  243SOL     OW 1627   4.614   0.258   6.367
  243SOL    HW1 1628   4.665   0.333   6.325
  243SOL    HW2 1629   4.546   0.295   6.430
  244SOL     OW 1630   5.929   2.890   5.618
  244SOL    HW1 1631   5.866   2.838   5.675
  244SOL    HW2 1632   6.017   2.899   5.664
  245SOL     OW 1633   5.227   3.240   4.096
  245SOL    HW1 1634   5.197   3.264   4.188
  245SOL    HW2 1635   5.326   3.258   4.088
  246SOL     OW 1636   4.348   2.146   3.483
  246SOL    HW1 1637   4.423   2.091   3.519
  246SOL    HW2 1638   4.385   2.230   3.442
  247SOL     OW 1639   2.806   1.848   0.396
  247SOL    HW1 1640   2.811   1.867   0.494
  247SOL    HW2 1641   2.786   1.933   0.347
  248SOL     OW 1642   4.065   1.126   2.223
  248SOL    HW1 1643   3.967   1.139   2.215
  248SOL    HW2 1644   4.090   1.122   2.320
  249SOL     OW 1645   4.281   6.928   4.850
  249SOL    HW1 1646   4.208   6.978   4.898
  249SOL    HW2 1647   4.277   6.832   4.875
  250SOL     OW 1648   5.165   3.073   0.221
  250SOL    HW1 1649   5.126   3.123   0.298
  250SOL    HW2 1650   5.100   3.071   0.145
  251SOL     OW 1651   4.889   3.822   5.604
  251SOL    HW1 1652   4.944   3.782   5.531
  251SOL    HW2 1653   4.849   3.909   5.573
  252SOL     OW 1654   6.857   5.570   6.586
  252SOL    HW1 1655   6.786   5.527   6.530
  252SOL    HW2 1656   6.857   5.669   6.570
  253SOL     OW 1657   2.287   4.839   5.939
  253SOL    HW1 1658   2.357   4.857   6.007
  253SOL    HW2 1659   2.267   4.741   5.936
  254SOL     OW 1660   5.833   2.520   3.811
  254SOL    HW1 1661   5.852   2.466   3.893
  254SOL    HW2 1662   5.914   2.519   3.752
  255SOL     OW 1663   1.755   5.162   5.490
  255SOL    HW1 1664   1.672   5.167   5.434
  255SOL    HW2 1665   1.735   5.198   5.582
  256SOL     OW 1666   6.220   3.596   5.841
  256SOL    HW1 1667   6.173   3.627   5.759
  256SOL    HW2 1668   6.301   3.543   5.815
  257SOL     OW 1669   4.643   0.527   3.876
  257SOL    HW1 1670   4.582   0.495   3.949
  257SOL    HW2 1671   4.648   0.458   3.804
  258SOL     OW 1672   2.354   5.321   5.111
  258SOL    HW1 1673   2.288   5.321   5.036
  258SOL    HW2 1674   2.330   5.248   5.176
  259SOL     OW 1675   0.202   1.742   2.523
  259SOL    HW1 1676   0.182   1.839   2.509
  259SOL    HW2 1677   0.301   1.726   2.514
  260SOL     OW 1678   4.404   0.274   1.692
  260SOL    HW1 1679   4.451   0.243   1.774
  260SOL    HW2 1680   4.467   0.329   1.637
  261SOL     OW 1681   6.790   3.197   0.568
  261SOL    HW1 1682   6.819   3.287   0.534
  261SOL    HW2 1683   6.700   3.174   0.530
  262SOL     OW 1684   0.661   3.493   6.960
  262SOL    HW1 1685   0.631   3.488   6.865
  262SOL    HW2 1686   0.737   3.431   6.975
  263SOL     OW 1687   2.028   0.838   4.605
  263SOL    HW1 1688   2.114   0.801   4.639
  263SOL    HW2 1689   2.041   0.872   4.512
  264SOL     OW 1690   6.182   3.434   7.009
  264SOL    HW1 1691   6.124   3.513   0.004
  264SOL    HW2 1692   6.198   3.426   6.910
  265SOL     OW 1693   5.043   6.611   2.516
  265SOL    HW1 1694   4.994   6.669   2.581
  265SOL    HW2 1695   5.008   6.627   2.424
  266SOL     OW 1696   3.619   2.697   5.829
  266SOL    HW1 1697   3.616   2.729   5.734
  266SOL    HW2 1698   3.526   2.671   5.858
  267SOL     OW 1699   0.359   1.265   6.828
  267SOL    HW1 1700   0.269   1.243   6.790
  267SOL    HW2 1701   0.360   1.361   6.858
  268SOL     OW 1702   3.372   0.976   5.700
  268SOL    HW1 1703   3.453   0.917   5.693
  268SOL    HW2 1704   3.372   1.041   5.624
  269SOL     OW 1705   0.561   3.496   1.816
  269SOL    HW1 1706   0.464   3.488   1.794
  269SOL    HW2 1707   0.598   3.579   1.775
  270SOL     OW 1708   1.223   6.855   0.517
  270SOL    HW1 1709   1.158   6.931   0.513
  270SOL    HW2 1710   1.223   6.816   0.609
  271SOL     OW 1711   6.628   1.883   6.896
  271SOL    HW1 1712   6.547   1.893   6.838
  271SOL    HW2 1713   6.634   1.961   6.958
  272SOL     OW 1714   3.617   5.499   4.493
  272SOL    HW1 1715   3.559   5.459   4.422
  272SOL    HW2 1716   3.709   5.460   4.486
  273SOL     OW 1717   1.867   4.639   4.800
  273SOL    HW1 1718   1.888   4.563   4.739
  273SOL    HW2 1719   1.915   4.626   4.886
  274SOL     OW 1720   4.052   2.102   3.147
  274SOL    HW1 1721   4.129   2.048   3.181
  274SOL    HW2 1722   4.070   2.130   3.053
  275SOL     OW 1723   6.280   5.008   4.802
  275SOL    HW1 1724   6.337   4.928   4.819
  275SOL    HW2 1725   6.276   5.065   4.883
  276SOL     OW 1726   6.850   6.754   2.969
  276SOL    HW1 1727   6.923   6.822   2.976
  276SOL    HW2 1728   6.816   6.752   2.875
  277SOL     OW 1729   1.564   4.353   6.989
  277SOL    HW1 1730   1.612   4.419   6.933
  277SOL    HW2 1731   1.519   4.285   6.931
  278SOL     OW 1732   6.301   5.288   2.060
  278SOL    HW1 1733   6.218   5.255   2.014
  278SOL    HW2 1734   6.359   5.337   1.995
  279SOL     OW 1735   6.481   3.392   4.011
  279SOL    HW1 1736   6.546   3.406   3.936
  279SOL    HW2 1737   6.394   3.358   3.973
  280SOL     OW 1738   3.077   0.020   3.124
  280SOL    HW1 1739   3.064   0.084   3.199
  280SOL    HW2 1740   3.011   0.039   3.052
  281SOL     OW 1741   2.574   4.643   1.867
  281SOL    HW1 1742   2.587   4.688   1.779
  281SOL    HW2 1743   2.663   4.631   1.912
  282SOL     OW 1744   3.406   1.774   5.892
  282SOL    HW1 1745   3.318   1.751   5.933
  282SOL    HW2 1746   3.436   1.700   5.833
  283SOL     OW 1747   6.267   1.358   6.652
  283SOL    HW1 1748   6.207   1.396   6.581
  283SOL    HW2 1749   6.212   1.311   6.720
  284SOL     OW 1750   1.314   4.112   3.183
  284SOL    HW1 1751   1.397   4.084   3.231
  284SOL    HW2 1752   1.308   4.212   3.182
  285SOL     OW 1753   5.883   4.940   5.132
  285SOL    HW1 1754   5.885   4.855   5.079
  285SOL    HW2 1755   5.867   5.018   5.071
  286SOL     OW 1756   3.218   5.789   5.867
  286SOL    HW1 1757   3.228   5.798   5.768
  286SOL    HW2 1758   3.123   5.808   5.892
  287SOL     OW 1759   0.651   3.845   0.495
  287SOL    HW1 1760   0.665   3.909   0.419
  287SOL    HW2 1761   0.621   3.895   0.576
  288SOL     OW 1762   4.087   0.946   6.302
  288SOL    HW1 1763   4.108   1.034   6.258
  288SOL    HW2 1764   4.018   0.960   6.373
  289SOL     OW 1765   0.129   4.537   5.056
  289SOL    HW1 1766   0.055   4.522   4.991
  289SOL    HW2 1767   0.167   4.449   5.085
  290SOL     OW 1768   6.259   1.780   4.606
  290SOL    HW1 1769   6.305   1.743   4.687
  290SOL    HW2 1770   6.215   1.867   4.629
  291SOL     OW 1771   1.616   2.539   4.550
  291SOL    HW1 1772   1.706   2.554   4.510
  291SOL    HW2 1773   1.626   2.505   4.644
  292SOL     OW 1774   1.593   2.375   3.289
  292SOL    HW1 1775   1.561   2.427   3.210
  292SOL    HW2 1776   1.520   2.315   3.321
  293SOL     OW 1777   4.310   5.723   2.254
  293SOL    HW1 1778   4.371   5.800   2.276
  293SOL    HW2 1779   4.250   5.706   2.332
  294SOL     OW 1780   0.743   5.601   6.170
  294SOL    HW1 1781   0.688   5.560   6.097
  294SOL    HW2 1782   0.743   5.700   6.161
  295SOL     OW 1783   3.649   1.817   4.094
  295SOL    HW1 1784   3.675   1.746   4.160
  295SOL    HW2 1785   3.600   1.775   4.018
  296SOL     OW 1786   4.121   1.755   3.259
  296SOL    HW1 1787   4.025   1.770   3.281
  296SOL    HW2 1788   4.176   1.830   3.296
  297SOL     OW 1789   2.554   4.514   3.269
  297SOL    HW1 1790   2.545   4.609   3.298
  297SOL    HW2 1791   2.600   4.511   3.181
  298SOL     OW 1792   4.056   6.335   1.212
  298SOL    HW1 1793   4.027   6.313   1.120
  298SOL    HW2 1794   4.093   6.428   1.215
  299SOL     OW 1795   5.206   3.542   5.893
  299SOL    HW1 1796   5.260   3.584   5.821
  299SOL    HW2 1797   5.111   3.530   5.862
  300SOL     OW 1798   6.710   1.290   2.053
  300SOL    HW1 1799   6.621   1.325   2.081
  300SOL    HW2 1800   6.699   1.225   1.978
  301SOL     OW 1801   4.720   3.501   1.317
  301SOL    HW1 1802   4.641   3.442   1.297
  301SOL    HW2 1803   4.801   3.467   1.269
  302SOL     OW 1804   0.868   0.929   3.389
  302SOL    HW1 1805   0.801   0.881   3.333
  302SOL    HW2 1806   0.833   0.939   3.482
  303SOL     OW 1807   5.546   0.755   2.019
  303SOL    HW1 1808   5.600   0.764   1.935
  303SOL    HW2 1809   5.449   0.765   1.998
  304SOL     OW 1810   2.494   6.994   3.945
  304SOL    HW1 1811   2.559   6.920   3.932
  304SOL    HW2 1812   2.494   7.022   4.041
  305SOL     OW 1813   0.705   3.333   0.298
  305SOL    HW1 1814   0.766   3.338   0.219
  305SOL    HW2 1815   0.700   3.238   0.330
  306SOL     OW 1816   2.164   1.523   3.277
  306SOL    HW1 1817   2.225   1.487   3.207
  306SOL    HW2 1818   2.181   1.621   3.290
  307SOL     OW 1819   4.854   0.471   0.760
  307SOL    HW1 1820   4.874   0.566   0.782
  307SOL    HW2 1821   4.770   0.466   0.706
  308SOL     OW 1822   6.107   3.532   4.787
  308SOL    HW1 1823   6.113   3.565   4.693
  308SOL    HW2 1824   6.196   3.497   4.816
  309SOL     OW 1825   3.205   5.125   6.327
  309SOL    HW1 1826   3.265   5.156   6.401
  309SOL    HW2 1827   3.199   5.025   6.330
  310SOL     OW 1828   6.076   6.954   5.586
  310SOL    HW1 1829   6.026   6.878   5.543
  310SOL    HW2 1830   6.164   6.921   5.620
  311SOL     OW 1831   5.987   4.794   1.422
  311SOL    HW1 1832   5.943   4.720   1.371
  311SOL    HW2 1833   6.086   4.786   1.412
  312SOL     OW 1834   4.309   1.279   5.803
  312SOL    HW1 1835   4.339   1.280   5.898
  312SOL    HW2 1836   4.363   1.211   5.752
  313SOL     OW 1837   3.380   4.345   1.604
  313SOL    HW1 1838   3.444   4.421   1.594
  313SOL    HW2 1839   3.288   4.375   1.581
  314SOL     OW 1840   3.631   4.967   6.723
  314SOL    HW1 1841   3.673   4.889   6.677
  314SOL    HW2 1842   3.658   5.051   6.676
  315SOL     OW 1843   0.834   3.318   3.541
  315SOL    HW1 1844   0.902   3.353   3.477
  315SOL    HW2 1845   0.861   3.341   3.634
  316SOL     OW 1846   2.978   1.882   4.138
  316SOL    HW1 1847   3.001   1.953   4.072
  316SOL    HW2 1848   3.029   1.897   4.222
  317SOL     OW 1849   1.120   0.522   0.991
  317SOL    HW1 1850   1.100   0.477   0.904
  317SOL    HW2 1851   1.186   0.467   1.042
  318SOL     OW 1852   0.855   6.245   6.849
  318SOL    HW1 1853   0.788   6.312   6.880
  318SOL    HW2 1854   0.816   6.189   6.776
  319SOL     OW 1855   6.841   0.743   3.663
  319SOL    HW1 1856   6.849   0.685   3.743
  319SOL    HW2 1857   6.922   0.734   3.606
  320SOL     OW 1858   5.904   1.931   0.383
  320SOL    HW1 1859   5.830   1.963   0.324
  320SOL    HW2 1860   5.952   2.010   0.422
  321SOL     OW 1861   3.418   0.957   1.173
  321SOL    HW1 1862   3.329   0.974   1.129
  321SOL    HW2 1863   3.403   0.921   1.265
  322SOL     OW 1864   3.754   4.150   4.740
  322SOL    HW1 1865   3.722   4.066   4.783
  322SOL    HW2 1866   3.821   4.195   4.800
  323SOL     OW 1867   0.740   3.809   6.586
  323SOL    HW1 1868   0.765   3.735   6.524
  323SOL    HW2 1869   0.754   3.780   6.680
  324SOL     OW 1870   2.068   2.259   3.949
  324SOL    HW1 1871   2.105   2.173   3.984
  324SOL    HW2 1872   1.999   2.239   3.879
  325SOL     OW 1873   1.203   3.036   1.617
  325SOL    HW1 1874   1.222   2.969   1.546
  325SOL    HW2 1875   1.109   3.025   1.650
  326SOL     OW 1876   1.602   5.264   6.435
  326SOL    HW1 1877   1.628   5.360   6.425
  326SOL    HW2 1878   1.675   5.215   6.483
  327SOL     OW 1879   1.611   5.465   3.668
  327SOL    HW1 1880   1.640   5.375   3.636
  327SOL    HW2 1881   1.605   5.466   3.767
  328SOL     OW 1882   2.282   6.061   1.854
  328SOL    HW1 1883   2.352   6.083   1.922
  328SOL    HW2 1884   2.314   6.090   1.763
  329SOL     OW 1885   3.270   4.182   4.712
  329SOL    HW1 1886   3.250   4.111   4.644
  329SOL    HW2 1887   3.298   4.266   4.666
  330SOL     OW 1888   3.523   6.819   0.959
  330SOL    HW1 1889   3.476   6.900   0.995
  330SOL    HW2 1890   3.563   6.768   1.035
  331SOL     OW 1891   3.930   4.877   0.134
  331SOL    HW1 1892   3.913   4.907   0.040
  331SOL    HW2 1893   4.011   4.924   0.170
  332SOL     OW 1894   3.338   1.869   4.764
  332SOL    HW1 1895   3.337   1.870   4.864
  332SOL    HW2 1896   3.278   1.797   4.730
  333SOL     OW 1897   3.096   6.893   6.366
  333SOL    HW1 1898   3.175   6.949   6.391
  333SOL    HW2 1899   3.044   6.871   6.449
  334SOL     OW 1900   2.590   0.247   0.959
  334SOL    HW1 1901   2.652   0.281   0.888
  334SOL    HW2 1902   2.535   0.323   0.994
  335SOL     OW 1903   3.294   6.673   4.357
  335SOL    HW1 1904   3.201   6.650   4.385
  335SOL    HW2 1905   3.302   6.772   4.347
  336SOL     OW 1906   2.847   1.396   3.679
  336SOL    HW1 1907   2.887   1.321   3.627
  336SOL    HW2 1908   2.917   1.437   3.738
  337SOL     OW 1909   0.100   3.129   0.471
  337SOL    HW1 1910   0.043   3.170   0.400
  337SOL    HW2 1911   0.068   3.036   0.490
  338SOL     OW 1912   3.132   2.728   0.826
  338SOL    HW1 1913   3.115   2.818   0.864
  338SOL    HW2 1914   3.074   2.661   0.872
  339SOL     OW 1915   3.497   6.217   4.447
  339SOL    HW1 1916   3.554   6.270   4.384
  339SOL    HW2 1917   3.519   6.120   4.437
  340SOL     OW 1918   4.968   4.389   5.353
  340SOL    HW1 1919   4.890   4.329   5.333
  340SOL    HW2 1920   4.969   4.412   5.450
  341SOL     OW 1921   6.343   0.180   4.679
  341SOL    HW1 1922   6.285   0.119   4.625
  341SOL    HW2 1923   6.326   0.275   4.653
  342SOL     OW 1924   5.854   3.606   6.770
  342SOL    HW1 1925   5.821   3.570   6.682
  342SOL    HW2 1926   5.823   3.545   6.843
  343SOL     OW 1927   2.024   5.554   0.723
  343SOL    HW1 1928   2.098   5.509   0.773
  343SOL    HW2 1929   1.942   5.498   0.726
  344SOL     OW 1930   1.670   4.632   2.129
  344SOL    HW1 1931   1.625   4.572   2.063
  344SOL    HW2 1932   1.625   4.721   2.129
  345SOL     OW 1933   6.632   1.393   5.049
  345SOL    HW1 1934   6.707   1.342   5.007
  345SOL    HW2 1935   6.624   1.482   5.006
  346SOL     OW 1936   1.528   0.918   2.195
  346SOL    HW1 1937   1.447   0.971   2.170
  346SOL    HW2 1938   1.607   0.979   2.204
  347SOL     OW 1939   3.842   6.334   6.024
  347SOL    HW1 1940   3.836   6.271   5.947
  347SOL    HW2 1941   3.920   6.310   6.081
  348SOL     OW 1942   4.603   4.744   1.452
  348SOL    HW1 1943   4.667   4.694   1.510
  348SOL    HW2 1944   4.652   4.787   1.376
  349SOL     OW 1945   6.351   4.484   1.579
  349SOL    HW1 1946   6.404   4.452   1.501
  349SOL    HW2 1947   6.408   4.541   1.637
  350SOL     OW 1948   3.474   3.248   1.753
  350SOL    HW1 1949   3.511   3.258   1.846
  350SOL    HW2 1950   3.549   3.256   1.687
  351SOL     OW 1951   2.438   2.879   0.428
  351SOL    HW1 1952   2.348   2.845   0.456
  351SOL    HW2 1953   2.462   2.959   0.482
  352SOL     OW 1954   3.541   0.258   4.874
  352SOL    HW1 1955   3.493   0.296   4.795
  352SOL    HW2 1956   3.620   0.205   4.843
  353SOL     OW 1957   2.640   6.978   0.935
  353SOL    HW1 1958   2.634   0.054   0.935
  353SOL    HW2 1959   2.721   6.949   0.986
  354SOL     OW 1960   4.034   2.322   0.561
  354SOL    HW1 1961   3.968   2.264   0.608
  354SOL    HW2 1962   4.099   2.359   0.627
  355SOL     OW 1963   6.943   3.314   2.607
  355SOL    HW1 1964   6.896   3.401   2.592
  355SOL    HW2 1965   0.012   3.332   2.643
  356SOL     OW 1966   4.046   5.915   5.140
  356SOL    HW1 1967   4.136   5.875   5.121
  356SOL    HW2 1968   4.039   6.004   5.094
  357SOL     OW 1969   6.500   7.002   5.565
  357SOL    HW1 1970   6.468   6.930   5.626
  357SOL    HW2 1971   6.508   6.966   5.472
  358SOL     OW 1972   5.839   0.271   1.998
  358SOL    HW1 1973   5.922   0.214   1.990
  358SOL    HW2 1974   5.863   0.359   2.038
  359SOL     OW 1975   1.809   2.345   2.300
  359SOL    HW1 1976   1.827   2.415   2.369
  359SOL    HW2 1977   1.785   2.259   2.346
  360SOL     OW 1978   1.763   5.412   6.263
  360SOL    HW1 1979   1.716   5.461   6.190
  360SOL    HW2 1980   1.848   5.374   6.229
  361SOL     OW 1981   5.533   5.895   3.135
  361SOL    HW1 1982   5.569   5.949   3.059
  361SOL    HW2 1983   5.438   5.870   3.116
  362SOL     OW 1984   3.843   4.137   0.734
  362SOL    HW1 1985   3.771   4.080   0.696
  362SOL    HW2 1986   3.802   4.214   0.784
  363SOL     OW 1987   4.569   4.382   3.082
  363SOL    HW1 1988   4.616   4.322   3.017
  363SOL    HW2 1989   4.636   4.424   3.143
  364SOL     OW 1990   0.244   5.779   5.576
  364SOL    HW1 1991   0.232   5.872   5.539
  364SOL    HW2 1992   0.303   5.783   5.656
  365SOL     OW 1993   4.928   5.293   2.529
  365SOL    HW1 1994   4.965   5.290   2.623
  365SOL    HW2 1995   4.831   5.314   2.533
  366SOL     OW 1996   6.395   0.908   0.283
  366SOL    HW1 1997   6.408   0.862   0.371
  366SOL    HW2 1998   6.315   0.968   0.290
  367SOL     OW 1999   5.056   2.739   1.356
  367SOL    HW1 2000   5.014   2.662   1.404
  367SOL    HW2 2001   4.992   2.816   1.355
  368SOL     OW 2002   0.788   3.722   4.724
  368SOL    HW1 2003   0.762   3.652   4.791
  368SOL    HW2 2004   0.830   3.799   4.771
  369SOL     OW 2005   6.292   5.007   1.854
  369SOL    HW1 2006   6.222   5.067   1.892
  369SOL    HW2 2007   6.251   4.919   1.828
  370SOL     OW 2008   3.141   1.988   5.613
  370SOL    HW1 2009   3.163   1.986   5.710
  370SOL    HW2 2010   3.226   1.998   5.560
  371SOL     OW 2011   2.650   3.596   6.235
  371SOL    HW1 2012   2.731   3.623   6.183
  371SOL    HW2 2013   2.639   3.659   6.313
  372SOL     OW 2014   6.875   0.918   5.255
  372SOL    HW1 2015   6.872   0.828   5.213
  372SOL    HW2 2016   6.785   0.943   5.289
  373SOL     OW 2017   5.994   6.400   5.221
  373SOL    HW1 2018   6.062   6.329   5.241
  373SOL    HW2 2019   5.924   6.400   5.293
  374SOL     OW 2020   3.690   0.139   2.395
  374SOL    HW1 2021   3.785   0.107   2.396
  374SOL    HW2 2022   3.668   0.176   2.305
  375SOL     OW 2023   0.772   4.929   3.785
  375SOL    HW1 2024   0.842   4.862   3.808
  375SOL    HW2 2025   0.712   4.891   3.715
  376SOL     OW 2026   1.793   3.364   4.038
  376SOL    HW1 2027   1.861   3.291   4.031
  376SOL    HW2 2028   1.836   3.452   4.016
  377SOL     OW 2029   6.485   2.731   1.856
  377SOL    HW1 2030   6.407   2.681   1.818
  377SOL    HW2 2031   6.540   2.770   1.781
  378SOL     OW 2032   3.603   2.851   5.628
  378SOL    HW1 2033   3.561   2.868   5.539
  378SOL    HW2 2034   3.689   2.902   5.636
  379SOL     OW 2035   6.300   4.164   1.719
  379SOL    HW1 2036   6.383   4.195   1.674
  379SOL    HW2 2037   6.237   4.241   1.731
  380SOL     OW 2038   2.537   1.107   1.963
  380SOL    HW1 2039   2.561   1.010   1.968
  380SOL    HW2 2040   2.618   1.162   1.983
  381SOL     OW 2041   2.005   4.726   1.519
  381SOL    HW1 2042   1.944   4.756   1.447
  381SOL    HW2 2043   1.989   4.629   1.539
  382SOL     OW 2044   5.560   6.410   6.469
  382SOL    HW1 2045   5.512   6.403   6.381
  382SOL    HW2 2046   5.632   6.478   6.462
  383SOL     OW 2047   6.023   2.863   6.241
  383SOL    HW1 2048   6.052   2.767   6.239
  383SOL    HW2 2049   6.103   2.922   6.243
  384SOL     OW 2050   6.828   4.039   4.742
  384SOL    HW1 2051   6.822   4.138   4.732
  384SOL    HW2 2052   6.740   4.003   4.773
  385SOL     OW 2053   4.285   6.254   6.677
  385SOL    HW1 2054   4.370   6.306   6.679
  385SOL    HW2 2055   4.221   6.292   6.743
  386SOL     OW 2056   3.464   0.007   5.112
  386SOL    HW1 2057   3.372   0.042   5.095
  386SOL    HW2 2058   3.464   6.970   5.191
  387SOL     OW 2059   6.681   5.984   3.355
  387SOL    HW1 2060   6.589   5.987   3.393
  387SOL    HW2 2061   6.732   5.909   3.397
  388SOL     OW 2062   0.495   2.455   4.325
  388SOL    HW1 2063   0.586   2.415   4.313
  388SOL    HW2 2064   0.481   2.528   4.259
  389SOL     OW 2065   4.277   4.210   1.636
  389SOL    HW1 2066   4.203   4.278   1.636
  389SOL    HW2 2067   4.344   4.234   1.706
  390SOL     OW 2068   3.277   1.359   0.396
  390SOL    HW1 2069   3.320   1.446   0.421
  390SOL    HW2 2070   3.333   1.284   0.431
  391SOL     OW 2071   2.180   3.926   5.335
  391SOL    HW1 2072   2.098   3.920   5.278
  391SOL    HW2 2073   2.258   3.953   5.280
  392SOL     OW 2074   1.554   3.382   2.110
  392SOL    HW1 2075   1.536   3.361   2.014
  392SOL    HW2 2076   1.653   3.377   2.127
  393SOL     OW 2077   1.408   5.406   0.553
  393SOL    HW1 2078   1.415   5.503   0.533
  393SOL    HW2 2079   1.484   5.357   0.512
  394SOL     OW 2080   1.110   2.978   6.706
  394SOL    HW1 2081   1.112   2.888   6.751
  394SOL    HW2 2082   1.200   3.020   6.714
  395SOL     OW 2083   5.453   4.225   2.183
  395SOL    HW1 2084   5.506   4.182   2.110
  395SOL    HW2 2085   5.507   4.228   2.267
  396SOL     OW 2086   2.574   2.436   2.203
  396SOL    HW1 2087   2.501   2.505   2.204
  396SOL    HW2 2088   2.557   2.369   2.275
  397SOL     OW 2089   5.330   1.751   6.652
  397SOL    HW1 2090   5.233   1.728   6.644
  397SOL    HW2 2091   5.362   1.724   6.743
  398SOL     OW 2092   1.337   6.191   4.335
  398SOL    HW1 2093   1.309   6.096   4.323
  398SOL    HW2 2094   1.327   6.240   4.249
  399SOL     OW 2095   6.299   5.911   4.454
  399SOL    HW1 2096   6.372   5.975   4.432
  399SOL    HW2 2097   6.235   5.906   4.377
  400SOL     OW 2098   6.121   6.456   4.993
  400SOL    HW1 2099   6.189   6.384   4.986
  400SOL    HW2 2100   6.061   6.438   5.072
  401SOL     OW 2101   5.608   7.007   6.176
  401SOL    HW1 2102   5.683   0.040   6.143
  401SOL    HW2 2103   5.524   0.038   6.179
  402SOL     OW 2104   6.251   0.132   2.516
  402SOL    HW1 2105   6.343   0.171   2.507
  402SOL    HW2 2106   6.204   0.138   2.427
  403SOL     OW 2107   3.226   0.387   6.350
  403SOL    HW1 2108   3.263   0.336   6.428
  403SOL    HW2 2109   3.289   0.460   6.325
  404SOL     OW 2110   2.569   5.611   5.612
  404SOL    HW1 2111   2.627   5.580   5.687
  404SOL    HW2 2112   2.536   5.532   5.560
  405SOL     OW 2113   2.284   4.171   3.585
  405SOL    HW1 2114   2.335   4.097   3.540
  405SOL    HW2 2115   2.277   4.152   3.683
  406SOL     OW 2116   0.650   4.672   5.322
  406SOL    HW1 2117   0.711   4.604   5.362
  406SOL    HW2 2118   0.583   4.701   5.390
  407SOL     OW 2119   2.153   2.886   3.481
  407SOL    HW1 2120   2.175   2.982   3.466
  407SOL    HW2 2121   2.078   2.879   3.546
  408SOL     OW 2122   3.388   2.066   2.763
  408SOL    HW1 2123   3.459   2.040   2.828
  408SOL    HW2 2124   3.429   2.082   2.673
  409SOL     OW 2125   6.945   3.227   1.592
  409SOL    HW1 2126   0.020   3.230   1.571
  409SOL    HW2 2127   6.894   3.276   1.522
  410SOL     OW 2128   1.467   1.696   0.959
  410SOL    HW1 2129   1.533   1.758   0.919
  410SOL    HW2 2130   1.394   1.677   0.893
  411SOL     OW 2131   6.256   1.580   2.162
  411SOL    HW1 2132   6.194   1.654   2.188
  411SOL    HW2 2133   6.309   1.552   2.243
  412SOL     OW 2134   3.760   4.844   2.894
  412SOL    HW1 2135   3.668   4.863   2.929
  412SOL    HW2 2136   3.770   4.884   2.803
  413SOL     OW 2137   4.210   5.177   1.886
  413SOL    HW1 2138   4.144   5.148   1.956
  413SOL    HW2 2139   4.192   5.271   1.860
  414SOL     OW 2140   3.749   0.152   4.165
  414SOL    HW1 2141   3.667   0.206   4.144
  414SOL    HW2 2142   3.763   0.085   4.093
  415SOL     OW 2143   6.943   1.598   0.102
  415SOL    HW1 2144   7.014   1.580   0.170
  415SOL    HW2 2145   6.882   1.519   0.095
  416SOL     OW 2146   4.857   4.610   4.519
  416SOL    HW1 2147   4.782   4.557   4.479
  416SOL    HW2 2148   4.827   4.648   4.607
  417SOL     OW 2149   1.763   1.027   6.526
  417SOL    HW1 2150   1.687   0.967   6.501
  417SOL    HW2 2151   1.849   0.987   6.497
  418SOL     OW 2152   2.894   0.278   5.405
  418SOL    HW1 2153   2.964   0.210   5.384
  418SOL    HW2 2154   2.894   0.349   5.334
  419SOL     OW 2155   0.164   6.737   3.033
  419SOL    HW1 2156   0.141   6.833   3.049
  419SOL    HW2 2157   0.093   6.678   3.072
  420SOL     OW 2158   5.448   1.378   6.680
  420SOL    HW1 2159   5.368   1.382   6.740
  420SOL    HW2 2160   5.473   1.470   6.651
  421SOL     OW 2161   5.807   3.991   4.957
  421SOL    HW1 2162   5.774   3.924   5.023
  421SOL    HW2 2163   5.733   4.012   4.892
  422SOL     OW 2164   5.514   1.810   0.817
  422SOL    HW1 2165   5.586   1.803   0.748
  422SOL    HW2 2166   5.424   1.802   0.773
  423SOL     OW 2167   2.334   1.365   6.522
  423SOL    HW1 2168   2.257   1.322   6.569
  423SOL    HW2 2169   2.324   1.352   6.423
  424SOL     OW 2170   2.059   5.031   2.787
  424SOL    HW1 2171   2.088   4.938   2.809
  424SOL    HW2 2172   1.975   5.028   2.732
  425SOL     OW 2173   4.679   0.982   4.787
  425SOL    HW1 2174   4.713   1.033   4.867
  425SOL    HW2 2175   4.666   1.044   4.711
  426SOL     OW 2176   2.288   2.821   5.251
  426SOL    HW1 2177   2.339   2.871   5.181
  426SOL    HW2 2178   2.318   2.850   5.341
  427SOL     OW 2179   5.027   1.204   4.487
  427SOL    HW1 2180   5.006   1.171   4.579
  427SOL    HW2 2181   4.961   1.166   4.422
  428SOL     OW 2182   2.526   0.592   4.369
  428SOL    HW1 2183   2.443   0.646   4.358
  428SOL    HW2 2184   2.594   0.621   4.301
  429SOL     OW 2185   0.761   5.536   4.409
  429SOL    HW1 2186   0.684   5.507   4.466
  429SOL    HW2 2187   0.824   5.459   4.396
  430SOL     OW 2188   1.710   0.068   3.832
  430SOL    HW1 2189   1.713   0.142   3.900
  430SOL    HW2 2190   1.643   0.090   3.762
  431SOL     OW 2191   2.250   1.750   0.458
  431SOL    HW1 2192   2.316   1.759   0.383
  431SOL    HW2 2193   2.235   1.840   0.500
  432SOL     OW 2194   5.489   1.625   1.338
  432SOL    HW1 2195   5.589   1.623   1.340
  432SOL    HW2 2196   5.458   1.661   1.250
  433SOL     OW 2197   3.680   6.545   6.006
  433SOL    HW1 2198   3.594   6.496   5.994
  433SOL    HW2 2199   3.756   6.479   6.010
  434SOL     OW 2200   3.830   5.667   3.941
  434SOL    HW1 2201   3.745   5.670   3.888
  434SOL    HW2 2202   3.817   5.608   4.020
  435SOL     OW 2203   3.796   0.975   5.450
  435SOL    HW1 2204   3.881   0.971   5.398
  435SOL    HW2 2205   3.755   0.884   5.453
  436SOL     OW 2206   3.379   6.113   2.585
  436SOL    HW1 2207   3.283   6.084   2.583
  436SOL    HW2 2208   3.385   6.207   2.553
  437SOL     OW 2209   0.083   1.284   4.911
  437SOL    HW1 2210   0.098   1.370   4.960
  437SOL    HW2 2211   0.144   1.281   4.832
  438SOL     OW 2212   1.270   4.514   2.884
  438SOL    HW1 2213   1.318   4.599   2.860
  438SOL    HW2 2214   1.209   4.532   2.962
  439SOL     OW 2215   5.648   0.692   2.754
  439SOL    HW1 2216   5.677   0.726   2.665
  439SOL    HW2 2217   5.722   0.640   2.796
  440SOL     OW 2218   3.619   1.413   6.813
  440SOL    HW1 2219   3.654   1.445   6.725
  440SOL    HW2 2220   3.543   1.471   6.842
  441SOL     OW 2221   6.018   4.481   3.135
  441SOL    HW1 2222   6.015   4.576   3.168
  441SOL    HW2 2223   5.975   4.476   3.045
  442SOL     OW 2224   4.970   4.468   5.603
  442SOL    HW1 2225   5.006   4.545   5.656
  442SOL    HW2 2226   4.970   4.386   5.659
  443SOL     OW 2227   5.269   4.858   3.377
  443SOL    HW1 2228   5.355   4.907   3.365
  443SOL    HW2 2229   5.288   4.766   3.412
  444SOL     OW 2230   4.005   1.391   6.524
  444SOL    HW1 2231   4.024   1.413   6.620
  444SOL    HW2 2232   4.064   1.446   6.465
  445SOL     OW 2233   2.621   6.245   2.895
  445SOL    HW1 2234   2.555   6.177   2.865
  445SOL    HW2 2235   2.690   6.201   2.953
  446SOL     OW 2236   4.462   5.935   3.166
  446SOL    HW1 2237   4.382   5.883   3.195
  446SOL    HW2 2238   4.447   6.032   3.184
  447SOL     OW 2239   6.155   3.350   5.459
  447SOL    HW1 2240   6.204   3.328   5.375
  447SOL    HW2 2241   6.221   3.362   5.534
  448SOL     OW 2242   1.993   1.283   3.313
  448SOL    HW1 2243   2.011   1.231   3.229
  448SOL    HW2 2244   2.034   1.373   3.306
  449SOL     OW 2245   2.248   2.399   2.997
  449SOL    HW1 2246   2.296   2.340   2.932
  449SOL    HW2 2247   2.275   2.375   3.091
  450SOL     OW 2248   1.035   4.545   3.458
  450SOL    HW1 2249   1.090   4.627   3.444
  450SOL    HW2 2250   0.942   4.560   3.423
  451SOL     OW 2251   6.761   2.639   3.531
  451SOL    HW1 2252   6.686   2.705   3.538
  451SOL    HW2 2253   6.750   2.586   3.447
  452SOL     OW 2254   3.377   6.857   2.617
  452SOL    HW1 2255   3.415   6.765   2.615
  452SOL    HW2 2256   3.401   6.900   2.704
  453SOL     OW 2257   4.220   0.618   6.635
  453SOL    HW1 2258   4.195   0.525   6.663
  453SOL    HW2 2259   4.172   0.641   6.550
  454SOL     OW 2260   0.113   4.386   6.472
  454SOL    HW1 2261   0.075   4.376   6.379
  454SOL    HW2 2262   0.156   4.475   6.481
  455SOL     OW 2263   6.447   3.559   5.461
  455SOL    HW1 2264   6.529   3.615   5.446
  455SOL    HW2 2265   6.474   3.464   5.477
  456SOL     OW 2266   1.862   0.803   3.894
  456SOL    HW1 2267   1.934   0.736   3.874
  456SOL    HW2 2268   1.855   0.815   3.993
  457SOL     OW 2269   1.282   5.737   5.711
  457SOL    HW1 2270   1.363   5.732   5.652
  457SOL    HW2 2271   1.299   5.687   5.795
  458SOL     OW 2272   2.653   1.132   2.627
  458SOL    HW1 2273   2.690   1.189   2.553
  458SOL    HW2 2274   2.666   1.178   2.715
  459SOL     OW 2275   2.045   0.573   5.618
  459SOL    HW1 2276   2.116   0.538   5.679
  459SOL    HW2 2277   2.079   0.654   5.571
  460SOL     OW 2278   1.370   1.432   5.150
  460SOL    HW1 2279   1.433   1.366   5.190
  460SOL    HW2 2280   1.366   1.419   5.051
  461SOL     OW 2281   6.799   4.799   5.022
  461SOL    HW1 2282   6.718   4.857   5.012
  461SOL    HW2 2283   6.881   4.854   5.013
  462SOL     OW 2284   3.694   3.896   4.809
  462SOL    HW1 2285   3.637   3.858   4.883
  462SOL    HW2 2286   3.772   3.836   4.793
  463SOL     OW 2287   6.440   6.757   2.745
  463SOL    HW1 2288   6.533   6.733   2.716
  463SOL    HW2 2289   6.431   6.857   2.750
  464SOL     OW 2290   3.056   6.678   6.196
  464SOL    HW1 2291   3.077   6.758   6.254
  464SOL    HW2 2292   3.027   6.602   6.254
  465SOL     OW 2293   1.334   2.339   6.963
  465SOL    HW1 2294   1.238   2.367   6.972
  465SOL    HW2 2295   1.342   2.242   6.986
  466SOL     OW 2296   3.244   6.274   4.394
  466SOL    HW1 2297   3.340   6.265   4.417
  466SOL    HW2 2298   3.232   6.267   4.295
  467SOL     OW 2299   0.555   1.424   2.346
  467SOL    HW1 2300   0.613   1.426   2.427
  467SOL    HW2 2301   0.535   1.518   2.318
  468SOL     OW 2302   5.035   0.471   6.252
  468SOL    HW1 2303   5.081   0.486   6.340
  468SOL    HW2 2304   4.936   0.484   6.263
  469SOL     OW 2305   2.939   4.487   5.785
  469SOL    HW1 2306   2.913   4.544   5.863
  469SOL    HW2 2307   2.921   4.537   5.700
  470SOL     OW 2308   3.340   6.211   3.202
  470SOL    HW1 2309   3.414   6.261   3.158
  470SOL    HW2 2310   3.348   6.114   3.180
  471SOL     OW 2311   2.572   2.183   3.935
  471SOL    HW1 2312   2.511   2.235   3.995
  471SOL    HW2 2313   2.529   2.097   3.910
  472SOL     OW 2314   5.716   4.686   6.425
  472SOL    HW1 2315   5.700   4.707   6.329
  472SOL    HW2 2316   5.690   4.764   6.482
  473SOL     OW 2317   6.908   2.687   2.480
  473SOL    HW1 2318   6.859   2.620   2.535
  473SOL    HW2 2319   6.993   2.713   2.526
  474SOL     OW 2320   6.167   5.302   5.180
  474SOL    HW1 2321   6.192   5.207   5.199
  474SOL    HW2 2322   6.105   5.304   5.102
  475SOL     OW 2323   5.645   2.960   0.185
  475SOL    HW1 2324   5.578   3.020   0.229
  475SOL    HW2 2325   5.722   2.947   0.247
  476SOL     OW 2326   0.029   3.917   2.294
  476SOL    HW1 2327   0.067   3.826   2.276
  476SOL    HW2 2328   0.029   3.970   2.209
  477SOL     OW 2329   2.798   6.247   3.581
  477SOL    HW1 2330   2.757   6.273   3.494
  477SOL    HW2 2331   2.727   6.244   3.652
  478SOL     OW 2332   4.238   5.943   2.982
  478SOL    HW1 2333   4.204   6.036   2.968
  478SOL    HW2 2334   4.191   5.902   3.060
  479SOL     OW 2335   3.933   3.056   3.959
  479SOL    HW1 2336   3.920   3.155   3.950
  479SOL    HW2 2337   3.952   3.034   4.055
  480SOL     OW 2338   1.625   0.160   3.026
  480SOL    HW1 2339   1.651   0.117   2.940
  480SOL    HW2 2340   1.579   0.247   3.007
  481SOL     OW 2341   1.298   6.156   1.362
  481SOL    HW1 2342   1.247   6.152   1.276
  481SOL    HW2 2343   1.235   6.145   1.439
  482SOL     OW 2344   5.365   4.889   2.726
  482SOL    HW1 2345   5.269   4.867   2.742
  482SOL    HW2 2346   5.411   4.810   2.686
  483SOL     OW 2347   6.613   2.753   2.682
  483SOL    HW1 2348   6.697   2.794   2.717
  483SOL    HW2 2349   6.547   2.825   2.661
  484SOL     OW 2350   1.793   4.382   4.289
  484SOL    HW1 2351   1.863   4.329   4.240
  484SOL    HW2 2352   1.738   4.433   4.224
  485SOL     OW 2353   5.656   3.376   2.201
  485SOL    HW1 2354   5.649   3.335   2.111
  485SOL    HW2 2355   5.579   3.346   2.258
  486SOL     OW 2356   5.880   0.319   6.487
  486SOL    HW1 2357   5.787   0.300   6.454
  486SOL    HW2 2358   5.889   0.285   6.581
  487SOL     OW 2359   0.228   0.364   3.491
  487SOL    HW1 2360   0.189   0.434   3.433
  487SOL    HW2 2361   0.250   0.283   3.437
  488SOL     OW 2362   1.464   7.019   3.159
  488SOL    HW1 2363   1.527   0.060   3.115
  488SOL    HW2 2364   1.383   7.009   3.101
  489SOL     OW 2365   6.223   5.840   4.732
  489SOL    HW1 2366   6.137   5.889   4.720
  489SOL    HW2 2367   6.276   5.845   4.648
  490SOL     OW 2368   1.488   5.762   5.517
  490SOL    HW1 2369   1.565   5.823   5.534
  490SOL    HW2 2370   1.522   5.669   5.502
  491SOL     OW 2371   0.136   3.366   0.661
  491SOL    HW1 2372   0.150   3.268   0.644
  491SOL    HW2 2373   0.128   3.414   0.574
  492SOL     OW 2374   1.599   1.263   5.766
  492SOL    HW1 2375   1.605   1.206   5.684
  492SOL    HW2 2376   1.643   1.351   5.749
  493SOL     OW 2377   2.616   0.157   5.167
  493SOL    HW1 2378   2.700   0.107   5.190
  493SOL    HW2 2379   2.622   0.251   5.202
  494SOL     OW 2380   2.724   1.146   5.784
  494SOL    HW1 2381   2.759   1.164   5.877
  494SOL    HW2 2382   2.702   1.049   5.775
  495SOL     OW 2383   4.393   5.875   5.655
  495SOL    HW1 2384   4.366   5.823   5.736
  495SOL    HW2 2385   4.324   5.866   5.584
  496SOL     OW 2386   6.370   1.933   2.715
  496SOL    HW1 2387   6.450   1.986   2.744
  496SOL    HW2 2388   6.399   1.861   2.652
  497SOL     OW 2389   3.771   1.179   5.615
  497SOL    HW1 2390   3.859   1.194   5.661
  497SOL    HW2 2391   3.777   1.096   5.558
  498SOL     OW 2392   0.151   5.270   1.914
  498SOL    HW1 2393   0.118   5.221   1.833
  498SOL    HW2 2394   0.109   5.361   1.917
  499SOL     OW 2395   2.996   5.071   6.005
  499SOL    HW1 2396   3.093   5.066   5.978
  499SOL    HW2 2397   2.942   5.010   5.947
  500SOL     OW 2398   5.265   2.596   6.115
  500SOL    HW1 2399   5.194   2.666   6.101
  500SOL    HW2 2400   5.355   2.639   6.112
  501SOL     OW 2401   1.849   6.863   2.644
  501SOL    HW1 2402   1.872   6.766   2.646
  501SOL    HW2 2403   1.933   6.918   2.643
  502SOL     OW 2404   1.698   4.765   5.963
  502SOL    HW1 2405   1.789   4.791   5.932
  502SOL    HW2 2406   1.632   4.835   5.937
  503SOL     OW 2407   3.221   4.824   6.327
  503SOL    HW1 2408   3.146   4.825   6.392
  503SOL    HW2 2409   3.253   4.730   6.314
  504SOL     OW 2410   6.586   6.102   1.667
  504SOL    HW1 2411   6.681   6.074   1.683
  504SOL    HW2 2412   6.537   6.104   1.754
  505SOL     OW 2413   4.076   6.902   5.482
  505SOL    HW1 2414   4.066   6.969   5.408
  505SOL    HW2 2415   4.062   6.948   5.570
  506SOL     OW 2416   3.064   5.362   2.938
  506SOL    HW1 2417   3.014   5.448   2.942
  506SOL    HW2 2418   3.158   5.377   2.969
  507SOL     OW 2419   4.374   1.366   1.884
  507SOL    HW1 2420   4.294   1.313   1.911
  507SOL    HW2 2421   4.394   1.350   1.787
  508SOL     OW 2422   6.747   2.987   3.933
  508SOL    HW1 2423   6.693   3.031   3.861
  508SOL    HW2 2424   6.837   3.030   3.938
  509SOL     OW 2425   5.062   0.559   0.251
  509SOL    HW1 2426   5.034   0.568   0.155
  509SOL    HW2 2427   5.007   0.620   0.308
  510SOL     OW 2428   6.568   4.765   5.260
  510SOL    HW1 2429   6.605   4.802   5.346
  510SOL    HW2 2430   6.644   4.728   5.206
  511SOL     OW 2431   1.130   1.723   6.298
  511SOL    HW1 2432   1.123   1.624   6.314
  511SOL    HW2 2433   1.176   1.766   6.375
  512SOL     OW 2434   5.779   2.215   7.014
  512SOL    HW1 2435   5.861   2.272   7.014
  512SOL    HW2 2436   5.752   2.196   0.085
  513SOL     OW 2437   5.564   6.695   2.559
  513SOL    HW1 2438   5.642   6.646   2.598
  513SOL    HW2 2439   5.483   6.637   2.560
  514SOL     OW 2440   0.099   6.561   3.720
  514SOL    HW1 2441   0.175   6.554   3.655
  514SOL    HW2 2442   0.092   6.655   3.753
  515SOL     OW 2443   2.907   0.740   6.069
  515SOL    HW1 2444   2.917   0.720   6.166
  515SOL    HW2 2445   2.820   0.788   6.054
  516SOL     OW 2446   2.397   4.275   1.760
  516SOL    HW1 2447   2.342   4.355   1.738
  516SOL    HW2 2448   2.493   4.300   1.768
  517SOL     OW 2449   3.797   4.948   2.621
  517SOL    HW1 2450   3.861   4.997   2.562
  517SOL    HW2 2451   3.709   4.938   2.573
  518SOL     OW 2452   2.194   3.153   3.389
  518SOL    HW1 2453   2.147   3.230   3.431
  518SOL    HW2 2454   2.173   3.149   3.292
  519SOL     OW 2455   6.839   6.600   4.226
  519SOL    HW1 2456   6.877   6.689   4.250
  519SOL    HW2 2457   6.885   6.565   4.144
  520SOL     OW 2458   1.223   3.372   6.866
  520SOL    HW1 2459   1.216   3.348   6.963
  520SOL    HW2 2460   1.260   3.464   6.857
  521SOL     OW 2461   4.420   5.547   4.576
  521SOL    HW1 2462   4.489   5.618   4.588
  521SOL    HW2 2463   4.454   5.479   4.511
  522SOL     OW 2464   4.312   3.755   1.517
  522SOL    HW1 2465   4.316   3.656   1.532
  522SOL    HW2 2466   4.238   3.776   1.454
  523SOL     OW 2467   0.090   6.292   1.752
  523SOL    HW1 2468   0.141   6.310   1.668
  523SOL    HW2 2469   0.130   6.214   1.800
  524SOL     OW 2470   0.927   2.806   2.226
  524SOL    HW1 2471   0.865   2.727   2.218
  524SOL    HW2 2472   0.980   2.815   2.142
  525SOL     OW 2473   1.378   3.333   6.621
  525SOL    HW1 2474   1.323   3.324   6.703
  525SOL    HW2 2475   1.449   3.402   6.635
  526SOL     OW 2476   2.928   6.974   4.026
  526SOL    HW1 2477   2.860   6.937   3.961
  526SOL    HW2 2478   2.880   7.014   4.104
  527SOL     OW 2479   1.066   2.420   6.957
  527SOL    HW1 2480   0.988   2.401   6.897
  527SOL    HW2 2481   1.040   2.487   0.002
  528SOL     OW 2482   0.741   3.553   3.788
  528SOL    HW1 2483   0.764   3.650   3.800
  528SOL    HW2 2484   0.825   3.500   3.778
  529SOL     OW 2485   2.290   0.508   5.773
  529SOL    HW1 2486   2.384   0.473   5.769
  529SOL    HW2 2487   2.251   0.486   5.862
  530SOL     OW 2488   3.787   2.974   2.280
  530SOL    HW1 2489   3.710   2.920   2.313
  530SOL    HW2 2490   3.767   3.008   2.189
  531SOL     OW 2491   2.062   0.686   2.526
  531SOL    HW1 2492   2.121   0.689   2.445
  531SOL    HW2 2493   1.973   0.648   2.501
  532SOL     OW 2494   1.735   3.911   0.416
  532SOL    HW1 2495   1.795   3.848   0.465
  532SOL    HW2 2496   1.735   3.888   0.319
  533SOL     OW 2497   5.496   0.101   3.608
  533SOL    HW1 2498   5.413   0.059   3.570
  533SOL    HW2 2499   5.470   0.166   3.680
  534SOL     OW 2500   0.587   5.729   2.035
  534SOL    HW1 2501   0.603   5.774   2.123
  534SOL    HW2 2502   0.574   5.798   1.964
  535SOL     OW 2503   6.428   4.573   3.179
  535SOL    HW1 2504   6.500   4.510   3.206
  535SOL    HW2 2505   6.370   4.531   3.109
  536SOL     OW 2506   6.586   5.803   2.671
  536SOL    HW1 2507   6.501   5.781   2.623
  536SOL    HW2 2508   6.566   5.839   2.762
  537SOL     OW 2509   3.536   6.581   4.386
  537SOL    HW1 2510   3.437   6.591   4.374
  537SOL    HW2 2511   3.560   6.605   4.480
  538SOL     OW 2512   1.439   5.244   5.500
  538SOL    HW1 2513   1.405   5.298   5.423
  538SOL    HW2 2514   1.366   5.185   5.534
  539SOL     OW 2515   1.144   5.453   2.140
  539SOL    HW1 2516   1.062   5.437   2.195
  539SOL    HW2 2517   1.118   5.467   2.044
  540SOL     OW 2518   2.052   1.030   4.014
  540SOL    HW1 2519   2.097   0.995   3.932
  540SOL    HW2 2520   1.961   1.064   3.990
  541SOL     OW 2521   4.313   6.109   3.665
  541SOL    HW1 2522   4.232   6.112   3.607
  541SOL    HW2 2523   4.392   6.143   3.615
  542SOL     OW 2524   3.154   6.496   6.563
  542SOL    HW1 2525   3.198   6.455   6.643
  542SOL    HW2 2526   3.185   6.590   6.552
  543SOL     OW 2527   5.537   3.861   3.779
  543SOL    HW1 2528   5.563   3.854   3.683
  543SOL    HW2 2529   5.443   3.894   3.786
  544SOL     OW 2530   0.629   4.744   0.151
  544SOL    HW1 2531   0.607   4.735   0.054
  544SOL    HW2 2532   0.728   4.754   0.163
  545SOL     OW 2533   4.371   1.133   1.286
  545SOL    HW1 2534   4.342   1.175   1.200
  545SOL    HW2 2535   4.468   1.110   1.282
  546SOL     OW 2536   0.590   4.159   1.494
  546SOL    HW1 2537   0.566   4.249   1.458
  546SOL    HW2 2538   0.689   4.150   1.499
  547SOL     OW 2539   3.367   2.606   0.714
  547SOL    HW1 2540   3.277   2.634   0.748
  547SOL    HW2 2541   3.425   2.687   0.706
  548SOL     OW 2542   3.416   3.591   0.790
  548SOL    HW1 2543   3.379   3.620   0.878
  548SOL    HW2 2544   3.480   3.660   0.756
  549SOL     OW 2545   5.589   2.610   1.513
  549SOL    HW1 2546   5.560   2.538   1.450
  549SOL    HW2 2547   5.557   2.699   1.480
  550SOL     OW 2548   6.982   5.007   3.539
  550SOL    HW1 2549   0.022   5.070   3.584
  550SOL    HW2 2550   6.986   4.918   3.586
  551SOL     OW 2551   0.175   0.782   1.011
  551SOL    HW1 2552   0.257   0.732   0.984
  551SOL    HW2 2553   0.156   0.853   0.943
  552SOL     OW 2554   5.092   5.378   5.248
  552SOL    HW1 2555   5.136   5.344   5.165
  552SOL    HW2 2556   5.015   5.319   5.271
  553SOL     OW 2557   3.528   0.590   3.800
  553SOL    HW1 2558   3.564   0.525   3.732
  553SOL    HW2 2559   3.559   0.562   3.891
  554SOL     OW 2560   5.493   5.733   6.919
  554SOL    HW1 2561   5.572   5.793   6.923
  554SOL    HW2 2562   5.418   5.772   6.972
  555SOL     OW 2563   3.505   5.287   5.378
  555SOL    HW1 2564   3.407   5.276   5.361
  555SOL    HW2 2565   3.543   5.352   5.312
  556SOL     OW 2566   5.296   1.571   4.389
  556SOL    HW1 2567   5.312   1.662   4.427
  556SOL    HW2 2568   5.373   1.512   4.411
  557SOL     OW 2569   0.060   4.957   6.422
  557SOL    HW1 2570   0.037   5.013   6.502
  557SOL    HW2 2571   0.149   4.984   6.387
  558SOL     OW 2572   3.991   3.191   3.654
  558SOL    HW1 2573   3.962   3.096   3.668
  558SOL    HW2 2574   3.995   3.237   3.743
  559SOL     OW 2575   6.447   6.187   5.734
  559SOL    HW1 2576   6.364   6.241   5.728
  559SOL    HW2 2577   6.432   6.108   5.794
  560SOL     OW 2578   6.203   3.581   3.234
  560SOL    HW1 2579   6.116   3.618   3.266
  560SOL    HW2 2580   6.278   3.637   3.272
  561SOL     OW 2581   6.580   2.670   6.822
  561SOL    HW1 2582   6.522   2.589   6.821
  561SOL    HW2 2583   6.538   2.741   6.878
  562SOL     OW 2584   4.786   0.126   6.182
  562SOL    HW1 2585   4.739   0.122   6.094
  562SOL    HW2 2586   4.719   0.137   6.256
  563SOL     OW 2587   1.917   1.159   3.527
  563SOL    HW1 2588   1.822   1.134   3.509
  563SOL    HW2 2589   1.948   1.226   3.458
  564SOL     OW 2590   6.978   1.777   6.525
  564SOL    HW1 2591   6.986   1.736   6.616
  564SOL    HW2 2592   6.910   1.850   6.528
  565SOL     OW 2593   3.141   3.517   3.887
  565SOL    HW1 2594   3.222   3.570   3.861
  565SOL    HW2 2595   3.075   3.516   3.812
  566SOL     OW 2596   1.810   4.236   3.165
  566SOL    HW1 2597   1.818   4.191   3.254
  566SOL    HW2 2598   1.880   4.307   3.158
  567SOL     OW 2599   3.098   2.773   0.513
  567SOL    HW1 2600   3.139   2.720   0.587
  567SOL    HW2 2601   3.118   2.870   0.527
  568SOL     OW 2602   5.816   6.820   0.599
  568SOL    HW1 2603   5.824   6.756   0.675
  568SOL    HW2 2604   5.880   6.895   0.612
  569SOL     OW 2605   1.260   2.824   1.435
  569SOL    HW1 2606   1.333   2.760   1.410
  569SOL    HW2 2607   1.172   2.783   1.414
  570SOL     OW 2608   3.439   6.983   6.725
  570SOL    HW1 2609   3.501   0.034   6.699
  570SOL    HW2 2610   3.417   6.992   6.822
  571SOL     OW 2611   2.924   4.763   4.044
  571SOL    HW1 2612   2.849   4.727   3.989
  571SOL    HW2 2613   2.898   4.762   4.140
  572SOL     OW 2614   1.833   5.143   5.094
  572SOL    HW1 2615   1.776   5.203   5.150
  572SOL    HW2 2616   1.858   5.062   5.146
  573SOL     OW 2617   6.431   1.048   5.582
  573SOL    HW1 2618   6.467   0.978   5.645
  573SOL    HW2 2619   6.400   1.004   5.498
  574SOL     OW 2620   3.931   0.060   5.330
  574SOL    HW1 2621   3.901   0.099   5.417
  574SOL    HW2 2622   3.861   0.073   5.261
  575SOL     OW 2623   4.249   2.589   1.273
  575SOL    HW1 2624   4.229   2.621   1.180
  575SOL    HW2 2625   4.167   2.545   1.311
  576SOL     OW 2626   1.677   2.938   2.702
  576SOL    HW1 2627   1.622   2.861   2.669
  576SOL    HW2 2628   1.617   3.007   2.742
  577SOL     OW 2629   1.606   0.479   2.375
  577SOL    HW1 2630   1.533   0.545   2.355
  577SOL    HW2 2631   1.574   0.387   2.353
  578SOL     OW 2632   1.401   6.068   5.968
  578SOL    HW1 2633   1.421   5.970   5.971
  578SOL    HW2 2634   1.339   6.088   5.893
  579SOL     OW 2635   1.496   4.725   2.823
  579SOL    HW1 2636   1.515   4.704   2.727
  579SOL    HW2 2637   1.577   4.704   2.879
  580SOL     OW 2638   4.102   4.873   5.749
  580SOL    HW1 2639   4.178   4.911   5.803
  580SOL    HW2 2640   4.128   4.783   5.714
  581SOL     OW 2641   1.140   3.139   3.262
  581SOL    HW1 2642   1.090   3.074   3.320
  581SOL    HW2 2643   1.095   3.229   3.267
  582SOL     OW 2644   4.317   6.126   3.359
  582SOL    HW1 2645   4.397   6.181   3.384
  582SOL    HW2 2646   4.244   6.186   3.327
  583SOL     OW 2647   2.736   6.058   5.245
  583SOL    HW1 2648   2.836   6.054   5.255
  583SOL    HW2 2649   2.711   6.029   5.152
  584SOL     OW 2650   3.592   6.759   6.761
  584SOL    HW1 2651   3.552   6.835   6.710
  584SOL    HW2 2652   3.662   6.715   6.705
  585SOL     OW 2653   4.290   0.596   1.115
  585SOL    HW1 2654   4.212   0.658   1.106
  585SOL    HW2 2655   4.346   0.625   1.193
  586SOL     OW 2656   3.607   0.648   1.411
  586SOL    HW1 2657   3.678   0.674   1.345
  586SOL    HW2 2658   3.531   0.605   1.362
  587SOL     OW 2659   4.980   2.412   2.676
  587SOL    HW1 2660   5.068   2.398   2.722
  587SOL    HW2 2661   4.969   2.510   2.656
  588SOL     OW 2662   1.953   5.039   0.806
  588SOL    HW1 2663   1.855   5.035   0.827
  588SOL    HW2 2664   2.000   5.095   0.873
  589SOL     OW 2665   3.877   5.600   1.564
  589SOL    HW1 2666   3.867   5.521   1.625
  589SOL    HW2 2667   3.856   5.573   1.470
  590SOL     OW 2668   5.682   1.458   0.879
  590SOL    HW1 2669   5.632   1.431   0.962
  590SOL    HW2 2670   5.751   1.526   0.903
  591SOL     OW 2671   4.141   6.354   3.986
  591SOL    HW1 2672   4.188   6.349   4.074
  591SOL    HW2 2673   4.045   6.381   4.001
  592SOL     OW 2674   4.408   0.273   3.105
  592SOL    HW1 2675   4.410   0.173   3.099
  592SOL    HW2 2676   4.466   0.302   3.181
  593SOL     OW 2677   4.714   2.228   4.888
  593SOL    HW1 2678   4.665   2.202   4.972
  593SOL    HW2 2679   4.792   2.285   4.912
  594SOL     OW 2680   6.480   1.249   0.594
  594SOL    HW1 2681   6.430   1.271   0.510
  594SOL    HW2 2682   6.577   1.240   0.574
  595SOL     OW 2683   5.861   6.722   3.379
  595SOL    HW1 2684   5.897   6.760   3.463
  595SOL    HW2 2685   5.879   6.784   3.303
  596SOL     OW 2686   0.057   5.082   3.261
  596SOL    HW1 2687   0.041   5.043   3.352
  596SOL    HW2 2688   7.023   5.036   3.194
  597SOL     OW 2689   2.662   6.367   6.069
  597SOL    HW1 2690   2.663   6.269   6.047
  597SOL    HW2 2691   2.699   6.381   6.161
  598SOL     OW 2692   3.111   4.114   4.935
  598SOL    HW1 2693   3.042   4.184   4.952
  598SOL    HW2 2694   3.165   4.140   4.855
  599SOL     OW 2695   1.901   5.962   3.094
  599SOL    HW1 2696   1.826   5.927   3.038
  599SOL    HW2 2697   1.906   5.910   3.180
  600SOL     OW 2698   6.709   3.402   6.170
  600SOL    HW1 2699   6.662   3.314   6.176
  600SOL    HW2 2700   6.660   3.463   6.108
  601SOL     OW 2701   1.263   1.862   4.251
  601SOL    HW1 2702   1.178   1.887   4.204
  601SOL    HW2 2703   1.241   1.809   4.333
  602SOL     OW 2704   2.558   0.883   5.858
  602SOL    HW1 2705   2.484   0.868   5.793
  602SOL    HW2 2706   2.641   0.837   5.826
  603SOL     OW 2707   1.751   2.155   5.243
  603SOL    HW1 2708   1.842   2.174   5.280
  603SOL    HW2 2709   1.685   2.149   5.317
  604SOL     OW 2710   1.250   2.007   1.442
  604SOL    HW1 2711   1.255   1.914   1.478
  604SOL    HW2 2712   1.185   2.061   1.497
  605SOL     OW 2713   6.971   4.275   1.884
  605SOL    HW1 2714   0.002   4.238   1.809
  605SOL    HW2 2715   6.916   4.352   1.852
  606SOL     OW 2716   4.919   6.353   5.586
  606SOL    HW1 2717   4.857   6.431   5.593
  606SOL    HW2 2718   4.997   6.377   5.528
  607SOL     OW 2719   0.307   5.161   5.093
  607SOL    HW1 2720   0.395   5.124   5.065
  607SOL    HW2 2721   0.253   5.089   5.137
  608SOL     OW 2722   3.827   6.673   6.636
  608SOL    HW1 2723   3.835   6.578   6.668
  608SOL    HW2 2724   3.827   6.675   6.536
  609SOL     OW 2725   3.751   3.032   1.743
  609SOL    HW1 2726   3.760   2.935   1.721
  609SOL    HW2 2727   3.840   3.076   1.736
  610SOL     OW 2728   5.107   2.338   0.145
  610SOL    HW1 2729   5.041   2.405   0.108
  610SOL    HW2 2730   5.057   2.259   0.180
  611SOL     OW 2731   3.448   6.655   2.254
  611SOL    HW1 2732   3.434   6.734   2.195
  611SOL    HW2 2733   3.524   6.672   2.316
  612SOL     OW 2734   2.772   5.849   4.974
  612SOL    HW1 2735   2.823   5.796   5.042
  612SOL    HW2 2736   2.797   5.816   4.882
  613SOL     OW 2737   5.347   4.038   4.959
  613SOL    HW1 2738   5.413   3.964   4.975
  613SOL    HW2 2739   5.303   4.062   5.045
  614SOL     OW 2740   5.740   5.336   4.732
  614SOL    HW1 2741   5.723   5.433   4.751
  614SOL    HW2 2742   5.663   5.298   4.681
  615SOL     OW 2743   0.074   2.520   1.237
  615SOL    HW1 2744   0.117   2.429   1.229
  615SOL    HW2 2745   0.102   2.576   1.159
  616SOL     OW 2746   6.620   2.545   2.505
  616SOL    HW1 2747   6.567   2.537   2.420
  616SOL    HW2 2748   6.618   2.640   2.536
  617SOL     OW 2749   1.181   4.775   5.798
  617SOL    HW1 2750   1.239   4.737   5.870
  617SOL    HW2 2751   1.085   4.762   5.823
  618SOL     OW 2752   1.450   2.638   0.921
  618SOL    HW1 2753   1.471   2.715   0.980
  618SOL    HW2 2754   1.535   2.602   0.882
  619SOL     OW 2755   2.117   2.256   0.679
  619SOL    HW1 2756   2.027   2.220   0.654
  619SOL    HW2 2757   2.168   2.277   0.595
  620SOL     OW 2758   4.453   2.437   0.219
  620SOL    HW1 2759   4.466   2.527   0.260
  620SOL    HW2 2760   4.541   2.403   0.186
  621SOL     OW 2761   4.153   5.387   6.612
  621SOL    HW1 2762   4.084   5.441   6.565
  621SOL    HW2 2763   4.136   5.290   6.597
  622SOL     OW 2764   1.119   1.386   6.463
  622SOL    HW1 2765   1.065   1.463   6.497
  622SOL    HW2 2766   1.119   1.313   6.531
  623SOL     OW 2767   0.449   6.351   6.116
  623SOL    HW1 2768   0.413   6.423   6.176
  623SOL    HW2 2769   0.388   6.340   6.038
  624SOL     OW 2770   0.983   2.612   1.797
  624SOL    HW1 2771   1.039   2.546   1.745
  624SOL    HW2 2772   0.926   2.664   1.733
  625SOL     OW 2773   2.320   2.232   1.212
  625SOL    HW1 2774   2.249   2.301   1.221
  625SOL    HW2 2775   2.332   2.208   1.116
  626SOL     OW 2776   2.698   5.411   3.506
  626SOL    HW1 2777   2.668   5.455   3.421
  626SOL    HW2 2778   2.783   5.362   3.490
  627SOL     OW 2779   5.375   0.580   0.634
  627SOL    HW1 2780   5.327   0.526   0.704
  627SOL    HW2 2781   5.342   0.553   0.544
  628SOL     OW 2782   4.679   4.912   5.079
  628SOL    HW1 2783   4.623   4.969   5.019
  628SOL    HW2 2784   4.668   4.816   5.053
  629SOL     OW 2785   0.310   0.060   1.144
  629SOL    HW1 2786   0.218   0.035   1.113
  629SOL    HW2 2787   0.323   0.159   1.132
  630SOL     OW 2788   5.470   2.048   2.731
  630SOL    HW1 2789   5.451   2.146   2.733
  630SOL    HW2 2790   5.402   2.002   2.673
  631SOL     OW 2791   3.597   0.131   5.652
  631SOL    HW1 2792   3.554   0.207   5.604
  631SOL    HW2 2793   3.630   0.064   5.586
  632SOL     OW 2794   2.750   1.545   6.904
  632SOL    HW1 2795   2.821   1.480   6.929
  632SOL    HW2 2796   2.764   1.576   6.810
  633SOL     OW 2797   3.865   4.977   6.923
  633SOL    HW1 2798   3.897   5.071   6.915
  633SOL    HW2 2799   3.780   4.966   6.872
  634SOL     OW 2800   4.229   4.661   1.651
  634SOL    HW1 2801   4.324   4.690   1.660
  634SOL    HW2 2802   4.170   4.741   1.643
  635SOL     OW 2803   4.836   6.392   2.579
  635SOL    HW1 2804   4.822   6.297   2.607
  635SOL    HW2 2805   4.810   6.453   2.655
  636SOL     OW 2806   5.272   6.096   6.325
  636SOL    HW1 2807   5.223   6.066   6.244
  636SOL    HW2 2808   5.311   6.187   6.308
  637SOL     OW 2809   5.148   4.644   1.719
  637SOL    HW1 2810   5.188   4.582   1.650
  637SOL    HW2 2811   5.085   4.592   1.777
  638SOL     OW 2812   5.262   1.285   2.311
  638SOL    HW1 2813   5.361   1.300   2.317
  638SOL    HW2 2814   5.242   1.188   2.323
  639SOL     OW 2815   5.161   4.388   2.294
  639SOL    HW1 2816   5.245   4.351   2.255
  639SOL    HW2 2817   5.128   4.464   2.237
  640SOL     OW 2818   2.375   4.751   5.189
  640SOL    HW1 2819   2.451   4.748   5.124
  640SOL    HW2 2820   2.326   4.838   5.178
  641SOL     OW 2821   0.515   5.695   4.715
  641SOL    HW1 2822   0.470   5.754   4.649
  641SOL    HW2 2823   0.518   5.601   4.680
  642SOL     OW 2824   0.410   4.375   4.132
  642SOL    HW1 2825   0.408   4.338   4.039
  642SOL    HW2 2826   0.499   4.355   4.173
  643SOL     OW 2827   5.494   4.749   5.079
  643SOL    HW1 2828   5.533   4.663   5.047
  643SOL    HW2 2829   5.402   4.732   5.115
  644SOL     OW 2830   0.988   5.361   2.789
  644SOL    HW1 2831   0.917   5.361   2.859
  644SOL    HW2 2832   1.041   5.276   2.796
  645SOL     OW 2833   4.992   2.749   4.255
  645SOL    HW1 2834   4.988   2.678   4.185
  645SOL    HW2 2835   5.054   2.821   4.226
  646SOL     OW 2836   2.470   2.230   3.586
  646SOL    HW1 2837   2.473   2.303   3.518
  646SOL    HW2 2838   2.557   2.225   3.634
  647SOL     OW 2839   5.817   2.387   5.859
  647SOL    HW1 2840   5.752   2.391   5.935
  647SOL    HW2 2841   5.776   2.337   5.783
  648SOL     OW 2842   6.067   3.696   2.746
  648SOL    HW1 2843   6.056   3.601   2.777
  648SOL    HW2 2844   6.032   3.704   2.652
  649SOL     OW 2845   4.381   4.083   0.228
  649SOL    HW1 2846   4.355   4.101   0.133
  649SOL    HW2 2847   4.312   4.119   0.289
  650SOL     OW 2848   5.226   4.235   0.567
  650SOL    HW1 2849   5.196   4.139   0.564
  650SOL    HW2 2850   5.189   4.284   0.489
  651SOL     OW 2851   0.501   6.655   6.951
  651SOL    HW1 2852   0.509   6.686   0.023
  651SOL    HW2 2853   0.405   6.634   6.931
  652SOL     OW 2854   5.092   6.443   3.717
  652SOL    HW1 2855   5.025   6.467   3.647
  652SOL    HW2 2856   5.065   6.485   3.804
  653SOL     OW 2857   3.231   5.172   5.782
  653SOL    HW1 2858   3.270   5.184   5.873
  653SOL    HW2 2859   3.277   5.233   5.718
  654SOL     OW 2860   6.716   4.729   5.694
  654SOL    HW1 2861   6.701   4.792   5.618
  654SOL    HW2 2862   6.809   4.739   5.729
  655SOL     OW 2863   0.326   6.722   2.234
  655SOL    HW1 2864   0.296   6.796   2.294
  655SOL    HW2 2865   0.415   6.689   2.264
  656SOL     OW 2866   2.340   5.759   0.983
  656SOL    HW1 2867   2.375   5.819   1.055
  656SOL    HW2 2868   2.393   5.673   0.983
  657SOL     OW 2869   2.446   1.916   1.663
  657SOL    HW1 2870   2.528   1.927   1.719
  657SOL    HW2 2871   2.366   1.946   1.715
  658SOL     OW 2872   3.263   2.889   5.925
  658SOL    HW1 2873   3.353   2.925   5.950
  658SOL    HW2 2874   3.250   2.898   5.827
  659SOL     OW 2875   3.008   6.450   6.350
  659SOL    HW1 2876   3.015   6.354   6.322
  659SOL    HW2 2877   3.060   6.465   6.434
  660SOL     OW 2878   4.483   4.389   1.454
  660SOL    HW1 2879   4.479   4.396   1.554
  660SOL    HW2 2880   4.391   4.373   1.418
  661SOL     OW 2881   4.502   6.739   3.670
  661SOL    HW1 2882   4.573   6.750   3.740
  661SOL    HW2 2883   4.521   6.656   3.618
  662SOL     OW 2884   3.719   0.344   5.331
  662SOL    HW1 2885   3.640   0.361   5.391
  662SOL    HW2 2886   3.798   0.319   5.387
  663SOL     OW 2887   2.391   4.060   5.907
  663SOL    HW1 2888   2.383   3.987   5.839
  663SOL    HW2 2889   2.481   4.057   5.950
  664SOL     OW 2890   0.038   5.783   6.741
  664SOL    HW1 2891   0.035   5.721   6.819
  664SOL    HW2 2892   6.988   5.851   6.749
  665SOL     OW 2893   4.390   5.501   2.148
  665SOL    HW1 2894   4.363   5.593   2.177
  665SOL    HW2 2895   4.308   5.449   2.123
  666SOL     OW 2896   4.980   0.687   1.992
  666SOL    HW1 2897   4.985   0.722   2.085
  666SOL    HW2 2898   4.928   0.750   1.935
  667SOL     OW 2899   1.122   5.006   2.393
  667SOL    HW1 2900   1.077   5.002   2.482
  667SOL    HW2 2901   1.130   5.101   2.364
  668SOL     OW 2902   5.035   6.657   5.926
  668SOL    HW1 2903   5.067   6.579   5.978
  668SOL    HW2 2904   4.995   6.725   5.988
  669SOL     OW 2905   6.048   0.725   3.880
  669SOL    HW1 2906   6.134   0.776   3.879
  669SOL    HW2 2907   6.022   0.707   3.975
  670SOL     OW 2908   2.804   1.954   2.213
  670SOL    HW1 2909   2.872   1.891   2.250
  670SOL    HW2 2910   2.793   1.938   2.115
  671SOL     OW 2911   3.238   6.274   1.050
  671SOL    HW1 2912   3.316   6.333   1.027
  671SOL    HW2 2913   3.253   6.183   1.013
  672SOL     OW 2914   6.668   5.711   2.211
  672SOL    HW1 2915   6.666   5.649   2.289
  672SOL    HW2 2916   6.734   5.679   2.143
  673SOL     OW 2917   6.553   6.794   1.046
  673SOL    HW1 2918   6.521   6.852   1.121
  673SOL    HW2 2919   6.505   6.821   0.962
  674SOL     OW 2920   0.527   1.533   4.356
  674SOL    HW1 2921   0.602   1.552   4.420
  674SOL    HW2 2922   0.485   1.619   4.327
  675SOL     OW 2923   5.482   2.366   2.790
  675SOL    HW1 2924   5.551   2.395   2.857
  675SOL    HW2 2925   5.522   2.368   2.698
  676SOL     OW 2926   2.791   5.141   4.158
  676SOL    HW1 2927   2.850   5.203   4.210
  676SOL    HW2 2928   2.807   5.047   4.187
  677SOL     OW 2929   5.121   0.896   0.985
  677SOL    HW1 2930   5.192   0.898   1.056
  677SOL    HW2 2931   5.164   0.878   0.896
  678SOL     OW 2932   3.005   5.973   5.253
  678SOL    HW1 2933   2.977   5.877   5.244
  678SOL    HW2 2934   3.098   5.983   5.216
  679SOL     OW 2935   4.972   1.713   4.411
  679SOL    HW1 2936   4.980   1.741   4.506
  679SOL    HW2 2937   4.978   1.613   4.405
  680SOL     OW 2938   4.661   5.707   4.572
  680SOL    HW1 2939   4.682   5.791   4.522
  680SOL    HW2 2940   4.744   5.654   4.584
  681SOL     OW 2941   4.676   5.847   1.852
  681SOL    HW1 2942   4.732   5.922   1.888
  681SOL    HW2 2943   4.687   5.766   1.910
  682SOL     OW 2944   5.898   1.145   2.071
  682SOL    HW1 2945   5.965   1.211   2.035
  682SOL    HW2 2946   5.832   1.193   2.128
  683SOL     OW 2947   4.557   2.768   0.489
  683SOL    HW1 2948   4.576   2.683   0.538
  683SOL    HW2 2949   4.519   2.747   0.400
  684SOL     OW 2950   6.670   1.027   0.840
  684SOL    HW1 2951   6.615   1.038   0.758
  684SOL    HW2 2952   6.704   0.933   0.845
  685SOL     OW 2953   3.159   2.078   3.867
  685SOL    HW1 2954   3.177   1.986   3.832
  685SOL    HW2 2955   3.238   2.109   3.921
  686SOL     OW 2956   4.857   2.260   4.509
  686SOL    HW1 2957   4.823   2.316   4.433
  686SOL    HW2 2958   4.793   2.186   4.528
  687SOL     OW 2959   0.880   2.124   3.890
  687SOL    HW1 2960   0.834   2.036   3.889
  687SOL    HW2 2961   0.978   2.111   3.875
  688SOL     OW 2962   6.971   1.373   6.657
  688SOL    HW1 2963   6.971   1.337   6.563
  688SOL    HW2 2964   6.893   1.434   6.669
  689SOL     OW 2965   1.351   4.679   5.973
  689SOL    HW1 2966   1.313   4.642   6.058
  689SOL    HW2 2967   1.428   4.621   5.944
  690SOL     OW 2968   6.716   3.832   3.449
  690SOL    HW1 2969   6.789   3.804   3.387
  690SOL    HW2 2970   6.756   3.870   3.533
  691SOL     OW 2971   3.362   1.437   0.006
  691SOL    HW1 2972   3.292   1.371   0.034
  691SOL    HW2 2973   3.397   1.486   0.086
  692SOL     OW 2974   4.408   2.155   4.966
  692SOL    HW1 2975   4.324   2.164   5.019
  692SOL    HW2 2976   4.394   2.192   4.874
  693SOL     OW 2977   4.694   6.670   3.883
  693SOL    HW1 2978   4.699   6.572   3.901
  693SOL    HW2 2979   4.658   6.717   3.964
  694SOL     OW 2980   4.488   6.322   5.046
  694SOL    HW1 2981   4.401   6.273   5.053
  694SOL    HW2 2982   4.477   6.402   4.987
  695SOL     OW 2983   4.030   6.650   3.965
  695SOL    HW1 2984   3.965   6.579   3.939
  695SOL    HW2 2985   4.117   6.635   3.919
  696SOL     OW 2986   4.985   4.547   3.388
  696SOL    HW1 2987   5.045   4.591   3.321
  696SOL    HW2 2988   4.991   4.595   3.475
  697SOL     OW 2989   1.684   3.876   2.513
  697SOL    HW1 2990   1.591   3.864   2.478
  697SOL    HW2 2991   1.747   3.892   2.437
  698SOL     OW 2992   5.642   6.080   1.057
  698SOL    HW1 2993   5.714   6.077   1.126
  698SOL    HW2 2994   5.682   6.097   0.967
  699SOL     OW 2995   1.600   3.479   6.688
  699SOL    HW1 2996   1.634   3.556   6.634
  699SOL    HW2 2997   1.662   3.401   6.677
  700SOL     OW 2998   3.103   6.484   2.037
  700SOL    HW1 2999   3.168   6.553   2.006
  700SOL    HW2 3000   3.141   6.393   2.023
  701SOL     OW 3001   0.299   4.103   0.063
  701SOL    HW1 3002   0.272   4.044   7.010
  701SOL    HW2 3003   0.321   4.047   0.142
  702SOL     OW 3004   2.173   6.726   4.723
  702SOL    HW1 3005   2.261   6.771   4.737
  702SOL    HW2 3006   2.099   6.790   4.744
  703SOL     OW 3007   3.461   3.257   5.309
  703SOL    HW1 3008   3.387   3.283   5.245
  703SOL    HW2 3009   3.549   3.273   5.265
  704SOL     OW 3010   1.786   2.511   6.175
  704SOL    HW1 3011   1.800   2.448   6.099
  704SOL    HW2 3012   1.807   2.604   6.146
  705SOL     OW 3013   5.941   5.447   3.035
  705SOL    HW1 3014   5.858   5.459   2.981
  705SOL    HW2 3015   6.017   5.495   2.990
  706SOL     OW 3016   4.210   1.951   5.332
  706SOL    HW1 3017   4.125   1.910   5.298
  706SOL    HW2 3018   4.249   1.892   5.403
  707SOL     OW 3019   4.191   4.789   3.017
  707SOL    HW1 3020   4.273   4.734   3.029
  707SOL    HW2 3021   4.202   4.847   2.936
  708SOL     OW 3022   2.699   1.277   2.852
  708SOL    HW1 3023   2.778   1.305   2.798
  708SOL    HW2 3024   2.714   1.301   2.948
  709SOL     OW 3025   1.432   5.793   0.741
  709SOL    HW1 3026   1.342   5.804   0.783
  709SOL    HW2 3027   1.498   5.850   0.790
  710SOL     OW 3028   4.746   2.097   1.706
  710SOL    HW1 3029   4.729   2.012   1.656
  710SOL    HW2 3030   4.663   2.126   1.753
  711SOL     OW 3031   0.148   2.691   6.404
  711SOL    HW1 3032   0.143   2.791   6.409
  711SOL    HW2 3033   0.101   2.651   6.482
  712SOL     OW 3034   4.721   2.358   0.547
  712SOL    HW1 3035   4.623   2.348   0.532
  712SOL    HW2 3036   4.743   2.335   0.642
  713SOL     OW 3037   4.312   3.177   5.906
  713SOL    HW1 3038   4.245   3.198   5.835
  713SOL    HW2 3039   4.376   3.253   5.915
  714SOL     OW 3040   0.132   5.395   3.818
  714SOL    HW1 3041   0.202   5.416   3.886
  714SOL    HW2 3042   0.133   5.464   3.746
  715SOL     OW 3043   5.778   5.626   6.433
  715SOL    HW1 3044   5.722   5.689   6.379
  715SOL    HW2 3045   5.726   5.597   6.513
  716SOL     OW 3046   1.066   1.132   2.656
  716SOL    HW1 3047   1.124   1.075   2.714
  716SOL    HW2 3048   1.036   1.079   2.577
  717SOL     OW 3049   6.899   4.807   3.904
  717SOL    HW1 3050   6.919   4.839   3.996
  717SOL    HW2 3051   6.852   4.719   3.909
  718SOL     OW 3052   4.874   2.953   4.895
  718SOL    HW1 3053   4.971   2.970   4.878
  718SOL    HW2 3054   4.832   2.914   4.813
  719SOL     OW 3055   5.601   6.907   2.389
  719SOL    HW1 3056   5.528   6.910   2.321
  719SOL    HW2 3057   5.594   6.823   2.442
  720SOL     OW 3058   1.912   0.613   5.878
  720SOL    HW1 3059   1.944   0.518   5.886
  720SOL    HW2 3060   1.883   0.630   5.784
  721SOL     OW 3061   1.858   1.500   1.773
  721SOL    HW1 3062   1.955   1.496   1.795
  721SOL    HW2 3063   1.847   1.531   1.678
  722SOL     OW 3064   3.081   1.199   5.223
  722SOL    HW1 3065   3.041   1.278   5.268
  722SOL    HW2 3066   3.168   1.226   5.180
  723SOL     OW 3067   2.359   5.155   3.633
  723SOL    HW1 3068   2.279   5.125   3.580
  723SOL    HW2 3069   2.412   5.075   3.661
  724SOL     OW 3070   0.083   1.407   3.642
  724SOL    HW1 3071   0.126   1.345   3.576
  724SOL    HW2 3072   0.107   1.501   3.620
  725SOL     OW 3073   1.904   4.934   2.376
  725SOL    HW1 3074   1.865   5.010   2.324
  725SOL    HW2 3075   1.999   4.919   2.349
  726SOL     OW 3076   2.753   5.131   1.086
  726SOL    HW1 3077   2.811   5.113   1.007
  726SOL    HW2 3078   2.693   5.052   1.102
  727SOL     OW 3079   4.897   4.663   6.275
  727SOL    HW1 3080   4.852   4.613   6.201
  727SOL    HW2 3081   4.834   4.732   6.311
  728SOL     OW 3082   0.034   3.523   4.118
  728SOL    HW1 3083   6.983   3.534   4.185
  728SOL    HW2 3084   7.022   3.542   4.026
  729SOL     OW 3085   0.452   2.782   0.737
  729SOL    HW1 3086   0.463   2.854   0.805
  729SOL    HW2 3087   0.364   2.791   0.692
  730SOL     OW 3088   6.085   0.123   4.214
  730SOL    HW1 3089   6.098   0.176   4.130
  730SOL    HW2 3090   5.987   0.111   4.230
  731SOL     OW 3091   4.814   5.287   0.242
  731SOL    HW1 3092   4.819   5.318   0.337
  731SOL    HW2 3093   4.720   5.299   0.208
  732SOL     OW 3094   5.957   2.649   2.603
  732SOL    HW1 3095   5.862   2.625   2.623
  732SOL    HW2 3096   6.017   2.575   2.634
  733SOL     OW 3097   6.053   0.156   5.056
  733SOL    HW1 3098   6.021   0.251   5.052
  733SOL    HW2 3099   5.980   0.098   5.094
  734SOL     OW 3100   5.986   5.213   2.773
  734SOL    HW1 3101   5.961   5.182   2.864
  734SOL    HW2 3102   6.047   5.146   2.730
  735SOL     OW 3103   4.377   1.521   0.476
  735SOL    HW1 3104   4.313   1.544   0.549
  735SOL    HW2 3105   4.412   1.605   0.434
  736SOL     OW 3106   1.478   1.366   4.105
  736SOL    HW1 3107   1.569   1.378   4.145
  736SOL    HW2 3108   1.421   1.311   4.165
  737SOL     OW 3109   5.518   1.648   6.491
  737SOL    HW1 3110   5.474   1.578   6.434
  737SOL    HW2 3111   5.448   1.703   6.536
  738SOL     OW 3112   2.741   4.092   1.651
  738SOL    HW1 3113   2.750   4.111   1.553
  738SOL    HW2 3114   2.713   3.997   1.664
  739SOL     OW 3115   3.748   0.135   4.708
  739SOL    HW1 3116   3.803   0.179   4.779
  739SOL    HW2 3117   3.772   0.173   4.619
  740SOL     OW 3118   5.564   1.416   3.098
  740SOL    HW1 3119   5.634   1.487   3.094
  740SOL    HW2 3120   5.561   1.367   3.011
  741SOL     OW 3121   2.031   0.591   3.819
  741SOL    HW1 3122   2.038   0.514   3.882
  741SOL    HW2 3123   2.122   0.617   3.787
  742SOL     OW 3124   2.155   6.026   1.311
  742SOL    HW1 3125   2.206   6.059   1.232
  742SOL    HW2 3126   2.090   6.096   1.341
  743SOL     OW 3127   0.351   5.787   3.126
  743SOL    HW1 3128   0.259   5.762   3.098
  743SOL    HW2 3129   0.393   5.843   3.055
  744SOL     OW 3130   6.118   0.798   0.518
  744SOL    HW1 3131   6.108   0.719   0.578
  744SOL    HW2 3132   6.112   0.768   0.423
  745SOL     OW 3133   2.017   5.445   5.218
  745SOL    HW1 3134   2.008   5.414   5.124
  745SOL    HW2 3135   2.094   5.508   5.226
  746SOL     OW 3136   5.829   4.005   5.921
  746SOL    HW1 3137   5.906   3.941   5.923
  746SOL    HW2 3138   5.757   3.972   5.983
  747SOL     OW 3139   4.260   5.833   4.629
  747SOL    HW1 3140   4.262   5.923   4.672
  747SOL    HW2 3141   4.306   5.837   4.540
  748SOL     OW 3142   4.650   5.656   2.054
  748SOL    HW1 3143   4.557   5.622   2.069
  748SOL    HW2 3144   4.709   5.628   2.130
  749SOL     OW 3145   6.192   3.358   4.043
  749SOL    HW1 3146   6.169   3.295   3.969
  749SOL    HW2 3147   6.172   3.451   4.015
  750SOL     OW 3148   2.200   1.028   1.087
  750SOL    HW1 3149   2.116   0.980   1.112
  750SOL    HW2 3150   2.186   1.126   1.096
  751SOL     OW 3151   3.972   1.133   1.057
  751SOL    HW1 3152   3.996   1.134   0.960
  751SOL    HW2 3153   3.918   1.051   1.078
  752SOL     OW 3154   3.161   2.455   0.291
  752SOL    HW1 3155   3.139   2.523   0.221
  752SOL    HW2 3156   3.081   2.441   0.350
  753SOL     OW 3157   1.977   3.589   6.020
  753SOL    HW1 3158   1.933   3.664   5.972
  753SOL    HW2 3159   2.023   3.529   5.954
  754SOL     OW 3160   4.445   1.221   0.158
  754SOL    HW1 3161   4.360   1.273   0.146
  754SOL    HW2 3162   4.511   1.276   0.210
  755SOL     OW 3163   2.969   4.649   5.555
  755SOL    HW1 3164   2.884   4.601   5.534
  755SOL    HW2 3165   3.033   4.639   5.479
  756SOL     OW 3166   3.147   4.773   0.053
  756SOL    HW1 3167   3.182   4.843   7.014
  756SOL    HW2 3168   3.098   4.703   0.000
  757SOL     OW 3169   2.240   5.874   2.708
  757SOL    HW1 3170   2.244   5.809   2.632
  757SOL    HW2 3171   2.172   5.944   2.688
  758SOL     OW 3172   4.274   0.832   3.838
  758SOL    HW1 3173   4.272   0.786   3.750
  758SOL    HW2 3174   4.330   0.780   3.902
  759SOL     OW 3175   6.796   3.098   2.674
  759SOL    HW1 3176   6.773   3.066   2.583
  759SOL    HW2 3177   6.859   3.175   2.668
  760SOL     OW 3178   6.401   6.781   4.189
  760SOL    HW1 3179   6.415   6.683   4.204
  760SOL    HW2 3180   6.388   6.799   4.092
  761SOL     OW 3181   5.668   4.461   6.017
  761SOL    HW1 3182   5.588   4.415   5.980
  761SOL    HW2 3183   5.738   4.469   5.946
  762SOL     OW 3184   2.686   0.218   5.575
  762SOL    HW1 3185   2.742   0.267   5.509
  762SOL    HW2 3186   2.719   0.123   5.583
  763SOL     OW 3187   4.509   6.440   6.682
  763SOL    HW1 3188   4.604   6.469   6.668
  763SOL    HW2 3189   4.488   6.443   6.780
  764SOL     OW 3190   5.567   1.186   6.037
  764SOL    HW1 3191   5.478   1.140   6.031
  764SOL    HW2 3192   5.571   1.239   6.122
  765SOL     OW 3193   1.884   6.377   0.485
  765SOL    HW1 3194   1.870   6.345   0.391
  765SOL    HW2 3195   1.931   6.307   0.538
  766SOL     OW 3196   2.981   2.440   5.348
  766SOL    HW1 3197   2.913   2.408   5.281
  766SOL    HW2 3198   3.073   2.427   5.311
  767SOL     OW 3199   6.375   6.455   3.679
  767SOL    HW1 3200   6.450   6.497   3.730
  767SOL    HW2 3201   6.393   6.357   3.669
  768SOL     OW 3202   2.368   5.828   3.553
  768SOL    HW1 3203   2.438   5.779   3.605
  768SOL    HW2 3204   2.400   5.839   3.458
  769SOL     OW 3205   2.988   1.344   5.440
  769SOL    HW1 3206   2.914   1.285   5.471
  769SOL    HW2 3207   2.951   1.424   5.395
  770SOL     OW 3208   1.530   5.171   4.039
  770SOL    HW1 3209   1.556   5.077   4.017
  770SOL    HW2 3210   1.502   5.176   4.135
  771SOL     OW 3211   1.156   4.808   3.084
  771SOL    HW1 3212   1.246   4.842   3.057
  771SOL    HW2 3213   1.098   4.886   3.111
  772SOL     OW 3214   6.124   4.652   6.033
  772SOL    HW1 3215   6.153   4.570   6.082
  772SOL    HW2 3216   6.107   4.726   6.098
  773SOL     OW 3217   0.484   4.143   2.603
  773SOL    HW1 3218   0.577   4.115   2.579
  773SOL    HW2 3219   0.420   4.106   2.537
  774SOL     OW 3220   1.733   1.213   2.901
  774SOL    HW1 3221   1.762   1.274   2.828
  774SOL    HW2 3222   1.807   1.202   2.967
  775SOL     OW 3223   2.496   1.768   4.664
  775SOL    HW1 3224   2.583   1.808   4.692
  775SOL    HW2 3225   2.437   1.839   4.625
  776SOL     OW 3226   6.558   0.090   6.210
  776SOL    HW1 3227   6.563   0.177   6.160
  776SOL    HW2 3228   6.477   0.039   6.181
  777SOL     OW 3229   1.828   4.014   1.015
  777SOL    HW1 3230   1.746   3.969   1.049
  777SOL    HW2 3231   1.803   4.103   0.976
  778SOL     OW 3232   2.181   0.256   1.590
  778SOL    HW1 3233   2.087   0.227   1.611
  778SOL    HW2 3234   2.181   0.352   1.564
  779SOL     OW 3235   6.748   1.849   1.643
  779SOL    HW1 3236   6.782   1.882   1.555
  779SOL    HW2 3237   6.802   1.889   1.717
  780SOL     OW 3238   0.795   2.374   4.228
  780SOL    HW1 3239   0.876   2.320   4.203
  780SOL    HW2 3240   0.823   2.463   4.262
  781SOL     OW 3241   6.674   4.859   0.516
  781SOL    HW1 3242   6.605   4.882   0.447
  781SOL    HW2 3243   6.653   4.909   0.600
  782SOL     OW 3244   2.023   3.641   5.683
  782SOL    HW1 3245   2.086   3.648   5.761
  782SOL    HW2 3246   1.936   3.685   5.707
  783SOL     OW 3247   5.956   4.564   1.265
  783SOL    HW1 3248   6.043   4.522   1.290
  783SOL    HW2 3249   5.885   4.494   1.261
  784SOL     OW 3250   3.400   5.145   1.677
  784SOL    HW1 3251   3.379   5.241   1.698
  784SOL    HW2 3252   3.400   5.092   1.762
  785SOL     OW 3253   6.899   1.526   3.944
  785SOL    HW1 3254   6.937   1.434   3.934
  785SOL    HW2 3255   6.969   1.594   3.922
  786SOL     OW 3256   6.712   0.944   2.597
  786SOL    HW1 3257   6.653   1.023   2.614
  786SOL    HW2 3258   6.806   0.974   2.586
  787SOL     OW 3259   2.042   6.887   6.910
  787SOL    HW1 3260   1.978   6.895   6.987
  787SOL    HW2 3261   1.993   6.905   6.825
  788SOL     OW 3262   4.034   2.493   1.369
  788SOL    HW1 3263   4.037   2.585   1.410
  788SOL    HW2 3264   4.043   2.425   1.441
  789SOL     OW 3265   4.667   5.341   2.484
  789SOL    HW1 3266   4.680   5.269   2.416
  789SOL    HW2 3267   4.598   5.406   2.451
  790SOL     OW 3268   2.214   1.234   1.576
  790SOL    HW1 3269   2.267   1.254   1.493
  790SOL    HW2 3270   2.253   1.155   1.623
  791SOL     OW 3271   2.709   6.088   5.515
  791SOL    HW1 3272   2.721   6.063   5.419
  791SOL    HW2 3273   2.614   6.075   5.542
  792SOL     OW 3274   0.735   0.880   2.099
  792SOL    HW1 3275   0.678   0.818   2.045
  792SOL    HW2 3276   0.722   0.974   2.067
  793SOL     OW 3277   5.054   5.682   5.200
  793SOL    HW1 3278   5.097   5.593   5.187
  793SOL    HW2 3279   5.022   5.691   5.294
  794SOL     OW 3280   3.088   3.434   5.882
  794SOL    HW1 3281   3.020   3.368   5.915
  794SOL    HW2 3282   3.170   3.384   5.852
  795SOL     OW 3283   3.662   0.437   5.758
  795SOL    HW1 3284   3.716   0.436   5.674
  795SOL    HW2 3285   3.721   0.457   5.836
  796SOL     OW 3286   1.819   3.218   0.481
  796SOL    HW1 3287   1.804   3.157   0.559
  796SOL    HW2 3288   1.738   3.218   0.422
  797SOL     OW 3289   4.094   0.316   0.574
  797SOL    HW1 3290   4.036   0.241   0.540
  797SOL    HW2 3291   4.102   0.308   0.673
  798SOL     OW 3292   3.551   6.323   1.197
  798SOL    HW1 3293   3.606   6.276   1.128
  798SOL    HW2 3294   3.601   6.329   1.283
  799SOL     OW 3295   0.368   1.612   6.341
  799SOL    HW1 3296   0.442   1.550   6.368
  799SOL    HW2 3297   0.286   1.560   6.322
  800SOL     OW 3298   6.739   1.858   2.440
  800SOL    HW1 3299   6.785   1.770   2.432
  800SOL    HW2 3300   6.750   1.910   2.356
  801SOL     OW 3301   2.242   4.257   5.201
  801SOL    HW1 3302   2.322   4.246   5.260
  801SOL    HW2 3303   2.249   4.195   5.123
  802SOL     OW 3304   3.903   2.136   6.786
  802SOL    HW1 3305   3.881   2.223   6.832
  802SOL    HW2 3306   3.981   2.150   6.726
  803SOL     OW 3307   1.704   6.918   6.052
  803SOL    HW1 3308   1.764   6.982   6.003
  803SOL    HW2 3309   1.702   6.830   6.004
  804SOL     OW 3310   6.607   0.009   1.501
  804SOL    HW1 3311   6.677   6.978   1.547
  804SOL    HW2 3312   6.541   0.043   1.570
  805SOL     OW 3313   1.388   0.377   4.421
  805SOL    HW1 3314   1.466   0.328   4.460
  805SOL    HW2 3315   1.393   0.372   4.321
  806SOL     OW 3316   6.527   0.386   6.293
  806SOL    HW1 3317   6.613   0.339   6.310
  806SOL    HW2 3318   6.513   0.457   6.362
  807SOL     OW 3319   0.683   6.999   4.152
  807SOL    HW1 3320   0.715   6.942   4.076
  807SOL    HW2 3321   0.616   0.042   4.118
  808SOL     OW 3322   5.366   2.880   6.514
  808SOL    HW1 3323   5.396   2.890   6.608
  808SOL    HW2 3324   5.372   2.783   6.487
  809SOL     OW 3325   1.220   4.760   0.760
  809SOL    HW1 3326   1.122   4.774   0.774
  809SOL    HW2 3327   1.233   4.685   0.696
  810SOL     OW 3328   3.205   3.494   0.572
  810SOL    HW1 3329   3.240   3.441   0.649
  810SOL    HW2 3330   3.222   3.592   0.588
  811SOL     OW 3331   5.406   5.221   4.156
  811SOL    HW1 3332   5.483   5.265   4.109
  811SOL    HW2 3333   5.324   5.277   4.146
  812SOL     OW 3334   0.524   1.693   1.722
  812SOL    HW1 3335   0.437   1.672   1.678
  812SOL    HW2 3336   0.523   1.660   1.816
  813SOL     OW 3337   2.593   6.941   4.734
  813SOL    HW1 3338   2.511   6.922   4.787
  813SOL    HW2 3339   2.568   6.960   4.639
  814SOL     OW 3340   6.470   6.103   2.355
  814SOL    HW1 3341   6.569   6.116   2.353
  814SOL    HW2 3342   6.450   6.006   2.343
  815SOL     OW 3343   5.427   2.677   3.150
  815SOL    HW1 3344   5.485   2.750   3.185
  815SOL    HW2 3345   5.374   2.637   3.224
  816SOL     OW 3346   4.877   4.999   0.216
  816SOL    HW1 3347   4.842   5.089   0.243
  816SOL    HW2 3348   4.933   5.009   0.133
  817SOL     OW 3349   1.041   5.163   1.839
  817SOL    HW1 3350   1.091   5.091   1.887
  817SOL    HW2 3351   1.071   5.253   1.871
  818SOL     OW 3352   5.821   2.803   3.811
  818SOL    HW1 3353   5.801   2.705   3.812
  818SOL    HW2 3354   5.748   2.852   3.859
  819SOL     OW 3355   5.872   2.561   1.870
  819SOL    HW1 3356   5.818   2.583   1.952
  819SOL    HW2 3357   5.848   2.623   1.796
  820SOL     OW 3358   3.379   2.162   4.621
  820SOL    HW1 3359   3.334   2.145   4.709
  820SOL    HW2 3360   3.336   2.240   4.576
  821SOL     OW 3361   6.208   4.813   5.829
  821SOL    HW1 3362   6.151   4.786   5.906
  821SOL    HW2 3363   6.292   4.759   5.828
  822SOL     OW 3364   0.457   3.771   3.097
  822SOL    HW1 3365   0.381   3.712   3.125
  822SOL    HW2 3366   0.421   3.851   3.048
  823SOL     OW 3367   6.413   4.567   6.457
  823SOL    HW1 3368   6.414   4.515   6.371
  823SOL    HW2 3369   6.507   4.593   6.480
  824SOL     OW 3370   5.141   0.701   5.458
  824SOL    HW1 3371   5.122   0.798   5.468
  824SOL    HW2 3372   5.089   0.649   5.527
  825SOL     OW 3373   6.334   5.890   0.902
  825SOL    HW1 3374   6.368   5.806   0.945
  825SOL    HW2 3375   6.314   5.873   0.806
  826SOL     OW 3376   3.290   2.374   5.560
  826SOL    HW1 3377   3.263   2.471   5.559
  826SOL    HW2 3378   3.323   2.347   5.470
  827SOL     OW 3379   3.008   4.320   5.410
  827SOL    HW1 3380   2.928   4.373   5.441
  827SOL    HW2 3381   3.067   4.379   5.355
  828SOL     OW 3382   6.329   5.963   6.211
  828SOL    HW1 3383   6.356   5.966   6.307
  828SOL    HW2 3384   6.266   6.038   6.191
  829SOL     OW 3385   3.165   3.380   1.932
  829SOL    HW1 3386   3.261   3.381   1.906
  829SOL    HW2 3387   3.139   3.468   1.972
  830SOL     OW 3388   5.633   5.203   6.900
  830SOL    HW1 3389   5.714   5.221   6.845
  830SOL    HW2 3390   5.583   5.288   6.916
  831SOL     OW 3391   6.558   6.986   1.250
  831SOL    HW1 3392   6.649   6.981   1.208
  831SOL    HW2 3393   6.568   7.005   1.347
  832SOL     OW 3394   4.563   1.549   4.294
  832SOL    HW1 3395   4.633   1.491   4.338
  832SOL    HW2 3396   4.581   1.645   4.317
  833SOL     OW 3397   2.110   3.702   6.485
  833SOL    HW1 3398   2.120   3.673   6.390
  833SOL    HW2 3399   2.034   3.767   6.493
  834SOL     OW 3400   5.453   3.127   0.239
  834SOL    HW1 3401   5.445   3.208   0.181
  834SOL    HW2 3402   5.363   3.103   0.276
  835SOL     OW 3403   2.390   0.546   4.907
  835SOL    HW1 3404   2.444   0.554   4.990
  835SOL    HW2 3405   2.403   0.455   4.867
  836SOL     OW 3406   2.858   1.012   5.240
  836SOL    HW1 3407   2.880   0.945   5.169
  836SOL    HW2 3408   2.938   1.071   5.256
  837SOL     OW 3409   1.084   0.035   0.916
  837SOL    HW1 3410   1.009   7.021   0.970
  837SOL    HW2 3411   1.046   0.094   0.844
  838SOL     OW 3412   1.946   6.088   4.225
  838SOL    HW1 3413   1.930   6.084   4.324
  838SOL    HW2 3414   1.941   5.995   4.187
  839SOL     OW 3415   2.113   1.385   1.796
  839SOL    HW1 3416   2.190   1.419   1.851
  839SOL    HW2 3417   2.149   1.343   1.712
  840SOL     OW 3418   6.217   5.611   0.345
  840SOL    HW1 3419   6.199   5.569   0.256
  840SOL    HW2 3420   6.257   5.543   0.406
  841SOL     OW 3421   3.697   5.897   6.032
  841SOL    HW1 3422   3.774   5.960   6.022
  841SOL    HW2 3423   3.686   5.872   6.128
  842SOL     OW 3424   3.444   6.472   6.844
  842SOL    HW1 3425   3.362   6.416   6.846
  842SOL    HW2 3426   3.499   6.447   6.764
  843SOL     OW 3427   1.741   1.921   1.734
  843SOL    HW1 3428   1.696   2.009   1.752
  843SOL    HW2 3429   1.837   1.927   1.761
  844SOL     OW 3430   0.194   6.461   1.522
  844SOL    HW1 3431   0.118   6.479   1.460
  844SOL    HW2 3432   0.216   6.544   1.573
  845SOL     OW 3433   5.408   2.948   3.480
  845SOL    HW1 3434   5.462   2.869   3.451
  845SOL    HW2 3435   5.315   2.940   3.444
  846SOL     OW 3436   2.837   0.522   5.913
  846SOL    HW1 3437   2.883   0.598   5.958
  846SOL    HW2 3438   2.775   0.477   5.978
  847SOL     OW 3439   2.015   3.398   1.914
  847SOL    HW1 3440   2.098   3.451   1.929
  847SOL    HW2 3441   1.973   3.375   2.002
  848SOL     OW 3442   6.824   6.612   5.869
  848SOL    HW1 3443   6.736   6.614   5.918
  848SOL    HW2 3444   6.837   6.699   5.821
  849SOL     OW 3445   6.421   4.264   6.181
  849SOL    HW1 3446   6.351   4.329   6.210
  849SOL    HW2 3447   6.378   4.177   6.156
  850SOL     OW 3448   6.674   0.163   5.442
  850SOL    HW1 3449   6.606   0.110   5.493
  850SOL    HW2 3450   6.692   0.117   5.355
  851SOL     OW 3451   6.493   2.974   6.676
  851SOL    HW1 3452   6.593   2.967   6.684
  851SOL    HW2 3453   6.455   3.002   6.764
  852SOL     OW 3454   0.604   4.612   1.092
  852SOL    HW1 3455   0.526   4.576   1.142
  852SOL    HW2 3456   0.595   4.590   0.995
  853SOL     OW 3457   1.552   4.796   6.255
  853SOL    HW1 3458   1.623   4.739   6.215
  853SOL    HW2 3459   1.536   4.768   6.350
  854SOL     OW 3460   5.289   6.466   0.187
  854SOL    HW1 3461   5.324   6.475   0.094
  854SOL    HW2 3462   5.190   6.458   0.185
  855SOL     OW 3463   6.424   0.080   0.509
  855SOL    HW1 3464   6.442   0.113   0.416
  855SOL    HW2 3465   6.471   0.138   0.575
  856SOL     OW 3466   1.373   0.805   6.031
  856SOL    HW1 3467   1.460   0.822   5.985
  856SOL    HW2 3468   1.365   0.865   6.111
  857SOL     OW 3469   6.658   5.663   1.730
  857SOL    HW1 3470   6.627   5.571   1.752
  857SOL    HW2 3471   6.582   5.716   1.693
  858SOL     OW 3472   3.363   4.099   0.995
  858SOL    HW1 3473   3.299   4.107   1.072
  858SOL    HW2 3474   3.416   4.015   1.005
  859SOL     OW 3475   5.689   5.995   5.330
  859SOL    HW1 3476   5.641   5.959   5.410
  859SOL    HW2 3477   5.700   5.923   5.262
  860SOL     OW 3478   5.966   2.881   6.860
  860SOL    HW1 3479   5.954   2.783   6.871
  860SOL    HW2 3480   5.889   2.929   6.903
  861SOL     OW 3481   2.754   5.513   3.101
  861SOL    HW1 3482   2.659   5.531   3.128
  861SOL    HW2 3483   2.755   5.456   3.019
  862SOL     OW 3484   2.183   4.640   3.222
  862SOL    HW1 3485   2.238   4.658   3.304
  862SOL    HW2 3486   2.230   4.678   3.142
  863SOL     OW 3487   5.709   1.297   6.296
  863SOL    HW1 3488   5.689   1.394   6.310
  863SOL    HW2 3489   5.777   1.287   6.224
  864SOL     OW 3490   4.021   6.266   5.341
  864SOL    HW1 3491   4.110   6.224   5.359
  864SOL    HW2 3492   3.955   6.194   5.318
  865SOL     OW 3493   1.916   0.343   5.871
  865SOL    HW1 3494   1.883   0.305   5.784
  865SOL    HW2 3495   1.947   0.268   5.930
  866SOL     OW 3496   3.675   0.169   0.654
  866SOL    HW1 3497   3.632   0.137   0.739
  866SOL    HW2 3498   3.738   0.244   0.674
  867SOL     OW 3499   4.882   3.705   0.843
  867SOL    HW1 3500   4.909   3.802   0.842
  867SOL    HW2 3501   4.788   3.696   0.811
  868SOL     OW 3502   0.147   1.391   2.082
  868SOL    HW1 3503   0.173   1.443   2.163
  868SOL    HW2 3504   0.096   1.309   2.110
  869SOL     OW 3505   6.479   4.218   3.639
  869SOL    HW1 3506   6.438   4.270   3.565
  869SOL    HW2 3507   6.553   4.271   3.681
  870SOL     OW 3508   4.602   4.499   1.161
  870SOL    HW1 3509   4.669   4.464   1.226
  870SOL    HW2 3510   4.517   4.519   1.210
  871SOL     OW 3511   5.067   2.985   4.108
  871SOL    HW1 3512   5.109   3.076   4.102
  871SOL    HW2 3513   4.970   2.995   4.131
  872SOL     OW 3514   6.583   2.335   4.841
  872SOL    HW1 3515   6.618   2.428   4.855
  872SOL    HW2 3516   6.565   2.320   4.744
  873SOL     OW 3517   4.647   5.855   5.342
  873SOL    HW1 3518   4.679   5.800   5.265
  873SOL    HW2 3519   4.587   5.927   5.309
  874SOL     OW 3520   6.668   3.932   0.577
  874SOL    HW1 3521   6.641   3.970   0.488
  874SOL    HW2 3522   6.763   3.900   0.571
  875SOL     OW 3523   4.962   5.009   0.819
  875SOL    HW1 3524   4.863   4.995   0.819
  875SOL    HW2 3525   5.008   4.920   0.821
  876SOL     OW 3526   0.752   5.506   1.991
  876SOL    HW1 3527   0.684   5.435   2.007
  876SOL    HW2 3528   0.706   5.595   1.989
  877SOL     OW 3529   3.250   4.457   5.611
  877SOL    HW1 3530   3.281   4.371   5.651
  877SOL    HW2 3531   3.151   4.453   5.596
  878SOL     OW 3532   4.580   7.012   3.967
  878SOL    HW1 3533   4.675   7.006   3.935
  878SOL    HW2 3534   4.553   6.926   4.008
  879SOL     OW 3535   3.739   0.499   1.603
  879SOL    HW1 3536   3.672   0.546   1.545
  879SOL    HW2 3537   3.744   0.403   1.576
  880SOL     OW 3538   3.394   3.329   3.844
  880SOL    HW1 3539   3.312   3.384   3.860
  880SOL    HW2 3540   3.467   3.388   3.809
  881SOL     OW 3541   5.352   3.218   5.070
  881SOL    HW1 3542   5.321   3.251   4.980
  881SOL    HW2 3543   5.274   3.183   5.121
  882SOL     OW 3544   0.836   2.927   4.130
  882SOL    HW1 3545   0.915   2.941   4.190
  882SOL    HW2 3546   0.848   2.843   4.078
  883SOL     OW 3547   2.951   0.864   1.049
  883SOL    HW1 3548   2.924   0.874   1.144
  883SOL    HW2 3549   2.871   0.877   0.990
  884SOL     OW 3550   6.371   4.163   5.422
  884SOL    HW1 3551   6.285   4.148   5.373
  884SOL    HW2 3552   6.377   4.098   5.498
  885SOL     OW 3553   3.465   0.780   4.959
  885SOL    HW1 3554   3.392   0.793   5.026
  885SOL    HW2 3555   3.429   0.734   4.878
  886SOL     OW 3556   3.381   7.013   7.003
  886SOL    HW1 3557   3.414   0.063   0.039
  886SOL    HW2 3558   3.364   6.931   0.034
  887SOL     OW 3559   3.855   6.619   3.648
  887SOL    HW1 3560   3.780   6.594   3.709
  887SOL    HW2 3561   3.927   6.550   3.654
  888SOL     OW 3562   6.882   6.098   3.617
  888SOL    HW1 3563   6.789   6.062   3.620
  888SOL    HW2 3564   6.943   6.030   3.575
  889SOL     OW 3565   6.926   2.171   0.537
  889SOL    HW1 3566   7.006   2.222   0.504
  889SOL    HW2 3567   6.957   2.095   0.594
  890SOL     OW 3568   1.490   5.108   2.641
  890SOL    HW1 3569   1.432   5.168   2.585
  890SOL    HW2 3570   1.503   5.021   2.593
  891SOL     OW 3571   5.944   4.156   1.633
  891SOL    HW1 3572   5.987   4.068   1.615
  891SOL    HW2 3573   5.998   4.229   1.590
  892SOL     OW 3574   2.800   3.961   5.252
  892SOL    HW1 3575   2.705   3.954   5.222
  892SOL    HW2 3576   2.804   4.006   5.341
  893SOL     OW 3577   2.205   6.273   3.551
  893SOL    HW1 3578   2.134   6.342   3.543
  893SOL    HW2 3579   2.247   6.278   3.642
  894SOL     OW 3580   1.079   3.036   1.915
  894SOL    HW1 3581   1.120   2.958   1.962
  894SOL    HW2 3582   1.018   3.004   1.842
  895SOL     OW 3583   1.340   4.821   3.933
  895SOL    HW1 3584   1.415   4.878   3.966
  895SOL    HW2 3585   1.306   4.858   3.846
  896SOL     OW 3586   5.367   4.921   1.356
  896SOL    HW1 3587   5.332   4.972   1.277
  896SOL    HW2 3588   5.441   4.974   1.399
  897SOL     OW 3589   4.052   1.454   6.827
  897SOL    HW1 3590   4.124   1.389   6.850
  897SOL    HW2 3591   3.986   1.458   6.902
  898SOL     OW 3592   3.521   6.437   2.890
  898SOL    HW1 3593   3.510   6.446   2.989
  898SOL    HW2 3594   3.607   6.392   2.870
  899SOL     OW 3595   0.463   6.682   0.188
  899SOL    HW1 3596   0.514   6.644   0.265
  899SOL    HW2 3597   0.366   6.663   0.200
  900SOL     OW 3598   5.939   0.292   0.442
  900SOL    HW1 3599   6.033   0.263   0.462
  900SOL    HW2 3600   5.940   0.356   0.365
  901SOL     OW 3601   2.214   6.856   3.629
  901SOL    HW1 3602   2.120   6.839   3.598
  901SOL    HW2 3603   2.212   6.901   3.718
  902SOL     OW 3604   1.274   2.054   0.916
  902SOL    HW1 3605   1.282   2.000   0.832
  902SOL    HW2 3606   1.259   1.993   0.993
  903SOL     OW 3607   0.434   2.922   6.546
  903SOL    HW1 3608   0.436   2.823   6.563
  903SOL    HW2 3609   0.460   2.939   6.451
  904SOL     OW 3610   1.850   1.462   2.446
  904SOL    HW1 3611   1.759   1.481   2.408
  904SOL    HW2 3612   1.897   1.549   2.465
  905SOL     OW 3613   5.248   2.260   6.556
  905SOL    HW1 3614   5.242   2.255   6.456
  905SOL    HW2 3615   5.227   2.353   6.586
  906SOL     OW 3616   6.930   2.093   6.579
  906SOL    HW1 3617   6.969   2.103   6.488
  906SOL    HW2 3618   6.991   2.135   6.646
  907SOL     OW 3619   5.423   2.904   0.693
  907SOL    HW1 3620   5.450   2.906   0.790
  907SOL    HW2 3621   5.324   2.909   0.687
  908SOL     OW 3622   2.973   4.817   3.072
  908SOL    HW1 3623   2.886   4.768   3.059
  908SOL    HW2 3624   2.992   4.826   3.169
  909SOL     OW 3625   4.243   6.258   1.389
  909SOL    HW1 3626   4.150   6.290   1.371
  909SOL    HW2 3627   4.302   6.279   1.311
  910SOL     OW 3628   3.520   1.912   0.731
  910SOL    HW1 3629   3.440   1.901   0.671
  910SOL    HW2 3630   3.506   1.989   0.792
  911SOL     OW 3631   1.197   6.292   6.328
  911SOL    HW1 3632   1.131   6.328   6.262
  911SOL    HW2 3633   1.287   6.334   6.312
  912SOL     OW 3634   6.244   2.453   3.041
  912SOL    HW1 3635   6.344   2.449   3.037
  912SOL    HW2 3636   6.215   2.448   3.137
  913SOL     OW 3637   3.738   0.381   3.301
  913SOL    HW1 3638   3.711   0.477   3.304
  913SOL    HW2 3639   3.809   0.364   3.370
  914SOL     OW 3640   2.198   0.488   6.053
  914SOL    HW1 3641   2.128   0.417   6.057
  914SOL    HW2 3642   2.258   0.480   6.133
  915SOL     OW 3643   6.010   4.253   7.014
  915SOL    HW1 3644   5.937   4.267   6.947
  915SOL    HW2 3645   6.058   4.168   6.994
  916SOL     OW 3646   1.455   3.166   1.847
  916SOL    HW1 3647   1.442   3.084   1.902
  916SOL    HW2 3648   1.463   3.142   1.751
  917SOL     OW 3649   0.690   6.838   1.435
  917SOL    HW1 3650   0.780   6.805   1.406
  917SOL    HW2 3651   0.655   6.903   1.368
  918SOL     OW 3652   3.574   0.714   1.061
  918SOL    HW1 3653   3.556   0.812   1.073
  918SOL    HW2 3654   3.671   0.696   1.073
  919SOL     OW 3655   5.963   1.397   2.382
  919SOL    HW1 3656   5.982   1.474   2.321
  919SOL    HW2 3657   5.886   1.344   2.346
  920SOL     OW 3658   2.312   4.247   2.025
  920SOL    HW1 3659   2.358   4.258   1.936
  920SOL    HW2 3660   2.324   4.154   2.058
  921SOL     OW 3661   3.810   5.807   4.378
  921SOL    HW1 3662   3.820   5.794   4.476
  921SOL    HW2 3663   3.900   5.828   4.338
  922SOL     OW 3664   3.238   3.387   4.459
  922SOL    HW1 3665   3.293   3.390   4.543
  922SOL    HW2 3666   3.149   3.347   4.479
  923SOL     OW 3667   2.366   3.388   6.670
  923SOL    HW1 3668   2.301   3.455   6.705
  923SOL    HW2 3669   2.353   3.377   6.571
  924SOL     OW 3670   6.584   3.636   1.591
  924SOL    HW1 3671   6.567   3.603   1.684
  924SOL    HW2 3672   6.498   3.642   1.541
  925SOL     OW 3673   6.994   2.287   0.147
  925SOL    HW1 3674   6.947   2.303   0.234
  925SOL    HW2 3675   6.944   2.218   0.095
  926SOL     OW 3676   6.575   1.189   1.031
  926SOL    HW1 3677   6.613   1.170   0.941
  926SOL    HW2 3678   6.491   1.243   1.021
  927SOL     OW 3679   5.537   3.623   3.228
  927SOL    HW1 3680   5.588   3.616   3.314
  927SOL    HW2 3681   5.443   3.590   3.242
  928SOL     OW 3682   2.388   6.150   7.005
  928SOL    HW1 3683   2.382   6.135   0.080
  928SOL    HW2 3684   2.297   6.172   6.969
  929SOL     OW 3685   0.295   1.057   0.123
  929SOL    HW1 3686   0.260   1.118   0.194
  929SOL    HW2 3687   0.274   1.095   0.033
  930SOL     OW 3688   5.486   6.823   6.353
  930SOL    HW1 3689   5.411   6.772   6.312
  930SOL    HW2 3690   5.531   6.879   6.282
  931SOL     OW 3691   6.662   0.949   4.670
  931SOL    HW1 3692   6.738   1.002   4.632
  931SOL    HW2 3693   6.579   1.004   4.670
  932SOL     OW 3694   2.525   0.885   2.865
  932SOL    HW1 3695   2.483   0.799   2.833
  932SOL    HW2 3696   2.468   0.962   2.836
  933SOL     OW 3697   1.435   4.686   3.219
  933SOL    HW1 3698   1.510   4.668   3.156
  933SOL    HW2 3699   1.357   4.628   3.195
  934SOL     OW 3700   2.642   5.575   6.675
  934SOL    HW1 3701   2.578   5.610   6.744
  934SOL    HW2 3702   2.734   5.577   6.712
  935SOL     OW 3703   5.314   4.216   4.272
  935SOL    HW1 3704   5.324   4.214   4.371
  935SOL    HW2 3705   5.268   4.300   4.245
  936SOL     OW 3706   0.822   0.141   6.122
  936SOL    HW1 3707   0.743   0.079   6.124
  936SOL    HW2 3708   0.890   0.106   6.058
  937SOL     OW 3709   5.775   1.667   6.592
  937SOL    HW1 3710   5.804   1.581   6.635
  937SOL    HW2 3711   5.677   1.662   6.570
  938SOL     OW 3712   5.755   5.059   5.350
  938SOL    HW1 3713   5.812   5.137   5.374
  938SOL    HW2 3714   5.800   5.005   5.279
  939SOL     OW 3715   6.995   0.037   3.797
  939SOL    HW1 3716   6.935   0.075   3.726
  939SOL    HW2 3717   0.028   0.110   3.836
  940SOL     OW 3718   0.722   3.592   0.448
  940SOL    HW1 3719   0.711   3.550   0.358
  940SOL    HW2 3720   0.695   3.688   0.443
  941SOL     OW 3721   5.862   0.606   0.583
  941SOL    HW1 3722   5.796   0.655   0.641
  941SOL    HW2 3723   5.904   0.670   0.519
  942SOL     OW 3724   5.792   0.109   2.446
  942SOL    HW1 3725   5.831   0.086   2.535
  942SOL    HW2 3726   5.721   0.043   2.422
  943SOL     OW 3727   1.481   4.894   2.486
  943SOL    HW1 3728   1.557   4.838   2.520
  943SOL    HW2 3729   1.423   4.839   2.427
  944SOL     OW 3730   0.077   5.956   5.310
  944SOL    HW1 3731   0.156   5.975   5.369
  944SOL    HW2 3732   0.093   5.871   5.260
  945SOL     OW 3733   0.602   4.895   6.009
  945SOL    HW1 3734   0.513   4.887   5.963
  945SOL    HW2 3735   0.587   4.895   6.108
  946SOL     OW 3736   5.130   4.054   5.177
  946SOL    HW1 3737   5.141   4.152   5.195
  946SOL    HW2 3738   5.032   4.031   5.177
  947SOL     OW 3739   3.568   3.154   3.500
  947SOL    HW1 3740   3.530   3.070   3.539
  947SOL    HW2 3741   3.497   3.201   3.447
  948SOL     OW 3742   4.659   1.128   2.918
  948SOL    HW1 3743   4.701   1.059   2.976
  948SOL    HW2 3744   4.632   1.207   2.973
  949SOL     OW 3745   3.067   5.788   0.091
  949SOL    HW1 3746   3.008   5.869   0.084
  949SOL    HW2 3747   3.077   5.747   0.001
  950SOL     OW 3748   6.064   5.550   2.274
  950SOL    HW1 3749   6.147   5.498   2.293
  950SOL    HW2 3750   6.017   5.510   2.196
  951SOL     OW 3751   1.053   6.966   3.879
  951SOL    HW1 3752   1.069   0.017   3.943
  951SOL    HW2 3753   1.057   7.001   3.785
  952SOL     OW 3754   4.479   2.522   3.011
  952SOL    HW1 3755   4.408   2.451   3.010
  952SOL    HW2 3756   4.460   2.587   3.084
  953SOL     OW 3757   5.562   5.263   4.553
  953SOL    HW1 3758   5.473   5.266   4.507
  953SOL    HW2 3759   5.592   5.168   4.561
  954SOL     OW 3760   3.675   5.997   2.357
  954SOL    HW1 3761   3.738   5.944   2.301
  954SOL    HW2 3762   3.608   6.042   2.298
  955SOL     OW 3763   1.627   4.552   0.807
  955SOL    HW1 3764   1.618   4.469   0.751
  955SOL    HW2 3765   1.607   4.531   0.902
  956SOL     OW 3766   6.582   0.851   1.672
  956SOL    HW1 3767   6.611   0.775   1.614
  956SOL    HW2 3768   6.483   0.863   1.665
  957SOL     OW 3769   5.351   2.264   1.727
  957SOL    HW1 3770   5.340   2.358   1.759
  957SOL    HW2 3771   5.414   2.262   1.649
  958SOL     OW 3772   3.789   6.663   1.416
  958SOL    HW1 3773   3.748   6.748   1.449
  958SOL    HW2 3774   3.878   6.650   1.458
  959SOL     OW 3775   3.585   6.634   5.124
  959SOL    HW1 3776   3.648   6.668   5.194
  959SOL    HW2 3777   3.492   6.634   5.159
  960SOL     OW 3778   1.546   0.213   1.061
  960SOL    HW1 3779   1.600   0.219   0.977
  960SOL    HW2 3780   1.493   0.128   1.061
  961SOL     OW 3781   4.220   6.659   3.293
  961SOL    HW1 3782   4.262   6.744   3.322
  961SOL    HW2 3783   4.271   6.620   3.216
  962SOL     OW 3784   6.663   0.768   4.870
  962SOL    HW1 3785   6.678   0.835   4.797
  962SOL    HW2 3786   6.633   0.681   4.831
  963SOL     OW 3787   4.631   1.000   0.438
  963SOL    HW1 3788   4.551   1.048   0.401
  963SOL    HW2 3789   4.644   1.026   0.533
  964SOL     OW 3790   5.049   4.932   5.899
  964SOL    HW1 3791   5.107   4.975   5.830
  964SOL    HW2 3792   4.958   4.973   5.898
  965SOL     OW 3793   6.420   1.723   2.530
  965SOL    HW1 3794   6.345   1.667   2.566
  965SOL    HW2 3795   6.454   1.683   2.444
  966SOL     OW 3796   5.805   2.708   3.105
  966SOL    HW1 3797   5.766   2.638   3.164
  966SOL    HW2 3798   5.868   2.665   3.040
  967SOL     OW 3799   3.003   4.679   0.413
  967SOL    HW1 3800   2.956   4.726   0.488
  967SOL    HW2 3801   2.943   4.608   0.376
  968SOL     OW 3802   3.992   6.739   1.707
  968SOL    HW1 3803   3.964   6.650   1.744
  968SOL    HW2 3804   4.026   6.727   1.614
  969SOL     OW 3805   2.880   4.878   5.849
  969SOL    HW1 3806   2.928   4.902   5.765
  969SOL    HW2 3807   2.803   4.817   5.828
  970SOL     OW 3808   5.426   0.580   6.377
  970SOL    HW1 3809   5.470   0.510   6.322
  970SOL    HW2 3810   5.495   0.641   6.416
  971SOL     OW 3811   6.785   3.542   2.654
  971SOL    HW1 3812   6.776   3.641   2.648
  971SOL    HW2 3813   6.788   3.514   2.750
  972SOL     OW 3814   6.134   1.978   1.776
  972SOL    HW1 3815   6.099   2.017   1.862
  972SOL    HW2 3816   6.098   1.885   1.765
  973SOL     OW 3817   1.101   5.585   6.431
  973SOL    HW1 3818   1.113   5.563   6.334
  973SOL    HW2 3819   1.007   5.568   6.458
  974SOL     OW 3820   0.322   5.752   1.979
  974SOL    HW1 3821   0.347   5.845   2.007
  974SOL    HW2 3822   0.395   5.689   2.005
  975SOL     OW 3823   2.355   0.125   6.891
  975SOL    HW1 3824   2.395   0.047   6.938
  975SOL    HW2 3825   2.277   0.159   6.943
  976SOL     OW 3826   0.076   3.169   1.224
  976SOL    HW1 3827   0.026   3.115   1.156
  976SOL    HW2 3828   0.014   3.237   1.264
  977SOL     OW 3829   0.773   0.559   2.311
  977SOL    HW1 3830   0.851   0.533   2.367
  977SOL    HW2 3831   0.690   0.518   2.349
  978SOL     OW 3832   5.397   1.577   1.620
  978SOL    HW1 3833   5.466   1.554   1.552
  978SOL    HW2 3834   5.363   1.670   1.603
  979SOL     OW 3835   0.903   3.190   6.865
  979SOL    HW1 3836   0.825   3.131   6.885
  979SOL    HW2 3837   0.964   3.144   6.801
  980SOL     OW 3838   4.695   1.782   4.389
  980SOL    HW1 3839   4.655   1.861   4.342
  980SOL    HW2 3840   4.788   1.768   4.355
  981SOL     OW 3841   0.140   1.034   4.737
  981SOL    HW1 3842   0.213   1.060   4.801
  981SOL    HW2 3843   0.159   0.942   4.702
  982SOL     OW 3844   1.059   1.467   4.965
  982SOL    HW1 3845   1.052   1.529   5.043
  982SOL    HW2 3846   1.110   1.385   4.992
  983SOL     OW 3847   6.766   3.490   2.928
  983SOL    HW1 3848   6.816   3.413   2.968
  983SOL    HW2 3849   6.672   3.490   2.964
  984SOL     OW 3850   1.825   2.504   2.975
  984SOL    HW1 3851   1.906   2.554   3.005
  984SOL    HW2 3852   1.833   2.408   3.001
  985SOL     OW 3853   6.766   3.852   4.285
  985SOL    HW1 3854   6.804   3.880   4.197
  985SOL    HW2 3855   6.743   3.933   4.339
  986SOL     OW 3856   4.348   4.690   1.359
  986SOL    HW1 3857   4.322   4.609   1.411
  986SOL    HW2 3858   4.432   4.729   1.396
  987SOL     OW 3859   4.809   6.374   2.313
  987SOL    HW1 3860   4.822   6.396   2.410
  987SOL    HW2 3861   4.898   6.362   2.269
  988SOL     OW 3862   3.399   3.924   1.655
  988SOL    HW1 3863   3.469   3.905   1.586
  988SOL    HW2 3864   3.411   4.016   1.691
  989SOL     OW 3865   6.574   1.630   0.016
  989SOL    HW1 3866   6.624   1.708   7.001
  989SOL    HW2 3867   6.594   1.548   6.986
  990SOL     OW 3868   3.017   0.787   2.245
  990SOL    HW1 3869   2.963   0.854   2.296
  990SOL    HW2 3870   2.983   0.695   2.265
  991SOL     OW 3871   0.312   4.132   3.994
  991SOL    HW1 3872   0.385   4.183   3.948
  991SOL    HW2 3873   0.351   4.051   4.039
  992SOL     OW 3874   6.811   2.942   0.935
  992SOL    HW1 3875   6.748   3.014   0.965
  992SOL    HW2 3876   6.906   2.974   0.946
  993SOL     OW 3877   0.299   3.955   0.308
  993SOL    HW1 3878   0.339   4.006   0.384
  993SOL    HW2 3879   0.341   3.864   0.303
  994SOL     OW 3880   3.986   5.107   2.049
  994SOL    HW1 3881   3.975   5.018   2.005
  994SOL    HW2 3882   3.898   5.134   2.090
  995SOL     OW 3883   4.272   3.112   6.344
  995SOL    HW1 3884   4.328   3.166   6.406
  995SOL    HW2 3885   4.242   3.170   6.268
  996SOL     OW 3886   3.394   5.054   4.953
  996SOL    HW1 3887   3.485   5.039   4.992
  996SOL    HW2 3888   3.324   5.021   5.016
  997SOL     OW 3889   0.761   6.764   3.360
  997SOL    HW1 3890   0.778   6.668   3.336
  997SOL    HW2 3891   0.673   6.792   3.324
  998SOL     OW 3892   6.427   0.242   5.873
  998SOL    HW1 3893   6.356   0.172   5.870
  998SOL    HW2 3894   6.422   0.299   5.791
  999SOL     OW 3895   4.947   3.640   1.651
  999SOL    HW1 3896   5.014   3.606   1.584
  999SOL    HW2 3897   4.863   3.667   1.603
 1000SOL     OW 3898   4.268   1.689   1.505
 1000SOL    HW1 3899   4.244   1.699   1.602
 1000SOL    HW2 3900   4.189   1.712   1.449
 1001SOL     OW 3901   3.869   6.146   2.138
 1001SOL    HW1 3902   3.879   6.151   2.038
 1001SOL    HW2 3903   3.772   6.144   2.162
 1002SOL     OW 3904   5.495   2.343   1.342
 1002SOL    HW1 3905   5.571   2.280   1.322
 1002SOL    HW2 3906   5.469   2.391   1.258
 1003SOL     OW 3907   2.041   6.030   3.432
 1003SOL    HW1 3908   2.082   6.069   3.350
 1003SOL    HW2 3909   1.960   6.083   3.457
 1004SOL     OW 3910   0.144   0.801   2.349
 1004SOL    HW1 3911   0.222   0.857   2.378
 1004SOL    HW2 3912   0.122   0.736   2.421
 1005SOL     OW 3913   1.412   3.673   3.561
 1005SOL    HW1 3914   1.381   3.759   3.602
 1005SOL    HW2 3915   1.484   3.633   3.619
 1006SOL     OW 3916   1.327   3.944   6.987
 1006SOL    HW1 3917   1.242   3.942   0.016
 1006SOL    HW2 3918   1.379   3.861   7.005
 1007SOL     OW 3919   4.871   0.520   5.986
 1007SOL    HW1 3920   4.964   0.557   5.979
 1007SOL    HW2 3921   4.847   0.476   5.900
 1008SOL     OW 3922   6.939   2.979   5.281
 1008SOL    HW1 3923   7.013   2.912   5.277
 1008SOL    HW2 3924   6.941   3.036   5.199
 1009SOL     OW 3925   6.422   4.660   5.798
 1009SOL    HW1 3926   6.521   4.660   5.782
 1009SOL    HW2 3927   6.378   4.600   5.732
 1010SOL     OW 3928   2.983   2.660   1.274
 1010SOL    HW1 3929   3.044   2.582   1.266
 1010SOL    HW2 3930   2.891   2.628   1.298
 1011SOL     OW 3931   0.785   5.442   3.241
 1011SOL    HW1 3932   0.853   5.397   3.298
 1011SOL    HW2 3933   0.778   5.394   3.153
 1012SOL     OW 3934   0.048   6.400   2.141
 1012SOL    HW1 3935   0.033   6.309   2.100
 1012SOL    HW2 3936   0.128   6.396   2.200
 1013SOL     OW 3937   0.133   0.975   6.803
 1013SOL    HW1 3938   0.115   1.072   6.816
 1013SOL    HW2 3939   0.220   0.951   6.847
 1014SOL     OW 3940   0.272   3.842   4.977
 1014SOL    HW1 3941   0.329   3.792   5.042
 1014SOL    HW2 3942   0.300   3.820   4.883
 1015SOL     OW 3943   2.332   0.722   6.290
 1015SOL    HW1 3944   2.329   0.786   6.367
 1015SOL    HW2 3945   2.353   0.771   6.206
 1016SOL     OW 3946   4.512   4.982   0.907
 1016SOL    HW1 3947   4.540   4.998   1.002
 1016SOL    HW2 3948   4.413   4.997   0.900
 1017SOL     OW 3949   3.668   1.797   1.030
 1017SOL    HW1 3950   3.589   1.853   1.009
 1017SOL    HW2 3951   3.679   1.788   1.129
 1018SOL     OW 3952   0.944   4.752   3.879
 1018SOL    HW1 3953   1.023   4.706   3.840
 1018SOL    HW2 3954   0.943   4.739   3.978
 1019SOL     OW 3955   0.148   5.437   0.922
 1019SOL    HW1 3956   0.158   5.527   0.963
 1019SOL    HW2 3957   0.174   5.367   0.988
 1020SOL     OW 3958   6.211   1.263   1.381
 1020SOL    HW1 3959   6.157   1.243   1.463
 1020SOL    HW2 3960   6.235   1.360   1.380
 1021SOL     OW 3961   5.899   6.701   2.049
 1021SOL    HW1 3962   5.885   6.785   1.997
 1021SOL    HW2 3963   5.993   6.698   2.082
 1022SOL     OW 3964   2.971   4.923   5.570
 1022SOL    HW1 3965   3.069   4.942   5.569
 1022SOL    HW2 3966   2.956   4.825   5.552
 1023SOL     OW 3967   6.913   0.694   2.902
 1023SOL    HW1 3968   6.872   0.736   2.821
 1023SOL    HW2 3969   6.841   0.664   2.965
 1024SOL     OW 3970   0.700   1.910   3.929
 1024SOL    HW1 3971   0.610   1.939   3.962
 1024SOL    HW2 3972   0.703   1.810   3.925
 1025SOL     OW 3973   4.326   3.344   0.377
 1025SOL    HW1 3974   4.391   3.369   0.305
 1025SOL    HW2 3975   4.306   3.246   0.371
 1026SOL     OW 3976   2.715   2.961   1.596
 1026SOL    HW1 3977   2.789   2.910   1.552
 1026SOL    HW2 3978   2.746   3.053   1.616
 1027SOL     OW 3979   2.425   0.159   1.858
 1027SOL    HW1 3980   2.347   0.184   1.801
 1027SOL    HW2 3981   2.399   0.082   1.917
 1028SOL     OW 3982   1.217   0.006   3.041
 1028SOL    HW1 3983   1.157   6.981   2.978
 1028SOL    HW2 3984   1.170   0.021   3.128
 1029SOL     OW 3985   0.966   2.296   5.737
 1029SOL    HW1 3986   0.969   2.209   5.687
 1029SOL    HW2 3987   0.974   2.278   5.835
 1030SOL     OW 3988   3.145   3.105   1.871
 1030SOL    HW1 3989   3.153   3.083   1.774
 1030SOL    HW2 3990   3.125   3.202   1.882
 1031SOL     OW 3991   4.955   3.403   1.196
 1031SOL    HW1 3992   5.048   3.387   1.229
 1031SOL    HW2 3993   4.918   3.318   1.158
 1032SOL     OW 3994   2.279   1.782   5.678
 1032SOL    HW1 3995   2.192   1.828   5.696
 1032SOL    HW2 3996   2.348   1.851   5.655
 1033SOL     OW 3997   1.569   5.622   1.835
 1033SOL    HW1 3998   1.577   5.643   1.737
 1033SOL    HW2 3999   1.604   5.700   1.888
 1034SOL     OW 4000   1.402   5.796   4.235
 1034SOL    HW1 4001   1.317   5.765   4.193
 1034SOL    HW2 4002   1.470   5.722   4.232
 1035SOL     OW 4003   0.076   2.275   6.719
 1035SOL    HW1 4004   0.083   2.213   6.797
 1035SOL    HW2 4005   0.163   2.322   6.705
 1036SOL     OW 4006   3.976   1.037   1.862
 1036SOL    HW1 4007   3.910   1.083   1.802
 1036SOL    HW2 4008   3.928   0.970   1.919
 1037SOL     OW 4009   1.152   1.452   3.122
 1037SOL    HW1 4010   1.091   1.457   3.201
 1037SOL    HW2 4011   1.141   1.363   3.078
 1038SOL     OW 4012   1.791   1.328   5.449
 1038SOL    HW1 4013   1.755   1.417   5.478
 1038SOL    HW2 4014   1.716   1.268   5.422
 1039SOL     OW 4015   3.326   3.634   4.450
 1039SOL    HW1 4016   3.296   3.539   4.446
 1039SOL    HW2 4017   3.279   3.687   4.379
 1040SOL     OW 4018   4.942   1.049   2.085
 1040SOL    HW1 4019   4.865   0.985   2.085
 1040SOL    HW2 4020   4.957   1.083   1.993
 1041SOL     OW 4021   6.974   6.343   3.511
 1041SOL    HW1 4022   6.930   6.270   3.564
 1041SOL    HW2 4023   0.047   6.322   3.499
 1042SOL     OW 4024   4.677   5.439   2.770
 1042SOL    HW1 4025   4.754   5.422   2.831
 1042SOL    HW2 4026   4.704   5.419   2.676
 1043SOL     OW 4027   3.511   2.116   3.721
 1043SOL    HW1 4028   3.477   2.199   3.677
 1043SOL    HW2 4029   3.610   2.113   3.715
 1044SOL     OW 4030   5.787   5.283   2.046
 1044SOL    HW1 4031   5.841   5.357   2.007
 1044SOL    HW2 4032   5.820   5.262   2.138
 1045SOL     OW 4033   3.966   0.938   3.076
 1045SOL    HW1 4034   3.981   0.899   2.985
 1045SOL    HW2 4035   4.043   0.997   3.100
 1046SOL     OW 4036   1.831   1.893   6.792
 1046SOL    HW1 4037   1.764   1.947   6.740
 1046SOL    HW2 4038   1.885   1.954   6.850
 1047SOL     OW 4039   3.090   0.404   3.742
 1047SOL    HW1 4040   3.101   0.366   3.834
 1047SOL    HW2 4041   3.171   0.386   3.688
 1048SOL     OW 4042   3.144   5.642   2.200
 1048SOL    HW1 4043   3.187   5.654   2.290
 1048SOL    HW2 4044   3.201   5.685   2.130
 1049SOL     OW 4045   5.600   6.997   3.901
 1049SOL    HW1 4046   5.521   6.996   3.840
 1049SOL    HW2 4047   5.665   0.043   3.871
 1050SOL     OW 4048   3.625   5.480   2.332
 1050SOL    HW1 4049   3.569   5.405   2.366
 1050SOL    HW2 4050   3.684   5.447   2.258
 1051SOL     OW 4051   0.053   5.605   0.468
 1051SOL    HW1 4052   0.063   5.536   0.397
 1051SOL    HW2 4053   0.032   5.693   0.427
 1052SOL     OW 4054   4.795   0.677   5.536
 1052SOL    HW1 4055   4.863   0.606   5.550
 1052SOL    HW2 4056   4.704   0.641   5.557
 1053SOL     OW 4057   5.821   3.879   2.598
 1053SOL    HW1 4058   5.867   3.798   2.562
 1053SOL    HW2 4059   5.775   3.856   2.684
 1054SOL     OW 4060   2.600   3.628   0.829
 1054SOL    HW1 4061   2.576   3.705   0.887
 1054SOL    HW2 4062   2.560   3.544   0.866
 1055SOL     OW 4063   4.845   6.173   5.817
 1055SOL    HW1 4064   4.754   6.190   5.853
 1055SOL    HW2 4065   4.861   6.232   5.738
 1056SOL     OW 4066   1.243   3.612   0.170
 1056SOL    HW1 4067   1.267   3.520   0.139
 1056SOL    HW2 4068   1.317   3.676   0.148
 1057SOL     OW 4069   3.545   2.790   1.539
 1057SOL    HW1 4070   3.609   2.755   1.607
 1057SOL    HW2 4071   3.481   2.852   1.584
 1058SOL     OW 4072   5.028   2.610   4.036
 1058SOL    HW1 4073   5.077   2.642   3.955
 1058SOL    HW2 4074   4.937   2.578   4.010
 1059SOL     OW 4075   2.397   6.642   1.799
 1059SOL    HW1 4076   2.309   6.618   1.841
 1059SOL    HW2 4077   2.396   6.616   1.703
 1060SOL     OW 4078   0.413   4.711   4.364
 1060SOL    HW1 4079   0.371   4.691   4.275
 1060SOL    HW2 4080   0.416   4.810   4.377
 1061SOL     OW 4081   6.511   3.849   6.029
 1061SOL    HW1 4082   6.442   3.903   6.078
 1061SOL    HW2 4083   6.573   3.910   5.980
 1062SOL     OW 4084   4.432   5.611   5.567
 1062SOL    HW1 4085   4.497   5.575   5.633
 1062SOL    HW2 4086   4.480   5.668   5.501
 1063SOL     OW 4087   0.008   6.505   0.247
 1063SOL    HW1 4088   6.942   6.490   0.204
 1063SOL    HW2 4089   7.020   6.511   0.346
 1064SOL     OW 4090   1.531   4.358   1.654
 1064SOL    HW1 4091   1.563   4.266   1.633
 1064SOL    HW2 4092   1.435   4.368   1.627
 1065SOL     OW 4093   4.420   0.526   2.971
 1065SOL    HW1 4094   4.457   0.552   2.882
 1065SOL    HW2 4095   4.399   0.428   2.971
 1066SOL     OW 4096   4.633   6.665   2.421
 1066SOL    HW1 4097   4.584   6.674   2.335
 1066SOL    HW2 4098   4.579   6.611   2.485
 1067SOL     OW 4099   1.962   1.640   6.893
 1067SOL    HW1 4100   1.901   1.562   6.910
 1067SOL    HW2 4101   1.909   1.716   6.855
 1068SOL     OW 4102   6.374   3.910   1.604
 1068SOL    HW1 4103   6.330   3.989   1.645
 1068SOL    HW2 4104   6.471   3.908   1.630
 1069SOL     OW 4105   5.179   5.706   0.722
 1069SOL    HW1 4106   5.230   5.787   0.749
 1069SOL    HW2 4107   5.208   5.628   0.778
 1070SOL     OW 4108   1.624   6.904   2.485
 1070SOL    HW1 4109   1.704   6.881   2.540
 1070SOL    HW2 4110   1.642   6.987   2.432
 1071SOL     OW 4111   2.233   2.049   4.021
 1071SOL    HW1 4112   2.316   2.015   4.064
 1071SOL    HW2 4113   2.246   2.053   3.922
 1072SOL     OW 4114   2.745   1.189   1.083
 1072SOL    HW1 4115   2.772   1.235   1.167
 1072SOL    HW2 4116   2.666   1.236   1.043
 1073SOL     OW 4117   5.221   1.143   3.467
 1073SOL    HW1 4118   5.130   1.150   3.508
 1073SOL    HW2 4119   5.224   1.198   3.384
 1074SOL     OW 4120   2.528   5.244   1.913
 1074SOL    HW1 4121   2.611   5.286   1.950
 1074SOL    HW2 4122   2.538   5.233   1.814
 1075SOL     OW 4123   5.926   1.067   3.570
 1075SOL    HW1 4124   5.863   1.026   3.636
 1075SOL    HW2 4125   5.887   1.061   3.478
 1076SOL     OW 4126   0.448   2.479   5.611
 1076SOL    HW1 4127   0.449   2.442   5.519
 1076SOL    HW2 4128   0.540   2.478   5.649
 1077SOL     OW 4129   6.616   6.355   0.839
 1077SOL    HW1 4130   6.543   6.287   0.831
 1077SOL    HW2 4131   6.580   6.445   0.813
 1078SOL     OW 4132   6.174   0.754   2.810
 1078SOL    HW1 4133   6.121   0.694   2.870
 1078SOL    HW2 4134   6.265   0.767   2.849
 1079SOL     OW 4135   1.121   4.932   1.949
 1079SOL    HW1 4136   1.161   4.843   1.927
 1079SOL    HW2 4137   1.056   4.921   2.024
 1080SOL     OW 4138   2.650   5.719   3.629
 1080SOL    HW1 4139   2.742   5.684   3.644
 1080SOL    HW2 4140   2.585   5.669   3.686
 1081SOL     OW 4141   6.704   5.133   5.631
 1081SOL    HW1 4142   6.694   5.169   5.724
 1081SOL    HW2 4143   6.730   5.208   5.569
 1082SOL     OW 4144   5.728   1.867   6.183
 1082SOL    HW1 4145   5.694   1.866   6.089
 1082SOL    HW2 4146   5.812   1.921   6.188
 1083SOL     OW 4147   4.545   3.080   6.900
 1083SOL    HW1 4148   4.553   3.004   6.964
 1083SOL    HW2 4149   4.456   3.077   6.854
 1084SOL     OW 4150   6.822   6.701   6.145
 1084SOL    HW1 4151   6.740   6.705   6.201
 1084SOL    HW2 4152   6.818   6.772   6.075
 1085SOL     OW 4153   2.148   3.333   4.166
 1085SOL    HW1 4154   2.212   3.285   4.227
 1085SOL    HW2 4155   2.180   3.427   4.152
 1086SOL     OW 4156   7.012   4.992   0.165
 1086SOL    HW1 4157   6.994   4.958   0.257
 1086SOL    HW2 4158   6.931   4.981   0.108
 1087SOL     OW 4159   0.558   1.901   4.889
 1087SOL    HW1 4160   0.524   1.967   4.956
 1087SOL    HW2 4161   0.522   1.925   4.798
 1088SOL     OW 4162   0.452   4.552   3.294
 1088SOL    HW1 4163   0.490   4.473   3.343
 1088SOL    HW2 4164   0.360   4.530   3.262
 1089SOL     OW 4165   0.399   5.831   4.516
 1089SOL    HW1 4166   0.303   5.855   4.532
 1089SOL    HW2 4167   0.450   5.912   4.490
 1090SOL     OW 4168   3.984   1.985   2.689
 1090SOL    HW1 4169   4.035   1.911   2.644
 1090SOL    HW2 4170   3.965   2.057   2.624
 1091SOL     OW 4171   2.076   3.358   3.563
 1091SOL    HW1 4172   2.113   3.448   3.586
 1091SOL    HW2 4173   2.115   3.290   3.626
 1092SOL     OW 4174   0.989   5.181   0.507
 1092SOL    HW1 4175   0.949   5.189   0.598
 1092SOL    HW2 4176   0.962   5.095   0.465
 1093SOL     OW 4177   2.912   6.574   1.567
 1093SOL    HW1 4178   2.843   6.557   1.637
 1093SOL    HW2 4179   2.934   6.488   1.520
 1094SOL     OW 4180   0.554   6.616   2.377
 1094SOL    HW1 4181   0.640   6.570   2.399
 1094SOL    HW2 4182   0.539   6.692   2.440
 1095SOL     OW 4183   7.011   3.077   6.637
 1095SOL    HW1 4184   0.040   3.140   6.694
 1095SOL    HW2 4185   0.051   3.024   6.579
 1096SOL     OW 4186   3.654   4.442   1.225
 1096SOL    HW1 4187   3.700   4.495   1.296
 1096SOL    HW2 4188   3.585   4.499   1.180
 1097SOL     OW 4189   1.642   4.609   3.064
 1097SOL    HW1 4190   1.718   4.627   3.126
 1097SOL    HW2 4191   1.655   4.520   3.021
 1098SOL     OW 4192   5.958   3.598   6.446
 1098SOL    HW1 4193   6.045   3.634   6.478
 1098SOL    HW2 4194   5.933   3.518   6.500
 1099SOL     OW 4195   4.426   0.658   6.419
 1099SOL    HW1 4196   4.511   0.700   6.452
 1099SOL    HW2 4197   4.369   0.634   6.497
 1100SOL     OW 4198   4.235   1.251   4.827
 1100SOL    HW1 4199   4.317   1.288   4.782
 1100SOL    HW2 4200   4.248   1.154   4.845
 1101SOL     OW 4201   5.388   3.645   5.708
 1101SOL    HW1 4202   5.399   3.742   5.687
 1101SOL    HW2 4203   5.371   3.594   5.623
 1102SOL     OW 4204   2.091   1.198   4.738
 1102SOL    HW1 4205   2.155   1.172   4.666
 1102SOL    HW2 4206   2.002   1.157   4.719
 1103SOL     OW 4207   2.860   2.077   0.223
 1103SOL    HW1 4208   2.817   2.009   0.164
 1103SOL    HW2 4209   2.960   2.066   0.220
 1104SOL     OW 4210   1.500   3.930   3.606
 1104SOL    HW1 4211   1.576   3.974   3.652
 1104SOL    HW2 4212   1.486   3.972   3.516
 1105SOL     OW 4213   5.315   3.059   4.329
 1105SOL    HW1 4214   5.330   3.103   4.418
 1105SOL    HW2 4215   5.224   3.083   4.295
 1106SOL     OW 4216   0.912   1.964   1.662
 1106SOL    HW1 4217   0.949   1.871   1.666
 1106SOL    HW2 4218   0.812   1.959   1.662
 1107SOL     OW 4219   1.298   0.311   6.997
 1107SOL    HW1 4220   1.314   0.231   0.032
 1107SOL    HW2 4221   1.201   0.334   6.999
 1108SOL     OW 4222   3.503   6.411   5.308
 1108SOL    HW1 4223   3.556   6.397   5.225
 1108SOL    HW2 4224   3.428   6.474   5.289
 1109SOL     OW 4225   5.792   0.972   4.158
 1109SOL    HW1 4226   5.692   0.965   4.157
 1109SOL    HW2 4227   5.819   1.047   4.218
 1110SOL     OW 4228   4.071   1.577   3.021
 1110SOL    HW1 4229   4.065   1.654   3.085
 1110SOL    HW2 4230   4.020   1.499   3.058
 1111SOL     OW 4231   5.717   5.244   6.523
 1111SOL    HW1 4232   5.783   5.231   6.598
 1111SOL    HW2 4233   5.627   5.210   6.552
 1112SOL     OW 4234   6.236   0.485   3.423
 1112SOL    HW1 4235   6.198   0.489   3.515
 1112SOL    HW2 4236   6.336   0.487   3.429
 1113SOL     OW 4237   6.222   4.193   1.320
 1113SOL    HW1 4238   6.141   4.143   1.288
 1113SOL    HW2 4239   6.213   4.211   1.418
 1114SOL     OW 4240   3.019   2.059   6.253
 1114SOL    HW1 4241   3.024   2.126   6.179
 1114SOL    HW2 4242   2.923   2.038   6.272
 1115SOL     OW 4243   3.983   3.543   5.436
 1115SOL    HW1 4244   3.941   3.620   5.388
 1115SOL    HW2 4245   4.002   3.569   5.531
 1116SOL     OW 4246   5.543   0.272   6.947
 1116SOL    HW1 4247   5.583   0.356   6.911
 1116SOL    HW2 4248   5.511   0.287   0.017
 1117SOL     OW 4249   1.234   1.884   1.974
 1117SOL    HW1 4250   1.252   1.866   2.071
 1117SOL    HW2 4251   1.288   1.821   1.919
 1118SOL     OW 4252   2.589   5.026   0.348
 1118SOL    HW1 4253   2.585   4.994   0.254
 1118SOL    HW2 4254   2.674   4.993   0.390
 1119SOL     OW 4255   4.215   4.313   1.354
 1119SOL    HW1 4256   4.120   4.342   1.348
 1119SOL    HW2 4257   4.231   4.272   1.444
 1120SOL     OW 4258   6.591   5.672   1.156
 1120SOL    HW1 4259   6.586   5.688   1.057
 1120SOL    HW2 4260   6.687   5.671   1.184
 1121SOL     OW 4261   0.303   4.699   4.635
 1121SOL    HW1 4262   0.209   4.667   4.628
 1121SOL    HW2 4263   0.346   4.696   4.545
 1122SOL     OW 4264   5.830   2.785   2.075
 1122SOL    HW1 4265   5.772   2.776   2.156
 1122SOL    HW2 4266   5.785   2.845   2.009
 1123SOL     OW 4267   5.091   2.328   3.905
 1123SOL    HW1 4268   5.068   2.417   3.865
 1123SOL    HW2 4269   5.180   2.298   3.870
 1124SOL     OW 4270   7.001   4.664   5.704
 1124SOL    HW1 4271   6.966   4.573   5.726
 1124SOL    HW2 4272   0.058   4.683   5.759
 1125SOL     OW 4273   1.745   2.201   3.644
 1125SOL    HW1 4274   1.747   2.272   3.575
 1125SOL    HW2 4275   1.830   2.148   3.641
 1126SOL     OW 4276   6.074   6.116   5.661
 1126SOL    HW1 4277   6.091   6.021   5.688
 1126SOL    HW2 4278   5.988   6.121   5.611
 1127SOL     OW 4279   5.780   6.033   4.456
 1127SOL    HW1 4280   5.717   5.963   4.487
 1127SOL    HW2 4281   5.764   6.053   4.359
 1128SOL     OW 4282   6.092   1.571   4.770
 1128SOL    HW1 4283   6.050   1.617   4.691
 1128SOL    HW2 4284   6.188   1.596   4.776
 1129SOL     OW 4285   2.173   6.678   0.511
 1129SOL    HW1 4286   2.093   6.664   0.453
 1129SOL    HW2 4287   2.169   6.617   0.590
 1130SOL     OW 4288   2.145   4.706   1.224
 1130SOL    HW1 4289   2.129   4.781   1.160
 1130SOL    HW2 4290   2.115   4.620   1.182
 1131SOL     OW 4291   1.899   0.489   5.360
 1131SOL    HW1 4292   1.978   0.535   5.401
 1131SOL    HW2 4293   1.911   0.390   5.368
 1132SOL     OW 4294   4.053   0.295   3.150
 1132SOL    HW1 4295   4.080   0.299   3.246
 1132SOL    HW2 4296   4.015   0.204   3.130
 1133SOL     OW 4297   1.161   0.671   6.954
 1133SOL    HW1 4298   1.105   0.616   7.015
 1133SOL    HW2 4299   1.208   0.612   6.888
 1134SOL     OW 4300   5.173   0.018   2.983
 1134SOL    HW1 4301   5.270   0.000   2.968
 1134SOL    HW2 4302   5.161   0.069   3.069
 1135SOL     OW 4303   2.435   6.504   3.541
 1135SOL    HW1 4304   2.425   6.584   3.482
 1135SOL    HW2 4305   2.349   6.453   3.544
 1136SOL     OW 4306   4.063   4.741   2.719
 1136SOL    HW1 4307   3.982   4.720   2.773
 1136SOL    HW2 4308   4.091   4.835   2.736
 1137SOL     OW 4309   1.200   6.340   0.182
 1137SOL    HW1 4310   1.231   6.331   0.088
 1137SOL    HW2 4311   1.268   6.300   0.244
 1138SOL     OW 4312   0.341   1.678   5.115
 1138SOL    HW1 4313   0.431   1.706   5.081
 1138SOL    HW2 4314   0.344   1.669   5.214
 1139SOL     OW 4315   2.957   4.948   3.557
 1139SOL    HW1 4316   2.909   4.946   3.644
 1139SOL    HW2 4317   2.892   4.960   3.482
 1140SOL     OW 4318   2.975   0.207   2.388
 1140SOL    HW1 4319   2.950   0.255   2.304
 1140SOL    HW2 4320   3.063   0.161   2.376
 1141SOL     OW 4321   6.716   6.249   0.092
 1141SOL    HW1 4322   6.766   6.195   0.025
 1141SOL    HW2 4323   6.739   6.346   0.082
 1142SOL     OW 4324   3.308   0.647   4.151
 1142SOL    HW1 4325   3.398   0.620   4.117
 1142SOL    HW2 4326   3.268   0.715   4.090
 1143SOL     OW 4327   1.918   3.237   2.597
 1143SOL    HW1 4328   1.994   3.272   2.651
 1143SOL    HW2 4329   1.887   3.308   2.534
 1144SOL     OW 4330   5.856   4.145   3.792
 1144SOL    HW1 4331   5.845   4.237   3.830
 1144SOL    HW2 4332   5.939   4.103   3.829
 1145SOL     OW 4333   0.929   2.774   0.615
 1145SOL    HW1 4334   0.970   2.757   0.525
 1145SOL    HW2 4335   0.994   2.827   0.670
 1146SOL     OW 4336   0.971   1.998   1.945
 1146SOL    HW1 4337   1.063   1.958   1.942
 1146SOL    HW2 4338   0.937   2.009   1.852
 1147SOL     OW 4339   3.239   6.043   0.911
 1147SOL    HW1 4340   3.320   6.067   0.857
 1147SOL    HW2 4341   3.230   5.944   0.914
 1148SOL     OW 4342   4.377   6.058   1.036
 1148SOL    HW1 4343   4.356   6.143   1.086
 1148SOL    HW2 4344   4.436   6.000   1.091
 1149SOL     OW 4345   5.213   2.835   2.291
 1149SOL    HW1 4346   5.165   2.765   2.237
 1149SOL    HW2 4347   5.263   2.792   2.366
 1150SOL     OW 4348   0.729   3.712   0.196
 1150SOL    HW1 4349   0.632   3.690   0.207
 1150SOL    HW2 4350   0.768   3.653   0.125
 1151SOL     OW 4351   5.385   4.774   4.757
 1151SOL    HW1 4352   5.481   4.771   4.729
 1151SOL    HW2 4353   5.340   4.688   4.732
 1152SOL     OW 4354   5.369   6.485   6.647
 1152SOL    HW1 4355   5.437   6.447   6.585
 1152SOL    HW2 4356   5.315   6.554   6.600
 1153SOL     OW 4357   6.821   0.312   1.996
 1153SOL    HW1 4358   6.862   0.231   2.037
 1153SOL    HW2 4359   6.791   0.290   1.903
 1154SOL     OW 4360   0.557   4.356   0.527
 1154SOL    HW1 4361   0.625   4.295   0.568
 1154SOL    HW2 4362   0.577   4.367   0.429
 1155SOL     OW 4363   3.219   4.927   5.678
 1155SOL    HW1 4364   3.253   4.857   5.741
 1155SOL    HW2 4365   3.227   5.017   5.721
 1156SOL     OW 4366   4.657   2.406   5.136
 1156SOL    HW1 4367   4.616   2.478   5.191
 1156SOL    HW2 4368   4.750   2.387   5.169
 1157SOL     OW 4369   5.178   1.233   5.969
 1157SOL    HW1 4370   5.216   1.146   6.002
 1157SOL    HW2 4371   5.079   1.226   5.964
 1158SOL     OW 4372   6.438   5.496   4.595
 1158SOL    HW1 4373   6.348   5.524   4.629
 1158SOL    HW2 4374   6.492   5.577   4.574
 1159SOL     OW 4375   6.109   0.047   3.403
 1159SOL    HW1 4376   6.183   0.089   3.351
 1159SOL    HW2 4377   6.146   7.003   3.467
 1160SOL     OW 4378   4.206   5.304   1.523
 1160SOL    HW1 4379   4.254   5.366   1.584
 1160SOL    HW2 4380   4.135   5.254   1.574
 1161SOL     OW 4381   0.482   5.880   6.480
 1161SOL    HW1 4382   0.574   5.867   6.518
 1161SOL    HW2 4383   0.481   5.855   6.383
 1162SOL     OW 4384   2.435   2.700   5.931
 1162SOL    HW1 4385   2.512   2.763   5.932
 1162SOL    HW2 4386   2.468   2.607   5.915
 1163SOL     OW 4387   6.050   4.556   2.146
 1163SOL    HW1 4388   6.015   4.640   2.104
 1163SOL    HW2 4389   5.974   4.502   2.182
 1164SOL     OW 4390   5.023   1.986   4.948
 1164SOL    HW1 4391   5.054   1.902   4.993
 1164SOL    HW2 4392   4.946   2.025   4.999
 1165SOL     OW 4393   4.230   5.837   3.247
 1165SOL    HW1 4394   4.223   5.921   3.301
 1165SOL    HW2 4395   4.172   5.767   3.287
 1166SOL     OW 4396   2.576   5.818   0.012
 1166SOL    HW1 4397   2.599   5.728   0.051
 1166SOL    HW2 4398   2.579   5.887   0.085
 1167SOL     OW 4399   5.001   5.332   0.667
 1167SOL    HW1 4400   5.097   5.325   0.640
 1167SOL    HW2 4401   4.994   5.326   0.767
 1168SOL     OW 4402   5.869   2.342   1.383
 1168SOL    HW1 4403   5.884   2.440   1.396
 1168SOL    HW2 4404   5.842   2.301   1.470
 1169SOL     OW 4405   4.247   1.750   5.543
 1169SOL    HW1 4406   4.309   1.689   5.592
 1169SOL    HW2 4407   4.169   1.772   5.602
 1170SOL     OW 4408   5.650   0.370   3.596
 1170SOL    HW1 4409   5.711   0.449   3.601
 1170SOL    HW2 4410   5.653   0.332   3.504
 1171SOL     OW 4411   2.998   6.846   0.104
 1171SOL    HW1 4412   3.007   6.859   0.203
 1171SOL    HW2 4413   3.024   6.931   0.057
 1172SOL     OW 4414   5.540   4.297   0.550
 1172SOL    HW1 4415   5.534   4.203   0.581
 1172SOL    HW2 4416   5.578   4.355   0.622
 1173SOL     OW 4417   3.138   1.657   0.635
 1173SOL    HW1 4418   3.072   1.612   0.575
 1173SOL    HW2 4419   3.228   1.614   0.622
 1174SOL     OW 4420   3.662   3.821   2.097
 1174SOL    HW1 4421   3.734   3.843   2.031
 1174SOL    HW2 4422   3.695   3.839   2.190
 1175SOL     OW 4423   5.053   3.403   6.481
 1175SOL    HW1 4424   4.994   3.346   6.424
 1175SOL    HW2 4425   5.030   3.499   6.468
 1176SOL     OW 4426   5.082   3.388   0.347
 1176SOL    HW1 4427   5.149   3.335   0.399
 1176SOL    HW2 4428   5.083   3.359   0.252
 1177SOL     OW 4429   6.625   3.912   4.870
 1177SOL    HW1 4430   6.665   3.845   4.933
 1177SOL    HW2 4431   6.537   3.877   4.837
 1178SOL     OW 4432   2.674   4.165   0.446
 1178SOL    HW1 4433   2.574   4.166   0.450
 1178SOL    HW2 4434   2.703   4.179   0.351
 1179SOL     OW 4435   1.937   5.898   0.492
 1179SOL    HW1 4436   2.020   5.896   0.436
 1179SOL    HW2 4437   1.859   5.925   0.436
 1180SOL     OW 4438   2.704   6.814   3.946
 1180SOL    HW1 4439   2.658   6.727   3.964
 1180SOL    HW2 4440   2.728   6.819   3.849
 1181SOL     OW 4441   0.568   5.601   5.048
 1181SOL    HW1 4442   0.530   5.527   4.991
 1181SOL    HW2 4443   0.529   5.688   5.019
 1182SOL     OW 4444   4.207   5.176   3.566
 1182SOL    HW1 4445   4.243   5.253   3.619
 1182SOL    HW2 4446   4.221   5.091   3.617
 1183SOL     OW 4447   2.273   3.880   6.830
 1183SOL    HW1 4448   2.309   3.892   6.922
 1183SOL    HW2 4449   2.348   3.866   6.765
 1184SOL     OW 4450   7.019   0.929   4.443
 1184SOL    HW1 4451   0.024   0.847   4.491
 1184SOL    HW2 4452   0.049   0.939   4.359
 1185SOL     OW 4453   0.855   0.375   1.059
 1185SOL    HW1 4454   0.811   0.461   1.033
 1185SOL    HW2 4455   0.953   0.391   1.070
 1186SOL     OW 4456   5.567   6.532   5.841
 1186SOL    HW1 4457   5.557   6.464   5.913
 1186SOL    HW2 4458   5.588   6.621   5.882
 1187SOL     OW 4459   5.562   0.321   6.641
 1187SOL    HW1 4460   5.536   0.245   6.699
 1187SOL    HW2 4461   5.560   0.292   6.545
 1188SOL     OW 4462   3.502   5.629   6.081
 1188SOL    HW1 4463   3.468   5.562   6.014
 1188SOL    HW2 4464   3.599   5.611   6.099
 1189SOL     OW 4465   6.420   2.492   1.528
 1189SOL    HW1 4466   6.405   2.419   1.462
 1189SOL    HW2 4467   6.506   2.539   1.508
 1190SOL     OW 4468   3.196   5.325   3.278
 1190SOL    HW1 4469   3.241   5.263   3.342
 1190SOL    HW2 4470   3.263   5.359   3.213
 1191SOL     OW 4471   4.381   5.638   4.155
 1191SOL    HW1 4472   4.365   5.540   4.138
 1191SOL    HW2 4473   4.396   5.684   4.067
 1192SOL     OW 4474   4.722   5.152   2.062
 1192SOL    HW1 4475   4.768   5.226   2.112
 1192SOL    HW2 4476   4.638   5.187   2.021
 1193SOL     OW 4477   6.234   2.488   5.051
 1193SOL    HW1 4478   6.194   2.557   5.111
 1193SOL    HW2 4479   6.162   2.426   5.018
 1194SOL     OW 4480   6.062   0.115   1.986
 1194SOL    HW1 4481   6.127   0.183   2.019
 1194SOL    HW2 4482   6.107   0.026   1.981
 1195SOL     OW 4483   0.020   4.194   0.864
 1195SOL    HW1 4484   0.012   4.147   0.952
 1195SOL    HW2 4485   7.023   4.291   0.876
 1196SOL     OW 4486   6.991   5.710   3.033
 1196SOL    HW1 4487   0.046   5.655   3.002
 1196SOL    HW2 4488   6.948   5.754   2.953
 1197SOL     OW 4489   4.449   0.076   5.154
 1197SOL    HW1 4490   4.477   0.097   5.061
 1197SOL    HW2 4491   4.415   7.005   5.158
 1198SOL     OW 4492   1.319   3.097   2.590
 1198SOL    HW1 4493   1.224   3.065   2.584
 1198SOL    HW2 4494   1.364   3.085   2.502
 1199SOL     OW 4495   3.611   3.853   1.397
 1199SOL    HW1 4496   3.615   3.952   1.414
 1199SOL    HW2 4497   3.704   3.815   1.403
 1200SOL     OW 4498   3.585   3.819   4.148
 1200SOL    HW1 4499   3.605   3.915   4.127
 1200SOL    HW2 4500   3.600   3.802   4.245
 1201SOL     OW 4501   1.133   0.755   4.432
 1201SOL    HW1 4502   1.140   0.828   4.500
 1201SOL    HW2 4503   1.077   0.787   4.355
 1202SOL     OW 4504   0.414   5.582   5.523
 1202SOL    HW1 4505   0.392   5.530   5.606
 1202SOL    HW2 4506   0.367   5.670   5.526
 1203SOL     OW 4507   6.752   6.495   6.834
 1203SOL    HW1 4508   6.799   6.545   6.762
 1203SOL    HW2 4509   6.653   6.504   6.822
 1204SOL     OW 4510   3.937   0.274   1.524
 1204SOL    HW1 4511   4.019   0.225   1.554
 1204SOL    HW2 4512   3.964   0.362   1.484
 1205SOL     OW 4513   4.590   3.600   0.880
 1205SOL    HW1 4514   4.520   3.546   0.833
 1205SOL    HW2 4515   4.567   3.697   0.873
 1206SOL     OW 4516   2.638   2.924   5.700
 1206SOL    HW1 4517   2.694   3.006   5.708
 1206SOL    HW2 4518   2.560   2.942   5.641
 1207SOL     OW 4519   2.124   6.483   0.711
 1207SOL    HW1 4520   2.025   6.482   0.726
 1207SOL    HW2 4521   2.171   6.491   0.799
 1208SOL     OW 4522   3.293   3.631   1.082
 1208SOL    HW1 4523   3.303   3.534   1.104
 1208SOL    HW2 4524   3.313   3.686   1.164
 1209SOL     OW 4525   4.260   0.986   4.901
 1209SOL    HW1 4526   4.245   0.924   4.978
 1209SOL    HW2 4527   4.329   0.947   4.840
 1210SOL     OW 4528   2.762   0.586   3.398
 1210SOL    HW1 4529   2.835   0.653   3.382
 1210SOL    HW2 4530   2.723   0.558   3.310
 1211SOL     OW 4531   0.327   3.878   2.093
 1211SOL    HW1 4532   0.306   3.781   2.103
 1211SOL    HW2 4533   0.242   3.930   2.081
 1212SOL     OW 4534   6.235   0.344   0.350
 1212SOL    HW1 4535   6.219   0.302   0.260
 1212SOL    HW2 4536   6.320   0.396   0.348
 1213SOL     OW 4537   6.213   2.486   0.877
 1213SOL    HW1 4538   6.292   2.424   0.879
 1213SOL    HW2 4539   6.129   2.432   0.867
 1214SOL     OW 4540   0.758   2.716   6.449
 1214SOL    HW1 4541   0.829   2.722   6.379
 1214SOL    HW2 4542   0.774   2.636   6.506
 1215SOL     OW 4543   0.586   4.709   3.065
 1215SOL    HW1 4544   0.554   4.635   3.123
 1215SOL    HW2 4545   0.676   4.686   3.028
 1216SOL     OW 4546   5.041   0.551   1.101
 1216SOL    HW1 4547   5.116   0.584   1.159
 1216SOL    HW2 4548   4.990   0.630   1.066
 1217SOL     OW 4549   2.320   4.473   0.460
 1217SOL    HW1 4550   2.344   4.413   0.536
 1217SOL    HW2 4551   2.402   4.489   0.404
 1218SOL     OW 4552   2.227   4.566   4.662
 1218SOL    HW1 4553   2.261   4.635   4.726
 1218SOL    HW2 4554   2.276   4.480   4.677
 1219SOL     OW 4555   5.354   6.323   1.510
 1219SOL    HW1 4556   5.362   6.415   1.473
 1219SOL    HW2 4557   5.277   6.276   1.466
 1220SOL     OW 4558   0.846   4.450   3.178
 1220SOL    HW1 4559   0.808   4.500   3.100
 1220SOL    HW2 4560   0.821   4.353   3.172
 1221SOL     OW 4561   5.721   3.766   6.410
 1221SOL    HW1 4562   5.740   3.675   6.448
 1221SOL    HW2 4563   5.637   3.761   6.356
 1222SOL     OW 4564   6.527   0.625   6.638
 1222SOL    HW1 4565   6.570   0.540   6.670
 1222SOL    HW2 4566   6.598   0.691   6.614
 1223SOL     OW 4567   4.082   1.279   0.434
 1223SOL    HW1 4568   4.094   1.185   0.465
 1223SOL    HW2 4569   4.047   1.335   0.509
 1224SOL     OW 4570   3.647   5.004   0.226
 1224SOL    HW1 4571   3.669   5.061   0.305
 1224SOL    HW2 4572   3.706   5.031   0.149
 1225SOL     OW 4573   3.247   3.401   6.368
 1225SOL    HW1 4574   3.224   3.352   6.452
 1225SOL    HW2 4575   3.301   3.341   6.309
 1226SOL     OW 4576   2.708   5.173   1.412
 1226SOL    HW1 4577   2.639   5.107   1.443
 1226SOL    HW2 4578   2.663   5.247   1.362
 1227SOL     OW 4579   6.877   3.948   6.629
 1227SOL    HW1 4580   6.970   3.941   6.666
 1227SOL    HW2 4581   6.820   3.874   6.667
 1228SOL     OW 4582   3.613   2.047   6.416
 1228SOL    HW1 4583   3.694   1.988   6.424
 1228SOL    HW2 4584   3.640   2.136   6.380
 1229SOL     OW 4585   3.809   5.112   5.633
 1229SOL    HW1 4586   3.848   5.030   5.592
 1229SOL    HW2 4587   3.803   5.100   5.732
 1230SOL     OW 4588   4.679   6.891   3.020
 1230SOL    HW1 4589   4.764   6.848   3.050
 1230SOL    HW2 4590   4.698   6.951   2.942
 1231SOL     OW 4591   1.795   3.164   4.534
 1231SOL    HW1 4592   1.735   3.201   4.463
 1231SOL    HW2 4593   1.788   3.220   4.616
 1232SOL     OW 4594   0.830   2.034   5.235
 1232SOL    HW1 4595   0.795   1.999   5.148
 1232SOL    HW2 4596   0.929   2.038   5.232
 1233SOL     OW 4597   1.098   3.915   4.658
 1233SOL    HW1 4598   1.160   3.988   4.631
 1233SOL    HW2 4599   1.141   3.826   4.639
 1234SOL     OW 4600   6.597   4.183   4.709
 1234SOL    HW1 4601   6.519   4.122   4.724
 1234SOL    HW2 4602   6.653   4.186   4.792
 1235SOL     OW 4603   6.699   6.073   2.240
 1235SOL    HW1 4604   6.669   6.155   2.190
 1235SOL    HW2 4605   6.725   6.002   2.175
 1236SOL     OW 4606   4.939   1.141   0.959
 1236SOL    HW1 4607   4.851   1.095   0.950
 1236SOL    HW2 4608   5.012   1.072   0.954
 1237SOL     OW 4609   1.577   4.729   5.512
 1237SOL    HW1 4610   1.528   4.778   5.584
 1237SOL    HW2 4611   1.579   4.784   5.429
 1238SOL     OW 4612   2.797   0.403   0.194
 1238SOL    HW1 4613   2.772   0.408   0.097
 1238SOL    HW2 4614   2.842   0.488   0.221
 1239SOL     OW 4615   6.945   0.008   6.256
 1239SOL    HW1 4616   6.960   0.106   6.262
 1239SOL    HW2 4617   6.872   7.012   6.190
 1240SOL     OW 4618   5.407   6.131   1.900
 1240SOL    HW1 4619   5.496   6.086   1.886
 1240SOL    HW2 4620   5.416   6.229   1.880
 1241SOL     OW 4621   6.253   4.095   4.122
 1241SOL    HW1 4622   6.286   4.135   4.207
 1241SOL    HW2 4623   6.305   4.011   4.103
 1242SOL     OW 4624   6.494   3.311   1.539
 1242SOL    HW1 4625   6.437   3.392   1.523
 1242SOL    HW2 4626   6.477   3.243   1.467
 1243SOL     OW 4627   6.635   6.565   5.498
 1243SOL    HW1 4628   6.680   6.653   5.515
 1243SOL    HW2 4629   6.627   6.514   5.584
 1244SOL     OW 4630   6.710   6.929   4.448
 1244SOL    HW1 4631   6.627   6.965   4.405
 1244SOL    HW2 4632   6.768   6.887   4.379
 1245SOL     OW 4633   4.646   4.457   6.677
 1245SOL    HW1 4634   4.579   4.506   6.732
 1245SOL    HW2 4635   4.599   4.398   6.611
 1246SOL     OW 4636   2.487   6.354   1.217
 1246SOL    HW1 4637   2.581   6.389   1.216
 1246SOL    HW2 4638   2.483   6.274   1.278
 1247SOL     OW 4639   1.979   0.840   6.332
 1247SOL    HW1 4640   1.938   0.846   6.241
 1247SOL    HW2 4641   2.009   0.746   6.349
 1248SOL     OW 4642   2.111   6.991   4.687
 1248SOL    HW1 4643   2.105   0.065   4.707
 1248SOL    HW2 4644   2.019   6.956   4.667
 1249SOL     OW 4645   5.331   2.338   2.154
 1249SOL    HW1 4646   5.256   2.279   2.183
 1249SOL    HW2 4647   5.369   2.385   2.233
 1250SOL     OW 4648   6.499   5.211   4.645
 1250SOL    HW1 4649   6.513   5.287   4.582
 1250SOL    HW2 4650   6.481   5.246   4.737
 1251SOL     OW 4651   3.278   0.209   4.266
 1251SOL    HW1 4652   3.334   0.207   4.183
 1251SOL    HW2 4653   3.238   0.300   4.277
 1252SOL     OW 4654   3.905   3.298   5.315
 1252SOL    HW1 4655   3.918   3.391   5.349
 1252SOL    HW2 4656   3.843   3.300   5.237
 1253SOL     OW 4657   3.415   4.946   1.866
 1253SOL    HW1 4658   3.513   4.929   1.883
 1253SOL    HW2 4659   3.363   4.914   1.945
 1254SOL     OW 4660   0.126   2.719   2.615
 1254SOL    HW1 4661   0.167   2.793   2.669
 1254SOL    HW2 4662   0.193   2.685   2.549
 1255SOL     OW 4663   6.651   1.712   4.754
 1255SOL    HW1 4664   6.640   1.788   4.690
 1255SOL    HW2 4665   6.745   1.710   4.788
 1256SOL     OW 4666   6.682   6.392   3.429
 1256SOL    HW1 4667   6.761   6.352   3.476
 1256SOL    HW2 4668   6.699   6.392   3.330
 1257SOL     OW 4669   0.034   6.832   4.572
 1257SOL    HW1 4670   0.130   6.804   4.581
 1257SOL    HW2 4671   6.998   6.756   4.595
 1258SOL     OW 4672   1.659   5.231   3.551
 1258SOL    HW1 4673   1.680   5.280   3.467
 1258SOL    HW2 4674   1.727   5.159   3.566
 1259SOL     OW 4675   3.649   0.959   4.185
 1259SOL    HW1 4676   3.682   1.029   4.247
 1259SOL    HW2 4677   3.557   0.930   4.212
 1260SOL     OW 4678   1.387   1.491   6.561
 1260SOL    HW1 4679   1.288   1.499   6.547
 1260SOL    HW2 4680   1.411   1.396   6.575
 1261SOL     OW 4681   0.229   5.293   6.655
 1261SOL    HW1 4682   0.329   5.286   6.654
 1261SOL    HW2 4683   0.201   5.374   6.604
 1262SOL     OW 4684   4.773   4.905   1.268
 1262SOL    HW1 4685   4.853   4.964   1.260
 1262SOL    HW2 4686   4.753   4.863   1.179
 1263SOL     OW 4687   0.444   1.107   2.730
 1263SOL    HW1 4688   0.365   1.067   2.683
 1263SOL    HW2 4689   0.482   1.039   2.793
 1264SOL     OW 4690   6.866   4.674   6.203
 1264SOL    HW1 4691   6.965   4.687   6.191
 1264SOL    HW2 4692   6.818   4.756   6.172
 1265SOL     OW 4693   6.008   5.396   4.580
 1265SOL    HW1 4694   5.991   5.471   4.645
 1265SOL    HW2 4695   5.934   5.329   4.587
 1266SOL     OW 4696   0.586   0.867   4.613
 1266SOL    HW1 4697   0.582   0.771   4.641
 1266SOL    HW2 4698   0.628   0.922   4.685
 1267SOL     OW 4699   5.298   1.325   1.577
 1267SOL    HW1 4700   5.298   1.421   1.604
 1267SOL    HW2 4701   5.288   1.267   1.658
 1268SOL     OW 4702   2.993   3.052   0.142
 1268SOL    HW1 4703   2.896   3.030   0.146
 1268SOL    HW2 4704   3.047   2.968   0.137
 1269SOL     OW 4705   5.877   3.191   3.959
 1269SOL    HW1 4706   5.899   3.116   4.021
 1269SOL    HW2 4707   5.832   3.155   3.877
 1270SOL     OW 4708   2.061   4.760   2.779
 1270SOL    HW1 4709   2.021   4.741   2.689
 1270SOL    HW2 4710   2.020   4.699   2.847
 1271SOL     OW 4711   3.439   1.194   1.789
 1271SOL    HW1 4712   3.344   1.183   1.818
 1271SOL    HW2 4713   3.485   1.105   1.792
 1272SOL     OW 4714   5.921   4.946   6.887
 1272SOL    HW1 4715   5.839   4.962   6.943
 1272SOL    HW2 4716   5.923   5.012   6.813
 1273SOL     OW 4717   1.271   4.194   5.669
 1273SOL    HW1 4718   1.316   4.279   5.644
 1273SOL    HW2 4719   1.322   4.116   5.631
 1274SOL     OW 4720   0.051   4.484   0.666
 1274SOL    HW1 4721   0.143   4.450   0.647
 1274SOL    HW2 4722   7.017   4.474   0.585
 1275SOL     OW 4723   3.547   1.257   3.477
 1275SOL    HW1 4724   3.572   1.177   3.423
 1275SOL    HW2 4725   3.482   1.230   3.548
 1276SOL     OW 4726   5.321   5.434   4.796
 1276SOL    HW1 4727   5.406   5.394   4.831
 1276SOL    HW2 4728   5.296   5.513   4.851
 1277SOL     OW 4729   2.035   5.286   6.168
 1277SOL    HW1 4730   2.094   5.302   6.088
 1277SOL    HW2 4731   2.035   5.188   6.190
 1278SOL     OW 4732   1.753   0.377   4.735
 1278SOL    HW1 4733   1.790   0.456   4.686
 1278SOL    HW2 4734   1.667   0.403   4.779
 1279SOL     OW 4735   2.033   4.557   6.414
 1279SOL    HW1 4736   2.059   4.513   6.328
 1279SOL    HW2 4737   2.059   4.498   6.491
 1280SOL     OW 4738   4.456   6.899   3.445
 1280SOL    HW1 4739   4.422   6.835   3.514
 1280SOL    HW2 4740   4.549   6.874   3.418
 1281SOL     OW 4741   2.632   6.267   3.343
 1281SOL    HW1 4742   2.546   6.230   3.377
 1281SOL    HW2 4743   2.626   6.366   3.336
 1282SOL     OW 4744   6.676   2.422   6.945
 1282SOL    HW1 4745   6.762   2.410   6.896
 1282SOL    HW2 4746   6.644   2.516   6.933
 1283SOL     OW 4747   6.410   3.055   5.557
 1283SOL    HW1 4748   6.408   3.000   5.474
 1283SOL    HW2 4749   6.444   2.999   5.633
 1284SOL     OW 4750   4.168   0.909   1.686
 1284SOL    HW1 4751   4.140   0.820   1.651
 1284SOL    HW2 4752   4.110   0.935   1.763
 1285SOL     OW 4753   4.349   1.125   5.457
 1285SOL    HW1 4754   4.430   1.181   5.468
 1285SOL    HW2 4755   4.267   1.179   5.477
 1286SOL     OW 4756   4.499   2.557   0.789
 1286SOL    HW1 4757   4.527   2.522   0.879
 1286SOL    HW2 4758   4.420   2.504   0.757
 1287SOL     OW 4759   5.233   4.329   5.312
 1287SOL    HW1 4760   5.134   4.337   5.326
 1287SOL    HW2 4761   5.266   4.412   5.266
 1288SOL     OW 4762   3.840   4.853   5.769
 1288SOL    HW1 4763   3.940   4.861   5.762
 1288SOL    HW2 4764   3.815   4.839   5.865
 1289SOL     OW 4765   0.739   0.168   1.939
 1289SOL    HW1 4766   0.693   0.192   1.854
 1289SOL    HW2 4767   0.747   0.248   1.998
 1290SOL     OW 4768   1.432   6.978   0.385
 1290SOL    HW1 4769   1.455   0.038   0.434
 1290SOL    HW2 4770   1.365   6.926   0.436
 1291SOL     OW 4771   0.032   4.632   4.102
 1291SOL    HW1 4772   7.004   4.699   4.155
 1291SOL    HW2 4773   0.056   4.555   4.161
 1292SOL     OW 4774   0.505   5.727   2.417
 1292SOL    HW1 4775   0.508   5.794   2.342
 1292SOL    HW2 4776   0.413   5.726   2.455
 1293SOL     OW 4777   2.641   2.450   6.699
 1293SOL    HW1 4778   2.688   2.492   6.777
 1293SOL    HW2 4779   2.701   2.455   6.619
 1294SOL     OW 4780   0.919   4.017   5.797
 1294SOL    HW1 4781   0.969   3.996   5.713
 1294SOL    HW2 4782   0.910   3.934   5.852
 1295SOL     OW 4783   0.241   2.779   0.581
 1295SOL    HW1 4784   0.270   2.789   0.486
 1295SOL    HW2 4785   0.145   2.751   0.584
 1296SOL     OW 4786   4.754   6.600   5.441
 1296SOL    HW1 4787   4.752   6.559   5.349
 1296SOL    HW2 4788   4.811   6.683   5.439
 1297SOL     OW 4789   1.179   6.243   1.593
 1297SOL    HW1 4790   1.081   6.259   1.586
 1297SOL    HW2 4791   1.223   6.322   1.636
 1298SOL     OW 4792   5.237   6.374   3.520
 1298SOL    HW1 4793   5.197   6.404   3.606
 1298SOL    HW2 4794   5.192   6.419   3.444
 1299SOL     OW 4795   2.221   2.401   3.579
 1299SOL    HW1 4796   2.269   2.488   3.567
 1299SOL    HW2 4797   2.284   2.333   3.616
 1300SOL     OW 4798   1.828   3.414   1.397
 1300SOL    HW1 4799   1.916   3.451   1.427
 1300SOL    HW2 4800   1.795   3.347   1.464
 1301SOL     OW 4801   0.721   6.771   2.155
 1301SOL    HW1 4802   0.699   6.692   2.210
 1301SOL    HW2 4803   0.663   6.848   2.182
 1302SOL     OW 4804   5.666   0.233   5.281
 1302SOL    HW1 4805   5.575   0.259   5.314
 1302SOL    HW2 4806   5.734   0.250   5.352
 1303SOL     OW 4807   3.801   0.836   1.666
 1303SOL    HW1 4808   3.792   0.784   1.581
 1303SOL    HW2 4809   3.818   0.772   1.742
 1304SOL     OW 4810   1.911   0.637   1.168
 1304SOL    HW1 4811   1.816   0.611   1.185
 1304SOL    HW2 4812   1.915   0.736   1.151
 1305SOL     OW 4813   5.610   4.431   0.080
 1305SOL    HW1 4814   5.549   4.440   0.158
 1305SOL    HW2 4815   5.651   4.340   0.079
 1306SOL     OW 4816   1.643   6.275   4.459
 1306SOL    HW1 4817   1.576   6.265   4.385
 1306SOL    HW2 4818   1.611   6.344   4.524
 1307SOL     OW 4819   2.155   3.606   4.187
 1307SOL    HW1 4820   2.175   3.671   4.261
 1307SOL    HW2 4821   2.099   3.650   4.118
 1308SOL     OW 4822   0.152   6.857   6.235
 1308SOL    HW1 4823   0.082   6.928   6.242
 1308SOL    HW2 4824   0.109   6.768   6.226
 1309SOL     OW 4825   5.495   4.263   5.209
 1309SOL    HW1 4826   5.547   4.209   5.276
 1309SOL    HW2 4827   5.400   4.270   5.239
 1310SOL     OW 4828   0.469   3.966   3.304
 1310SOL    HW1 4829   0.502   3.897   3.239
 1310SOL    HW2 4830   0.547   4.006   3.352
 1311SOL     OW 4831   6.572   6.127   6.461
 1311SOL    HW1 4832   6.535   6.034   6.464
 1311SOL    HW2 4833   6.665   6.127   6.496
 1312SOL     OW 4834   1.600   6.929   6.779
 1312SOL    HW1 4835   1.662   6.863   6.737
 1312SOL    HW2 4836   1.546   6.974   6.708
 1313SOL     OW 4837   6.785   4.987   2.177
 1313SOL    HW1 4838   6.746   4.944   2.258
 1313SOL    HW2 4839   6.716   4.990   2.104
 1314SOL     OW 4840   3.382   1.812   4.492
 1314SOL    HW1 4841   3.365   1.818   4.590
 1314SOL    HW2 4842   3.430   1.894   4.461
 1315SOL     OW 4843   6.732   1.139   2.939
 1315SOL    HW1 4844   6.813   1.083   2.925
 1315SOL    HW2 4845   6.758   1.236   2.938
 1316SOL     OW 4846   3.264   0.207   5.731
 1316SOL    HW1 4847   3.260   0.156   5.646
 1316SOL    HW2 4848   3.172   0.240   5.754
 1317SOL     OW 4849   1.603   4.211   4.873
 1317SOL    HW1 4850   1.610   4.176   4.779
 1317SOL    HW2 4851   1.509   4.242   4.890
 1318SOL     OW 4852   1.441   2.743   0.072
 1318SOL    HW1 4853   1.441   2.835   0.112
 1318SOL    HW2 4854   1.426   2.676   0.144
 1319SOL     OW 4855   0.516   5.006   0.591
 1319SOL    HW1 4856   0.431   5.047   0.625
 1319SOL    HW2 4857   0.538   5.045   0.502
 1320SOL     OW 4858   3.356   3.380   6.957
 1320SOL    HW1 4859   3.454   3.364   6.945
 1320SOL    HW2 4860   3.306   3.350   6.875
 1321SOL     OW 4861   4.862   2.462   6.454
 1321SOL    HW1 4862   4.930   2.530   6.428
 1321SOL    HW2 4863   4.781   2.507   6.490
 1322SOL     OW 4864   3.964   1.861   4.529
 1322SOL    HW1 4865   4.001   1.775   4.494
 1322SOL    HW2 4866   4.003   1.880   4.619
 1323SOL     OW 4867   3.134   6.615   0.032
 1323SOL    HW1 4868   3.218   6.666   0.050
 1323SOL    HW2 4869   3.055   6.675   0.045
 1324SOL     OW 4870   0.430   3.087   0.035
 1324SOL    HW1 4871   0.486   3.169   0.044
 1324SOL    HW2 4872   0.456   3.038   6.975
 1325SOL     OW 4873   4.258   6.186   5.082
 1325SOL    HW1 4874   4.248   6.165   5.179
 1325SOL    HW2 4875   4.209   6.118   5.027
 1326SOL     OW 4876   4.894   3.778   5.160
 1326SOL    HW1 4877   4.809   3.788   5.212
 1326SOL    HW2 4878   4.886   3.700   5.097
 1327SOL     OW 4879   1.313   6.152   0.670
 1327SOL    HW1 4880   1.248   6.130   0.743
 1327SOL    HW2 4881   1.378   6.221   0.702
 1328SOL     OW 4882   2.278   3.436   6.999
 1328SOL    HW1 4883   2.341   3.478   6.933
 1328SOL    HW2 4884   2.302   3.339   7.010
 1329SOL     OW 4885   0.278   2.164   2.356
 1329SOL    HW1 4886   0.235   2.255   2.353
 1329SOL    HW2 4887   0.343   2.161   2.432
 1330SOL     OW 4888   1.196   1.931   1.161
 1330SOL    HW1 4889   1.218   1.833   1.166
 1330SOL    HW2 4890   1.206   1.972   1.252
 1331SOL     OW 4891   4.578   2.622   3.249
 1331SOL    HW1 4892   4.611   2.654   3.338
 1331SOL    HW2 4893   4.588   2.695   3.182
 1332SOL     OW 4894   3.152   0.104   0.886
 1332SOL    HW1 4895   3.081   0.069   0.825
 1332SOL    HW2 4896   3.239   0.109   0.837
 1333SOL     OW 4897   2.893   3.496   3.437
 1333SOL    HW1 4898   2.850   3.574   3.391
 1333SOL    HW2 4899   2.911   3.424   3.370
 1334SOL     OW 4900   6.855   1.502   4.330
 1334SOL    HW1 4901   6.854   1.412   4.287
 1334SOL    HW2 4902   6.761   1.534   4.340
 1335SOL     OW 4903   2.006   2.007   2.420
 1335SOL    HW1 4904   2.050   2.056   2.344
 1335SOL    HW2 4905   1.907   2.019   2.412
 1336SOL     OW 4906   3.566   1.499   5.021
 1336SOL    HW1 4907   3.500   1.505   4.947
 1336SOL    HW2 4908   3.607   1.408   5.023
 1337SOL     OW 4909   0.234   1.387   3.023
 1337SOL    HW1 4910   0.309   1.391   2.957
 1337SOL    HW2 4911   0.251   1.454   3.096
 1338SOL     OW 4912   0.223   3.046   4.050
 1338SOL    HW1 4913   0.217   3.050   4.150
 1338SOL    HW2 4914   0.221   2.951   4.020
 1339SOL     OW 4915   5.728   1.377   0.232
 1339SOL    HW1 4916   5.717   1.371   0.332
 1339SOL    HW2 4917   5.759   1.469   0.208
 1340SOL     OW 4918   5.561   1.224   2.858
 1340SOL    HW1 4919   5.492   1.209   2.788
 1340SOL    HW2 4920   5.647   1.181   2.830
 1341SOL     OW 4921   4.581   6.612   6.994
 1341SOL    HW1 4922   4.493   6.569   6.973
 1341SOL    HW2 4923   4.607   6.673   6.918
 1342SOL     OW 4924   3.019   5.660   6.232
 1342SOL    HW1 4925   3.072   5.577   6.248
 1342SOL    HW2 4926   2.970   5.653   6.146
 1343SOL     OW 4927   5.237   5.635   2.894
 1343SOL    HW1 4928   5.195   5.708   2.842
 1343SOL    HW2 4929   5.287   5.674   2.972
 1344SOL     OW 4930   0.636   6.571   4.295
 1344SOL    HW1 4931   0.633   6.532   4.203
 1344SOL    HW2 4932   0.713   6.531   4.345
 1345SOL     OW 4933   0.725   4.999   2.226
 1345SOL    HW1 4934   0.661   4.929   2.194
 1345SOL    HW2 4935   0.676   5.085   2.241
 1346SOL     OW 4936   2.128   5.336   5.640
 1346SOL    HW1 4937   2.215   5.292   5.616
 1346SOL    HW2 4938   2.067   5.336   5.561
 1347SOL     OW 4939   0.495   6.501   6.552
 1347SOL    HW1 4940   0.399   6.523   6.570
 1347SOL    HW2 4941   0.508   6.402   6.556
 1348SOL     OW 4942   6.840   6.575   5.221
 1348SOL    HW1 4943   6.899   6.559   5.301
 1348SOL    HW2 4944   6.811   6.488   5.183
 1349SOL     OW 4945   5.317   2.921   4.641
 1349SOL    HW1 4946   5.389   2.870   4.689
 1349SOL    HW2 4947   5.358   2.979   4.571
 1350SOL     OW 4948   5.214   5.118   5.300
 1350SOL    HW1 4949   5.303   5.105   5.343
 1350SOL    HW2 4950   5.222   5.108   5.201
 1351SOL     OW 4951   5.215   2.801   3.907
 1351SOL    HW1 4952   5.208   2.872   3.977
 1351SOL    HW2 4953   5.163   2.829   3.826
 1352SOL     OW 4954   6.323   6.332   4.718
 1352SOL    HW1 4955   6.345   6.425   4.747
 1352SOL    HW2 4956   6.407   6.277   4.718
 1353SOL     OW 4957   1.002   2.307   0.334
 1353SOL    HW1 4958   0.932   2.238   0.319
 1353SOL    HW2 4959   0.989   2.349   0.423
 1354SOL     OW 4960   6.860   4.546   1.826
 1354SOL    HW1 4961   6.833   4.556   1.922
 1354SOL    HW2 4962   6.791   4.589   1.767
 1355SOL     OW 4963   6.370   4.213   4.335
 1355SOL    HW1 4964   6.453   4.245   4.291
 1355SOL    HW2 4965   6.365   4.250   4.428
 1356SOL     OW 4966   3.554   3.284   2.025
 1356SOL    HW1 4967   3.624   3.220   2.056
 1356SOL    HW2 4968   3.593   3.375   2.017
 1357SOL     OW 4969   0.101   4.684   6.500
 1357SOL    HW1 4970   0.050   4.663   6.584
 1357SOL    HW2 4971   0.099   4.783   6.484
 1358SOL     OW 4972   6.309   6.475   6.817
 1358SOL    HW1 4973   6.223   6.515   6.785
 1358SOL    HW2 4974   6.340   6.406   6.752
 1359SOL     OW 4975   6.131   4.458   2.568
 1359SOL    HW1 4976   6.032   4.460   2.586
 1359SOL    HW2 4977   6.147   4.419   2.477
 1360SOL     OW 4978   2.412   3.567   0.195
 1360SOL    HW1 4979   2.386   3.509   0.118
 1360SOL    HW2 4980   2.347   3.553   0.270
 1361SOL     OW 4981   6.278   4.484   4.810
 1361SOL    HW1 4982   6.324   4.572   4.815
 1361SOL    HW2 4983   6.201   4.483   4.874
 1362SOL     OW 4984   4.015   3.933   3.033
 1362SOL    HW1 4985   3.949   3.888   3.092
 1362SOL    HW2 4986   4.015   3.888   2.943
 1363SOL     OW 4987   0.574   5.441   4.575
 1363SOL    HW1 4988   0.584   5.361   4.634
 1363SOL    HW2 4989   0.486   5.438   4.529
 1364SOL     OW 4990   5.462   4.359   0.309
 1364SOL    HW1 4991   5.505   4.326   0.393
 1364SOL    HW2 4992   5.369   4.390   0.329
 1365SOL     OW 4993   0.833   4.441   6.120
 1365SOL    HW1 4994   0.785   4.365   6.163
 1365SOL    HW2 4995   0.793   4.461   6.031
 1366SOL     OW 4996   1.627   6.332   6.020
 1366SOL    HW1 4997   1.538   6.378   6.017
 1366SOL    HW2 4998   1.622   6.249   5.965
 1367SOL     OW 4999   2.523   0.186   2.398
 1367SOL    HW1 5000   2.568   0.178   2.310
 1367SOL    HW2 5001   2.583   0.151   2.470
 1368SOL     OW 5002   4.852   6.769   4.618
 1368SOL    HW1 5003   4.931   6.753   4.558
 1368SOL    HW2 5004   4.771   6.727   4.578
 1369SOL     OW 5005   1.673   6.548   3.340
 1369SOL    HW1 5006   1.617   6.486   3.286
 1369SOL    HW2 5007   1.646   6.542   3.436
 1370SOL     OW 5008   3.315   0.875   1.889
 1370SOL    HW1 5009   3.267   0.962   1.902
 1370SOL    HW2 5010   3.399   0.891   1.837
 1371SOL     OW 5011   4.743   1.482   4.591
 1371SOL    HW1 5012   4.689   1.565   4.606
 1371SOL    HW2 5013   4.829   1.489   4.642
 1372SOL     OW 5014   1.757   3.115   0.711
 1372SOL    HW1 5015   1.671   3.068   0.729
 1372SOL    HW2 5016   1.790   3.156   0.796
 1373SOL     OW 5017   6.528   4.360   0.423
 1373SOL    HW1 5018   6.554   4.433   0.485
 1373SOL    HW2 5019   6.544   4.388   0.328
 1374SOL     OW 5020   4.363   2.293   0.776
 1374SOL    HW1 5021   4.352   2.245   0.689
 1374SOL    HW2 5022   4.304   2.374   0.777
 1375SOL     OW 5023   0.007   5.178   5.952
 1375SOL    HW1 5024   7.009   5.125   6.034
 1375SOL    HW2 5025   0.008   5.119   5.872
 1376SOL     OW 5026   4.877   2.972   3.489
 1376SOL    HW1 5027   4.894   2.994   3.393
 1376SOL    HW2 5028   4.834   3.050   3.534
 1377SOL     OW 5029   6.796   4.051   5.672
 1377SOL    HW1 5030   6.790   4.080   5.576
 1377SOL    HW2 5031   6.883   4.082   5.711
 1378SOL     OW 5032   6.745   2.094   4.824
 1378SOL    HW1 5033   6.775   2.094   4.728
 1378SOL    HW2 5034   6.690   2.176   4.841
 1379SOL     OW 5035   3.423   6.575   2.705
 1379SOL    HW1 5036   3.325   6.587   2.719
 1379SOL    HW2 5037   3.463   6.531   2.786
 1380SOL     OW 5038   6.881   6.782   2.465
 1380SOL    HW1 5039   6.836   6.806   2.380
 1380SOL    HW2 5040   6.896   6.683   2.468
 1381SOL     OW 5041   5.426   2.709   0.222
 1381SOL    HW1 5042   5.510   2.748   0.182
 1381SOL    HW2 5043   5.446   2.618   0.260
 1382SOL     OW 5044   6.082   5.103   6.623
 1382SOL    HW1 5045   6.118   5.167   6.555
 1382SOL    HW2 5046   6.132   5.116   6.709
 1383SOL     OW 5047   1.163   1.084   0.317
 1383SOL    HW1 5048   1.204   0.993   0.314
 1383SOL    HW2 5049   1.151   1.119   0.224
 1384SOL     OW 5050   3.249   1.482   3.465
 1384SOL    HW1 5051   3.255   1.382   3.470
 1384SOL    HW2 5052   3.257   1.512   3.370
 1385SOL     OW 5053   0.066   3.064   2.890
 1385SOL    HW1 5054   0.129   2.988   2.876
 1385SOL    HW2 5055   0.111   3.150   2.867
 1386SOL     OW 5056   2.391   2.705   4.044
 1386SOL    HW1 5057   2.409   2.706   3.945
 1386SOL    HW2 5058   2.457   2.644   4.088
 1387SOL     OW 5059   3.319   0.922   4.050
 1387SOL    HW1 5060   3.394   0.976   4.011
 1387SOL    HW2 5061   3.255   0.983   4.096
 1388SOL     OW 5062   6.598   6.515   4.120
 1388SOL    HW1 5063   6.548   6.499   4.204
 1388SOL    HW2 5064   6.684   6.562   4.141
 1389SOL     OW 5065   0.081   0.852   3.900
 1389SOL    HW1 5066   0.034   0.802   3.828
 1389SOL    HW2 5067   0.014   0.891   3.963
 1390SOL     OW 5068   3.930   1.622   0.109
 1390SOL    HW1 5069   3.888   1.534   0.130
 1390SOL    HW2 5070   3.861   1.694   0.115
 1391SOL     OW 5071   6.213   1.335   5.358
 1391SOL    HW1 5072   6.135   1.275   5.377
 1391SOL    HW2 5073   6.183   1.411   5.300
 1392SOL     OW 5074   5.030   5.708   6.077
 1392SOL    HW1 5075   5.055   5.620   6.036
 1392SOL    HW2 5076   5.044   5.781   6.011
 1393SOL     OW 5077   6.438   2.001   6.739
 1393SOL    HW1 5078   6.457   2.092   6.776
 1393SOL    HW2 5079   6.340   1.993   6.721
 1394SOL     OW 5080   3.998   6.394   3.671
 1394SOL    HW1 5081   4.087   6.349   3.660
 1394SOL    HW2 5082   3.927   6.325   3.684
 1395SOL     OW 5083   0.103   3.522   2.702
 1395SOL    HW1 5084   0.027   3.569   2.748
 1395SOL    HW2 5085   0.177   3.506   2.767
 1396SOL     OW 5086   1.639   0.787   4.320
 1396SOL    HW1 5087   1.559   0.839   4.288
 1396SOL    HW2 5088   1.710   0.790   4.250
 1397SOL     OW 5089   0.447   5.863   5.068
 1397SOL    HW1 5090   0.533   5.914   5.065
 1397SOL    HW2 5091   0.371   5.927   5.081
 1398SOL     OW 5092   1.908   1.330   0.533
 1398SOL    HW1 5093   1.982   1.391   0.504
 1398SOL    HW2 5094   1.821   1.379   0.531
 1399SOL     OW 5095   4.183   6.816   0.716
 1399SOL    HW1 5096   4.094   6.857   0.735
 1399SOL    HW2 5097   4.172   6.718   0.696
 1400SOL     OW 5098   6.703   0.516   4.558
 1400SOL    HW1 5099   6.637   0.498   4.632
 1400SOL    HW2 5100   6.702   0.439   4.494
 1401SOL     OW 5101   5.628   7.004   4.170
 1401SOL    HW1 5102   5.602   6.988   4.075
 1401SOL    HW2 5103   5.619   6.919   4.222
 1402SOL     OW 5104   5.702   3.955   0.545
 1402SOL    HW1 5105   5.747   3.866   0.560
 1402SOL    HW2 5106   5.637   3.972   0.618
 1403SOL     OW 5107   3.517   3.317   0.784
 1403SOL    HW1 5108   3.496   3.413   0.766
 1403SOL    HW2 5109   3.614   3.307   0.806
 1404SOL     OW 5110   4.951   0.277   1.460
 1404SOL    HW1 5111   4.918   0.320   1.376
 1404SOL    HW2 5112   5.049   0.292   1.469
 1405SOL     OW 5113   1.638   3.592   0.937
 1405SOL    HW1 5114   1.603   3.578   1.030
 1405SOL    HW2 5115   1.566   3.631   0.880
 1406SOL     OW 5116   2.517   3.456   1.444
 1406SOL    HW1 5117   2.573   3.376   1.423
 1406SOL    HW2 5118   2.524   3.478   1.541
 1407SOL     OW 5119   0.337   3.443   1.496
 1407SOL    HW1 5120   0.317   3.478   1.588
 1407SOL    HW2 5121   0.393   3.510   1.446
 1408SOL     OW 5122   6.133   5.646   6.712
 1408SOL    HW1 5123   6.035   5.664   6.703
 1408SOL    HW2 5124   6.168   5.693   6.793
 1409SOL     OW 5125   0.004   1.611   5.792
 1409SOL    HW1 5126   6.929   1.598   5.778
 1409SOL    HW2 5127   0.028   1.582   5.885
 1410SOL     OW 5128   2.390   3.171   6.217
 1410SOL    HW1 5129   2.367   3.078   6.191
 1410SOL    HW2 5130   2.410   3.225   6.135
 1411SOL     OW 5131   3.583   6.223   0.028
 1411SOL    HW1 5132   3.564   6.125   0.017
 1411SOL    HW2 5133   3.538   6.256   0.111
 1412SOL     OW 5134   0.667   3.239   0.671
 1412SOL    HW1 5135   0.726   3.318   0.652
 1412SOL    HW2 5136   0.655   3.186   0.587
 1413SOL     OW 5137   2.012   2.265   5.325
 1413SOL    HW1 5138   1.998   2.266   5.424
 1413SOL    HW2 5139   2.108   2.244   5.305
 1414SOL     OW 5140   1.381   3.569   1.982
 1414SOL    HW1 5141   1.344   3.661   1.975
 1414SOL    HW2 5142   1.323   3.514   2.043
 1415SOL     OW 5143   2.668   2.417   4.433
 1415SOL    HW1 5144   2.758   2.374   4.423
 1415SOL    HW2 5145   2.615   2.368   4.503
 1416SOL     OW 5146   4.210   0.203   5.244
 1416SOL    HW1 5147   4.139   0.132   5.232
 1416SOL    HW2 5148   4.298   0.167   5.213
 1417SOL     OW 5149   2.981   2.965   5.896
 1417SOL    HW1 5150   3.070   3.012   5.890
 1417SOL    HW2 5151   2.977   2.892   5.828
 1418SOL     OW 5152   3.587   3.704   0.510
 1418SOL    HW1 5153   3.603   3.619   0.559
 1418SOL    HW2 5154   3.551   3.684   0.418
 1419SOL     OW 5155   1.803   4.789   4.221
 1419SOL    HW1 5156   1.868   4.790   4.297
 1419SOL    HW2 5157   1.718   4.835   4.249
 1420SOL     OW 5158   4.036   5.070   2.476
 1420SOL    HW1 5159   4.131   5.076   2.507
 1420SOL    HW2 5160   4.006   5.159   2.441
 1421SOL     OW 5161   1.133   4.734   4.674
 1421SOL    HW1 5162   1.228   4.712   4.653
 1421SOL    HW2 5163   1.114   4.714   4.770
 1422SOL     OW 5164   2.401   4.162   5.600
 1422SOL    HW1 5165   2.447   4.154   5.511
 1422SOL    HW2 5166   2.302   4.159   5.586
 1423SOL     OW 5167   4.577   1.794   4.637
 1423SOL    HW1 5168   4.609   1.801   4.542
 1423SOL    HW2 5169   4.480   1.770   4.638
 1424SOL     OW 5170   6.350   3.139   6.488
 1424SOL    HW1 5171   6.319   3.089   6.407
 1424SOL    HW2 5172   6.386   3.074   6.555
 1425SOL     OW 5173   3.748   6.235   4.588
 1425SOL    HW1 5174   3.721   6.165   4.655
 1425SOL    HW2 5175   3.672   6.253   4.526
 1426SOL     OW 5176   2.068   2.022   6.566
 1426SOL    HW1 5177   2.148   2.002   6.622
 1426SOL    HW2 5178   2.087   2.101   6.508
 1427SOL     OW 5179   0.986   0.604   3.359
 1427SOL    HW1 5180   1.076   0.636   3.331
 1427SOL    HW2 5181   0.935   0.573   3.279
 1428SOL     OW 5182   0.338   2.670   2.452
 1428SOL    HW1 5183   0.357   2.574   2.474
 1428SOL    HW2 5184   0.374   2.691   2.361
 1429SOL     OW 5185   6.162   1.475   0.351
 1429SOL    HW1 5186   6.137   1.571   0.357
 1429SOL    HW2 5187   6.095   1.420   0.401
 1430SOL     OW 5188   2.697   4.729   4.263
 1430SOL    HW1 5189   2.651   4.662   4.205
 1430SOL    HW2 5190   2.643   4.813   4.265
 1431SOL     OW 5191   2.710   1.856   6.018
 1431SOL    HW1 5192   2.654   1.775   6.035
 1431SOL    HW2 5193   2.803   1.827   5.996
 1432SOL     OW 5194   2.721   0.963   0.912
 1432SOL    HW1 5195   2.637   0.916   0.939
 1432SOL    HW2 5196   2.728   1.049   0.961
 1433SOL     OW 5197   3.083   0.748   3.279
 1433SOL    HW1 5198   3.025   0.817   3.322
 1433SOL    HW2 5199   3.093   0.768   3.182
 1434SOL     OW 5200   0.408   2.631   6.494
 1434SOL    HW1 5201   0.443   2.551   6.446
 1434SOL    HW2 5202   0.313   2.648   6.465
 1435SOL     OW 5203   0.865   6.920   3.556
 1435SOL    HW1 5204   0.839   6.863   3.478
 1435SOL    HW2 5205   0.785   6.935   3.615
 1436SOL     OW 5206   5.768   2.847   0.497
 1436SOL    HW1 5207   5.765   2.934   0.447
 1436SOL    HW2 5208   5.680   2.801   0.489
 1437SOL     OW 5209   4.718   1.217   6.037
 1437SOL    HW1 5210   4.807   1.203   6.080
 1437SOL    HW2 5211   4.669   1.290   6.085
 1438SOL     OW 5212   2.642   0.926   1.265
 1438SOL    HW1 5213   2.733   0.935   1.305
 1438SOL    HW2 5214   2.576   0.976   1.321
 1439SOL     OW 5215   0.341   5.468   0.086
 1439SOL    HW1 5216   0.308   5.378   0.055
 1439SOL    HW2 5217   0.279   5.539   0.053
 1440SOL     OW 5218   3.224   2.970   4.279
 1440SOL    HW1 5219   3.140   2.930   4.242
 1440SOL    HW2 5220   3.262   3.034   4.213
 1441SOL     OW 5221   6.213   3.263   3.762
 1441SOL    HW1 5222   6.127   3.236   3.716
 1441SOL    HW2 5223   6.267   3.181   3.782
 1442SOL     OW 5224   5.924   4.424   0.353
 1442SOL    HW1 5225   5.860   4.356   0.319
 1442SOL    HW2 5226   6.006   4.424   0.296
 1443SOL     OW 5227   0.605   0.736   3.782
 1443SOL    HW1 5228   0.569   0.741   3.689
 1443SOL    HW2 5229   0.687   0.678   3.782
 1444SOL     OW 5230   4.456   6.687   3.008
 1444SOL    HW1 5231   4.502   6.747   3.073
 1444SOL    HW2 5232   4.408   6.742   2.940
 1445SOL     OW 5233   0.519   2.489   1.450
 1445SOL    HW1 5234   0.498   2.401   1.407
 1445SOL    HW2 5235   0.481   2.490   1.543
 1446SOL     OW 5236   3.917   1.974   0.991
 1446SOL    HW1 5237   4.013   1.959   0.970
 1446SOL    HW2 5238   3.871   1.886   1.002
 1447SOL     OW 5239   6.610   0.970   5.284
 1447SOL    HW1 5240   6.595   0.961   5.186
 1447SOL    HW2 5241   6.571   1.057   5.316
 1448SOL     OW 5242   5.896   1.688   0.596
 1448SOL    HW1 5243   5.934   1.727   0.680
 1448SOL    HW2 5244   5.966   1.685   0.525
 1449SOL     OW 5245   6.122   6.212   0.632
 1449SOL    HW1 5246   6.100   6.126   0.586
 1449SOL    HW2 5247   6.075   6.216   0.720
 1450SOL     OW 5248   6.206   3.051   2.825
 1450SOL    HW1 5249   6.227   2.953   2.822
 1450SOL    HW2 5250   6.130   3.066   2.888
 1451SOL     OW 5251   2.129   6.626   2.804
 1451SOL    HW1 5252   2.138   6.722   2.776
 1451SOL    HW2 5253   2.133   6.620   2.903
 1452SOL     OW 5254   4.949   0.372   4.982
 1452SOL    HW1 5255   4.981   0.456   5.026
 1452SOL    HW2 5256   5.027   0.324   4.942
 1453SOL     OW 5257   5.119   3.848   4.856
 1453SOL    HW1 5258   5.155   3.833   4.947
 1453SOL    HW2 5259   5.038   3.790   4.842
 1454SOL     OW 5260   5.573   2.945   1.978
 1454SOL    HW1 5261   5.490   2.916   1.930
 1454SOL    HW2 5262   5.559   2.939   2.077
 1455SOL     OW 5263   1.022   0.500   1.931
 1455SOL    HW1 5264   1.117   0.512   1.962
 1455SOL    HW2 5265   1.021   0.482   1.832
 1456SOL     OW 5266   6.805   0.188   4.929
 1456SOL    HW1 5267   6.719   0.169   4.881
 1456SOL    HW2 5268   6.877   0.208   4.863
 1457SOL     OW 5269   1.303   6.876   3.442
 1457SOL    HW1 5270   1.257   6.791   3.418
 1457SOL    HW2 5271   1.386   6.886   3.386
 1458SOL     OW 5272   5.123   0.040   5.317
 1458SOL    HW1 5273   5.058   0.047   5.241
 1458SOL    HW2 5274   5.216   0.053   5.283
 1459SOL     OW 5275   2.717   6.134   6.665
 1459SOL    HW1 5276   2.732   6.035   6.672
 1459SOL    HW2 5277   2.737   6.177   6.753
 1460SOL     OW 5278   0.666   6.480   0.328
 1460SOL    HW1 5279   0.618   6.407   0.280
 1460SOL    HW2 5280   0.601   6.532   0.383
 1461SOL     OW 5281   6.226   4.580   3.503
 1461SOL    HW1 5282   6.127   4.566   3.501
 1461SOL    HW2 5283   6.250   4.662   3.450
 1462SOL     OW 5284   6.358   1.423   0.771
 1462SOL    HW1 5285   6.434   1.463   0.823
 1462SOL    HW2 5286   6.393   1.350   0.713
 1463SOL     OW 5287   0.750   0.250   5.451
 1463SOL    HW1 5288   0.727   0.153   5.450
 1463SOL    HW2 5289   0.669   0.304   5.426
 1464SOL     OW 5290   0.139   0.002   0.165
 1464SOL    HW1 5291   0.059   0.059   0.182
 1464SOL    HW2 5292   0.213   0.030   0.226
 1465SOL     OW 5293   0.361   0.920   3.302
 1465SOL    HW1 5294   0.461   0.920   3.311
 1465SOL    HW2 5295   0.327   1.014   3.305
 1466SOL     OW 5296   6.745   5.914   2.467
 1466SOL    HW1 5297   6.726   5.960   2.380
 1466SOL    HW2 5298   6.663   5.914   2.524
 1467SOL     OW 5299   1.651   0.772   3.203
 1467SOL    HW1 5300   1.571   0.816   3.244
 1467SOL    HW2 5301   1.675   0.819   3.118
 1468SOL     OW 5302   5.443   5.440   3.582
 1468SOL    HW1 5303   5.419   5.512   3.647
 1468SOL    HW2 5304   5.508   5.377   3.625
 1469SOL     OW 5305   0.241   0.472   2.810
 1469SOL    HW1 5306   0.232   0.425   2.722
 1469SOL    HW2 5307   0.160   0.528   2.826
 1470SOL     OW 5308   1.272   1.029   2.840
 1470SOL    HW1 5309   1.257   0.930   2.847
 1470SOL    HW2 5310   1.322   1.049   2.756
 1471SOL     OW 5311   6.662   0.534   7.004
 1471SOL    HW1 5312   6.620   0.620   6.974
 1471SOL    HW2 5313   6.704   0.546   0.070
 1472SOL     OW 5314   4.716   6.771   5.057
 1472SOL    HW1 5315   4.684   6.827   5.133
 1472SOL    HW2 5316   4.658   6.786   4.977
 1473SOL     OW 5317   5.931   5.836   2.893
 1473SOL    HW1 5318   6.018   5.820   2.846
 1473SOL    HW2 5319   5.881   5.750   2.902
 1474SOL     OW 5320   6.498   5.445   3.815
 1474SOL    HW1 5321   6.451   5.418   3.899
 1474SOL    HW2 5322   6.597   5.447   3.831
 1475SOL     OW 5323   0.178   0.416   2.009
 1475SOL    HW1 5324   0.179   0.383   1.914
 1475SOL    HW2 5325   0.142   0.509   2.011
 1476SOL     OW 5326   1.489   0.715   1.882
 1476SOL    HW1 5327   1.495   0.814   1.869
 1476SOL    HW2 5328   1.480   0.671   1.792
 1477SOL     OW 5329   3.180   0.541   5.756
 1477SOL    HW1 5330   3.165   0.614   5.823
 1477SOL    HW2 5331   3.275   0.545   5.723
 1478SOL     OW 5332   6.376   4.681   0.699
 1478SOL    HW1 5333   6.358   4.661   0.795
 1478SOL    HW2 5334   6.290   4.700   0.652
 1479SOL     OW 5335   1.340   4.532   0.338
 1479SOL    HW1 5336   1.437   4.553   0.335
 1479SOL    HW2 5337   1.299   4.549   0.248
 1480SOL     OW 5338   2.181   1.023   6.425
 1480SOL    HW1 5339   2.104   0.964   6.400
 1480SOL    HW2 5340   2.221   1.062   6.342
 1481SOL     OW 5341   5.954   2.191   5.438
 1481SOL    HW1 5342   6.044   2.170   5.475
 1481SOL    HW2 5343   5.923   2.115   5.381
 1482SOL     OW 5344   5.723   1.384   1.401
 1482SOL    HW1 5345   5.741   1.381   1.499
 1482SOL    HW2 5346   5.809   1.396   1.351
 1483SOL     OW 5347   6.365   3.049   6.925
 1483SOL    HW1 5348   6.277   3.085   6.956
 1483SOL    HW2 5349   6.379   2.957   6.960
 1484SOL     OW 5350   6.579   4.390   2.855
 1484SOL    HW1 5351   6.507   4.400   2.787
 1484SOL    HW2 5352   6.632   4.474   2.861
 1485SOL     OW 5353   5.605   2.784   2.670
 1485SOL    HW1 5354   5.601   2.838   2.755
 1485SOL    HW2 5355   5.590   2.844   2.592
 1486SOL     OW 5356   4.430   2.351   3.327
 1486SOL    HW1 5357   4.343   2.368   3.281
 1486SOL    HW2 5358   4.496   2.421   3.301
 1487SOL     OW 5359   6.400   1.625   6.260
 1487SOL    HW1 5360   6.354   1.589   6.179
 1487SOL    HW2 5361   6.345   1.606   6.341
 1488SOL     OW 5362   4.770   1.640   3.017
 1488SOL    HW1 5363   4.701   1.700   3.058
 1488SOL    HW2 5364   4.737   1.606   2.929
 1489SOL     OW 5365   3.504   5.082   4.652
 1489SOL    HW1 5366   3.597   5.096   4.687
 1489SOL    HW2 5367   3.439   5.086   4.727
 1490SOL     OW 5368   1.086   1.981   0.541
 1490SOL    HW1 5369   1.039   1.893   0.542
 1490SOL    HW2 5370   1.035   2.046   0.485
 1491SOL     OW 5371   6.504   3.939   3.598
 1491SOL    HW1 5372   6.491   4.038   3.602
 1491SOL    HW2 5373   6.587   3.919   3.547
 1492SOL     OW 5374   4.867   2.074   1.998
 1492SOL    HW1 5375   4.924   2.156   1.998
 1492SOL    HW2 5376   4.844   2.049   1.904
 1493SOL     OW 5377   4.504   0.162   4.892
 1493SOL    HW1 5378   4.508   0.099   4.815
 1493SOL    HW2 5379   4.492   0.255   4.858
 1494SOL     OW 5380   3.543   2.582   5.337
 1494SOL    HW1 5381   3.633   2.598   5.378
 1494SOL    HW2 5382   3.491   2.667   5.337
 1495SOL     OW 5383   0.115   3.342   3.336
 1495SOL    HW1 5384   0.092   3.290   3.418
 1495SOL    HW2 5385   0.214   3.346   3.326
 1496SOL     OW 5386   6.895   0.566   2.006
 1496SOL    HW1 5387   6.863   0.474   2.029
 1496SOL    HW2 5388   6.982   0.584   2.054
 1497SOL     OW 5389   0.055   5.362   4.315
 1497SOL    HW1 5390   0.015   5.437   4.368
 1497SOL    HW2 5391   7.009   5.291   4.302
 1498SOL     OW 5392   2.549   4.608   6.255
 1498SOL    HW1 5393   2.487   4.530   6.264
 1498SOL    HW2 5394   2.497   4.691   6.238
 1499SOL     OW 5395   1.200   4.073   4.873
 1499SOL    HW1 5396   1.257   4.015   4.816
 1499SOL    HW2 5397   1.220   4.055   4.970
 1500SOL     OW 5398   5.723   7.007   1.088
 1500SOL    HW1 5399   5.639   6.964   1.121
 1500SOL    HW2 5400   5.700   0.069   1.041
 1501SOL     OW 5401   4.112   0.356   6.637
 1501SOL    HW1 5402   4.084   0.321   6.727
 1501SOL    HW2 5403   4.030   0.373   6.581
 1502SOL     OW 5404   6.473   6.682   6.825
 1502SOL    HW1 5405   6.437   6.730   6.905
 1502SOL    HW2 5406   6.418   6.600   6.808
 1503SOL     OW 5407   2.176   2.845   0.486
 1503SOL    HW1 5408   2.182   2.762   0.431
 1503SOL    HW2 5409   2.082   2.879   0.484
 1504SOL     OW 5410   3.000   0.038   4.996
 1504SOL    HW1 5411   2.974   6.966   5.014
 1504SOL    HW2 5412   3.099   0.047   5.002
 1505SOL     OW 5413   5.771   0.318   5.746
 1505SOL    HW1 5414   5.779   0.289   5.650
 1505SOL    HW2 5415   5.826   0.257   5.803
 1506SOL     OW 5416   1.192   4.948   3.696
 1506SOL    HW1 5417   1.105   4.989   3.669
 1506SOL    HW2 5418   1.264   5.018   3.693
 1507SOL     OW 5419   1.863   1.708   4.586
 1507SOL    HW1 5420   1.847   1.776   4.515
 1507SOL    HW2 5421   1.933   1.743   4.649
 1508SOL     OW 5422   4.867   0.244   0.922
 1508SOL    HW1 5423   4.855   0.319   0.856
 1508SOL    HW2 5424   4.924   0.173   0.881
 1509SOL     OW 5425   4.525   3.018   6.249
 1509SOL    HW1 5426   4.544   3.116   6.255
 1509SOL    HW2 5427   4.427   3.003   6.260
 1510SOL     OW 5428   6.621   2.570   4.979
 1510SOL    HW1 5429   6.568   2.654   4.968
 1510SOL    HW2 5430   6.719   2.593   4.982
 1511SOL     OW 5431   2.443   1.603   6.489
 1511SOL    HW1 5432   2.424   1.507   6.511
 1511SOL    HW2 5433   2.367   1.640   6.435
 1512SOL     OW 5434   0.036   0.229   2.164
 1512SOL    HW1 5435   0.112   0.180   2.206
 1512SOL    HW2 5436   0.067   0.317   2.129
 1513SOL     OW 5437   3.714   0.108   3.787
 1513SOL    HW1 5438   3.627   0.068   3.758
 1513SOL    HW2 5439   3.761   0.147   3.707
 1514SOL     OW 5440   5.045   1.318   5.030
 1514SOL    HW1 5441   5.137   1.324   4.992
 1514SOL    HW2 5442   4.983   1.376   4.976
 1515SOL     OW 5443   6.967   4.195   5.364
 1515SOL    HW1 5444   6.995   4.290   5.373
 1515SOL    HW2 5445   6.957   4.172   5.267
 1516SOL     OW 5446   0.797   0.792   1.198
 1516SOL    HW1 5447   0.826   0.846   1.277
 1516SOL    HW2 5448   0.720   0.838   1.153
 1517SOL     OW 5449   4.566   5.392   3.629
 1517SOL    HW1 5450   4.584   5.452   3.551
 1517SOL    HW2 5451   4.474   5.354   3.621
 1518SOL     OW 5452   6.888   4.412   6.891
 1518SOL    HW1 5453   6.800   4.368   6.875
 1518SOL    HW2 5454   6.961   4.344   6.890
 1519SOL     OW 5455   6.794   4.218   1.241
 1519SOL    HW1 5456   6.785   4.174   1.330
 1519SOL    HW2 5457   6.704   4.223   1.197
 1520SOL     OW 5458   2.096   3.738   2.129
 1520SOL    HW1 5459   2.152   3.660   2.103
 1520SOL    HW2 5460   2.000   3.719   2.107
 1521SOL     OW 5461   1.654   3.568   0.313
 1521SOL    HW1 5462   1.743   3.598   0.349
 1521SOL    HW2 5463   1.625   3.486   0.361
 1522SOL     OW 5464   6.669   1.716   6.498
 1522SOL    HW1 5465   6.658   1.713   6.398
 1522SOL    HW2 5466   6.669   1.811   6.529
 1523SOL     OW 5467   5.383   3.542   6.635
 1523SOL    HW1 5468   5.371   3.452   6.678
 1523SOL    HW2 5469   5.471   3.544   6.587
 1524SOL     OW 5470   0.967   1.649   1.623
 1524SOL    HW1 5471   0.873   1.620   1.606
 1524SOL    HW2 5472   1.022   1.569   1.646
 1525SOL     OW 5473   4.395   1.588   5.685
 1525SOL    HW1 5474   4.487   1.563   5.655
 1525SOL    HW2 5475   4.341   1.505   5.701
 1526SOL     OW 5476   0.382   1.411   1.160
 1526SOL    HW1 5477   0.284   1.423   1.177
 1526SOL    HW2 5478   0.430   1.497   1.176
 1527SOL     OW 5479   3.399   1.690   5.098
 1527SOL    HW1 5480   3.443   1.758   5.156
 1527SOL    HW2 5481   3.467   1.621   5.071
 1528SOL     OW 5482   4.854   6.128   2.679
 1528SOL    HW1 5483   4.860   6.035   2.642
 1528SOL    HW2 5484   4.826   6.124   2.775
 1529SOL     OW 5485   4.955   1.149   6.158
 1529SOL    HW1 5486   4.968   1.050   6.151
 1529SOL    HW2 5487   5.014   1.185   6.229
 1530SOL     OW 5488   3.437   6.371   1.643
 1530SOL    HW1 5489   3.410   6.324   1.559
 1530SOL    HW2 5490   3.430   6.470   1.629
 1531SOL     OW 5491   5.809   0.903   5.106
 1531SOL    HW1 5492   5.818   0.832   5.176
 1531SOL    HW2 5493   5.746   0.872   5.035
 1532SOL     OW 5494   3.457   2.127   5.043
 1532SOL    HW1 5495   3.391   2.126   4.969
 1532SOL    HW2 5496   3.472   2.221   5.074
 1533SOL     OW 5497   6.684   2.889   6.258
 1533SOL    HW1 5498   6.608   2.952   6.275
 1533SOL    HW2 5499   6.684   2.817   6.327
 1534SOL     OW 5500   2.019   5.479   0.419
 1534SOL    HW1 5501   1.934   5.435   0.450
 1534SOL    HW2 5502   2.030   5.567   0.465
 1535SOL     OW 5503   5.112   4.934   4.460
 1535SOL    HW1 5504   5.201   4.955   4.421
 1535SOL    HW2 5505   5.118   4.930   4.559
 1536SOL     OW 5506   2.422   5.165   4.455
 1536SOL    HW1 5507   2.341   5.136   4.506
 1536SOL    HW2 5508   2.440   5.262   4.472
 1537SOL     OW 5509   3.289   5.324   3.540
 1537SOL    HW1 5510   3.280   5.411   3.490
 1537SOL    HW2 5511   3.219   5.320   3.611
 1538SOL     OW 5512   3.153   4.350   6.546
 1538SOL    HW1 5513   3.119   4.417   6.480
 1538SOL    HW2 5514   3.233   4.303   6.508
 1539SOL     OW 5515   3.442   4.132   1.805
 1539SOL    HW1 5516   3.409   4.221   1.775
 1539SOL    HW2 5517   3.501   4.143   1.885
 1540SOL     OW 5518   0.864   0.577   4.672
 1540SOL    HW1 5519   0.826   0.578   4.579
 1540SOL    HW2 5520   0.964   0.566   4.666
 1541SOL     OW 5521   3.615   3.066   1.162
 1541SOL    HW1 5522   3.605   2.972   1.130
 1541SOL    HW2 5523   3.626   3.066   1.262
 1542SOL     OW 5524   0.390   5.846   1.686
 1542SOL    HW1 5525   0.476   5.877   1.727
 1542SOL    HW2 5526   0.356   5.767   1.736
 1543SOL     OW 5527   3.608   3.639   3.583
 1543SOL    HW1 5528   3.667   3.718   3.594
 1543SOL    HW2 5529   3.664   3.556   3.581
 1544SOL     OW 5530   3.057   3.973   2.115
 1544SOL    HW1 5531   3.141   4.016   2.147
 1544SOL    HW2 5532   3.042   3.998   2.019
 1545SOL     OW 5533   5.730   0.704   5.317
 1545SOL    HW1 5534   5.743   0.728   5.413
 1545SOL    HW2 5535   5.649   0.751   5.281
 1546SOL     OW 5536   6.308   0.623   6.361
 1546SOL    HW1 5537   6.327   0.688   6.287
 1546SOL    HW2 5538   6.304   0.673   6.448
 1547SOL     OW 5539   2.671   4.683   2.774
 1547SOL    HW1 5540   2.748   4.640   2.727
 1547SOL    HW2 5541   2.653   4.773   2.735
 1548SOL     OW 5542   3.957   4.291   5.853
 1548SOL    HW1 5543   3.894   4.365   5.830
 1548SOL    HW2 5544   3.905   4.213   5.889
 1549SOL     OW 5545   6.308   1.586   1.901
 1549SOL    HW1 5546   6.305   1.577   2.001
 1549SOL    HW2 5547   6.393   1.545   1.867
 1550SOL     OW 5548   2.745   6.974   5.569
 1550SOL    HW1 5549   2.697   6.907   5.625
 1550SOL    HW2 5550   2.807   6.927   5.506
 1551SOL     OW 5551   1.928   3.095   1.094
 1551SOL    HW1 5552   2.005   3.072   1.035
 1551SOL    HW2 5553   1.879   3.174   1.056
 1552SOL     OW 5554   1.351   0.013   1.040
 1552SOL    HW1 5555   1.287   0.050   0.972
 1552SOL    HW2 5556   1.323   6.944   1.065
 1553SOL     OW 5557   5.900   1.487   6.894
 1553SOL    HW1 5558   5.911   1.502   6.992
 1553SOL    HW2 5559   5.943   1.562   6.843
 1554SOL     OW 5560   4.147   2.128   2.856
 1554SOL    HW1 5561   4.111   2.046   2.811
 1554SOL    HW2 5562   4.192   2.187   2.788
 1555SOL     OW 5563   4.765   1.693   5.409
 1555SOL    HW1 5564   4.717   1.649   5.484
 1555SOL    HW2 5565   4.700   1.748   5.356
 1556SOL     OW 5566   3.537   0.167   0.898
 1556SOL    HW1 5567   3.508   0.141   0.990
 1556SOL    HW2 5568   3.518   0.264   0.883
 1557SOL     OW 5569   2.250   2.572   0.781
 1557SOL    HW1 5570   2.165   2.560   0.729
 1557SOL    HW2 5571   2.233   2.635   0.857
 1558SOL     OW 5572   6.585   2.284   5.120
 1558SOL    HW1 5573   6.606   2.330   5.033
 1558SOL    HW2 5574   6.535   2.347   5.179
 1559SOL     OW 5575   0.553   3.937   2.267
 1559SOL    HW1 5576   0.505   3.902   2.187
 1559SOL    HW2 5577   0.650   3.913   2.262
 1560SOL     OW 5578   3.503   1.640   0.199
 1560SOL    HW1 5579   3.546   1.715   0.147
 1560SOL    HW2 5580   3.563   1.615   0.275
 1561SOL     OW 5581   5.660   6.279   2.074
 1561SOL    HW1 5582   5.687   6.325   1.990
 1561SOL    HW2 5583   5.684   6.336   2.153
 1562SOL     OW 5584   2.688   6.557   2.402
 1562SOL    HW1 5585   2.760   6.488   2.413
 1562SOL    HW2 5586   2.689   6.591   2.308
 1563SOL     OW 5587   2.956   2.206   4.801
 1563SOL    HW1 5588   2.989   2.291   4.843
 1563SOL    HW2 5589   2.931   2.142   4.874
 1564SOL     OW 5590   1.280   1.562   2.417
 1564SOL    HW1 5591   1.252   1.492   2.482
 1564SOL    HW2 5592   1.369   1.598   2.443
 1565SOL     OW 5593   4.039   5.568   4.251
 1565SOL    HW1 5594   3.986   5.547   4.169
 1565SOL    HW2 5595   4.083   5.656   4.241
 1566SOL     OW 5596   5.511   4.798   3.651
 1566SOL    HW1 5597   5.578   4.871   3.658
 1566SOL    HW2 5598   5.478   4.774   3.742
 1567SOL     OW 5599   5.932   5.247   6.364
 1567SOL    HW1 5600   5.930   5.172   6.298
 1567SOL    HW2 5601   5.847   5.246   6.418
 1568SOL     OW 5602   2.131   6.176   4.048
 1568SOL    HW1 5603   2.204   6.222   4.099
 1568SOL    HW2 5604   2.060   6.147   4.111
 1569SOL     OW 5605   3.211   0.500   2.890
 1569SOL    HW1 5606   3.219   0.404   2.860
 1569SOL    HW2 5607   3.115   0.524   2.898
 1570SOL     OW 5608   2.915   6.811   6.568
 1570SOL    HW1 5609   2.858   6.757   6.506
 1570SOL    HW2 5610   2.934   6.759   6.651
 1571SOL     OW 5611   1.168   2.280   3.183
 1571SOL    HW1 5612   1.088   2.318   3.137
 1571SOL    HW2 5613   1.139   2.240   3.270
 1572SOL     OW 5614   1.610   5.374   1.484
 1572SOL    HW1 5615   1.525   5.382   1.536
 1572SOL    HW2 5616   1.687   5.372   1.547
 1573SOL     OW 5617   5.493   5.617   1.699
 1573SOL    HW1 5618   5.479   5.539   1.760
 1573SOL    HW2 5619   5.452   5.597   1.610
 1574SOL     OW 5620   6.128   3.326   2.031
 1574SOL    HW1 5621   6.192   3.250   2.019
 1574SOL    HW2 5622   6.073   3.310   2.113
 1575SOL     OW 5623   1.411   0.597   1.630
 1575SOL    HW1 5624   1.340   0.562   1.569
 1575SOL    HW2 5625   1.434   0.691   1.604
 1576SOL     OW 5626   0.649   6.015   2.514
 1576SOL    HW1 5627   0.555   6.047   2.508
 1576SOL    HW2 5628   0.653   5.932   2.569
 1577SOL     OW 5629   3.130   0.591   6.682
 1577SOL    HW1 5630   3.096   0.625   6.594
 1577SOL    HW2 5631   3.076   0.511   6.709
 1578SOL     OW 5632   4.339   1.080   0.403
 1578SOL    HW1 5633   4.336   1.113   0.309
 1578SOL    HW2 5634   4.277   1.002   0.413
 1579SOL     OW 5635   0.899   2.993   1.705
 1579SOL    HW1 5636   0.889   2.901   1.667
 1579SOL    HW2 5637   0.824   3.011   1.768
 1580SOL     OW 5638   3.127   3.751   3.487
 1580SOL    HW1 5639   3.076   3.713   3.409
 1580SOL    HW2 5640   3.223   3.725   3.480
 1581SOL     OW 5641   0.017   5.273   5.238
 1581SOL    HW1 5642   0.054   5.241   5.326
 1581SOL    HW2 5643   0.085   5.330   5.192
 1582SOL     OW 5644   4.284   5.863   5.034
 1582SOL    HW1 5645   4.251   5.786   4.980
 1582SOL    HW2 5646   4.352   5.913   4.981
 1583SOL     OW 5647   0.926   6.529   4.903
 1583SOL    HW1 5648   1.018   6.547   4.867
 1583SOL    HW2 5649   0.933   6.500   4.998
 1584SOL     OW 5650   1.396   5.102   6.549
 1584SOL    HW1 5651   1.488   5.119   6.515
 1584SOL    HW2 5652   1.335   5.082   6.472
 1585SOL     OW 5653   3.687   1.649   3.475
 1585SOL    HW1 5654   3.605   1.702   3.496
 1585SOL    HW2 5655   3.672   1.594   3.393
 1586SOL     OW 5656   3.323   4.944   3.297
 1586SOL    HW1 5657   3.345   4.977   3.205
 1586SOL    HW2 5658   3.320   5.022   3.359
 1587SOL     OW 5659   2.136   5.860   5.691
 1587SOL    HW1 5660   2.226   5.885   5.655
 1587SOL    HW2 5661   2.112   5.768   5.658
 1588SOL     OW 5662   4.518   6.928   2.536
 1588SOL    HW1 5663   4.523   6.828   2.534
 1588SOL    HW2 5664   4.493   6.962   2.446
 1589SOL     OW 5665   6.283   3.750   2.921
 1589SOL    HW1 5666   6.206   3.746   2.857
 1589SOL    HW2 5667   6.250   3.730   3.013
 1590SOL     OW 5668   5.071   1.949   3.456
 1590SOL    HW1 5669   5.082   2.016   3.382
 1590SOL    HW2 5670   5.043   1.996   3.540
 1591SOL     OW 5671   6.761   5.306   1.644
 1591SOL    HW1 5672   6.718   5.277   1.558
 1591SOL    HW2 5673   6.695   5.359   1.698
 1592SOL     OW 5674   1.329   4.850   6.685
 1592SOL    HW1 5675   1.413   4.822   6.731
 1592SOL    HW2 5676   1.351   4.912   6.610
 1593SOL     OW 5677   1.218   0.028   6.274
 1593SOL    HW1 5678   1.166   6.978   6.318
 1593SOL    HW2 5679   1.311   7.019   6.254
 1594SOL     OW 5680   6.810   6.784   1.817
 1594SOL    HW1 5681   6.728   6.752   1.770
 1594SOL    HW2 5682   6.854   6.706   1.863
 1595SOL     OW 5683   1.526   4.110   6.837
 1595SOL    HW1 5684   1.446   4.066   6.877
 1595SOL    HW2 5685   1.606   4.091   6.894
 1596SOL     OW 5686   5.869   3.455   3.042
 1596SOL    HW1 5687   5.779   3.473   3.002
 1596SOL    HW2 5688   5.883   3.357   3.050
 1597SOL     OW 5689   3.070   5.806   0.897
 1597SOL    HW1 5690   3.059   5.863   0.815
 1597SOL    HW2 5691   3.148   5.746   0.887
 1598SOL     OW 5692   1.411   5.662   6.886
 1598SOL    HW1 5693   1.406   5.651   6.787
 1598SOL    HW2 5694   1.331   5.712   6.919
 1599SOL     OW 5695   3.968   5.065   4.643
 1599SOL    HW1 5696   3.883   5.106   4.677
 1599SOL    HW2 5697   4.042   5.132   4.649
 1600SOL     OW 5698   2.876   0.261   2.120
 1600SOL    HW1 5699   2.868   0.358   2.095
 1600SOL    HW2 5700   2.955   0.221   2.073
 1601SOL     OW 5701   6.875   6.244   4.171
 1601SOL    HW1 5702   6.839   6.226   4.079
 1601SOL    HW2 5703   6.970   6.274   4.163
 1602SOL     OW 5704   4.702   5.368   3.848
 1602SOL    HW1 5705   4.653   5.340   3.931
 1602SOL    HW2 5706   4.638   5.380   3.773
 1603SOL     OW 5707   2.919   5.401   4.232
 1603SOL    HW1 5708   2.889   5.456   4.311
 1603SOL    HW2 5709   3.003   5.352   4.257
 1604SOL     OW 5710   4.224   4.938   1.746
 1604SOL    HW1 5711   4.225   5.028   1.788
 1604SOL    HW2 5712   4.296   4.932   1.677
 1605SOL     OW 5713   5.987   5.440   1.389
 1605SOL    HW1 5714   5.928   5.439   1.470
 1605SOL    HW2 5715   6.082   5.455   1.417
 1606SOL     OW 5716   3.936   5.180   5.105
 1606SOL    HW1 5717   3.900   5.202   5.195
 1606SOL    HW2 5718   3.961   5.265   5.057
 1607SOL     OW 5719   4.149   0.106   1.932
 1607SOL    HW1 5720   4.151   0.033   1.862
 1607SOL    HW2 5721   4.141   0.064   2.022
 1608SOL     OW 5722   6.734   0.434   3.299
 1608SOL    HW1 5723   6.773   0.509   3.244
 1608SOL    HW2 5724   6.786   0.425   3.384
 1609SOL     OW 5725   3.037   6.592   0.923
 1609SOL    HW1 5726   3.102   6.623   0.992
 1609SOL    HW2 5727   2.994   6.508   0.954
 1610SOL     OW 5728   4.949   6.362   0.375
 1610SOL    HW1 5729   4.951   6.263   0.373
 1610SOL    HW2 5730   4.954   6.394   0.470
 1611SOL     OW 5731   1.619   3.877   1.141
 1611SOL    HW1 5732   1.591   3.893   1.236
 1611SOL    HW2 5733   1.539   3.848   1.088
 1612SOL     OW 5734   2.921   6.334   1.456
 1612SOL    HW1 5735   2.845   6.281   1.419
 1612SOL    HW2 5736   3.001   6.324   1.396
 1613SOL     OW 5737   0.632   5.924   2.218
 1613SOL    HW1 5738   0.728   5.947   2.235
 1613SOL    HW2 5739   0.573   5.989   2.267
 1614SOL     OW 5740   5.494   2.023   6.292
 1614SOL    HW1 5741   5.517   2.061   6.382
 1614SOL    HW2 5742   5.576   1.982   6.252
 1615SOL     OW 5743   0.290   4.990   6.257
 1615SOL    HW1 5744   0.266   4.944   6.171
 1615SOL    HW2 5745   0.294   5.089   6.241
 1616SOL     OW 5746   3.740   0.517   4.874
 1616SOL    HW1 5747   3.693   0.527   4.786
 1616SOL    HW2 5748   3.811   0.447   4.867
 1617SOL     OW 5749   4.814   0.269   3.168
 1617SOL    HW1 5750   4.912   0.270   3.186
 1617SOL    HW2 5751   4.796   0.223   3.081
 1618SOL     OW 5752   1.518   5.773   2.518
 1618SOL    HW1 5753   1.564   5.692   2.482
 1618SOL    HW2 5754   1.472   5.822   2.443
 1619SOL     OW 5755   1.065   5.036   6.745
 1619SOL    HW1 5756   1.033   5.125   6.713
 1619SOL    HW2 5757   1.120   4.993   6.673
 1620SOL     OW 5758   2.798   5.410   1.261
 1620SOL    HW1 5759   2.714   5.380   1.214
 1620SOL    HW2 5760   2.774   5.448   1.350
 1621SOL     OW 5761   6.312   0.146   1.238
 1621SOL    HW1 5762   6.307   0.173   1.334
 1621SOL    HW2 5763   6.396   0.093   1.223
 1622SOL     OW 5764   0.300   4.033   6.000
 1622SOL    HW1 5765   0.391   4.052   5.964
 1622SOL    HW2 5766   0.253   4.120   6.019
 1623SOL     OW 5767   0.325   2.415   4.668
 1623SOL    HW1 5768   0.401   2.358   4.640
 1623SOL    HW2 5769   0.333   2.506   4.627
 1624SOL     OW 5770   4.231   1.393   0.188
 1624SOL    HW1 5771   4.253   1.491   0.186
 1624SOL    HW2 5772   4.201   1.367   0.280
 1625SOL     OW 5773   1.399   5.069   6.870
 1625SOL    HW1 5774   1.353   4.990   6.911
 1625SOL    HW2 5775   1.365   5.084   6.778
 1626SOL     OW 5776   2.894   1.338   2.223
 1626SOL    HW1 5777   2.817   1.400   2.238
 1626SOL    HW2 5778   2.913   1.288   2.308
 1627SOL     OW 5779   5.640   3.057   4.183
 1627SOL    HW1 5780   5.603   3.114   4.110
 1627SOL    HW2 5781   5.580   2.979   4.197
 1628SOL     OW 5782   5.134   6.267   6.597
 1628SOL    HW1 5783   5.221   6.217   6.601
 1628SOL    HW2 5784   5.059   6.201   6.590
 1629SOL     OW 5785   2.544   1.794   3.201
 1629SOL    HW1 5786   2.511   1.712   3.248
 1629SOL    HW2 5787   2.530   1.874   3.259
 1630SOL     OW 5788   6.726   4.352   6.031
 1630SOL    HW1 5789   6.675   4.436   6.055
 1630SOL    HW2 5790   6.688   4.314   5.947
 1631SOL     OW 5791   6.392   3.235   0.952
 1631SOL    HW1 5792   6.426   3.322   0.986
 1631SOL    HW2 5793   6.437   3.212   0.866
 1632SOL     OW 5794   5.015   4.301   2.808
 1632SOL    HW1 5795   5.066   4.374   2.853
 1632SOL    HW2 5796   5.046   4.291   2.714
 1633SOL     OW 5797   4.852   3.908   4.267
 1633SOL    HW1 5798   4.869   3.940   4.360
 1633SOL    HW2 5799   4.766   3.856   4.265
 1634SOL     OW 5800   3.943   0.422   4.387
 1634SOL    HW1 5801   4.028   0.370   4.388
 1634SOL    HW2 5802   3.953   0.500   4.325
 1635SOL     OW 5803   2.475   5.308   6.270
 1635SOL    HW1 5804   2.393   5.274   6.314
 1635SOL    HW2 5805   2.490   5.259   6.184
 1636SOL     OW 5806   3.719   5.589   0.652
 1636SOL    HW1 5807   3.771   5.668   0.682
 1636SOL    HW2 5808   3.701   5.528   0.729
 1637SOL     OW 5809   6.718   6.339   3.904
 1637SOL    HW1 5810   6.762   6.388   3.829
 1637SOL    HW2 5811   6.648   6.397   3.946
 1638SOL     OW 5812   0.493   3.054   1.756
 1638SOL    HW1 5813   0.453   2.967   1.727
 1638SOL    HW2 5814   0.534   3.100   1.676
 1639SOL     OW 5815   6.754   3.928   2.067
 1639SOL    HW1 5816   6.702   3.843   2.056
 1639SOL    HW2 5817   6.736   3.987   1.988
 1640SOL     OW 5818   6.821   0.323   0.508
 1640SOL    HW1 5819   6.768   0.393   0.554
 1640SOL    HW2 5820   6.807   0.234   0.553
 1641SOL     OW 5821   0.146   2.328   3.393
 1641SOL    HW1 5822   0.090   2.284   3.463
 1641SOL    HW2 5823   0.090   2.350   3.313
 1642SOL     OW 5824   6.734   2.359   6.365
 1642SOL    HW1 5825   6.759   2.267   6.397
 1642SOL    HW2 5826   6.770   2.374   6.273
 1643SOL     OW 5827   3.477   4.868   2.937
 1643SOL    HW1 5828   3.378   4.878   2.942
 1643SOL    HW2 5829   3.505   4.790   2.992
 1644SOL     OW 5830   5.816   3.086   6.995
 1644SOL    HW1 5831   5.739   3.047   0.022
 1644SOL    HW2 5832   5.833   3.179   0.004
 1645SOL     OW 5833   2.641   6.724   6.086
 1645SOL    HW1 5834   2.549   6.685   6.077
 1645SOL    HW2 5835   2.641   6.815   6.045
 1646SOL     OW 5836   1.881   6.276   0.239
 1646SOL    HW1 5837   1.821   6.197   0.228
 1646SOL    HW2 5838   1.973   6.253   0.207
 1647SOL     OW 5839   5.499   2.819   3.965
 1647SOL    HW1 5840   5.418   2.787   3.915
 1647SOL    HW2 5841   5.533   2.903   3.923
 1648SOL     OW 5842   5.589   6.603   0.174
 1648SOL    HW1 5843   5.598   6.676   0.106
 1648SOL    HW2 5844   5.492   6.583   0.190
 1649SOL     OW 5845   3.582   1.023   3.307
 1649SOL    HW1 5846   3.527   0.962   3.249
 1649SOL    HW2 5847   3.613   0.973   3.388
 1650SOL     OW 5848   1.394   5.616   6.345
 1650SOL    HW1 5849   1.373   5.533   6.294
 1650SOL    HW2 5850   1.405   5.594   6.442
 1651SOL     OW 5851   0.267   2.519   2.788
 1651SOL    HW1 5852   0.234   2.477   2.872
 1651SOL    HW2 5853   0.253   2.456   2.711
 1652SOL     OW 5854   0.832   3.411   1.842
 1652SOL    HW1 5855   0.841   3.371   1.933
 1652SOL    HW2 5856   0.740   3.449   1.831
 1653SOL     OW 5857   0.106   5.671   2.141
 1653SOL    HW1 5858   0.081   5.579   2.111
 1653SOL    HW2 5859   0.155   5.718   2.067
 1654SOL     OW 5860   0.317   3.040   1.240
 1654SOL    HW1 5861   0.222   3.069   1.246
 1654SOL    HW2 5862   0.371   3.110   1.194
 1655SOL     OW 5863   6.854   1.101   4.532
 1655SOL    HW1 5864   6.910   1.026   4.497
 1655SOL    HW2 5865   6.913   1.174   4.567
 1656SOL     OW 5866   2.910   5.491   3.975
 1656SOL    HW1 5867   2.893   5.413   3.915
 1656SOL    HW2 5868   2.906   5.461   4.071
 1657SOL     OW 5869   6.300   1.030   5.154
 1657SOL    HW1 5870   6.371   0.976   5.110
 1657SOL    HW2 5871   6.328   1.126   5.156
 1658SOL     OW 5872   0.097   0.334   0.555
 1658SOL    HW1 5873   0.136   0.328   0.463
 1658SOL    HW2 5874   7.021   0.324   0.550
 1659SOL     OW 5875   3.843   0.258   6.885
 1659SOL    HW1 5876   3.824   0.187   6.953
 1659SOL    HW2 5877   3.939   0.285   6.891
 1660SOL     OW 5878   1.474   0.222   2.326
 1660SOL    HW1 5879   1.423   0.253   2.246
 1660SOL    HW2 5880   1.412   0.178   2.391
 1661SOL     OW 5881   2.914   5.504   2.183
 1661SOL    HW1 5882   2.916   5.448   2.266
 1661SOL    HW2 5883   3.000   5.554   2.175
 1662SOL     OW 5884   6.717   0.776   5.533
 1662SOL    HW1 5885   6.628   0.801   5.496
 1662SOL    HW2 5886   6.770   0.858   5.554
 1663SOL     OW 5887   5.243   5.583   2.343
 1663SOL    HW1 5888   5.270   5.488   2.358
 1663SOL    HW2 5889   5.311   5.644   2.385
 1664SOL     OW 5890   1.763   0.529   5.601
 1664SOL    HW1 5891   1.852   0.509   5.642
 1664SOL    HW2 5892   1.767   0.514   5.503
 1665SOL     OW 5893   0.074   3.594   1.870
 1665SOL    HW1 5894   7.005   3.590   1.834
 1665SOL    HW2 5895   0.086   3.679   1.921
 1666SOL     OW 5896   5.741   6.879   6.948
 1666SOL    HW1 5897   5.658   6.888   7.003
 1666SOL    HW2 5898   5.805   6.818   6.995
 1667SOL     OW 5899   6.520   6.675   1.439
 1667SOL    HW1 5900   6.580   6.676   1.519
 1667SOL    HW2 5901   6.574   6.657   1.357
 1668SOL     OW 5902   5.016   5.032   3.331
 1668SOL    HW1 5903   5.088   4.970   3.299
 1668SOL    HW2 5904   5.057   5.116   3.366
 1669SOL     OW 5905   6.789   4.430   5.515
 1669SOL    HW1 5906   6.730   4.378   5.454
 1669SOL    HW2 5907   6.883   4.425   5.483
 1670SOL     OW 5908   0.984   4.560   5.606
 1670SOL    HW1 5909   0.999   4.500   5.684
 1670SOL    HW2 5910   0.941   4.645   5.636
 1671SOL     OW 5911   5.408   1.654   3.184
 1671SOL    HW1 5912   5.462   1.580   3.143
 1671SOL    HW2 5913   5.467   1.733   3.198
 1672SOL     OW 5914   1.223   3.953   6.335
 1672SOL    HW1 5915   1.322   3.965   6.328
 1672SOL    HW2 5916   1.203   3.873   6.393
 1673SOL     OW 5917   2.055   1.715   4.793
 1673SOL    HW1 5918   2.060   1.615   4.796
 1673SOL    HW2 5919   2.111   1.749   4.719
 1674SOL     OW 5920   6.032   2.874   2.399
 1674SOL    HW1 5921   6.011   2.812   2.474
 1674SOL    HW2 5922   6.064   2.822   2.320
 1675SOL     OW 5923   4.907   0.326   1.197
 1675SOL    HW1 5924   4.875   0.278   1.116
 1675SOL    HW2 5925   4.940   0.417   1.171
 1676SOL     OW 5926   2.130   2.159   2.202
 1676SOL    HW1 5927   2.061   2.169   2.130
 1676SOL    HW2 5928   2.221   2.160   2.161
 1677SOL     OW 5929   3.896   4.019   3.288
 1677SOL    HW1 5930   3.825   4.047   3.223
 1677SOL    HW2 5931   3.986   4.028   3.246
 1678SOL     OW 5932   0.577   5.924   1.381
 1678SOL    HW1 5933   0.478   5.933   1.391
 1678SOL    HW2 5934   0.623   5.987   1.444
 1679SOL     OW 5935   1.568   1.225   5.202
 1679SOL    HW1 5936   1.555   1.136   5.245
 1679SOL    HW2 5937   1.651   1.224   5.145
 1680SOL     OW 5938   5.426   3.288   5.333
 1680SOL    HW1 5939   5.399   3.294   5.237
 1680SOL    HW2 5940   5.424   3.193   5.362
 1681SOL     OW 5941   1.925   5.534   4.960
 1681SOL    HW1 5942   1.959   5.576   4.876
 1681SOL    HW2 5943   1.885   5.605   5.018
 1682SOL     OW 5944   2.192   0.767   6.020
 1682SOL    HW1 5945   2.181   0.675   5.982
 1682SOL    HW2 5946   2.106   0.796   6.062
 1683SOL     OW 5947   5.602   6.429   2.865
 1683SOL    HW1 5948   5.645   6.514   2.836
 1683SOL    HW2 5949   5.671   6.370   2.908
 1684SOL     OW 5950   0.960   4.707   1.849
 1684SOL    HW1 5951   0.906   4.784   1.881
 1684SOL    HW2 5952   0.941   4.627   1.907
 1685SOL     OW 5953   1.617   2.075   5.504
 1685SOL    HW1 5954   1.540   2.011   5.499
 1685SOL    HW2 5955   1.692   2.033   5.555
 1686SOL     OW 5956   3.635   5.960   3.766
 1686SOL    HW1 5957   3.678   6.002   3.845
 1686SOL    HW2 5958   3.550   5.916   3.793
 1687SOL     OW 5959   0.497   3.970   1.871
 1687SOL    HW1 5960   0.438   3.917   1.931
 1687SOL    HW2 5961   0.591   3.934   1.875
 1688SOL     OW 5962   1.836   2.403   3.382
 1688SOL    HW1 5963   1.741   2.422   3.357
 1688SOL    HW2 5964   1.885   2.365   3.304
 1689SOL     OW 5965   6.516   1.100   2.774
 1689SOL    HW1 5966   6.594   1.107   2.835
 1689SOL    HW2 5967   6.431   1.106   2.828
 1690SOL     OW 5968   0.993   3.060   4.310
 1690SOL    HW1 5969   0.909   3.111   4.288
 1690SOL    HW2 5970   1.059   3.123   4.351
 1691SOL     OW 5971   5.380   3.445   4.579
 1691SOL    HW1 5972   5.422   3.536   4.583
 1691SOL    HW2 5973   5.285   3.450   4.609
 1692SOL     OW 5974   5.368   5.255   0.985
 1692SOL    HW1 5975   5.321   5.183   0.933
 1692SOL    HW2 5976   5.457   5.221   1.015
 1693SOL     OW 5977   0.244   1.503   4.780
 1693SOL    HW1 5978   0.193   1.533   4.860
 1693SOL    HW2 5979   0.190   1.519   4.698
 1694SOL     OW 5980   5.959   0.715   4.413
 1694SOL    HW1 5981   5.927   0.625   4.442
 1694SOL    HW2 5982   5.907   0.786   4.461
 1695SOL     OW 5983   3.441   0.712   7.019
 1695SOL    HW1 5984   3.526   0.726   0.047
 1695SOL    HW2 5985   3.462   0.701   6.922
 1696SOL     OW 5986   4.006   5.984   0.872
 1696SOL    HW1 5987   4.089   5.928   0.866
 1696SOL    HW2 5988   4.031   6.078   0.894
 1697SOL     OW 5989   5.734   2.523   0.870
 1697SOL    HW1 5990   5.696   2.532   0.778
 1697SOL    HW2 5991   5.824   2.479   0.865
 1698SOL     OW 5992   3.214   0.740   1.588
 1698SOL    HW1 5993   3.226   0.720   1.685
 1698SOL    HW2 5994   3.178   0.658   1.542
 1699SOL     OW 5995   2.775   2.261   6.053
 1699SOL    HW1 5996   2.873   2.280   6.046
 1699SOL    HW2 5997   2.761   2.163   6.069
 1700SOL     OW 5998   5.676   3.256   3.746
 1700SOL    HW1 5999   5.630   3.241   3.658
 1700SOL    HW2 6000   5.753   3.318   3.733
 1701SOL     OW 6001   5.841   5.152   4.953
 1701SOL    HW1 6002   5.763   5.173   4.894
 1701SOL    HW2 6003   5.921   5.204   4.923
 1702SOL     OW 6004   1.091   1.245   6.230
 1702SOL    HW1 6005   0.995   1.257   6.206
 1702SOL    HW2 6006   1.115   1.309   6.303
 1703SOL     OW 6007   4.364   1.256   6.069
 1703SOL    HW1 6008   4.364   1.317   6.149
 1703SOL    HW2 6009   4.458   1.237   6.042
 1704SOL     OW 6010   1.104   1.864   6.818
 1704SOL    HW1 6011   1.129   1.792   6.883
 1704SOL    HW2 6012   1.088   1.950   6.867
 1705SOL     OW 6013   3.888   1.808   2.054
 1705SOL    HW1 6014   3.877   1.854   1.966
 1705SOL    HW2 6015   3.830   1.727   2.056
 1706SOL     OW 6016   4.829   1.814   1.306
 1706SOL    HW1 6017   4.874   1.877   1.370
 1706SOL    HW2 6018   4.875   1.725   1.310
 1707SOL     OW 6019   5.093   2.098   2.773
 1707SOL    HW1 6020   5.029   2.034   2.814
 1707SOL    HW2 6021   5.060   2.192   2.786
 1708SOL     OW 6022   4.223   5.572   1.904
 1708SOL    HW1 6023   4.206   5.618   1.817
 1708SOL    HW2 6024   4.269   5.634   1.966
 1709SOL     OW 6025   4.341   6.555   0.557
 1709SOL    HW1 6026   4.243   6.548   0.575
 1709SOL    HW2 6027   4.392   6.521   0.636
 1710SOL     OW 6028   4.070   4.820   3.385
 1710SOL    HW1 6029   3.996   4.840   3.320
 1710SOL    HW2 6030   4.133   4.754   3.345
 1711SOL     OW 6031   2.548   4.701   5.563
 1711SOL    HW1 6032   2.521   4.794   5.586
 1711SOL    HW2 6033   2.597   4.701   5.476
 1712SOL     OW 6034   0.122   2.249   4.805
 1712SOL    HW1 6035   0.099   2.155   4.779
 1712SOL    HW2 6036   0.167   2.295   4.729
 1713SOL     OW 6037   3.643   1.263   2.901
 1713SOL    HW1 6038   3.557   1.274   2.951
 1713SOL    HW2 6039   3.705   1.205   2.954
 1714SOL     OW 6040   3.344   1.879   0.105
 1714SOL    HW1 6041   3.311   1.813   0.173
 1714SOL    HW2 6042   3.413   1.939   0.148
 1715SOL     OW 6043   2.229   5.702   2.491
 1715SOL    HW1 6044   2.215   5.617   2.441
 1715SOL    HW2 6045   2.306   5.752   2.450
 1716SOL     OW 6046   4.794   0.145   4.261
 1716SOL    HW1 6047   4.706   0.139   4.308
 1716SOL    HW2 6048   4.828   0.239   4.266
 1717SOL     OW 6049   3.868   5.242   5.380
 1717SOL    HW1 6050   3.865   5.202   5.471
 1717SOL    HW2 6051   3.787   5.299   5.366
 1718SOL     OW 6052   2.576   1.508   2.605
 1718SOL    HW1 6053   2.591   1.533   2.509
 1718SOL    HW2 6054   2.492   1.454   2.614
 1719SOL     OW 6055   2.035   4.775   0.873
 1719SOL    HW1 6056   1.978   4.746   0.950
 1719SOL    HW2 6057   2.021   4.873   0.857
 1720SOL     OW 6058   0.065   3.075   5.879
 1720SOL    HW1 6059   0.082   3.002   5.945
 1720SOL    HW2 6060   6.998   3.062   5.838
 1721SOL     OW 6061   1.304   0.308   2.119
 1721SOL    HW1 6062   1.274   0.255   2.040
 1721SOL    HW2 6063   1.325   0.401   2.091
 1722SOL     OW 6064   3.466   1.827   3.211
 1722SOL    HW1 6065   3.437   1.923   3.207
 1722SOL    HW2 6066   3.563   1.821   3.185
 1723SOL     OW 6067   4.293   2.082   6.801
 1723SOL    HW1 6068   4.357   2.069   6.877
 1723SOL    HW2 6069   4.343   2.109   6.719
 1724SOL     OW 6070   6.478   1.849   1.548
 1724SOL    HW1 6071   6.532   1.830   1.466
 1724SOL    HW2 6072   6.538   1.872   1.624
 1725SOL     OW 6073   1.772   4.967   6.724
 1725SOL    HW1 6074   1.772   4.886   6.783
 1725SOL    HW2 6075   1.719   5.040   6.767
 1726SOL     OW 6076   5.652   4.039   4.018
 1726SOL    HW1 6077   5.553   4.049   4.016
 1726SOL    HW2 6078   5.679   3.968   3.952
 1727SOL     OW 6079   3.664   3.648   2.918
 1727SOL    HW1 6080   3.574   3.625   2.882
 1727SOL    HW2 6081   3.709   3.565   2.953
 1728SOL     OW 6082   4.746   4.016   5.487
 1728SOL    HW1 6083   4.758   4.106   5.445
 1728SOL    HW2 6084   4.649   3.997   5.499
 1729SOL     OW 6085   0.855   3.749   2.853
 1729SOL    HW1 6086   0.934   3.727   2.796
 1729SOL    HW2 6087   0.817   3.666   2.893
 1730SOL     OW 6088   3.247   6.083   5.164
 1730SOL    HW1 6089   3.319   6.032   5.116
 1730SOL    HW2 6090   3.287   6.135   5.239
 1731SOL     OW 6091   5.624   5.030   3.778
 1731SOL    HW1 6092   5.713   5.069   3.755
 1731SOL    HW2 6093   5.614   5.025   3.878
 1732SOL     OW 6094   1.727   4.341   6.597
 1732SOL    HW1 6095   1.705   4.386   6.510
 1732SOL    HW2 6096   1.694   4.246   6.595
 1733SOL     OW 6097   2.533   4.579   0.849
 1733SOL    HW1 6098   2.548   4.483   0.872
 1733SOL    HW2 6099   2.435   4.594   0.834
 1734SOL     OW 6100   5.454   2.835   0.980
 1734SOL    HW1 6101   5.470   2.775   1.059
 1734SOL    HW2 6102   5.366   2.882   0.992
 1735SOL     OW 6103   4.455   5.730   6.517
 1735SOL    HW1 6104   4.451   5.653   6.453
 1735SOL    HW2 6105   4.522   5.711   6.588
 1736SOL     OW 6106   4.303   3.839   1.091
 1736SOL    HW1 6107   4.360   3.861   1.012
 1736SOL    HW2 6108   4.290   3.921   1.147
 1737SOL     OW 6109   5.386   0.601   4.098
 1737SOL    HW1 6110   5.341   0.534   4.156
 1737SOL    HW2 6111   5.317   0.646   4.040
 1738SOL     OW 6112   2.012   3.659   4.600
 1738SOL    HW1 6113   2.011   3.575   4.546
 1738SOL    HW2 6114   1.950   3.650   4.678
 1739SOL     OW 6115   5.995   0.353   4.419
 1739SOL    HW1 6116   6.044   0.277   4.461
 1739SOL    HW2 6117   6.025   0.364   4.325
 1740SOL     OW 6118   0.005   1.992   4.797
 1740SOL    HW1 6119   6.987   1.925   4.859
 1740SOL    HW2 6120   6.956   2.041   4.749
 1741SOL     OW 6121   2.129   1.565   3.552
 1741SOL    HW1 6122   2.087   1.483   3.592
 1741SOL    HW2 6123   2.148   1.550   3.455
 1742SOL     OW 6124   5.779   1.216   6.540
 1742SOL    HW1 6125   5.743   1.253   6.454
 1742SOL    HW2 6126   5.850   1.148   6.519
 1743SOL     OW 6127   1.143   1.228   2.998
 1743SOL    HW1 6128   1.047   1.203   2.984
 1743SOL    HW2 6129   1.201   1.170   2.941
 1744SOL     OW 6130   5.245   2.553   3.315
 1744SOL    HW1 6131   5.280   2.473   3.363
 1744SOL    HW2 6132   5.151   2.570   3.343
 1745SOL     OW 6133   6.210   6.069   1.521
 1745SOL    HW1 6134   6.203   6.138   1.449
 1745SOL    HW2 6135   6.195   6.112   1.610
 1746SOL     OW 6136   1.988   3.512   3.896
 1746SOL    HW1 6137   2.012   3.415   3.893
 1746SOL    HW2 6138   2.035   3.560   3.822
 1747SOL     OW 6139   3.823   1.290   2.069
 1747SOL    HW1 6140   3.861   1.345   2.143
 1747SOL    HW2 6141   3.837   1.338   1.982
 1748SOL     OW 6142   6.435   1.103   4.492
 1748SOL    HW1 6143   6.346   1.118   4.450
 1748SOL    HW2 6144   6.499   1.071   4.422
 1749SOL     OW 6145   3.148   6.234   0.467
 1749SOL    HW1 6146   3.113   6.307   0.525
 1749SOL    HW2 6147   3.174   6.156   0.524
 1750SOL     OW 6148   3.887   0.249   4.926
 1750SOL    HW1 6149   3.981   0.279   4.943
 1750SOL    HW2 6150   3.850   0.208   5.010
 1751SOL     OW 6151   5.914   2.484   4.592
 1751SOL    HW1 6152   5.972   2.412   4.552
 1751SOL    HW2 6153   5.849   2.515   4.523
 1752SOL     OW 6154   6.403   1.046   1.353
 1752SOL    HW1 6155   6.490   1.089   1.378
 1752SOL    HW2 6156   6.331   1.115   1.355
 1753SOL     OW 6157   6.854   1.523   1.910
 1753SOL    HW1 6158   6.851   1.618   1.939
 1753SOL    HW2 6159   6.793   1.468   1.966
 1754SOL     OW 6160   2.341   5.751   5.961
 1754SOL    HW1 6161   2.303   5.691   5.891
 1754SOL    HW2 6162   2.397   5.697   6.024
 1755SOL     OW 6163   6.365   6.210   5.382
 1755SOL    HW1 6164   6.309   6.129   5.364
 1755SOL    HW2 6165   6.335   6.254   5.466
 1756SOL     OW 6166   4.491   7.006   6.370
 1756SOL    HW1 6167   4.481   0.080   6.346
 1756SOL    HW2 6168   4.574   6.994   6.423
 1757SOL     OW 6169   2.548   4.965   4.283
 1757SOL    HW1 6170   2.550   5.051   4.334
 1757SOL    HW2 6171   2.459   4.921   4.294
 1758SOL     OW 6172   1.470   6.944   5.127
 1758SOL    HW1 6173   1.473   7.023   5.189
 1758SOL    HW2 6174   1.563   6.912   5.110
 1759SOL     OW 6175   1.334   6.382   5.946
 1759SOL    HW1 6176   1.390   6.299   5.946
 1759SOL    HW2 6177   1.350   6.433   5.862
 1760SOL     OW 6178   6.022   1.152   5.205
 1760SOL    HW1 6179   5.938   1.199   5.180
 1760SOL    HW2 6180   6.087   1.158   5.129
 1761SOL     OW 6181   0.220   1.019   0.861
 1761SOL    HW1 6182   0.163   1.074   0.922
 1761SOL    HW2 6183   0.315   1.051   0.865
 1762SOL     OW 6184   0.603   1.210   5.048
 1762SOL    HW1 6185   0.530   1.179   4.986
 1762SOL    HW2 6186   0.663   1.273   4.999
 1763SOL     OW 6187   0.904   4.581   4.810
 1763SOL    HW1 6188   0.883   4.606   4.715
 1763SOL    HW2 6189   0.985   4.522   4.810
 1764SOL     OW 6190   0.753   3.776   2.106
 1764SOL    HW1 6191   0.826   3.827   2.150
 1764SOL    HW2 6192   0.752   3.682   2.140
 1765SOL     OW 6193   4.566   2.569   1.674
 1765SOL    HW1 6194   4.644   2.506   1.674
 1765SOL    HW2 6195   4.555   2.608   1.583
 1766SOL     OW 6196   4.969   4.341   4.148
 1766SOL    HW1 6197   5.039   4.379   4.088
 1766SOL    HW2 6198   4.881   4.342   4.101
 1767SOL     OW 6199   0.600   4.994   2.517
 1767SOL    HW1 6200   0.554   4.948   2.440
 1767SOL    HW2 6201   0.562   5.086   2.527
 1768SOL     OW 6202   4.403   0.161   0.822
 1768SOL    HW1 6203   4.352   0.245   0.805
 1768SOL    HW2 6204   4.355   0.084   0.780
 1769SOL     OW 6205   6.009   0.914   6.879
 1769SOL    HW1 6206   6.007   0.965   6.965
 1769SOL    HW2 6207   5.929   0.938   6.825
 1770SOL     OW 6208   0.773   4.290   5.574
 1770SOL    HW1 6209   0.827   4.364   5.533
 1770SOL    HW2 6210   0.782   4.294   5.673
 1771SOL     OW 6211   1.016   4.596   0.142
 1771SOL    HW1 6212   0.971   4.520   0.189
 1771SOL    HW2 6213   1.102   4.565   0.103
 1772SOL     OW 6214   3.839   5.228   3.951
 1772SOL    HW1 6215   3.816   5.310   4.003
 1772SOL    HW2 6216   3.915   5.180   3.995
 1773SOL     OW 6217   1.445   1.116   4.988
 1773SOL    HW1 6218   1.488   1.195   5.030
 1773SOL    HW2 6219   1.432   1.044   5.056
 1774SOL     OW 6220   5.844   6.979   1.976
 1774SOL    HW1 6221   5.762   6.960   2.031
 1774SOL    HW2 6222   5.890   0.037   2.012
 1775SOL     OW 6223   2.252   5.243   5.986
 1775SOL    HW1 6224   2.321   5.206   6.048
 1775SOL    HW2 6225   2.180   5.175   5.971
 1776SOL     OW 6226   4.835   0.909   5.667
 1776SOL    HW1 6227   4.823   0.996   5.618
 1776SOL    HW2 6228   4.811   0.833   5.606
 1777SOL     OW 6229   4.170   6.849   6.316
 1777SOL    HW1 6230   4.179   6.755   6.348
 1777SOL    HW2 6231   4.117   6.850   6.231
 1778SOL     OW 6232   5.267   1.081   4.431
 1778SOL    HW1 6233   5.176   1.122   4.435
 1778SOL    HW2 6234   5.302   1.086   4.337
 1779SOL     OW 6235   4.976   0.030   5.082
 1779SOL    HW1 6236   5.011   6.979   5.025
 1779SOL    HW2 6237   4.899   0.074   5.035
 1780SOL     OW 6238   1.728   5.323   4.484
 1780SOL    HW1 6239   1.810   5.266   4.473
 1780SOL    HW2 6240   1.740   5.384   4.563
 1781SOL     OW 6241   4.560   6.871   4.860
 1781SOL    HW1 6242   4.475   6.920   4.877
 1781SOL    HW2 6243   4.542   6.790   4.804
 1782SOL     OW 6244   1.550   1.475   2.947
 1782SOL    HW1 6245   1.477   1.530   2.989
 1782SOL    HW2 6246   1.524   1.379   2.949
 1783SOL     OW 6247   2.378   3.540   6.130
 1783SOL    HW1 6248   2.386   3.456   6.075
 1783SOL    HW2 6249   2.461   3.551   6.184
 1784SOL     OW 6250   2.426   0.585   1.524
 1784SOL    HW1 6251   2.497   0.514   1.526
 1784SOL    HW2 6252   2.339   0.546   1.554
 1785SOL     OW 6253   0.096   6.356   4.175
 1785SOL    HW1 6254   0.141   6.420   4.238
 1785SOL    HW2 6255   0.125   6.376   4.082
 1786SOL     OW 6256   1.816   5.378   0.748
 1786SOL    HW1 6257   1.777   5.382   0.840
 1786SOL    HW2 6258   1.771   5.307   0.695
 1787SOL     OW 6259   1.078   2.312   5.391
 1787SOL    HW1 6260   1.167   2.327   5.434
 1787SOL    HW2 6261   1.018   2.390   5.412
 1788SOL     OW 6262   4.824   3.863   0.479
 1788SOL    HW1 6263   4.725   3.868   0.486
 1788SOL    HW2 6264   4.851   3.772   0.448
 1789SOL     OW 6265   6.332   3.301   1.812
 1789SOL    HW1 6266   6.236   3.303   1.786
 1789SOL    HW2 6267   6.388   3.282   1.731
 1790SOL     OW 6268   3.142   1.697   4.692
 1790SOL    HW1 6269   3.089   1.781   4.681
 1790SOL    HW2 6270   3.080   1.618   4.689
 1791SOL     OW 6271   6.232   0.938   3.895
 1791SOL    HW1 6272   6.326   0.905   3.895
 1791SOL    HW2 6273   6.208   0.972   3.986
 1792SOL     OW 6274   6.980   1.831   5.356
 1792SOL    HW1 6275   6.907   1.769   5.329
 1792SOL    HW2 6276   6.962   1.867   5.447
 1793SOL     OW 6277   6.898   1.173   5.143
 1793SOL    HW1 6278   6.906   1.174   5.043
 1793SOL    HW2 6279   6.896   1.079   5.175
 1794SOL     OW 6280   6.300   0.540   6.776
 1794SOL    HW1 6281   6.318   0.442   6.772
 1794SOL    HW2 6282   6.371   0.589   6.724
 1795SOL     OW 6283   5.703   4.878   0.034
 1795SOL    HW1 6284   5.657   4.819   0.101
 1795SOL    HW2 6285   5.700   4.834   6.968
 1796SOL     OW 6286   1.588   0.844   5.864
 1796SOL    HW1 6287   1.677   0.864   5.825
 1796SOL    HW2 6288   1.521   0.831   5.791
 1797SOL     OW 6289   1.773   7.005   5.040
 1797SOL    HW1 6290   1.820   0.009   4.956
 1797SOL    HW2 6291   1.760   6.906   5.039
 1798SOL     OW 6292   3.890   2.994   4.233
 1798SOL    HW1 6293   3.797   2.958   4.236
 1798SOL    HW2 6294   3.928   2.997   4.325
 1799SOL     OW 6295   3.573   0.766   6.782
 1799SOL    HW1 6296   3.545   0.856   6.749
 1799SOL    HW2 6297   3.668   0.770   6.814
 1800SOL     OW 6298   5.116   4.505   3.955
 1800SOL    HW1 6299   5.157   4.498   4.046
 1800SOL    HW2 6300   5.073   4.596   3.945
 1801SOL     OW 6301   1.393   1.209   1.806
 1801SOL    HW1 6302   1.379   1.285   1.869
 1801SOL    HW2 6303   1.461   1.235   1.737
 1802SOL     OW 6304   6.468   5.020   3.366
 1802SOL    HW1 6305   6.497   5.056   3.456
 1802SOL    HW2 6306   6.444   5.097   3.306
 1803SOL     OW 6307   6.956   6.481   2.421
 1803SOL    HW1 6308   7.007   6.435   2.348
 1803SOL    HW2 6309   6.898   6.415   2.468
 1804SOL     OW 6310   3.086   3.539   6.164
 1804SOL    HW1 6311   3.128   3.511   6.078
 1804SOL    HW2 6312   3.126   3.487   6.240
 1805SOL     OW 6313   0.825   6.703   5.872
 1805SOL    HW1 6314   0.881   6.626   5.843
 1805SOL    HW2 6315   0.769   6.675   5.951
 1806SOL     OW 6316   6.724   2.251   2.313
 1806SOL    HW1 6317   6.710   2.257   2.412
 1806SOL    HW2 6318   6.748   2.157   2.289
 1807SOL     OW 6319   6.578   3.728   0.744
 1807SOL    HW1 6320   6.660   3.674   0.760
 1807SOL    HW2 6321   6.603   3.817   0.706
 1808SOL     OW 6322   5.341   2.439   5.278
 1808SOL    HW1 6323   5.282   2.511   5.315
 1808SOL    HW2 6324   5.309   2.350   5.312
 1809SOL     OW 6325   3.414   2.002   5.443
 1809SOL    HW1 6326   3.369   2.053   5.370
 1809SOL    HW2 6327   3.366   1.915   5.458
 1810SOL     OW 6328   0.350   0.475   4.230
 1810SOL    HW1 6329   0.315   0.514   4.144
 1810SOL    HW2 6330   0.407   0.543   4.276
 1811SOL     OW 6331   4.197   5.067   2.215
 1811SOL    HW1 6332   4.107   5.088   2.175
 1811SOL    HW2 6333   4.187   4.994   2.283
 1812SOL     OW 6334   4.109   0.141   6.111
 1812SOL    HW1 6335   4.191   0.168   6.162
 1812SOL    HW2 6336   4.116   0.174   6.016
 1813SOL     OW 6337   4.899   4.519   2.626
 1813SOL    HW1 6338   4.958   4.440   2.610
 1813SOL    HW2 6339   4.805   4.487   2.641
 1814SOL     OW 6340   0.043   6.996   0.574
 1814SOL    HW1 6341   0.035   0.012   0.666
 1814SOL    HW2 6342   0.114   0.022   0.523
 1815SOL     OW 6343   5.776   6.034   1.969
 1815SOL    HW1 6344   5.752   6.115   2.022
 1815SOL    HW2 6345   5.759   6.051   1.872
 1816SOL     OW 6346   4.546   6.238   5.463
 1816SOL    HW1 6347   4.545   6.193   5.553
 1816SOL    HW2 6348   4.465   6.296   5.453
 1817SOL     OW 6349   3.006   1.580   3.264
 1817SOL    HW1 6350   3.079   1.636   3.303
 1817SOL    HW2 6351   2.933   1.640   3.230
 1818SOL     OW 6352   1.948   6.517   0.109
 1818SOL    HW1 6353   1.873   6.455   0.129
 1818SOL    HW2 6354   1.968   6.573   0.190
 1819SOL     OW 6355   0.603   4.509   2.585
 1819SOL    HW1 6356   0.612   4.601   2.622
 1819SOL    HW2 6357   0.652   4.444   2.644
 1820SOL     OW 6358   3.705   0.210   3.021
 1820SOL    HW1 6359   3.735   0.297   3.060
 1820SOL    HW2 6360   3.782   0.146   3.019
 1821SOL     OW 6361   3.182   1.019   2.177
 1821SOL    HW1 6362   3.179   1.066   2.090
 1821SOL    HW2 6363   3.112   0.948   2.180
 1822SOL     OW 6364   1.367   3.094   2.318
 1822SOL    HW1 6365   1.438   3.046   2.266
 1822SOL    HW2 6366   1.279   3.048   2.304
 1823SOL     OW 6367   3.815   6.617   2.800
 1823SOL    HW1 6368   3.850   6.677   2.872
 1823SOL    HW2 6369   3.804   6.524   2.836
 1824SOL     OW 6370   4.723   4.029   1.023
 1824SOL    HW1 6371   4.671   4.112   1.041
 1824SOL    HW2 6372   4.706   3.962   1.094
 1825SOL     OW 6373   1.385   2.622   5.052
 1825SOL    HW1 6374   1.319   2.613   4.978
 1825SOL    HW2 6375   1.471   2.659   5.016
 1826SOL     OW 6376   3.527   1.622   1.454
 1826SOL    HW1 6377   3.487   1.541   1.497
 1826SOL    HW2 6378   3.455   1.690   1.438
 1827SOL     OW 6379   5.116   5.083   0.613
 1827SOL    HW1 6380   5.078   5.037   0.533
 1827SOL    HW2 6381   5.050   5.080   0.688
 1828SOL     OW 6382   1.461   3.051   5.919
 1828SOL    HW1 6383   1.446   3.138   5.966
 1828SOL    HW2 6384   1.384   2.990   5.936
 1829SOL     OW 6385   4.097   0.416   3.665
 1829SOL    HW1 6386   4.133   0.439   3.755
 1829SOL    HW2 6387   4.014   0.469   3.648
 1830SOL     OW 6388   5.920   6.978   5.244
 1830SOL    HW1 6389   6.007   6.998   5.288
 1830SOL    HW2 6390   5.847   0.004   5.291
 1831SOL     OW 6391   5.076   5.390   2.729
 1831SOL    HW1 6392   5.090   5.483   2.762
 1831SOL    HW2 6393   5.158   5.335   2.748
 1832SOL     OW 6394   2.375   4.083   0.353
 1832SOL    HW1 6395   2.342   4.141   0.279
 1832SOL    HW2 6396   2.398   3.992   0.316
 1833SOL     OW 6397   4.722   0.201   1.658
 1833SOL    HW1 6398   4.805   0.183   1.606
 1833SOL    HW2 6399   4.739   0.189   1.755
 1834SOL     OW 6400   2.950   2.515   0.469
 1834SOL    HW1 6401   2.939   2.491   0.565
 1834SOL    HW2 6402   2.988   2.607   0.461
 1835SOL     OW 6403   0.715   4.814   1.238
 1835SOL    HW1 6404   0.671   4.754   1.172
 1835SOL    HW2 6405   0.738   4.762   1.321
 1836SOL     OW 6406   5.059   1.466   2.299
 1836SOL    HW1 6407   5.000   1.423   2.230
 1836SOL    HW2 6408   5.138   1.408   2.317
 1837SOL     OW 6409   2.281   0.848   5.747
 1837SOL    HW1 6410   2.221   0.809   5.677
 1837SOL    HW2 6411   2.254   0.814   5.837
 1838SOL     OW 6412   6.928   0.827   0.842
 1838SOL    HW1 6413   7.011   0.782   0.807
 1838SOL    HW2 6414   6.939   0.848   0.939
 1839SOL     OW 6415   6.104   1.731   0.415
 1839SOL    HW1 6416   6.054   1.818   0.415
 1839SOL    HW2 6417   6.201   1.749   0.430
 1840SOL     OW 6418   3.314   0.186   3.398
 1840SOL    HW1 6419   3.216   0.170   3.410
 1840SOL    HW2 6420   3.328   0.272   3.350
 1841SOL     OW 6421   1.857   6.956   1.936
 1841SOL    HW1 6422   1.851   0.030   1.956
 1841SOL    HW2 6423   1.942   6.937   1.887
 1842SOL     OW 6424   1.851   4.700   0.572
 1842SOL    HW1 6425   1.858   4.629   0.502
 1842SOL    HW2 6426   1.891   4.667   0.657
 1843SOL     OW 6427   3.878   1.266   4.611
 1843SOL    HW1 6428   3.786   1.298   4.590
 1843SOL    HW2 6429   3.943   1.305   4.547
 1844SOL     OW 6430   4.753   1.371   5.821
 1844SOL    HW1 6431   4.771   1.440   5.890
 1844SOL    HW2 6432   4.720   1.287   5.865
 1845SOL     OW 6433   2.429   0.659   3.388
 1845SOL    HW1 6434   2.438   0.625   3.295
 1845SOL    HW2 6435   2.435   0.583   3.453
 1846SOL     OW 6436   4.459   0.893   3.363
 1846SOL    HW1 6437   4.546   0.859   3.327
 1846SOL    HW2 6438   4.384   0.836   3.328
 1847SOL     OW 6439   1.919   0.525   4.362
 1847SOL    HW1 6440   2.012   0.487   4.360
 1847SOL    HW2 6441   1.899   0.560   4.454
 1848SOL     OW 6442   2.159   5.716   4.159
 1848SOL    HW1 6443   2.161   5.617   4.145
 1848SOL    HW2 6444   2.065   5.747   4.159
 1849SOL     OW 6445   4.858   2.971   2.653
 1849SOL    HW1 6446   4.927   2.909   2.690
 1849SOL    HW2 6447   4.794   2.997   2.727
 1850SOL     OW 6448   5.062   1.952   2.159
 1850SOL    HW1 6449   5.094   2.046   2.174
 1850SOL    HW2 6450   4.992   1.952   2.087
 1851SOL     OW 6451   0.167   2.969   6.460
 1851SOL    HW1 6452   0.263   2.965   6.489
 1851SOL    HW2 6453   0.163   3.006   6.367
 1852SOL     OW 6454   0.965   3.976   1.733
 1852SOL    HW1 6455   1.035   4.029   1.782
 1852SOL    HW2 6456   1.008   3.900   1.685
 1853SOL     OW 6457   0.143   3.190   4.753
 1853SOL    HW1 6458   0.060   3.228   4.794
 1853SOL    HW2 6459   0.207   3.263   4.731
 1854SOL     OW 6460   0.793   5.698   3.308
 1854SOL    HW1 6461   0.708   5.739   3.339
 1854SOL    HW2 6462   0.776   5.603   3.281
 1855SOL     OW 6463   5.153   3.690   4.414
 1855SOL    HW1 6464   5.185   3.751   4.486
 1855SOL    HW2 6465   5.172   3.730   4.325
 1856SOL     OW 6466   3.603   3.180   6.957
 1856SOL    HW1 6467   3.664   3.165   6.879
 1856SOL    HW2 6468   3.657   3.185   0.017
 1857SOL     OW 6469   5.238   0.860   0.254
 1857SOL    HW1 6470   5.256   0.907   0.340
 1857SOL    HW2 6471   5.139   0.852   0.240
 1858SOL     OW 6472   4.527   2.057   4.449
 1858SOL    HW1 6473   4.457   1.990   4.426
 1858SOL    HW2 6474   4.588   2.019   4.519
 1859SOL     OW 6475   5.389   1.588   5.031
 1859SOL    HW1 6476   5.476   1.634   5.045
 1859SOL    HW2 6477   5.386   1.503   5.082
 1860SOL     OW 6478   0.964   1.703   4.834
 1860SOL    HW1 6479   0.937   1.615   4.872
 1860SOL    HW2 6480   0.991   1.690   4.738
 1861SOL     OW 6481   5.770   0.911   2.926
 1861SOL    HW1 6482   5.792   0.852   3.003
 1861SOL    HW2 6483   5.748   0.855   2.846
 1862SOL     OW 6484   2.248   6.429   6.785
 1862SOL    HW1 6485   2.208   6.343   6.818
 1862SOL    HW2 6486   2.206   6.506   6.833
 1863SOL     OW 6487   0.771   2.881   0.992
 1863SOL    HW1 6488   0.688   2.879   1.048
 1863SOL    HW2 6489   0.793   2.788   0.963
 1864SOL     OW 6490   2.559   5.837   4.175
 1864SOL    HW1 6491   2.587   5.759   4.119
 1864SOL    HW2 6492   2.631   5.906   4.175
 1865SOL     OW 6493   4.966   1.653   0.712
 1865SOL    HW1 6494   4.986   1.734   0.767
 1865SOL    HW2 6495   4.971   1.571   0.770
 1866SOL     OW 6496   0.141   4.006   4.339
 1866SOL    HW1 6497   0.063   4.020   4.400
 1866SOL    HW2 6498   0.109   3.964   4.253
 1867SOL     OW 6499   2.836   2.434   1.490
 1867SOL    HW1 6500   2.921   2.404   1.533
 1867SOL    HW2 6501   2.786   2.494   1.552
 1868SOL     OW 6502   4.937   4.059   4.763
 1868SOL    HW1 6503   4.971   4.125   4.830
 1868SOL    HW2 6504   5.003   3.985   4.751
 1869SOL     OW 6505   4.810   2.003   3.946
 1869SOL    HW1 6506   4.812   2.011   4.045
 1869SOL    HW2 6507   4.749   1.928   3.920
 1870SOL     OW 6508   1.459   4.197   3.886
 1870SOL    HW1 6509   1.525   4.253   3.837
 1870SOL    HW2 6510   1.367   4.232   3.871
 1871SOL     OW 6511   0.848   6.846   0.334
 1871SOL    HW1 6512   0.779   6.898   0.283
 1871SOL    HW2 6513   0.872   6.763   0.283
 1872SOL     OW 6514   3.327   2.196   0.160
 1872SOL    HW1 6515   3.312   2.293   0.144
 1872SOL    HW2 6516   3.253   2.159   0.216
 1873SOL     OW 6517   6.562   1.008   0.076
 1873SOL    HW1 6518   6.509   1.055   0.005
 1873SOL    HW2 6519   6.506   0.938   0.119
 1874SOL     OW 6520   0.770   7.003   6.466
 1874SOL    HW1 6521   0.833   6.977   6.392
 1874SOL    HW2 6522   0.684   6.952   6.455
 1875SOL     OW 6523   6.298   5.737   6.921
 1875SOL    HW1 6524   6.268   5.649   6.957
 1875SOL    HW2 6525   6.345   5.788   6.993
 1876SOL     OW 6526   5.654   6.788   5.917
 1876SOL    HW1 6527   5.632   6.848   5.994
 1876SOL    HW2 6528   5.636   6.836   5.831
 1877SOL     OW 6529   0.549   0.737   1.925
 1877SOL    HW1 6530   0.516   0.643   1.916
 1877SOL    HW2 6531   0.501   0.795   1.859
 1878SOL     OW 6532   0.518   4.235   2.982
 1878SOL    HW1 6533   0.441   4.298   2.971
 1878SOL    HW2 6534   0.486   4.141   2.976
 1879SOL     OW 6535   2.623   5.536   4.933
 1879SOL    HW1 6536   2.570   5.618   4.913
 1879SOL    HW2 6537   2.707   5.536   4.878
 1880SOL     OW 6538   0.129   2.675   3.017
 1880SOL    HW1 6539   0.210   2.643   3.065
 1880SOL    HW2 6540   0.049   2.669   3.077
 1881SOL     OW 6541   1.065   2.141   3.388
 1881SOL    HW1 6542   1.082   2.045   3.365
 1881SOL    HW2 6543   1.010   2.146   3.471
 1882SOL     OW 6544   1.211   5.629   0.246
 1882SOL    HW1 6545   1.261   5.637   0.160
 1882SOL    HW2 6546   1.274   5.642   0.323
 1883SOL     OW 6547   0.962   3.895   2.194
 1883SOL    HW1 6548   0.989   3.964   2.128
 1883SOL    HW2 6549   1.043   3.847   2.228
 1884SOL     OW 6550   3.831   1.051   0.250
 1884SOL    HW1 6551   3.870   1.060   0.159
 1884SOL    HW2 6552   3.739   1.089   0.251
 1885SOL     OW 6553   6.892   2.531   0.758
 1885SOL    HW1 6554   6.798   2.500   0.743
 1885SOL    HW2 6555   6.943   2.459   0.806
 1886SOL     OW 6556   2.185   1.681   6.383
 1886SOL    HW1 6557   2.138   1.677   6.471
 1886SOL    HW2 6558   2.154   1.761   6.331
 1887SOL     OW 6559   0.302   5.048   5.798
 1887SOL    HW1 6560   0.246   5.131   5.800
 1887SOL    HW2 6561   0.383   5.063   5.741
 1888SOL     OW 6562   1.974   1.685   5.427
 1888SOL    HW1 6563   2.052   1.625   5.444
 1888SOL    HW2 6564   1.996   1.778   5.458
 1889SOL     OW 6565   4.698   3.447   0.469
 1889SOL    HW1 6566   4.695   3.425   0.566
 1889SOL    HW2 6567   4.787   3.488   0.447
 1890SOL     OW 6568   0.891   6.057   6.124
 1890SOL    HW1 6569   0.835   6.105   6.191
 1890SOL    HW2 6570   0.947   6.122   6.074
 1891SOL     OW 6571   5.882   3.368   5.604
 1891SOL    HW1 6572   5.831   3.282   5.601
 1891SOL    HW2 6573   5.978   3.351   5.585
 1892SOL     OW 6574   3.759   5.912   1.198
 1892SOL    HW1 6575   3.850   5.876   1.181
 1892SOL    HW2 6576   3.715   5.860   1.271
 1893SOL     OW 6577   3.523   2.035   4.429
 1893SOL    HW1 6578   3.485   2.083   4.508
 1893SOL    HW2 6579   3.619   2.059   4.418
 1894SOL     OW 6580   4.468   3.978   1.698
 1894SOL    HW1 6581   4.481   3.987   1.600
 1894SOL    HW2 6582   4.392   4.037   1.727
 1895SOL     OW 6583   6.195   1.600   2.649
 1895SOL    HW1 6584   6.205   1.541   2.729
 1895SOL    HW2 6585   6.099   1.609   2.625
 1896SOL     OW 6586   6.068   1.447   4.327
 1896SOL    HW1 6587   6.125   1.522   4.360
 1896SOL    HW2 6588   6.111   1.359   4.350
 1897SOL     OW 6589   6.301   5.420   3.607
 1897SOL    HW1 6590   6.367   5.433   3.681
 1897SOL    HW2 6591   6.313   5.493   3.539
 1898SOL     OW 6592   5.226   5.610   1.248
 1898SOL    HW1 6593   5.202   5.570   1.160
 1898SOL    HW2 6594   5.218   5.710   1.243
 1899SOL     OW 6595   0.001   3.440   3.109
 1899SOL    HW1 6596   0.066   3.400   3.045
 1899SOL    HW2 6597   0.013   3.399   3.199
 1900SOL     OW 6598   1.635   6.418   6.472
 1900SOL    HW1 6599   1.719   6.471   6.484
 1900SOL    HW2 6600   1.568   6.447   6.540
 1901SOL     OW 6601   1.826   0.772   6.823
 1901SOL    HW1 6602   1.919   0.806   6.815
 1901SOL    HW2 6603   1.827   0.672   6.825
 1902SOL     OW 6604   1.202   2.723   3.942
 1902SOL    HW1 6605   1.177   2.628   3.960
 1902SOL    HW2 6606   1.210   2.772   4.029
 1903SOL     OW 6607   6.369   5.144   3.778
 1903SOL    HW1 6608   6.337   5.064   3.728
 1903SOL    HW2 6609   6.448   5.184   3.731
 1904SOL     OW 6610   0.459   0.257   4.683
 1904SOL    HW1 6611   0.537   0.223   4.736
 1904SOL    HW2 6612   0.446   0.199   4.603
 1905SOL     OW 6613   6.784   2.085   3.897
 1905SOL    HW1 6614   6.803   2.176   3.934
 1905SOL    HW2 6615   6.864   2.054   3.845
 1906SOL     OW 6616   2.388   0.206   6.085
 1906SOL    HW1 6617   2.311   0.143   6.092
 1906SOL    HW2 6618   2.356   0.300   6.091
 1907SOL     OW 6619   2.741   0.354   3.176
 1907SOL    HW1 6620   2.676   0.343   3.251
 1907SOL    HW2 6621   2.831   0.375   3.214
 1908SOL     OW 6622   4.480   1.057   5.745
 1908SOL    HW1 6623   4.503   0.991   5.673
 1908SOL    HW2 6624   4.497   1.016   5.835
 1909SOL     OW 6625   2.590   4.663   4.738
 1909SOL    HW1 6626   2.634   4.638   4.824
 1909SOL    HW2 6627   2.497   4.695   4.756
 1910SOL     OW 6628   5.205   2.489   6.713
 1910SOL    HW1 6629   5.142   2.555   6.753
 1910SOL    HW2 6630   5.239   2.427   6.783
 1911SOL     OW 6631   6.812   2.116   5.171
 1911SOL    HW1 6632   6.732   2.158   5.126
 1911SOL    HW2 6633   6.830   2.027   5.128
 1912SOL     OW 6634   2.973   6.564   2.297
 1912SOL    HW1 6635   2.960   6.661   2.318
 1912SOL    HW2 6636   2.997   6.554   2.201
 1913SOL     OW 6637   2.116   6.201   5.124
 1913SOL    HW1 6638   2.100   6.213   5.026
 1913SOL    HW2 6639   2.203   6.155   5.139
 1914SOL     OW 6640   2.135   2.830   6.436
 1914SOL    HW1 6641   2.207   2.811   6.503
 1914SOL    HW2 6642   2.125   2.751   6.375
 1915SOL     OW 6643   3.791   0.525   6.417
 1915SOL    HW1 6644   3.793   0.482   6.507
 1915SOL    HW2 6645   3.729   0.474   6.357
 1916SOL     OW 6646   4.208   5.821   0.891
 1916SOL    HW1 6647   4.293   5.855   0.930
 1916SOL    HW2 6648   4.195   5.726   0.917
 1917SOL     OW 6649   3.624   4.119   4.490
 1917SOL    HW1 6650   3.548   4.057   4.508
 1917SOL    HW2 6651   3.668   4.143   4.577
 1918SOL     OW 6652   6.171   6.167   6.153
 1918SOL    HW1 6653   6.148   6.194   6.060
 1918SOL    HW2 6654   6.112   6.215   6.218
 1919SOL     OW 6655   0.926   5.989   2.538
 1919SOL    HW1 6656   0.968   5.907   2.499
 1919SOL    HW2 6657   0.838   6.006   2.494
 1920SOL     OW 6658   1.065   4.369   3.664
 1920SOL    HW1 6659   1.032   4.276   3.651
 1920SOL    HW2 6660   1.040   4.424   3.585
 1921SOL     OW 6661   0.862   5.906   6.918
 1921SOL    HW1 6662   0.764   5.912   6.936
 1921SOL    HW2 6663   0.908   5.863   6.996
 1922SOL     OW 6664   4.247   3.487   1.555
 1922SOL    HW1 6665   4.187   3.535   1.620
 1922SOL    HW2 6666   4.195   3.415   1.509
 1923SOL     OW 6667   2.663   1.283   0.540
 1923SOL    HW1 6668   2.709   1.354   0.487
 1923SOL    HW2 6669   2.616   1.325   0.618
 1924SOL     OW 6670   6.479   4.180   2.088
 1924SOL    HW1 6671   6.455   4.112   2.019
 1924SOL    HW2 6672   6.507   4.134   2.172
 1925SOL     OW 6673   3.263   3.819   1.918
 1925SOL    HW1 6674   3.316   3.838   2.000
 1925SOL    HW2 6675   3.286   3.887   1.848
 1926SOL     OW 6676   1.629   0.687   4.596
 1926SOL    HW1 6677   1.596   0.691   4.501
 1926SOL    HW2 6678   1.649   0.780   4.627
 1927SOL     OW 6679   4.166   3.501   6.867
 1927SOL    HW1 6680   4.080   3.469   6.827
 1927SOL    HW2 6681   4.243   3.468   6.812
 1928SOL     OW 6682   6.552   3.561   6.023
 1928SOL    HW1 6683   6.519   3.655   6.030
 1928SOL    HW2 6684   6.594   3.547   5.933
 1929SOL     OW 6685   1.514   5.725   2.132
 1929SOL    HW1 6686   1.574   5.795   2.170
 1929SOL    HW2 6687   1.456   5.765   2.061
 1930SOL     OW 6688   6.098   4.570   6.869
 1930SOL    HW1 6689   6.002   4.561   6.898
 1930SOL    HW2 6690   6.103   4.634   6.792
 1931SOL     OW 6691   6.960   3.761   3.304
 1931SOL    HW1 6692   7.002   3.711   3.379
 1931SOL    HW2 6693   7.019   3.757   3.223
 1932SOL     OW 6694   5.120   3.699   2.592
 1932SOL    HW1 6695   5.115   3.768   2.519
 1932SOL    HW2 6696   5.201   3.642   2.577
 1933SOL     OW 6697   2.908   4.778   0.705
 1933SOL    HW1 6698   2.902   4.703   0.770
 1933SOL    HW2 6699   2.985   4.837   0.730
 1934SOL     OW 6700   1.503   6.971   5.770
 1934SOL    HW1 6701   1.517   0.047   5.778
 1934SOL    HW2 6702   1.509   6.929   5.861
 1935SOL     OW 6703   2.679   0.183   4.794
 1935SOL    HW1 6704   2.724   0.205   4.881
 1935SOL    HW2 6705   2.667   0.084   4.788
 1936SOL     OW 6706   5.349   5.864   4.791
 1936SOL    HW1 6707   5.302   5.936   4.843
 1936SOL    HW2 6708   5.320   5.775   4.824
 1937SOL     OW 6709   3.887   6.503   1.770
 1937SOL    HW1 6710   3.920   6.418   1.729
 1937SOL    HW2 6711   3.787   6.499   1.780
 1938SOL     OW 6712   3.598   1.504   3.259
 1938SOL    HW1 6713   3.510   1.517   3.215
 1938SOL    HW2 6714   3.594   1.426   3.322
 1939SOL     OW 6715   0.902   0.733   3.829
 1939SOL    HW1 6716   0.958   0.651   3.837
 1939SOL    HW2 6717   0.905   0.784   3.915
 1940SOL     OW 6718   5.156   5.612   6.750
 1940SOL    HW1 6719   5.254   5.623   6.738
 1940SOL    HW2 6720   5.110   5.621   6.662
 1941SOL     OW 6721   6.820   4.699   3.504
 1941SOL    HW1 6722   6.753   4.691   3.578
 1941SOL    HW2 6723   6.788   4.765   3.437
 1942SOL     OW 6724   5.674   5.601   2.138
 1942SOL    HW1 6725   5.743   5.652   2.087
 1942SOL    HW2 6726   5.628   5.537   2.077
 1943SOL     OW 6727   3.011   5.265   2.672
 1943SOL    HW1 6728   3.099   5.279   2.627
 1943SOL    HW2 6729   3.023   5.272   2.771
 1944SOL     OW 6730   4.865   1.653   6.827
 1944SOL    HW1 6731   4.869   1.553   6.832
 1944SOL    HW2 6732   4.781   1.681   6.780
 1945SOL     OW 6733   4.884   5.693   2.789
 1945SOL    HW1 6734   4.808   5.675   2.852
 1945SOL    HW2 6735   4.859   5.768   2.727
 1946SOL     OW 6736   0.975   0.927   0.794
 1946SOL    HW1 6737   1.063   0.961   0.759
 1946SOL    HW2 6738   0.981   0.917   0.894
 1947SOL     OW 6739   5.013   6.423   4.543
 1947SOL    HW1 6740   5.025   6.427   4.444
 1947SOL    HW2 6741   5.094   6.461   4.588
 1948SOL     OW 6742   0.054   5.682   4.760
 1948SOL    HW1 6743   0.025   5.589   4.783
 1948SOL    HW2 6744   0.090   5.726   4.843
 1949SOL     OW 6745   4.127   3.979   5.910
 1949SOL    HW1 6746   4.155   4.026   5.994
 1949SOL    HW2 6747   4.027   3.971   5.909
 1950SOL     OW 6748   3.943   3.570   0.329
 1950SOL    HW1 6749   3.980   3.663   0.333
 1950SOL    HW2 6750   3.947   3.530   0.421
 1951SOL     OW 6751   6.507   2.804   0.254
 1951SOL    HW1 6752   6.531   2.894   0.217
 1951SOL    HW2 6753   6.583   2.769   0.308
 1952SOL     OW 6754   3.749   2.325   0.428
 1952SOL    HW1 6755   3.792   2.309   0.517
 1952SOL    HW2 6756   3.661   2.371   0.442
 1953SOL     OW 6757   6.529   2.072   0.074
 1953SOL    HW1 6758   6.442   2.027   0.096
 1953SOL    HW2 6759   6.561   2.125   0.153
 1954SOL     OW 6760   5.228   2.093   4.007
 1954SOL    HW1 6761   5.156   2.046   4.058
 1954SOL    HW2 6762   5.195   2.183   3.979
 1955SOL     OW 6763   1.535   6.962   2.012
 1955SOL    HW1 6764   1.618   6.956   2.067
 1955SOL    HW2 6765   1.550   0.002   1.936
 1956SOL     OW 6766   5.448   6.261   2.705
 1956SOL    HW1 6767   5.495   6.314   2.776
 1956SOL    HW2 6768   5.360   6.303   2.684
 1957SOL     OW 6769   6.621   5.682   5.118
 1957SOL    HW1 6770   6.646   5.745   5.191
 1957SOL    HW2 6771   6.523   5.666   5.119
 1958SOL     OW 6772   6.230   3.116   4.298
 1958SOL    HW1 6773   6.176   3.082   4.221
 1958SOL    HW2 6774   6.209   3.212   4.313
 1959SOL     OW 6775   0.665   2.734   5.647
 1959SOL    HW1 6776   0.608   2.746   5.729
 1959SOL    HW2 6777   0.609   2.749   5.566
 1960SOL     OW 6778   6.516   4.604   1.205
 1960SOL    HW1 6779   6.580   4.599   1.129
 1960SOL    HW2 6780   6.442   4.668   1.183
 1961SOL     OW 6781   5.552   4.470   4.718
 1961SOL    HW1 6782   5.491   4.429   4.786
 1961SOL    HW2 6783   5.644   4.480   4.756
 1962SOL     OW 6784   1.322   6.108   3.915
 1962SOL    HW1 6785   1.417   6.078   3.925
 1962SOL    HW2 6786   1.261   6.029   3.915
 1963SOL     OW 6787   0.776   0.407   2.055
 1963SOL    HW1 6788   0.777   0.462   2.139
 1963SOL    HW2 6789   0.851   0.437   1.996
 1964SOL     OW 6790   4.476   2.287   1.539
 1964SOL    HW1 6791   4.548   2.286   1.609
 1964SOL    HW2 6792   4.496   2.357   1.471
 1965SOL     OW 6793   0.754   2.793   2.842
 1965SOL    HW1 6794   0.833   2.731   2.835
 1965SOL    HW2 6795   0.718   2.810   2.751
 1966SOL     OW 6796   0.737   5.176   5.268
 1966SOL    HW1 6797   0.793   5.095   5.286
 1966SOL    HW2 6798   0.792   5.258   5.283
 1967SOL     OW 6799   4.748   1.956   6.196
 1967SOL    HW1 6800   4.729   1.860   6.174
 1967SOL    HW2 6801   4.673   2.013   6.162
 1968SOL     OW 6802   3.175   6.191   0.221
 1968SOL    HW1 6803   3.206   6.277   0.181
 1968SOL    HW2 6804   3.165   6.201   0.320
 1969SOL     OW 6805   0.049   1.854   1.995
 1969SOL    HW1 6806   0.091   1.875   2.083
 1969SOL    HW2 6807   6.988   1.803   2.009
 1970SOL     OW 6808   2.413   0.875   6.082
 1970SOL    HW1 6809   2.324   0.833   6.064
 1970SOL    HW2 6810   2.477   0.852   6.009
 1971SOL     OW 6811   6.734   6.941   6.433
 1971SOL    HW1 6812   6.831   6.917   6.439
 1971SOL    HW2 6813   6.709   6.960   6.338
 1972SOL     OW 6814   0.358   3.110   3.096
 1972SOL    HW1 6815   0.379   3.012   3.093
 1972SOL    HW2 6816   0.377   3.146   3.187
 1973SOL     OW 6817   3.181   3.053   1.588
 1973SOL    HW1 6818   3.272   3.032   1.622
 1973SOL    HW2 6819   3.176   3.034   1.490
 1974SOL     OW 6820   6.194   6.142   3.913
 1974SOL    HW1 6821   6.213   6.136   4.011
 1974SOL    HW2 6822   6.188   6.238   3.886
 1975SOL     OW 6823   2.247   0.898   3.439
 1975SOL    HW1 6824   2.293   0.809   3.441
 1975SOL    HW2 6825   2.177   0.901   3.510
 1976SOL     OW 6826   0.386   5.966   0.336
 1976SOL    HW1 6827   0.440   6.031   0.281
 1976SOL    HW2 6828   0.290   5.970   0.308
 1977SOL     OW 6829   1.113   2.943   3.460
 1977SOL    HW1 6830   1.031   2.964   3.512
 1977SOL    HW2 6831   1.167   2.874   3.509
 1978SOL     OW 6832   1.776   1.073   4.373
 1978SOL    HW1 6833   1.746   1.070   4.278
 1978SOL    HW2 6834   1.721   1.009   4.427
 1979SOL     OW 6835   0.032   4.407   4.833
 1979SOL    HW1 6836   6.999   4.449   4.762
 1979SOL    HW2 6837   0.126   4.401   4.801
 1980SOL     OW 6838   3.123   6.829   0.375
 1980SOL    HW1 6839   3.183   6.753   0.402
 1980SOL    HW2 6840   3.178   6.912   0.367
 1981SOL     OW 6841   5.249   2.199   2.499
 1981SOL    HW1 6842   5.180   2.175   2.567
 1981SOL    HW2 6843   5.257   2.125   2.432
 1982SOL     OW 6844   5.861   4.701   5.014
 1982SOL    HW1 6845   5.772   4.660   5.035
 1982SOL    HW2 6846   5.923   4.685   5.091
 1983SOL     OW 6847   1.055   2.372   2.440
 1983SOL    HW1 6848   0.996   2.407   2.513
 1983SOL    HW2 6849   1.052   2.272   2.440
 1984SOL     OW 6850   4.846   1.199   5.613
 1984SOL    HW1 6851   4.837   1.263   5.689
 1984SOL    HW2 6852   4.770   1.211   5.550
 1985SOL     OW 6853   1.265   1.354   2.604
 1985SOL    HW1 6854   1.187   1.297   2.624
 1985SOL    HW2 6855   1.348   1.298   2.599
 1986SOL     OW 6856   1.181   1.657   6.974
 1986SOL    HW1 6857   1.232   1.572   6.966
 1986SOL    HW2 6858   1.228   1.719   0.013
 1987SOL     OW 6859   2.523   3.049   1.359
 1987SOL    HW1 6860   2.593   3.046   1.430
 1987SOL    HW2 6861   2.563   3.080   1.273
 1988SOL     OW 6862   5.265   4.394   0.779
 1988SOL    HW1 6863   5.256   4.340   0.696
 1988SOL    HW2 6864   5.298   4.336   0.854
 1989SOL     OW 6865   2.221   0.717   5.137
 1989SOL    HW1 6866   2.222   0.720   5.037
 1989SOL    HW2 6867   2.234   0.622   5.167
 1990SOL     OW 6868   3.065   0.038   1.821
 1990SOL    HW1 6869   3.013   6.994   1.873
 1990SOL    HW2 6870   3.002   0.104   1.779
 1991SOL     OW 6871   3.366   5.545   5.851
 1991SOL    HW1 6872   3.324   5.631   5.879
 1991SOL    HW2 6873   3.375   5.544   5.751
 1992SOL     OW 6874   2.422   6.566   6.040
 1992SOL    HW1 6875   2.504   6.510   6.036
 1992SOL    HW2 6876   2.391   6.588   5.948
 1993SOL     OW 6877   4.084   3.144   5.432
 1993SOL    HW1 6878   4.022   3.215   5.400
 1993SOL    HW2 6879   4.047   3.054   5.410
 1994SOL     OW 6880   1.414   2.115   1.994
 1994SOL    HW1 6881   1.344   2.045   1.981
 1994SOL    HW2 6882   1.451   2.108   2.087
 1995SOL     OW 6883   6.193   2.450   2.234
 1995SOL    HW1 6884   6.258   2.407   2.172
 1995SOL    HW2 6885   6.210   2.548   2.238
 1996SOL     OW 6886   2.816   3.418   1.092
 1996SOL    HW1 6887   2.858   3.458   1.011
 1996SOL    HW2 6888   2.734   3.471   1.117
 1997SOL     OW 6889   5.039   0.518   5.653
 1997SOL    HW1 6890   5.099   0.533   5.732
 1997SOL    HW2 6891   5.067   0.434   5.606
 1998SOL     OW 6892   3.090   3.930   6.149
 1998SOL    HW1 6893   3.174   3.877   6.145
 1998SOL    HW2 6894   3.022   3.880   6.202
 1999SOL     OW 6895   2.958   0.281   1.415
 1999SOL    HW1 6896   2.960   0.280   1.515
 1999SOL    HW2 6897   2.888   0.346   1.384
 2000SOL     OW 6898   4.065   1.595   5.191
 2000SOL    HW1 6899   3.983   1.595   5.248
 2000SOL    HW2 6900   4.039   1.612   5.096
 2001SOL     OW 6901   3.436   2.368   1.708
 2001SOL    HW1 6902   3.510   2.343   1.770
 2001SOL    HW2 6903   3.400   2.458   1.732
 2002SOL     OW 6904   1.177   6.028   6.306
 2002SOL    HW1 6905   1.191   6.122   6.338
 2002SOL    HW2 6906   1.258   5.999   6.254
 2003SOL     OW 6907   4.820   0.054   3.380
 2003SOL    HW1 6908   4.799   0.123   3.310
 2003SOL    HW2 6909   4.775   6.992   3.358
 2004SOL     OW 6910   4.931   1.140   4.728
 2004SOL    HW1 6911   4.855   1.076   4.727
 2004SOL    HW2 6912   4.897   1.231   4.756
 2005SOL     OW 6913   1.698   5.716   0.122
 2005SOL    HW1 6914   1.796   5.729   0.105
 2005SOL    HW2 6915   1.666   5.634   0.077
 2006SOL     OW 6916   5.097   4.032   3.387
 2006SOL    HW1 6917   5.051   4.087   3.317
 2006SOL    HW2 6918   5.041   4.031   3.470
 2007SOL     OW 6919   4.525   5.637   0.704
 2007SOL    HW1 6920   4.550   5.615   0.798
 2007SOL    HW2 6921   4.525   5.553   0.649
 2008SOL     OW 6922   0.303   5.744   3.700
 2008SOL    HW1 6923   0.255   5.662   3.668
 2008SOL    HW2 6924   0.270   5.769   3.791
 2009SOL     OW 6925   6.815   0.337   1.558
 2009SOL    HW1 6926   6.832   0.425   1.602
 2009SOL    HW2 6927   6.845   0.262   1.617
 2010SOL     OW 6928   1.602   1.044   0.714
 2010SOL    HW1 6929   1.664   1.103   0.766
 2010SOL    HW2 6930   1.625   1.050   0.617
 2011SOL     OW 6931   6.149   2.009   4.718
 2011SOL    HW1 6932   6.051   2.006   4.697
 2011SOL    HW2 6933   6.186   2.098   4.694
 2012SOL     OW 6934   0.436   3.679   1.071
 2012SOL    HW1 6935   0.450   3.634   0.983
 2012SOL    HW2 6936   0.480   3.768   1.070
 2013SOL     OW 6937   5.728   0.969   3.348
 2013SOL    HW1 6938   5.679   1.024   3.281
 2013SOL    HW2 6939   5.666   0.942   3.421
 2014SOL     OW 6940   1.268   5.348   3.189
 2014SOL    HW1 6941   1.211   5.429   3.202
 2014SOL    HW2 6942   1.247   5.281   3.260
 2015SOL     OW 6943   2.584   1.315   6.647
 2015SOL    HW1 6944   2.488   1.342   6.648
 2015SOL    HW2 6945   2.602   1.259   6.565
 2016SOL     OW 6946   0.641   6.114   5.068
 2016SOL    HW1 6947   0.682   6.098   5.158
 2016SOL    HW2 6948   0.703   6.171   5.013
 2017SOL     OW 6949   3.532   6.868   3.342
 2017SOL    HW1 6950   3.566   6.956   3.374
 2017SOL    HW2 6951   3.438   6.854   3.375
 2018SOL     OW 6952   6.188   5.676   5.740
 2018SOL    HW1 6953   6.198   5.580   5.713
 2018SOL    HW2 6954   6.234   5.735   5.673
 2019SOL     OW 6955   5.190   3.046   2.044
 2019SOL    HW1 6956   5.161   3.005   2.131
 2019SOL    HW2 6957   5.195   3.145   2.055
 2020SOL     OW 6958   1.322   4.990   4.925
 2020SOL    HW1 6959   1.392   5.000   4.854
 2020SOL    HW2 6960   1.239   5.037   4.897
 2021SOL     OW 6961   2.186   0.046   3.098
 2021SOL    HW1 6962   2.101   0.026   3.049
 2021SOL    HW2 6963   2.232   0.124   3.056
 2022SOL     OW 6964   1.823   3.772   2.030
 2022SOL    HW1 6965   1.738   3.775   1.977
 2022SOL    HW2 6966   1.864   3.863   2.032
 2023SOL     OW 6967   0.039   1.990   0.298
 2023SOL    HW1 6968   0.103   2.065   0.311
 2023SOL    HW2 6969   6.969   2.027   0.290
 2024SOL     OW 6970   6.451   0.771   2.850
 2024SOL    HW1 6971   6.481   0.768   2.754
 2024SOL    HW2 6972   6.499   0.844   2.898
 2025SOL     OW 6973   1.678   2.839   1.641
 2025SOL    HW1 6974   1.726   2.875   1.722
 2025SOL    HW2 6975   1.713   2.747   1.620
 2026SOL     OW 6976   1.462   2.420   5.852
 2026SOL    HW1 6977   1.433   2.367   5.932
 2026SOL    HW2 6978   1.391   2.485   5.827
 2027SOL     OW 6979   1.176   1.101   1.182
 2027SOL    HW1 6980   1.263   1.099   1.231
 2027SOL    HW2 6981   1.111   1.160   1.231
 2028SOL     OW 6982   3.321   1.519   6.759
 2028SOL    HW1 6983   3.335   1.458   6.837
 2028SOL    HW2 6984   3.376   1.602   6.772
 2029SOL     OW 6985   0.192   0.620   6.971
 2029SOL    HW1 6986   0.128   0.636   6.895
 2029SOL    HW2 6987   0.177   0.689   0.018
 2030SOL     OW 6988   1.734   1.872   3.697
 2030SOL    HW1 6989   1.665   1.910   3.759
 2030SOL    HW2 6990   1.688   1.831   3.618
 2031SOL     OW 6991   5.088   6.188   2.108
 2031SOL    HW1 6992   5.037   6.107   2.136
 2031SOL    HW2 6993   5.029   6.247   2.052
 2032SOL     OW 6994   5.644   5.794   0.927
 2032SOL    HW1 6995   5.606   5.718   0.979
 2032SOL    HW2 6996   5.658   5.872   0.988
 2033SOL     OW 6997   3.606   4.364   7.002
 2033SOL    HW1 6998   3.576   4.285   6.949
 2033SOL    HW2 6999   3.527   4.419   0.005
 2034SOL     OW 7000   2.369   6.381   3.903
 2034SOL    HW1 7001   2.359   6.285   3.875
 2034SOL    HW2 7002   2.296   6.435   3.862
 2035SOL     OW 7003   0.200   1.031   2.587
 2035SOL    HW1 7004   0.206   0.945   2.638
 2035SOL    HW2 7005   0.105   1.063   2.588
 2036SOL     OW 7006   0.044   6.142   2.057
 2036SOL    HW1 7007   7.013   6.060   2.074
 2036SOL    HW2 7008   0.125   6.119   2.004
 2037SOL     OW 7009   6.229   2.105   5.924
 2037SOL    HW1 7010   6.282   2.054   5.992
 2037SOL    HW2 7011   6.239   2.062   5.834
 2038SOL     OW 7012   0.613   1.795   7.008
 2038SOL    HW1 7013   0.686   1.818   0.049
 2038SOL    HW2 7014   0.628   1.703   6.972
 2039SOL     OW 7015   0.525   5.761   3.352
 2039SOL    HW1 7016   0.456   5.781   3.283
 2039SOL    HW2 7017   0.506   5.814   3.434
 2040SOL     OW 7018   3.127   3.092   5.148
 2040SOL    HW1 7019   3.174   3.179   5.160
 2040SOL    HW2 7020   3.068   3.096   5.067
 2041SOL     OW 7021   6.840   6.220   6.859
 2041SOL    HW1 7022   6.810   6.312   6.834
 2041SOL    HW2 7023   6.871   6.172   6.777
 2042SOL     OW 7024   5.897   5.470   6.928
 2042SOL    HW1 7025   5.981   5.516   6.899
 2042SOL    HW2 7026   5.849   5.528   6.995
 2043SOL     OW 7027   6.522   4.429   2.422
 2043SOL    HW1 7028   6.485   4.432   2.515
 2043SOL    HW2 7029   6.492   4.510   2.371
 2044SOL     OW 7030   5.002   0.386   2.162
 2044SOL    HW1 7031   5.070   0.457   2.141
 2044SOL    HW2 7032   5.049   0.298   2.173
 2045SOL     OW 7033   2.009   4.285   5.344
 2045SOL    HW1 7034   2.089   4.269   5.286
 2045SOL    HW2 7035   2.023   4.242   5.433
 2046SOL     OW 7036   0.081   0.610   4.370
 2046SOL    HW1 7037   0.124   0.527   4.405
 2046SOL    HW2 7038   7.006   0.595   4.357
 2047SOL     OW 7039   4.297   2.178   0.200
 2047SOL    HW1 7040   4.350   2.255   0.235
 2047SOL    HW2 7041   4.254   2.203   0.114
 2048SOL     OW 7042   4.079   6.353   0.008
 2048SOL    HW1 7043   4.079   6.254   0.017
 2048SOL    HW2 7044   3.987   6.384   7.008
 2049SOL     OW 7045   4.407   1.932   6.357
 2049SOL    HW1 7046   4.436   1.915   6.263
 2049SOL    HW2 7047   4.322   1.985   6.356
 2050SOL     OW 7048   6.055   2.957   3.753
 2050SOL    HW1 7049   6.117   2.879   3.769
 2050SOL    HW2 7050   5.961   2.924   3.751
 2051SOL     OW 7051   6.635   4.774   6.690
 2051SOL    HW1 7052   6.680   4.740   6.608
 2051SOL    HW2 7053   6.667   4.867   6.710
 2052SOL     OW 7054   0.664   3.759   6.858
 2052SOL    HW1 7055   0.689   3.667   6.887
 2052SOL    HW2 7056   0.579   3.786   6.904
 2053SOL     OW 7057   6.447   0.374   0.927
 2053SOL    HW1 7058   6.444   0.454   0.866
 2053SOL    HW2 7059   6.495   0.398   1.011
 2054SOL     OW 7060   5.351   3.009   1.671
 2054SOL    HW1 7061   5.361   2.964   1.583
 2054SOL    HW2 7062   5.365   2.942   1.744
 2055SOL     OW 7063   6.131   3.237   2.654
 2055SOL    HW1 7064   6.100   3.205   2.564
 2055SOL    HW2 7065   6.177   3.163   2.702
 2056SOL     OW 7066   2.141   1.251   2.703
 2056SOL    HW1 7067   2.091   1.228   2.620
 2056SOL    HW2 7068   2.084   1.307   2.763
 2057SOL     OW 7069   5.255   2.606   3.606
 2057SOL    HW1 7070   5.346   2.633   3.638
 2057SOL    HW2 7071   5.263   2.541   3.531
 2058SOL     OW 7072   1.149   1.851   3.382
 2058SOL    HW1 7073   1.232   1.846   3.326
 2058SOL    HW2 7074   1.106   1.762   3.386
 2059SOL     OW 7075   2.669   6.477   5.827
 2059SOL    HW1 7076   2.678   6.441   5.921
 2059SOL    HW2 7077   2.751   6.454   5.775
 2060SOL     OW 7078   6.545   4.038   0.829
 2060SOL    HW1 7079   6.458   4.087   0.838
 2060SOL    HW2 7080   6.577   4.043   0.734
 2061SOL     OW 7081   0.752   1.911   3.159
 2061SOL    HW1 7082   0.702   1.973   3.219
 2061SOL    HW2 7083   0.845   1.944   3.146
 2062SOL     OW 7084   5.525   0.500   3.013
 2062SOL    HW1 7085   5.546   0.576   2.951
 2062SOL    HW2 7086   5.606   0.479   3.068
 2063SOL     OW 7087   0.501   1.689   6.111
 2063SOL    HW1 7088   0.426   1.645   6.161
 2063SOL    HW2 7089   0.533   1.627   6.039
 2064SOL     OW 7090   0.736   1.552   5.448
 2064SOL    HW1 7091   0.741   1.606   5.365
 2064SOL    HW2 7092   0.817   1.494   5.456
 2065SOL     OW 7093   6.537   4.038   2.485
 2065SOL    HW1 7094   6.592   4.075   2.410
 2065SOL    HW2 7095   6.530   3.938   2.475
 2066SOL     OW 7096   0.771   6.067   4.165
 2066SOL    HW1 7097   0.839   6.066   4.092
 2066SOL    HW2 7098   0.806   6.016   4.244
 2067SOL     OW 7099   0.721   6.763   0.546
 2067SOL    HW1 7100   0.756   6.756   0.453
 2067SOL    HW2 7101   0.639   6.706   0.556
 2068SOL     OW 7102   0.991   1.423   5.412
 2068SOL    HW1 7103   1.081   1.453   5.443
 2068SOL    HW2 7104   0.999   1.333   5.368
 2069SOL     OW 7105   0.755   2.736   3.642
 2069SOL    HW1 7106   0.850   2.735   3.672
 2069SOL    HW2 7107   0.703   2.801   3.696
 2070SOL     OW 7108   1.764   6.916   2.194
 2070SOL    HW1 7109   1.766   7.002   2.244
 2070SOL    HW2 7110   1.816   6.926   2.109
 2071SOL     OW 7111   6.618   6.078   5.322
 2071SOL    HW1 7112   6.526   6.117   5.332
 2071SOL    HW2 7113   6.640   6.069   5.225
 2072SOL     OW 7114   4.622   6.174   1.807
 2072SOL    HW1 7115   4.630   6.231   1.726
 2072SOL    HW2 7116   4.702   6.114   1.814
 2073SOL     OW 7117   3.574   6.945   4.702
 2073SOL    HW1 7118   3.573   6.916   4.798
 2073SOL    HW2 7119   3.623   0.008   4.694
 2074SOL     OW 7120   0.749   2.832   6.687
 2074SOL    HW1 7121   0.709   2.793   6.603
 2074SOL    HW2 7122   0.846   2.811   6.690
 2075SOL     OW 7123   5.212   2.236   1.377
 2075SOL    HW1 7124   5.300   2.284   1.378
 2075SOL    HW2 7125   5.171   2.240   1.468
 2076SOL     OW 7126   5.115   6.690   0.438
 2076SOL    HW1 7127   5.181   6.634   0.388
 2076SOL    HW2 7128   5.071   6.754   0.375
 2077SOL     OW 7129   4.820   2.889   2.272
 2077SOL    HW1 7130   4.897   2.831   2.244
 2077SOL    HW2 7131   4.789   2.942   2.193
 2078SOL     OW 7132   1.814   6.039   6.751
 2078SOL    HW1 7133   1.870   6.009   6.675
 2078SOL    HW2 7134   1.762   5.961   6.787
 2079SOL     OW 7135   5.805   1.416   3.801
 2079SOL    HW1 7136   5.816   1.495   3.740
 2079SOL    HW2 7137   5.745   1.349   3.759
 2080SOL     OW 7138   1.799   1.272   4.637
 2080SOL    HW1 7139   1.852   1.267   4.552
 2080SOL    HW2 7140   1.809   1.187   4.688
 2081SOL     OW 7141   1.796   5.858   5.333
 2081SOL    HW1 7142   1.774   5.854   5.430
 2081SOL    HW2 7143   1.895   5.872   5.322
 2082SOL     OW 7144   6.737   0.420   2.728
 2082SOL    HW1 7145   6.768   0.459   2.641
 2082SOL    HW2 7146   6.797   0.451   2.802
 2083SOL     OW 7147   4.549   4.265   6.497
 2083SOL    HW1 7148   4.629   4.239   6.442
 2083SOL    HW2 7149   4.475   4.199   6.481
 2084SOL     OW 7150   0.100   4.488   3.843
 2084SOL    HW1 7151   0.038   4.511   3.768
 2084SOL    HW2 7152   0.081   4.547   3.921
 2085SOL     OW 7153   5.106   1.250   0.425
 2085SOL    HW1 7154   5.006   1.247   0.420
 2085SOL    HW2 7155   5.134   1.293   0.511
 2086SOL     OW 7156   2.992   6.374   5.321
 2086SOL    HW1 7157   3.031   6.456   5.363
 2086SOL    HW2 7158   2.999   6.298   5.386
 2087SOL     OW 7159   4.555   0.291   1.906
 2087SOL    HW1 7160   4.559   0.272   2.004
 2087SOL    HW2 7161   4.617   0.366   1.883
 2088SOL     OW 7162   2.670   5.688   1.095
 2088SOL    HW1 7163   2.656   5.777   1.052
 2088SOL    HW2 7164   2.765   5.659   1.080
 2089SOL     OW 7165   4.463   1.439   6.846
 2089SOL    HW1 7166   4.557   1.419   6.876
 2089SOL    HW2 7167   4.462   1.452   6.747
 2090SOL     OW 7168   4.189   3.492   5.012
 2090SOL    HW1 7169   4.155   3.398   5.011
 2090SOL    HW2 7170   4.209   3.520   5.106
 2091SOL     OW 7171   6.831   5.746   0.062
 2091SOL    HW1 7172   6.768   5.697   0.002
 2091SOL    HW2 7173   6.780   5.787   0.138
 2092SOL     OW 7174   5.017   6.039   0.456
 2092SOL    HW1 7175   5.046   6.080   0.543
 2092SOL    HW2 7176   4.986   5.945   0.472
 2093SOL     OW 7177   1.786   2.570   1.562
 2093SOL    HW1 7178   1.788   2.470   1.561
 2093SOL    HW2 7179   1.845   2.604   1.635
 2094SOL     OW 7180   5.453   1.949   1.861
 2094SOL    HW1 7181   5.383   1.922   1.927
 2094SOL    HW2 7182   5.498   2.033   1.892
 2095SOL     OW 7183   5.161   0.304   4.660
 2095SOL    HW1 7184   5.255   0.281   4.683
 2095SOL    HW2 7185   5.102   0.224   4.676
 2096SOL     OW 7186   4.721   4.226   2.881
 2096SOL    HW1 7187   4.687   4.246   2.789
 2096SOL    HW2 7188   4.816   4.257   2.889
 2097SOL     OW 7189   1.213   3.044   0.099
 2097SOL    HW1 7190   1.312   3.029   0.098
 2097SOL    HW2 7191   1.168   2.973   0.045
 2098SOL     OW 7192   4.071   5.339   3.249
 2098SOL    HW1 7193   4.043   5.360   3.155
 2098SOL    HW2 7194   4.066   5.240   3.263
 2099SOL     OW 7195   2.639   2.720   5.296
 2099SOL    HW1 7196   2.575   2.792   5.324
 2099SOL    HW2 7197   2.730   2.742   5.330
 2100SOL     OW 7198   3.589   3.509   5.539
 2100SOL    HW1 7199   3.568   3.486   5.444
 2100SOL    HW2 7200   3.671   3.567   5.542
 2101SOL     OW 7201   1.620   6.365   3.106
 2101SOL    HW1 7202   1.582   6.447   3.064
 2101SOL    HW2 7203   1.549   6.293   3.109
 2102SOL     OW 7204   6.871   5.255   1.941
 2102SOL    HW1 7205   6.773   5.267   1.927
 2102SOL    HW2 7206   6.911   5.214   1.859
 2103SOL     OW 7207   2.945   3.229   6.332
 2103SOL    HW1 7208   3.034   3.223   6.377
 2103SOL    HW2 7209   2.887   3.294   6.380
 2104SOL     OW 7210   1.157   3.466   6.346
 2104SOL    HW1 7211   1.215   3.394   6.384
 2104SOL    HW2 7212   1.074   3.425   6.306
 2105SOL     OW 7213   4.581   5.279   4.084
 2105SOL    HW1 7214   4.636   5.268   4.167
 2105SOL    HW2 7215   4.491   5.314   4.109
 2106SOL     OW 7216   4.669   4.744   0.196
 2106SOL    HW1 7217   4.757   4.784   0.170
 2106SOL    HW2 7218   4.672   4.716   0.292
 2107SOL     OW 7219   4.406   2.880   5.688
 2107SOL    HW1 7220   4.395   2.924   5.599
 2107SOL    HW2 7221   4.487   2.821   5.686
 2108SOL     OW 7222   6.957   6.262   5.558
 2108SOL    HW1 7223   6.950   6.246   5.459
 2108SOL    HW2 7224   6.872   6.234   5.602
 2109SOL     OW 7225   4.701   6.449   3.090
 2109SOL    HW1 7226   4.649   6.457   3.175
 2109SOL    HW2 7227   4.688   6.533   3.036
 2110SOL     OW 7228   2.633   2.876   5.963
 2110SOL    HW1 7229   2.605   2.915   5.876
 2110SOL    HW2 7230   2.708   2.930   6.001
 2111SOL     OW 7231   0.625   1.780   6.590
 2111SOL    HW1 7232   0.631   1.781   6.490
 2111SOL    HW2 7233   0.717   1.790   6.629
 2112SOL     OW 7234   4.705   2.343   1.216
 2112SOL    HW1 7235   4.769   2.282   1.262
 2112SOL    HW2 7236   4.647   2.388   1.283
 2113SOL     OW 7237   1.521   0.469   4.944
 2113SOL    HW1 7238   1.527   0.538   5.016
 2113SOL    HW2 7239   1.466   0.504   4.868
 2114SOL     OW 7240   1.216   3.154   0.669
 2114SOL    HW1 7241   1.166   3.071   0.694
 2114SOL    HW2 7242   1.298   3.130   0.617
 2115SOL     OW 7243   2.229   4.087   2.851
 2115SOL    HW1 7244   2.244   4.186   2.860
 2115SOL    HW2 7245   2.209   4.065   2.756
 2116SOL     OW 7246   0.023   4.786   3.327
 2116SOL    HW1 7247   6.980   4.725   3.370
 2116SOL    HW2 7248   0.097   4.806   3.392
 2117SOL     OW 7249   6.930   4.461   1.119
 2117SOL    HW1 7250   6.896   4.449   1.025
 2117SOL    HW2 7251   6.899   4.385   1.176
 2118SOL     OW 7252   6.814   3.567   1.873
 2118SOL    HW1 7253   6.828   3.579   1.971
 2118SOL    HW2 7254   6.744   3.498   1.857
 2119SOL     OW 7255   2.543   5.290   1.004
 2119SOL    HW1 7256   2.631   5.244   1.013
 2119SOL    HW2 7257   2.513   5.323   1.094
 2120SOL     OW 7258   0.178   4.867   4.204
 2120SOL    HW1 7259   0.223   4.783   4.174
 2120SOL    HW2 7260   0.235   4.913   4.272
 2121SOL     OW 7261   0.400   4.564   5.781
 2121SOL    HW1 7262   0.364   4.533   5.869
 2121SOL    HW2 7263   0.446   4.488   5.735
 2122SOL     OW 7264   5.981   4.330   5.468
 2122SOL    HW1 7265   6.038   4.295   5.393
 2122SOL    HW2 7266   5.963   4.256   5.533
 2123SOL     OW 7267   6.640   4.796   1.917
 2123SOL    HW1 7268   6.604   4.865   1.979
 2123SOL    HW2 7269   6.740   4.803   1.913
 2124SOL     OW 7270   2.371   1.566   1.933
 2124SOL    HW1 7271   2.410   1.480   1.902
 2124SOL    HW2 7272   2.432   1.641   1.907
 2125SOL     OW 7273   1.943   0.283   0.339
 2125SOL    HW1 7274   1.876   0.336   0.288
 2125SOL    HW2 7275   1.907   0.191   0.357
 2126SOL     OW 7276   3.160   1.042   1.012
 2126SOL    HW1 7277   3.110   0.961   1.044
 2126SOL    HW2 7278   3.097   1.105   0.968
 2127SOL     OW 7279   6.585   3.611   4.128
 2127SOL    HW1 7280   6.646   3.596   4.206
 2127SOL    HW2 7281   6.533   3.527   4.109
 2128SOL     OW 7282   6.565   3.858   4.546
 2128SOL    HW1 7283   6.524   3.813   4.467
 2128SOL    HW2 7284   6.601   3.948   4.519
 2129SOL     OW 7285   4.610   2.976   5.363
 2129SOL    HW1 7286   4.517   2.984   5.397
 2129SOL    HW2 7287   4.610   2.929   5.275
 2130SOL     OW 7288   3.927   0.037   2.715
 2130SOL    HW1 7289   3.965   0.118   2.760
 2130SOL    HW2 7290   3.835   0.018   2.751
 2131SOL     OW 7291   6.918   0.922   1.451
 2131SOL    HW1 7292   6.927   0.823   1.457
 2131SOL    HW2 7293   6.926   0.951   1.356
 2132SOL     OW 7294   4.082   1.972   1.556
 2132SOL    HW1 7295   4.010   1.953   1.623
 2132SOL    HW2 7296   4.074   1.909   1.479
 2133SOL     OW 7297   2.332   2.939   6.091
 2133SOL    HW1 7298   2.233   2.951   6.092
 2133SOL    HW2 7299   2.360   2.896   6.005
 2134SOL     OW 7300   0.624   2.484   0.522
 2134SOL    HW1 7301   0.549   2.479   0.588
 2134SOL    HW2 7302   0.705   2.524   0.566
 2135SOL     OW 7303   0.913   3.916   4.863
 2135SOL    HW1 7304   0.987   3.932   4.797
 2135SOL    HW2 7305   0.899   3.998   4.918
 2136SOL     OW 7306   2.055   4.429   2.656
 2136SOL    HW1 7307   2.032   4.522   2.628
 2136SOL    HW2 7308   2.013   4.364   2.592
 2137SOL     OW 7309   2.457   5.419   5.453
 2137SOL    HW1 7310   2.522   5.395   5.381
 2137SOL    HW2 7311   2.419   5.336   5.494
 2138SOL     OW 7312   6.220   6.669   3.077
 2138SOL    HW1 7313   6.305   6.662   3.025
 2138SOL    HW2 7314   6.187   6.577   3.099
 2139SOL     OW 7315   4.403   0.721   4.061
 2139SOL    HW1 7316   4.498   0.720   4.092
 2139SOL    HW2 7317   4.344   0.754   4.135
 2140SOL     OW 7318   2.791   6.795   4.227
 2140SOL    HW1 7319   2.697   6.772   4.252
 2140SOL    HW2 7320   2.794   6.822   4.130
 2141SOL     OW 7321   6.560   2.847   2.352
 2141SOL    HW1 7322   6.482   2.905   2.377
 2141SOL    HW2 7323   6.644   2.885   2.390
 2142SOL     OW 7324   1.031   1.605   3.418
 2142SOL    HW1 7325   1.091   1.552   3.477
 2142SOL    HW2 7326   0.942   1.561   3.412
 2143SOL     OW 7327   3.056   5.169   1.467
 2143SOL    HW1 7328   3.151   5.149   1.442
 2143SOL    HW2 7329   3.027   5.104   1.538
 2144SOL     OW 7330   0.773   5.735   4.853
 2144SOL    HW1 7331   0.848   5.722   4.788
 2144SOL    HW2 7332   0.686   5.719   4.806
 2145SOL     OW 7333   3.937   6.403   4.482
 2145SOL    HW1 7334   3.875   6.350   4.539
 2145SOL    HW2 7335   3.921   6.501   4.496
 2146SOL     OW 7336   2.562   2.520   0.984
 2146SOL    HW1 7337   2.477   2.498   0.936
 2146SOL    HW2 7338   2.579   2.453   1.056
 2147SOL     OW 7339   5.693   1.187   0.032
 2147SOL    HW1 7340   5.597   1.161   0.016
 2147SOL    HW2 7341   5.697   1.262   0.098
 2148SOL     OW 7342   6.250   3.725   6.074
 2148SOL    HW1 7343   6.285   3.677   6.154
 2148SOL    HW2 7344   6.246   3.662   5.996
 2149SOL     OW 7345   2.425   1.489   1.200
 2149SOL    HW1 7346   2.490   1.537   1.142
 2149SOL    HW2 7347   2.338   1.539   1.202
 2150SOL     OW 7348   2.189   2.450   1.768
 2150SOL    HW1 7349   2.283   2.428   1.742
 2150SOL    HW2 7350   2.189   2.531   1.828
 2151SOL     OW 7351   1.518   6.147   6.358
 2151SOL    HW1 7352   1.570   6.229   6.383
 2151SOL    HW2 7353   1.459   6.167   6.280
 2152SOL     OW 7354   4.489   4.481   2.467
 2152SOL    HW1 7355   4.488   4.488   2.367
 2152SOL    HW2 7356   4.432   4.553   2.506
 2153SOL     OW 7357   4.201   1.995   2.410
 2153SOL    HW1 7358   4.205   1.915   2.469
 2153SOL    HW2 7359   4.253   1.978   2.326
 2154SOL     OW 7360   3.458   6.980   4.080
 2154SOL    HW1 7361   3.466   6.909   4.010
 2154SOL    HW2 7362   3.549   7.000   4.117
 2155SOL     OW 7363   4.270   0.094   1.172
 2155SOL    HW1 7364   4.317   0.179   1.196
 2155SOL    HW2 7365   4.296   0.066   1.080
 2156SOL     OW 7366   0.142   0.312   5.074
 2156SOL    HW1 7367   0.091   0.393   5.101
 2156SOL    HW2 7368   0.209   0.289   5.145
 2157SOL     OW 7369   5.348   6.143   3.402
 2157SOL    HW1 7370   5.314   6.084   3.476
 2157SOL    HW2 7371   5.347   6.238   3.432
 2158SOL     OW 7372   3.640   5.916   0.305
 2158SOL    HW1 7373   3.712   5.973   0.264
 2158SOL    HW2 7374   3.681   5.840   0.355
 2159SOL     OW 7375   1.347   0.789   5.008
 2159SOL    HW1 7376   1.270   0.771   4.947
 2159SOL    HW2 7377   1.320   0.767   5.102
 2160SOL     OW 7378   4.863   4.624   6.731
 2160SOL    HW1 7379   4.931   4.616   6.658
 2160SOL    HW2 7380   4.777   4.583   6.701
 2161SOL     OW 7381   6.435   4.359   1.898
 2161SOL    HW1 7382   6.444   4.298   1.976
 2161SOL    HW2 7383   6.339   4.363   1.870
 2162SOL     OW 7384   2.888   0.081   2.638
 2162SOL    HW1 7385   2.795   0.077   2.602
 2162SOL    HW2 7386   2.950   0.112   2.566
 2163SOL     OW 7387   1.800   4.962   0.548
 2163SOL    HW1 7388   1.870   4.997   0.610
 2163SOL    HW2 7389   1.786   4.864   0.564
 2164SOL     OW 7390   1.973   2.178   6.330
 2164SOL    HW1 7391   1.987   2.264   6.378
 2164SOL    HW2 7392   1.876   2.167   6.309
 2165SOL     OW 7393   0.512   2.278   3.532
 2165SOL    HW1 7394   0.476   2.336   3.460
 2165SOL    HW2 7395   0.470   2.303   3.619
 2166SOL     OW 7396   0.528   3.811   4.282
 2166SOL    HW1 7397   0.627   3.804   4.269
 2166SOL    HW2 7398   0.481   3.788   4.197
 2167SOL     OW 7399   0.460   2.893   3.776
 2167SOL    HW1 7400   0.532   2.948   3.818
 2167SOL    HW2 7401   0.416   2.946   3.703
 2168SOL     OW 7402   0.932   1.717   2.947
 2168SOL    HW1 7403   0.870   1.643   2.924
 2168SOL    HW2 7404   0.985   1.693   3.028
 2169SOL     OW 7405   6.336   0.810   1.216
 2169SOL    HW1 7406   6.331   0.892   1.274
 2169SOL    HW2 7407   6.422   0.763   1.231
 2170SOL     OW 7408   6.982   4.246   5.040
 2170SOL    HW1 7409   0.013   4.163   5.051
 2170SOL    HW2 7410   6.999   4.286   4.949
 2171SOL     OW 7411   0.678   5.658   1.449
 2171SOL    HW1 7412   0.613   5.723   1.410
 2171SOL    HW2 7413   0.767   5.703   1.461
 2172SOL     OW 7414   2.251   2.193   5.733
 2172SOL    HW1 7415   2.254   2.122   5.803
 2172SOL    HW2 7416   2.311   2.269   5.760
 2173SOL     OW 7417   4.511   0.574   5.500
 2173SOL    HW1 7418   4.523   0.555   5.402
 2173SOL    HW2 7419   4.413   0.584   5.520
 2174SOL     OW 7420   6.873   6.062   4.825
 2174SOL    HW1 7421   6.937   6.009   4.881
 2174SOL    HW2 7422   6.915   6.081   4.736
 2175SOL     OW 7423   1.735   3.569   4.357
 2175SOL    HW1 7424   1.824   3.525   4.365
 2175SOL    HW2 7425   1.747   3.669   4.355
 2176SOL     OW 7426   5.296   1.831   1.678
 2176SOL    HW1 7427   5.373   1.881   1.718
 2176SOL    HW2 7428   5.217   1.837   1.738
 2177SOL     OW 7429   0.088   0.583   2.517
 2177SOL    HW1 7430   0.136   0.495   2.515
 2177SOL    HW2 7431   7.013   0.566   2.512
 2178SOL     OW 7432   1.673   1.302   1.909
 2178SOL    HW1 7433   1.709   1.212   1.933
 2178SOL    HW2 7434   1.748   1.361   1.880
 2179SOL     OW 7435   2.005   4.211   5.802
 2179SOL    HW1 7436   1.920   4.264   5.807
 2179SOL    HW2 7437   1.984   4.114   5.802
 2180SOL     OW 7438   1.113   3.022   2.316
 2180SOL    HW1 7439   1.083   3.117   2.323
 2180SOL    HW2 7440   1.046   2.970   2.263
 2181SOL     OW 7441   4.283   5.114   3.994
 2181SOL    HW1 7442   4.266   5.074   3.904
 2181SOL    HW2 7443   4.369   5.081   4.031
 2182SOL     OW 7444   1.562   4.900   3.590
 2182SOL    HW1 7445   1.553   4.974   3.656
 2182SOL    HW2 7446   1.533   4.932   3.500
 2183SOL     OW 7447   2.020   4.345   0.010
 2183SOL    HW1 7448   2.021   4.254   6.994
 2183SOL    HW2 7449   2.050   4.412   6.965
 2184SOL     OW 7450   3.923   6.973   6.057
 2184SOL    HW1 7451   3.837   7.019   6.078
 2184SOL    HW2 7452   3.999   0.012   6.076
 2185SOL     OW 7453   0.981   1.140   0.050
 2185SOL    HW1 7454   0.956   1.087   0.132
 2185SOL    HW2 7455   0.924   1.111   6.997
 2186SOL     OW 7456   6.617   5.574   0.245
 2186SOL    HW1 7457   6.624   5.670   0.215
 2186SOL    HW2 7458   6.639   5.567   0.342
 2187SOL     OW 7459   0.408   5.349   1.825
 2187SOL    HW1 7460   0.474   5.315   1.892
 2187SOL    HW2 7461   0.315   5.339   1.862
 2188SOL     OW 7462   1.570   5.525   5.463
 2188SOL    HW1 7463   1.651   5.543   5.408
 2188SOL    HW2 7464   1.590   5.454   5.530
 2189SOL     OW 7465   1.332   6.747   1.423
 2189SOL    HW1 7466   1.299   6.834   1.386
 2189SOL    HW2 7467   1.381   6.697   1.352
 2190SOL     OW 7468   6.484   2.686   1.172
 2190SOL    HW1 7469   6.459   2.761   1.111
 2190SOL    HW2 7470   6.582   2.667   1.164
 2191SOL     OW 7471   2.465   1.955   5.629
 2191SOL    HW1 7472   2.552   1.979   5.587
 2191SOL    HW2 7473   2.390   1.980   5.566
 2192SOL     OW 7474   5.514   1.035   2.640
 2192SOL    HW1 7475   5.445   0.991   2.583
 2192SOL    HW2 7476   5.592   0.973   2.652
 2193SOL     OW 7477   6.664   0.181   6.503
 2193SOL    HW1 7478   6.565   0.166   6.501
 2193SOL    HW2 7479   6.712   0.098   6.474
 2194SOL     OW 7480   1.691   4.086   6.489
 2194SOL    HW1 7481   1.599   4.107   6.520
 2194SOL    HW2 7482   1.696   4.095   6.390
 2195SOL     OW 7483   6.836   6.331   5.882
 2195SOL    HW1 7484   6.924   6.283   5.881
 2195SOL    HW2 7485   6.851   6.428   5.864
 2196SOL     OW 7486   3.041   6.909   4.614
 2196SOL    HW1 7487   3.105   6.953   4.676
 2196SOL    HW2 7488   2.976   6.854   4.666
 2197SOL     OW 7489   2.862   3.690   6.117
 2197SOL    HW1 7490   2.843   3.675   6.020
 2197SOL    HW2 7491   2.935   3.629   6.147
 2198SOL     OW 7492   6.175   0.340   2.061
 2198SOL    HW1 7493   6.120   0.423   2.051
 2198SOL    HW2 7494   6.218   0.339   2.151
 2199SOL     OW 7495   5.165   6.833   4.010
 2199SOL    HW1 7496   5.214   6.866   3.929
 2199SOL    HW2 7497   5.108   6.907   4.047
 2200SOL     OW 7498   2.073   2.375   4.367
 2200SOL    HW1 7499   2.047   2.405   4.275
 2200SOL    HW2 7500   2.169   2.398   4.383
 2201SOL     OW 7501   6.559   2.969   3.008
 2201SOL    HW1 7502   6.511   3.031   3.069
 2201SOL    HW2 7503   6.543   2.996   2.913
 2202SOL     OW 7504   3.807   5.987   1.879
 2202SOL    HW1 7505   3.814   6.065   1.817
 2202SOL    HW2 7506   3.766   5.910   1.831
 2203SOL     OW 7507   2.272   3.428   1.127
 2203SOL    HW1 7508   2.203   3.498   1.146
 2203SOL    HW2 7509   2.273   3.362   1.202
 2204SOL     OW 7510   4.527   2.427   1.031
 2204SOL    HW1 7511   4.579   2.380   1.102
 2204SOL    HW2 7512   4.457   2.366   0.994
 2205SOL     OW 7513   1.428   0.116   6.674
 2205SOL    HW1 7514   1.452   0.190   6.737
 2205SOL    HW2 7515   1.330   0.119   6.655
 2206SOL     OW 7516   3.126   4.325   5.912
 2206SOL    HW1 7517   3.098   4.407   5.861
 2206SOL    HW2 7518   3.197   4.277   5.861
 2207SOL     OW 7519   3.232   4.432   6.791
 2207SOL    HW1 7520   3.296   4.505   6.764
 2207SOL    HW2 7521   3.210   4.376   6.710
 2208SOL     OW 7522   1.398   4.946   3.323
 2208SOL    HW1 7523   1.412   4.852   3.293
 2208SOL    HW2 7524   1.415   5.008   3.246
 2209SOL     OW 7525   2.372   0.127   5.021
 2209SOL    HW1 7526   2.467   0.135   5.051
 2209SOL    HW2 7527   2.314   0.179   5.083
 2210SOL     OW 7528   0.658   4.501   3.824
 2210SOL    HW1 7529   0.745   4.450   3.822
 2210SOL    HW2 7530   0.650   4.557   3.742
 2211SOL     OW 7531   6.967   0.645   1.355
 2211SOL    HW1 7532   0.036   0.609   1.340
 2211SOL    HW2 7533   6.913   0.633   1.272
 2212SOL     OW 7534   2.154   5.801   0.344
 2212SOL    HW1 7535   2.245   5.785   0.382
 2212SOL    HW2 7536   2.143   5.750   0.259
 2213SOL     OW 7537   3.551   1.916   5.206
 2213SOL    HW1 7538   3.514   2.004   5.177
 2213SOL    HW2 7539   3.577   1.920   5.302
 2214SOL     OW 7540   2.896   3.697   4.899
 2214SOL    HW1 7541   2.930   3.777   4.948
 2214SOL    HW2 7542   2.828   3.650   4.955
 2215SOL     OW 7543   5.483   0.749   0.262
 2215SOL    HW1 7544   5.386   0.773   0.258
 2215SOL    HW2 7545   5.506   0.717   0.354
 2216SOL     OW 7546   0.820   0.941   6.621
 2216SOL    HW1 7547   0.894   0.964   6.558
 2216SOL    HW2 7548   0.852   0.873   6.687
 2217SOL     OW 7549   4.111   6.994   2.194
 2217SOL    HW1 7550   4.031   6.946   2.157
 2217SOL    HW2 7551   4.089   0.008   2.283
 2218SOL     OW 7552   0.193   5.151   0.416
 2218SOL    HW1 7553   0.272   5.212   0.404
 2218SOL    HW2 7554   0.216   5.061   0.378
 2219SOL     OW 7555   5.950   1.790   0.847
 2219SOL    HW1 7556   5.920   1.731   0.923
 2219SOL    HW2 7557   5.924   1.885   0.867
 2220SOL     OW 7558   2.278   5.927   5.409
 2220SOL    HW1 7559   2.325   5.961   5.327
 2220SOL    HW2 7560   2.242   6.004   5.461
 2221SOL     OW 7561   5.860   1.627   5.525
 2221SOL    HW1 7562   5.949   1.665   5.501
 2221SOL    HW2 7563   5.790   1.663   5.463
 2222SOL     OW 7564   6.206   0.595   1.352
 2222SOL    HW1 7565   6.269   0.656   1.303
 2222SOL    HW2 7566   6.163   0.532   1.288
 2223SOL     OW 7567   5.986   0.986   5.929
 2223SOL    HW1 7568   6.024   0.895   5.912
 2223SOL    HW2 7569   6.024   1.051   5.863
 2224SOL     OW 7570   6.384   3.917   0.465
 2224SOL    HW1 7571   6.376   3.820   0.489
 2224SOL    HW2 7572   6.476   3.935   0.430
 2225SOL     OW 7573   6.242   6.770   3.948
 2225SOL    HW1 7574   6.315   6.705   3.928
 2225SOL    HW2 7575   6.165   6.722   3.990
 2226SOL     OW 7576   3.669   5.244   1.042
 2226SOL    HW1 7577   3.715   5.163   1.004
 2226SOL    HW2 7578   3.604   5.215   1.112
 2227SOL     OW 7579   5.726   2.462   0.209
 2227SOL    HW1 7580   5.801   2.527   0.218
 2227SOL    HW2 7581   5.665   2.491   0.135
 2228SOL     OW 7582   4.262   5.059   0.866
 2228SOL    HW1 7583   4.208   5.141   0.884
 2228SOL    HW2 7584   4.303   5.066   0.775
 2229SOL     OW 7585   3.807   2.818   5.181
 2229SOL    HW1 7586   3.799   2.838   5.083
 2229SOL    HW2 7587   3.867   2.739   5.194
 2230SOL     OW 7588   6.537   6.604   0.770
 2230SOL    HW1 7589   6.598   6.680   0.749
 2230SOL    HW2 7590   6.450   6.640   0.805
 2231SOL     OW 7591   0.336   1.079   1.480
 2231SOL    HW1 7592   0.360   1.121   1.392
 2231SOL    HW2 7593   0.276   1.141   1.531
 2232SOL     OW 7594   1.266   1.679   4.477
 2232SOL    HW1 7595   1.342   1.729   4.518
 2232SOL    HW2 7596   1.291   1.584   4.464
 2233SOL     OW 7597   2.771   2.880   0.683
 2233SOL    HW1 7598   2.672   2.881   0.698
 2233SOL    HW2 7599   2.790   2.882   0.584
 2234SOL     OW 7600   3.562   1.399   1.002
 2234SOL    HW1 7601   3.576   1.302   0.984
 2234SOL    HW2 7602   3.645   1.437   1.043
 2235SOL     OW 7603   2.915   0.295   1.725
 2235SOL    HW1 7604   2.819   0.291   1.751
 2235SOL    HW2 7605   2.950   0.388   1.741
 2236SOL     OW 7606   2.015   3.942   5.728
 2236SOL    HW1 7607   2.042   3.873   5.661
 2236SOL    HW2 7608   1.937   3.909   5.780
 2237SOL     OW 7609   5.450   4.744   3.906
 2237SOL    HW1 7610   5.530   4.725   3.963
 2237SOL    HW2 7611   5.381   4.792   3.960
 2238SOL     OW 7612   4.731   5.530   1.661
 2238SOL    HW1 7613   4.673   5.479   1.725
 2238SOL    HW2 7614   4.702   5.626   1.660
 2239SOL     OW 7615   3.744   5.453   4.114
 2239SOL    HW1 7616   3.656   5.494   4.138
 2239SOL    HW2 7617   3.761   5.374   4.173
 2240SOL     OW 7618   3.446   5.235   2.784
 2240SOL    HW1 7619   3.541   5.230   2.815
 2240SOL    HW2 7620   3.398   5.305   2.837
 2241SOL     OW 7621   6.963   6.094   2.934
 2241SOL    HW1 7622   0.033   6.066   2.955
 2241SOL    HW2 7623   6.911   6.016   2.900
 2242SOL     OW 7624   5.074   2.816   2.775
 2242SOL    HW1 7625   5.135   2.890   2.748
 2242SOL    HW2 7626   5.119   2.756   2.840
 2243SOL     OW 7627   1.633   6.705   5.893
 2243SOL    HW1 7628   1.580   6.739   5.815
 2243SOL    HW2 7629   1.692   6.630   5.862
 2244SOL     OW 7630   2.505   6.888   0.731
 2244SOL    HW1 7631   2.565   6.939   0.792
 2244SOL    HW2 7632   2.423   6.860   0.781
 2245SOL     OW 7633   0.948   1.224   1.794
 2245SOL    HW1 7634   0.864   1.168   1.795
 2245SOL    HW2 7635   1.028   1.164   1.791
 2246SOL     OW 7636   2.058   0.956   4.362
 2246SOL    HW1 7637   2.092   1.040   4.320
 2246SOL    HW2 7638   1.959   0.960   4.368
 2247SOL     OW 7639   3.391   2.926   3.520
 2247SOL    HW1 7640   3.449   2.892   3.594
 2247SOL    HW2 7641   3.421   2.886   3.434
 2248SOL     OW 7642   6.413   4.144   5.023
 2248SOL    HW1 7643   6.448   4.237   5.035
 2248SOL    HW2 7644   6.483   4.079   5.050
 2249SOL     OW 7645   5.585   6.930   3.310
 2249SOL    HW1 7646   5.661   6.924   3.244
 2249SOL    HW2 7647   5.500   6.903   3.264
 2250SOL     OW 7648   3.497   4.166   4.938
 2250SOL    HW1 7649   3.414   4.203   4.897
 2250SOL    HW2 7650   3.565   4.150   4.866
 2251SOL     OW 7651   5.231   0.267   6.654
 2251SOL    HW1 7652   5.226   0.178   6.699
 2251SOL    HW2 7653   5.324   0.303   6.661
 2252SOL     OW 7654   4.573   1.790   3.144
 2252SOL    HW1 7655   4.474   1.797   3.133
 2252SOL    HW2 7656   4.605   1.860   3.207
 2253SOL     OW 7657   6.914   3.656   6.975
 2253SOL    HW1 7658   6.928   3.752   7.001
 2253SOL    HW2 7659   6.982   3.631   6.906
 2254SOL     OW 7660   3.443   3.176   4.621
 2254SOL    HW1 7661   3.451   3.106   4.550
 2254SOL    HW2 7662   3.376   3.147   4.689
 2255SOL     OW 7663   3.956   3.176   6.054
 2255SOL    HW1 7664   3.974   3.104   5.986
 2255SOL    HW2 7665   3.916   3.134   6.136
 2256SOL     OW 7666   5.111   6.288   1.730
 2256SOL    HW1 7667   5.168   6.369   1.727
 2256SOL    HW2 7668   5.168   6.207   1.746
 2257SOL     OW 7669   0.496   1.939   4.632
 2257SOL    HW1 7670   0.405   1.980   4.632
 2257SOL    HW2 7671   0.505   1.878   4.554
 2258SOL     OW 7672   1.530   5.170   4.369
 2258SOL    HW1 7673   1.446   5.223   4.379
 2258SOL    HW2 7674   1.607   5.222   4.406
 2259SOL     OW 7675   5.221   2.665   5.473
 2259SOL    HW1 7676   5.288   2.597   5.504
 2259SOL    HW2 7677   5.153   2.680   5.544
 2260SOL     OW 7678   0.237   4.676   1.298
 2260SOL    HW1 7679   0.244   4.726   1.212
 2260SOL    HW2 7680   0.245   4.578   1.280
 2261SOL     OW 7681   6.040   4.822   0.269
 2261SOL    HW1 7682   6.026   4.905   0.215
 2261SOL    HW2 7683   6.125   4.778   0.241
 2262SOL     OW 7684   6.065   0.225   3.718
 2262SOL    HW1 7685   5.993   0.189   3.659
 2262SOL    HW2 7686   6.153   0.214   3.673
 2263SOL     OW 7687   3.390   5.687   0.348
 2263SOL    HW1 7688   3.392   5.714   0.252
 2263SOL    HW2 7689   3.295   5.680   0.379
 2264SOL     OW 7690   3.136   5.400   6.256
 2264SOL    HW1 7691   3.143   5.312   6.209
 2264SOL    HW2 7692   3.062   5.397   6.323
 2265SOL     OW 7693   2.475   0.821   3.853
 2265SOL    HW1 7694   2.518   0.835   3.943
 2265SOL    HW2 7695   2.546   0.816   3.783
 2266SOL     OW 7696   5.193   1.327   0.662
 2266SOL    HW1 7697   5.157   1.368   0.746
 2266SOL    HW2 7698   5.289   1.354   0.651
 2267SOL     OW 7699   4.915   3.380   4.820
 2267SOL    HW1 7700   4.855   3.376   4.740
 2267SOL    HW2 7701   4.874   3.438   4.890
 2268SOL     OW 7702   5.985   4.124   6.696
 2268SOL    HW1 7703   6.069   4.073   6.715
 2268SOL    HW2 7704   5.911   4.059   6.677
 2269SOL     OW 7705   0.044   4.469   5.429
 2269SOL    HW1 7706   0.041   4.563   5.397
 2269SOL    HW2 7707   0.118   4.459   5.496
 2270SOL     OW 7708   3.706   2.433   5.908
 2270SOL    HW1 7709   3.686   2.517   5.858
 2270SOL    HW2 7710   3.622   2.395   5.945
 2271SOL     OW 7711   5.791   4.670   0.327
 2271SOL    HW1 7712   5.823   4.575   0.332
 2271SOL    HW2 7713   5.866   4.729   0.296
 2272SOL     OW 7714   6.151   2.042   6.671
 2272SOL    HW1 7715   6.123   1.955   6.631
 2272SOL    HW2 7716   6.077   2.077   6.729
 2273SOL     OW 7717   1.652   1.528   2.230
 2273SOL    HW1 7718   1.581   1.470   2.191
 2273SOL    HW2 7719   1.724   1.542   2.161
 2274SOL     OW 7720   0.769   2.002   6.000
 2274SOL    HW1 7721   0.766   1.917   6.053
 2274SOL    HW2 7722   0.817   2.072   6.052
 2275SOL     OW 7723   6.415   6.529   4.360
 2275SOL    HW1 7724   6.510   6.514   4.387
 2275SOL    HW2 7725   6.369   6.586   4.429
 2276SOL     OW 7726   2.461   5.621   1.889
 2276SOL    HW1 7727   2.381   5.667   1.927
 2276SOL    HW2 7728   2.500   5.560   1.958
 2277SOL     OW 7729   3.619   4.058   4.034
 2277SOL    HW1 7730   3.599   4.106   3.949
 2277SOL    HW2 7731   3.713   4.078   4.063
 2278SOL     OW 7732   6.178   3.720   4.535
 2278SOL    HW1 7733   6.180   3.710   4.436
 2278SOL    HW2 7734   6.111   3.790   4.561
 2279SOL     OW 7735   5.897   6.695   5.983
 2279SOL    HW1 7736   5.807   6.723   5.950
 2279SOL    HW2 7737   5.959   6.773   5.979
 2280SOL     OW 7738   6.922   0.469   4.707
 2280SOL    HW1 7739   6.836   0.488   4.660
 2280SOL    HW2 7740   6.904   0.459   4.805
 2281SOL     OW 7741   3.251   0.603   1.921
 2281SOL    HW1 7742   3.299   0.552   1.993
 2281SOL    HW2 7743   3.283   0.698   1.921
 2282SOL     OW 7744   5.544   6.941   5.360
 2282SOL    HW1 7745   5.621   6.979   5.412
 2282SOL    HW2 7746   5.510   7.010   5.296
 2283SOL     OW 7747   1.337   6.204   2.006
 2283SOL    HW1 7748   1.298   6.295   1.997
 2283SOL    HW2 7749   1.437   6.209   1.994
 2284SOL     OW 7750   1.587   3.000   0.124
 2284SOL    HW1 7751   1.588   3.060   0.044
 2284SOL    HW2 7752   1.680   2.975   0.149
 2285SOL     OW 7753   1.876   2.782   1.230
 2285SOL    HW1 7754   1.945   2.810   1.296
 2285SOL    HW2 7755   1.808   2.723   1.275
 2286SOL     OW 7756   5.831   6.811   3.759
 2286SOL    HW1 7757   5.765   6.852   3.696
 2286SOL    HW2 7758   5.799   6.822   3.853
 2287SOL     OW 7759   2.406   0.041   3.490
 2287SOL    HW1 7760   2.469   0.052   3.567
 2287SOL    HW2 7761   2.356   6.978   3.500
 2288SOL     OW 7762   5.915   4.904   4.073
 2288SOL    HW1 7763   5.941   4.841   4.000
 2288SOL    HW2 7764   5.926   4.998   4.042
 2289SOL     OW 7765   0.697   5.026   0.837
 2289SOL    HW1 7766   0.772   5.091   0.831
 2289SOL    HW2 7767   0.662   5.006   0.745
 2290SOL     OW 7768   0.136   3.518   0.991
 2290SOL    HW1 7769   0.154   3.520   1.089
 2290SOL    HW2 7770   0.221   3.539   0.941
 2291SOL     OW 7771   1.632   2.365   5.132
 2291SOL    HW1 7772   1.554   2.408   5.177
 2291SOL    HW2 7773   1.671   2.295   5.193
 2292SOL     OW 7774   0.492   2.076   4.126
 2292SOL    HW1 7775   0.543   2.152   4.088
 2292SOL    HW2 7776   0.396   2.102   4.138
 2293SOL     OW 7777   5.117   6.232   1.388
 2293SOL    HW1 7778   5.083   6.325   1.400
 2293SOL    HW2 7779   5.068   6.189   1.312
 2294SOL     OW 7780   3.423   0.404   6.867
 2294SOL    HW1 7781   3.350   0.449   6.919
 2294SOL    HW2 7782   3.382   0.343   6.799
 2295SOL     OW 7783   0.580   1.875   2.927
 2295SOL    HW1 7784   0.618   1.793   2.885
 2295SOL    HW2 7785   0.619   1.887   3.018
 2296SOL     OW 7786   4.396   5.205   0.391
 2296SOL    HW1 7787   4.420   5.301   0.401
 2296SOL    HW2 7788   4.450   5.164   0.318
 2297SOL     OW 7789   4.398   4.039   5.392
 2297SOL    HW1 7790   4.392   3.944   5.360
 2297SOL    HW2 7791   4.325   4.057   5.458
 2298SOL     OW 7792   4.004   3.035   1.965
 2298SOL    HW1 7793   3.968   2.965   1.902
 2298SOL    HW2 7794   4.030   2.992   2.051
 2299SOL     OW 7795   4.804   6.307   5.355
 2299SOL    HW1 7796   4.856   6.326   5.438
 2299SOL    HW2 7797   4.707   6.297   5.378
 2300SOL     OW 7798   2.174   5.444   2.400
 2300SOL    HW1 7799   2.218   5.373   2.454
 2300SOL    HW2 7800   2.182   5.421   2.303
 2301SOL     OW 7801   3.027   3.147   2.898
 2301SOL    HW1 7802   2.941   3.113   2.861
 2301SOL    HW2 7803   3.054   3.092   2.977
 2302SOL     OW 7804   3.839   0.359   0.711
 2302SOL    HW1 7805   3.903   0.309   0.769
 2302SOL    HW2 7806   3.880   0.445   0.682
 2303SOL     OW 7807   1.951   3.227   6.367
 2303SOL    HW1 7808   1.960   3.148   6.428
 2303SOL    HW2 7809   1.970   3.199   6.273
 2304SOL     OW 7810   4.330   0.063   3.895
 2304SOL    HW1 7811   4.427   0.060   3.921
 2304SOL    HW2 7812   4.322   0.097   3.801
 2305SOL     OW 7813   2.349   6.939   2.774
 2305SOL    HW1 7814   2.418   6.881   2.818
 2305SOL    HW2 7815   2.361   6.936   2.675
 2306SOL     OW 7816   2.748   5.018   2.099
 2306SOL    HW1 7817   2.650   5.007   2.116
 2306SOL    HW2 7818   2.792   5.057   2.179
 2307SOL     OW 7819   0.370   4.382   2.692
 2307SOL    HW1 7820   0.450   4.441   2.678
 2307SOL    HW2 7821   0.399   4.287   2.690
 2308SOL     OW 7822   1.500   6.350   0.249
 2308SOL    HW1 7823   1.541   6.296   0.176
 2308SOL    HW2 7824   1.471   6.289   0.323
 2309SOL     OW 7825   2.485   6.590   6.741
 2309SOL    HW1 7826   2.509   6.597   6.644
 2309SOL    HW2 7827   2.411   6.523   6.752
 2310SOL     OW 7828   5.560   6.422   1.180
 2310SOL    HW1 7829   5.524   6.513   1.158
 2310SOL    HW2 7830   5.491   6.353   1.156
 2311SOL     OW 7831   2.297   5.819   1.986
 2311SOL    HW1 7832   2.394   5.838   1.976
 2311SOL    HW2 7833   2.244   5.894   1.947
 2312SOL     OW 7834   3.231   6.510   4.106
 2312SOL    HW1 7835   3.259   6.595   4.151
 2312SOL    HW2 7836   3.163   6.531   4.036
 2313SOL     OW 7837   5.046   5.462   1.397
 2313SOL    HW1 7838   5.032   5.363   1.392
 2313SOL    HW2 7839   5.131   5.486   1.351
 2314SOL     OW 7840   5.681   0.458   5.069
 2314SOL    HW1 7841   5.628   0.540   5.093
 2314SOL    HW2 7842   5.665   0.387   5.138
 2315SOL     OW 7843   5.048   3.455   5.406
 2315SOL    HW1 7844   4.950   3.445   5.389
 2315SOL    HW2 7845   5.075   3.393   5.479
 2316SOL     OW 7846   3.097   0.754   4.400
 2316SOL    HW1 7847   3.085   0.758   4.301
 2316SOL    HW2 7848   3.188   0.719   4.421
 2317SOL     OW 7849   6.568   5.756   3.182
 2317SOL    HW1 7850   6.558   5.827   3.252
 2317SOL    HW2 7851   6.477   5.726   3.152
 2318SOL     OW 7852   2.277   2.967   4.109
 2318SOL    HW1 7853   2.313   2.877   4.084
 2318SOL    HW2 7854   2.238   3.012   4.028
 2319SOL     OW 7855   2.806   5.801   4.689
 2319SOL    HW1 7856   2.871   5.868   4.653
 2319SOL    HW2 7857   2.735   5.784   4.621
 2320SOL     OW 7858   0.603   3.110   4.652
 2320SOL    HW1 7859   0.660   3.191   4.633
 2320SOL    HW2 7860   0.655   3.044   4.705
 2321SOL     OW 7861   2.354   5.665   6.813
 2321SOL    HW1 7862   2.348   5.764   6.805
 2321SOL    HW2 7863   2.317   5.637   6.902
 2322SOL     OW 7864   1.522   3.990   3.322
 2322SOL    HW1 7865   1.520   3.892   3.299
 2322SOL    HW2 7866   1.617   4.022   3.323
 2323SOL     OW 7867   3.480   4.782   1.649
 2323SOL    HW1 7868   3.513   4.714   1.713
 2323SOL    HW2 7869   3.409   4.838   1.693
 2324SOL     OW 7870   6.679   5.919   0.974
 2324SOL    HW1 7871   6.637   5.894   0.887
 2324SOL    HW2 7872   6.744   5.849   1.001
 2325SOL     OW 7873   1.085   4.407   1.197
 2325SOL    HW1 7874   1.101   4.467   1.119
 2325SOL    HW2 7875   1.031   4.456   1.266
 2326SOL     OW 7876   3.420   5.665   6.746
 2326SOL    HW1 7877   3.469   5.747   6.715
 2326SOL    HW2 7878   3.447   5.587   6.689
 2327SOL     OW 7879   6.386   1.463   4.078
 2327SOL    HW1 7880   6.396   1.371   4.116
 2327SOL    HW2 7881   6.430   1.467   3.989
 2328SOL     OW 7882   1.349   1.835   3.210
 2328SOL    HW1 7883   1.342   1.749   3.159
 2328SOL    HW2 7884   1.340   1.912   3.148
 2329SOL     OW 7885   2.103   4.609   4.413
 2329SOL    HW1 7886   2.185   4.609   4.470
 2329SOL    HW2 7887   2.038   4.542   4.448
 2330SOL     OW 7888   0.441   3.649   1.342
 2330SOL    HW1 7889   0.432   3.669   1.244
 2330SOL    HW2 7890   0.486   3.727   1.387
 2331SOL     OW 7891   3.731   5.803   6.662
 2331SOL    HW1 7892   3.758   5.763   6.574
 2331SOL    HW2 7893   3.802   5.785   6.730
 2332SOL     OW 7894   5.323   1.322   5.561
 2332SOL    HW1 7895   5.329   1.349   5.657
 2332SOL    HW2 7896   5.232   1.346   5.526
 2333SOL     OW 7897   0.259   4.445   2.950
 2333SOL    HW1 7898   0.298   4.418   2.862
 2333SOL    HW2 7899   0.235   4.542   2.948
 2334SOL     OW 7900   2.151   0.754   6.838
 2334SOL    HW1 7901   2.191   0.726   6.925
 2334SOL    HW2 7902   2.119   0.848   6.845
 2335SOL     OW 7903   6.495   1.495   3.532
 2335SOL    HW1 7904   6.417   1.471   3.474
 2335SOL    HW2 7905   6.476   1.467   3.626
 2336SOL     OW 7906   4.451   2.471   4.965
 2336SOL    HW1 7907   4.377   2.484   5.030
 2336SOL    HW2 7908   4.518   2.406   5.002
 2337SOL     OW 7909   4.336   1.074   1.864
 2337SOL    HW1 7910   4.348   1.147   1.797
 2337SOL    HW2 7911   4.296   0.994   1.819
 2338SOL     OW 7912   1.138   3.225   5.422
 2338SOL    HW1 7913   1.214   3.193   5.478
 2338SOL    HW2 7914   1.136   3.174   5.336
 2339SOL     OW 7915   3.295   3.298   4.211
 2339SOL    HW1 7916   3.293   3.310   4.310
 2339SOL    HW2 7917   3.342   3.376   4.169
 2340SOL     OW 7918   6.354   4.555   7.002
 2340SOL    HW1 7919   6.437   4.576   6.951
 2340SOL    HW2 7920   6.276   4.556   6.939
 2341SOL     OW 7921   3.861   4.896   1.885
 2341SOL    HW1 7922   3.823   4.983   1.856
 2341SOL    HW2 7923   3.790   4.841   1.929
 2342SOL     OW 7924   0.753   6.985   5.173
 2342SOL    HW1 7925   0.656   6.983   5.148
 2342SOL    HW2 7926   0.763   7.015   5.268
 2343SOL     OW 7927   1.917   5.567   3.412
 2343SOL    HW1 7928   2.003   5.613   3.392
 2343SOL    HW2 7929   1.936   5.486   3.468
 2344SOL     OW 7930   1.984   5.874   6.944
 2344SOL    HW1 7931   2.007   5.936   6.870
 2344SOL    HW2 7932   1.900   5.824   6.921
 2345SOL     OW 7933   3.470   5.581   4.922
 2345SOL    HW1 7934   3.386   5.635   4.928
 2345SOL    HW2 7935   3.464   5.503   4.983
 2346SOL     OW 7936   3.920   2.914   5.403
 2346SOL    HW1 7937   3.852   2.883   5.336
 2346SOL    HW2 7938   3.874   2.957   5.480
 2347SOL     OW 7939   2.936   2.858   1.471
 2347SOL    HW1 7940   2.967   2.802   1.548
 2347SOL    HW2 7941   2.915   2.799   1.393
 2348SOL     OW 7942   2.499   0.151   3.282
 2348SOL    HW1 7943   2.575   0.195   3.331
 2348SOL    HW2 7944   2.449   0.092   3.345
 2349SOL     OW 7945   1.082   4.370   6.222
 2349SOL    HW1 7946   0.994   4.411   6.198
 2349SOL    HW2 7947   1.074   4.270   6.216
 2350SOL     OW 7948   4.761   6.946   6.408
 2350SOL    HW1 7949   4.827   7.019   6.423
 2350SOL    HW2 7950   4.781   6.901   6.321
 2351SOL     OW 7951   3.112   5.228   4.038
 2351SOL    HW1 7952   3.086   5.137   4.006
 2351SOL    HW2 7953   3.094   5.235   4.136
 2352SOL     OW 7954   0.735   4.424   2.192
 2352SOL    HW1 7955   0.741   4.496   2.261
 2352SOL    HW2 7956   0.755   4.463   2.102
 2353SOL     OW 7957   3.195   4.580   6.032
 2353SOL    HW1 7958   3.096   4.590   6.040
 2353SOL    HW2 7959   3.225   4.618   5.944
 2354SOL     OW 7960   3.354   1.443   5.921
 2354SOL    HW1 7961   3.432   1.489   5.877
 2354SOL    HW2 7962   3.306   1.386   5.854
 2355SOL     OW 7963   2.640   6.003   0.180
 2355SOL    HW1 7964   2.620   6.100   0.191
 2355SOL    HW2 7965   2.636   5.958   0.269
 2356SOL     OW 7966   1.386   3.220   6.374
 2356SOL    HW1 7967   1.478   3.186   6.353
 2356SOL    HW2 7968   1.384   3.254   6.468
 2357SOL     OW 7969   4.178   6.659   2.682
 2357SOL    HW1 7970   4.256   6.720   2.697
 2357SOL    HW2 7971   4.100   6.712   2.649
 2358SOL     OW 7972   4.105   4.844   5.011
 2358SOL    HW1 7973   4.050   4.778   5.062
 2358SOL    HW2 7974   4.122   4.925   5.068
 2359SOL     OW 7975   6.347   0.705   5.879
 2359SOL    HW1 7976   6.371   0.613   5.910
 2359SOL    HW2 7977   6.248   0.716   5.881
 2360SOL     OW 7978   5.396   4.575   6.986
 2360SOL    HW1 7979   5.391   4.585   6.887
 2360SOL    HW2 7980   5.483   4.532   7.010
 2361SOL     OW 7981   2.327   1.310   5.084
 2361SOL    HW1 7982   2.341   1.261   5.170
 2361SOL    HW2 7983   2.257   1.381   5.096
 2362SOL     OW 7984   2.357   6.928   4.860
 2362SOL    HW1 7985   2.357   7.005   4.924
 2362SOL    HW2 7986   2.273   6.929   4.806
 2363SOL     OW 7987   4.448   2.320   5.321
 2363SOL    HW1 7988   4.510   2.342   5.246
 2363SOL    HW2 7989   4.495   2.260   5.386
 2364SOL     OW 7990   1.252   1.717   2.776
 2364SOL    HW1 7991   1.242   1.809   2.814
 2364SOL    HW2 7992   1.296   1.723   2.686
 2365SOL     OW 7993   6.421   2.726   6.318
 2365SOL    HW1 7994   6.405   2.641   6.268
 2365SOL    HW2 7995   6.500   2.714   6.378
 2366SOL     OW 7996   2.095   5.472   6.370
 2366SOL    HW1 7997   2.158   5.549   6.362
 2366SOL    HW2 7998   2.076   5.435   6.279
 2367SOL     OW 7999   2.627   4.459   0.584
 2367SOL    HW1 8000   2.555   4.470   0.652
 2367SOL    HW2 8001   2.701   4.404   0.623
 2368SOL     OW 8002   4.545   0.166   3.507
 2368SOL    HW1 8003   4.525   0.075   3.472
 2368SOL    HW2 8004   4.466   0.201   3.556
 2369SOL     OW 8005   1.117   2.782   5.492
 2369SOL    HW1 8006   1.095   2.719   5.417
 2369SOL    HW2 8007   1.187   2.846   5.462
 2370SOL     OW 8008   5.016   3.635   6.800
 2370SOL    HW1 8009   5.025   3.688   6.885
 2370SOL    HW2 8010   5.101   3.638   6.749
 2371SOL     OW 8011   0.676   0.154   2.285
 2371SOL    HW1 8012   0.760   0.135   2.336
 2371SOL    HW2 8013   0.681   0.244   2.243
 2372SOL     OW 8014   0.220   2.254   1.922
 2372SOL    HW1 8015   0.310   2.222   1.951
 2372SOL    HW2 8016   0.222   2.353   1.907
 2373SOL     OW 8017   0.395   1.431   0.369
 2373SOL    HW1 8018   0.488   1.443   0.403
 2373SOL    HW2 8019   0.343   1.375   0.434
 2374SOL     OW 8020   6.208   1.176   3.491
 2374SOL    HW1 8021   6.261   1.091   3.487
 2374SOL    HW2 8022   6.115   1.156   3.521
 2375SOL     OW 8023   2.814   6.777   4.698
 2375SOL    HW1 8024   2.757   6.856   4.721
 2375SOL    HW2 8025   2.825   6.719   4.779
 2376SOL     OW 8026   6.719   2.595   4.158
 2376SOL    HW1 8027   6.777   2.654   4.213
 2376SOL    HW2 8028   6.755   2.589   4.065
 2377SOL     OW 8029   3.381   3.875   3.214
 2377SOL    HW1 8030   3.445   3.939   3.256
 2377SOL    HW2 8031   3.395   3.784   3.253
 2378SOL     OW 8032   4.815   1.926   0.399
 2378SOL    HW1 8033   4.796   1.829   0.387
 2378SOL    HW2 8034   4.818   1.948   0.496
 2379SOL     OW 8035   5.891   2.125   6.685
 2379SOL    HW1 8036   5.797   2.148   6.706
 2379SOL    HW2 8037   5.907   2.137   6.587
 2380SOL     OW 8038   0.392   0.699   6.615
 2380SOL    HW1 8039   0.437   0.632   6.675
 2380SOL    HW2 8040   0.460   0.743   6.557
 2381SOL     OW 8041   2.135   3.841   4.414
 2381SOL    HW1 8042   2.167   3.924   4.460
 2381SOL    HW2 8043   2.108   3.774   4.484
 2382SOL     OW 8044   2.440   4.392   3.523
 2382SOL    HW1 8045   2.363   4.329   3.530
 2382SOL    HW2 8046   2.435   4.439   3.435
 2383SOL     OW 8047   5.417   6.671   1.109
 2383SOL    HW1 8048   5.425   6.760   1.155
 2383SOL    HW2 8049   5.480   6.667   1.032
 2384SOL     OW 8050   5.829   0.211   2.877
 2384SOL    HW1 8051   5.776   0.283   2.922
 2384SOL    HW2 8052   5.927   0.225   2.895
 2385SOL     OW 8053   1.074   6.454   1.382
 2385SOL    HW1 8054   1.161   6.421   1.419
 2385SOL    HW2 8055   1.004   6.383   1.393
 2386SOL     OW 8056   5.340   5.010   4.331
 2386SOL    HW1 8057   5.380   5.089   4.284
 2386SOL    HW2 8058   5.398   4.930   4.316
 2387SOL     OW 8059   1.329   1.214   3.910
 2387SOL    HW1 8060   1.409   1.198   3.852
 2387SOL    HW2 8061   1.352   1.280   3.982
 2388SOL     OW 8062   0.887   2.247   3.623
 2388SOL    HW1 8063   0.877   2.188   3.703
 2388SOL    HW2 8064   0.822   2.323   3.630
 2389SOL     OW 8065   5.040   3.571   2.923
 2389SOL    HW1 8066   5.131   3.607   2.902
 2389SOL    HW2 8067   4.974   3.610   2.859
 2390SOL     OW 8068   4.075   3.774   2.795
 2390SOL    HW1 8069   4.081   3.699   2.862
 2390SOL    HW2 8070   4.166   3.791   2.757
 2391SOL     OW 8071   4.678   4.433   5.592
 2391SOL    HW1 8072   4.724   4.394   5.672
 2391SOL    HW2 8073   4.744   4.485   5.538
 2392SOL     OW 8074   3.695   6.688   5.620
 2392SOL    HW1 8075   3.709   6.711   5.717
 2392SOL    HW2 8076   3.664   6.593   5.613
 2393SOL     OW 8077   5.062   3.593   6.140
 2393SOL    HW1 8078   5.049   3.494   6.140
 2393SOL    HW2 8079   5.121   3.618   6.063
 2394SOL     OW 8080   1.549   3.251   4.363
 2394SOL    HW1 8081   1.566   3.328   4.425
 2394SOL    HW2 8082   1.464   3.266   4.313
 2395SOL     OW 8083   5.962   2.361   6.795
 2395SOL    HW1 8084   6.003   2.417   6.724
 2395SOL    HW2 8085   5.951   2.267   6.762
 2396SOL     OW 8086   4.017   5.118   1.594
 2396SOL    HW1 8087   4.071   5.047   1.639
 2396SOL    HW2 8088   3.935   5.078   1.554
 2397SOL     OW 8089   0.485   3.900   6.534
 2397SOL    HW1 8090   0.552   3.839   6.576
 2397SOL    HW2 8091   0.394   3.857   6.539
 2398SOL     OW 8092   2.882   3.751   6.476
 2398SOL    HW1 8093   2.893   3.795   6.565
 2398SOL    HW2 8094   2.786   3.752   6.449
 2399SOL     OW 8095   4.321   1.718   2.261
 2399SOL    HW1 8096   4.394   1.739   2.197
 2399SOL    HW2 8097   4.234   1.710   2.212
 2400SOL     OW 8098   3.141   4.395   0.371
 2400SOL    HW1 8099   3.045   4.410   0.391
 2400SOL    HW2 8100   3.177   4.471   0.317
 2401SOL     OW 8101   3.400   6.474   6.339
 2401SOL    HW1 8102   3.304   6.499   6.345
 2401SOL    HW2 8103   3.409   6.389   6.287
 2402SOL     OW 8104   6.670   1.353   3.880
 2402SOL    HW1 8105   6.594   1.398   3.833
 2402SOL    HW2 8106   6.733   1.423   3.915
 2403SOL     OW 8107   2.016   2.748   0.091
 2403SOL    HW1 8108   1.945   2.717   0.154
 2403SOL    HW2 8109   2.062   2.668   0.052
 2404SOL     OW 8110   3.986   0.774   1.420
 2404SOL    HW1 8111   4.082   0.800   1.406
 2404SOL    HW2 8112   3.981   0.678   1.446
 2405SOL     OW 8113   3.801   3.357   2.816
 2405SOL    HW1 8114   3.833   3.375   2.909
 2405SOL    HW2 8115   3.808   3.441   2.762
 2406SOL     OW 8116   2.853   6.731   3.044
 2406SOL    HW1 8117   2.854   6.666   2.968
 2406SOL    HW2 8118   2.884   6.686   3.127
 2407SOL     OW 8119   4.613   1.940   2.499
 2407SOL    HW1 8120   4.554   1.861   2.516
 2407SOL    HW2 8121   4.580   2.018   2.552
 2408SOL     OW 8122   4.178   5.084   3.309
 2408SOL    HW1 8123   4.201   5.102   3.405
 2408SOL    HW2 8124   4.125   4.999   3.303
 2409SOL     OW 8125   1.207   3.795   1.972
 2409SOL    HW1 8126   1.162   3.864   1.915
 2409SOL    HW2 8127   1.155   3.710   1.969
 2410SOL     OW 8128   4.728   2.292   5.937
 2410SOL    HW1 8129   4.819   2.289   5.978
 2410SOL    HW2 8130   4.697   2.387   5.930
 2411SOL     OW 8131   4.150   5.022   5.194
 2411SOL    HW1 8132   4.067   5.067   5.159
 2411SOL    HW2 8133   4.214   5.092   5.226
 2412SOL     OW 8134   4.413   4.948   1.539
 2412SOL    HW1 8135   4.493   4.889   1.526
 2412SOL    HW2 8136   4.400   5.006   1.459
 2413SOL     OW 8137   6.201   2.056   1.163
 2413SOL    HW1 8138   6.196   2.144   1.116
 2413SOL    HW2 8139   6.111   2.029   1.196
 2414SOL     OW 8140   4.872   4.546   2.360
 2414SOL    HW1 8141   4.831   4.462   2.324
 2414SOL    HW2 8142   4.872   4.543   2.460
 2415SOL     OW 8143   6.958   6.604   2.038
 2415SOL    HW1 8144   6.985   6.675   2.102
 2415SOL    HW2 8145   7.008   6.520   2.059
 2416SOL     OW 8146   4.146   2.214   5.327
 2416SOL    HW1 8147   4.067   2.189   5.271
 2416SOL    HW2 8148   4.198   2.132   5.351
 2417SOL     OW 8149   3.930   3.361   5.843
 2417SOL    HW1 8150   3.945   3.307   5.926
 2417SOL    HW2 8151   3.991   3.330   5.771
 2418SOL     OW 8152   3.180   3.733   4.223
 2418SOL    HW1 8153   3.194   3.831   4.237
 2418SOL    HW2 8154   3.230   3.705   4.141
 2419SOL     OW 8155   0.790   6.275   4.889
 2419SOL    HW1 8156   0.847   6.199   4.857
 2419SOL    HW2 8157   0.828   6.361   4.857
 2420SOL     OW 8158   2.766   1.229   2.013
 2420SOL    HW1 8159   2.839   1.169   1.979
 2420SOL    HW2 8160   2.801   1.285   2.088
 2421SOL     OW 8161   2.978   2.007   5.011
 2421SOL    HW1 8162   2.940   2.063   5.085
 2421SOL    HW2 8163   3.062   1.962   5.042
 2422SOL     OW 8164   5.440   0.979   1.681
 2422SOL    HW1 8165   5.495   0.898   1.660
 2422SOL    HW2 8166   5.482   1.059   1.638
 2423SOL     OW 8167   0.608   6.504   3.002
 2423SOL    HW1 8168   0.578   6.486   3.095
 2423SOL    HW2 8169   0.548   6.573   2.960
 2424SOL     OW 8170   5.990   6.637   6.378
 2424SOL    HW1 8171   5.912   6.611   6.320
 2424SOL    HW2 8172   5.958   6.694   6.453
 2425SOL     OW 8173   5.825   0.094   4.319
 2425SOL    HW1 8174   5.836   0.042   4.404
 2425SOL    HW2 8175   5.751   0.054   4.265
 2426SOL     OW 8176   1.120   5.361   4.718
 2426SOL    HW1 8177   1.097   5.311   4.634
 2426SOL    HW2 8178   1.096   5.458   4.707
 2427SOL     OW 8179   5.893   5.263   5.459
 2427SOL    HW1 8180   5.886   5.299   5.552
 2427SOL    HW2 8181   5.982   5.220   5.446
 2428SOL     OW 8182   6.397   0.110   3.276
 2428SOL    HW1 8183   6.361   0.017   3.280
 2428SOL    HW2 8184   6.459   0.118   3.198
 2429SOL     OW 8185   5.246   5.261   3.497
 2429SOL    HW1 8186   5.318   5.193   3.492
 2429SOL    HW2 8187   5.283   5.347   3.533
 2430SOL     OW 8188   6.132   1.683   1.235
 2430SOL    HW1 8189   6.102   1.730   1.318
 2430SOL    HW2 8190   6.217   1.724   1.202
 2431SOL     OW 8191   4.548   0.866   2.519
 2431SOL    HW1 8192   4.542   0.766   2.510
 2431SOL    HW2 8193   4.528   0.892   2.613
 2432SOL     OW 8194   3.214   6.803   3.072
 2432SOL    HW1 8195   3.144   6.872   3.092
 2432SOL    HW2 8196   3.283   6.843   3.011
 2433SOL     OW 8197   3.420   0.870   1.452
 2433SOL    HW1 8198   3.341   0.827   1.494
 2433SOL    HW2 8199   3.495   0.803   1.446
 2434SOL     OW 8200   4.483   0.386   4.727
 2434SOL    HW1 8201   4.389   0.381   4.693
 2434SOL    HW2 8202   4.545   0.401   4.650
 2435SOL     OW 8203   4.507   4.807   6.479
 2435SOL    HW1 8204   4.451   4.728   6.455
 2435SOL    HW2 8205   4.490   4.832   6.575
 2436SOL     OW 8206   1.835   5.588   1.159
 2436SOL    HW1 8207   1.796   5.657   1.097
 2436SOL    HW2 8208   1.935   5.587   1.149
 2437SOL     OW 8209   5.046   6.489   6.492
 2437SOL    HW1 8210   5.083   6.411   6.543
 2437SOL    HW2 8211   5.096   6.572   6.518
 2438SOL     OW 8212   3.648   1.118   6.478
 2438SOL    HW1 8213   3.578   1.083   6.541
 2438SOL    HW2 8214   3.722   1.159   6.531
 2439SOL     OW 8215   0.867   4.658   6.368
 2439SOL    HW1 8216   0.933   4.684   6.298
 2439SOL    HW2 8217   0.777   4.648   6.328
 2440SOL     OW 8218   4.642   5.637   5.744
 2440SOL    HW1 8219   4.729   5.590   5.759
 2440SOL    HW2 8220   4.655   5.709   5.675
 2441SOL     OW 8221   0.947   0.772   0.210
 2441SOL    HW1 8222   0.895   0.719   0.144
 2441SOL    HW2 8223   1.015   0.714   0.254
 2442SOL     OW 8224   0.304   4.731   4.901
 2442SOL    HW1 8225   0.233   4.661   4.912
 2442SOL    HW2 8226   0.338   4.730   4.807
 2443SOL     OW 8227   4.128   5.386   5.791
 2443SOL    HW1 8228   4.204   5.320   5.786
 2443SOL    HW2 8229   4.134   5.449   5.714
 2444SOL     OW 8230   3.375   4.337   6.027
 2444SOL    HW1 8231   3.376   4.266   6.097
 2444SOL    HW2 8232   3.280   4.353   5.997
 2445SOL     OW 8233   0.496   0.490   1.863
 2445SOL    HW1 8234   0.569   0.444   1.913
 2445SOL    HW2 8235   0.473   0.438   1.781
 2446SOL     OW 8236   6.920   5.217   4.132
 2446SOL    HW1 8237   6.846   5.246   4.071
 2446SOL    HW2 8238   6.881   5.165   4.209
 2447SOL     OW 8239   1.961   2.553   0.693
 2447SOL    HW1 8240   1.915   2.508   0.770
 2447SOL    HW2 8241   1.928   2.648   0.686
 2448SOL     OW 8242   0.555   0.464   4.508
 2448SOL    HW1 8243   0.502   0.380   4.522
 2448SOL    HW2 8244   0.513   0.539   4.559
 2449SOL     OW 8245   0.016   4.713   0.894
 2449SOL    HW1 8246   0.097   4.660   0.919
 2449SOL    HW2 8247   0.023   4.805   0.933
 2450SOL     OW 8248   2.753   4.932   3.391
 2450SOL    HW1 8249   2.673   4.874   3.376
 2450SOL    HW2 8250   2.748   5.011   3.331
 2451SOL     OW 8251   0.765   0.539   3.178
 2451SOL    HW1 8252   0.795   0.447   3.155
 2451SOL    HW2 8253   0.683   0.534   3.235
 2452SOL     OW 8254   1.566   3.428   2.744
 2452SOL    HW1 8255   1.660   3.436   2.777
 2452SOL    HW2 8256   1.554   3.483   2.662
 2453SOL     OW 8257   6.488   4.211   1.223
 2453SOL    HW1 8258   6.391   4.196   1.243
 2453SOL    HW2 8259   6.529   4.124   1.194
 2454SOL     OW 8260   2.697   0.688   1.122
 2454SOL    HW1 8261   2.710   0.784   1.147
 2454SOL    HW2 8262   2.726   0.629   1.197
 2455SOL     OW 8263   5.674   5.812   0.269
 2455SOL    HW1 8264   5.574   5.825   0.272
 2455SOL    HW2 8265   5.709   5.799   0.362
 2456SOL     OW 8266   4.988   0.006   1.307
 2456SOL    HW1 8267   5.045   0.082   1.339
 2456SOL    HW2 8268   5.046   6.963   1.258
 2457SOL     OW 8269   6.377   6.188   0.537
 2457SOL    HW1 8270   6.280   6.166   0.525
 2457SOL    HW2 8271   6.397   6.274   0.490
 2458SOL     OW 8272   2.167   5.647   3.148
 2458SOL    HW1 8273   2.160   5.730   3.094
 2458SOL    HW2 8274   2.155   5.669   3.245
 2459SOL     OW 8275   2.346   6.903   0.498
 2459SOL    HW1 8276   2.266   6.845   0.512
 2459SOL    HW2 8277   2.398   6.910   0.583
 2460SOL     OW 8278   1.913   0.895   1.132
 2460SOL    HW1 8279   1.899   0.925   1.226
 2460SOL    HW2 8280   1.917   0.975   1.072
 2461SOL     OW 8281   5.235   0.979   3.092
 2461SOL    HW1 8282   5.175   1.055   3.118
 2461SOL    HW2 8283   5.327   1.013   3.074
 2462SOL     OW 8284   2.741   5.335   0.034
 2462SOL    HW1 8285   2.699   5.413   7.010
 2462SOL    HW2 8286   2.678   5.301   0.103
 2463SOL     OW 8287   5.748   2.687   4.109
 2463SOL    HW1 8288   5.677   2.751   4.079
 2463SOL    HW2 8289   5.735   2.599   4.065
 2464SOL     OW 8290   0.949   5.097   1.608
 2464SOL    HW1 8291   0.987   5.143   1.688
 2464SOL    HW2 8292   0.875   5.153   1.569
 2465SOL     OW 8293   0.290   5.129   1.377
 2465SOL    HW1 8294   0.367   5.073   1.349
 2465SOL    HW2 8295   0.314   5.178   1.461
 2466SOL     OW 8296   3.431   0.691   2.308
 2466SOL    HW1 8297   3.349   0.673   2.363
 2466SOL    HW2 8298   3.425   0.782   2.268
 2467SOL     OW 8299   5.717   1.045   5.858
 2467SOL    HW1 8300   5.661   1.101   5.919
 2467SOL    HW2 8301   5.810   1.039   5.894
 2468SOL     OW 8302   6.822   6.050   1.795
 2468SOL    HW1 8303   6.912   6.086   1.820
 2468SOL    HW2 8304   6.816   5.954   1.821
 2469SOL     OW 8305   3.306   4.239   5.750
 2469SOL    HW1 8306   3.318   4.169   5.679
 2469SOL    HW2 8307   3.369   4.222   5.825
 2470SOL     OW 8308   2.668   4.022   5.963
 2470SOL    HW1 8309   2.667   3.935   5.913
 2470SOL    HW2 8310   2.720   4.090   5.911
 2471SOL     OW 8311   1.271   6.777   1.081
 2471SOL    HW1 8312   1.197   6.738   1.027
 2471SOL    HW2 8313   1.335   6.705   1.109
 2472SOL     OW 8314   5.227   1.411   4.842
 2472SOL    HW1 8315   5.294   1.468   4.889
 2472SOL    HW2 8316   5.269   1.370   4.761
 2473SOL     OW 8317   2.187   4.528   5.155
 2473SOL    HW1 8318   2.212   4.440   5.194
 2473SOL    HW2 8319   2.254   4.597   5.182
 2474SOL     OW 8320   0.315   4.631   6.719
 2474SOL    HW1 8321   0.227   4.585   6.732
 2474SOL    HW2 8322   0.389   4.571   6.751
 2475SOL     OW 8323   4.059   2.416   1.107
 2475SOL    HW1 8324   4.020   2.485   1.168
 2475SOL    HW2 8325   4.101   2.343   1.161
 2476SOL     OW 8326   0.782   2.432   3.336
 2476SOL    HW1 8327   0.748   2.504   3.275
 2476SOL    HW2 8328   0.785   2.466   3.430
 2477SOL     OW 8329   6.376   6.513   1.848
 2477SOL    HW1 8330   6.301   6.463   1.889
 2477SOL    HW2 8331   6.361   6.523   1.749
 2478SOL     OW 8332   5.452   6.396   2.454
 2478SOL    HW1 8333   5.498   6.325   2.508
 2478SOL    HW2 8334   5.356   6.403   2.482
 2479SOL     OW 8335   0.187   3.571   1.258
 2479SOL    HW1 8336   0.145   3.656   1.290
 2479SOL    HW2 8337   0.283   3.570   1.285
 2480SOL     OW 8338   6.758   2.661   1.006
 2480SOL    HW1 8339   6.794   2.615   0.925
 2480SOL    HW2 8340   6.775   2.759   0.999
 2481SOL     OW 8341   3.441   6.118   0.377
 2481SOL    HW1 8342   3.460   6.199   0.321
 2481SOL    HW2 8343   3.514   6.051   0.366
 2482SOL     OW 8344   4.473   3.563   6.049
 2482SOL    HW1 8345   4.505   3.657   6.055
 2482SOL    HW2 8346   4.402   3.557   5.978
 2483SOL     OW 8347   2.183   1.236   0.675
 2483SOL    HW1 8348   2.201   1.137   0.671
 2483SOL    HW2 8349   2.085   1.252   0.686
 2484SOL     OW 8350   2.302   0.759   0.879
 2484SOL    HW1 8351   2.348   0.820   0.943
 2484SOL    HW2 8352   2.235   0.704   0.928
 2485SOL     OW 8353   5.657   5.033   2.238
 2485SOL    HW1 8354   5.659   4.969   2.315
 2485SOL    HW2 8355   5.609   4.990   2.160
 2486SOL     OW 8356   1.491   5.568   3.412
 2486SOL    HW1 8357   1.504   5.549   3.509
 2486SOL    HW2 8358   1.461   5.662   3.400
 2487SOL     OW 8359   4.372   6.420   6.936
 2487SOL    HW1 8360   4.337   6.358   7.006
 2487SOL    HW2 8361   4.299   6.442   6.871
 2488SOL     OW 8362   2.658   4.374   1.691
 2488SOL    HW1 8363   2.692   4.285   1.658
 2488SOL    HW2 8364   2.727   4.415   1.751
 2489SOL     OW 8365   2.378   5.660   4.610
 2489SOL    HW1 8366   2.396   5.677   4.707
 2489SOL    HW2 8367   2.347   5.744   4.566
 2490SOL     OW 8368   6.800   5.081   1.020
 2490SOL    HW1 8369   6.726   5.023   1.054
 2490SOL    HW2 8370   6.793   5.088   0.920
 2491SOL     OW 8371   2.777   5.823   2.969
 2491SOL    HW1 8372   2.683   5.800   2.993
 2491SOL    HW2 8373   2.795   5.919   2.990
 2492SOL     OW 8374   4.992   3.151   6.321
 2492SOL    HW1 8375   5.046   3.134   6.403
 2492SOL    HW2 8376   4.905   3.102   6.328
 2493SOL     OW 8377   5.772   0.387   2.635
 2493SOL    HW1 8378   5.783   0.416   2.730
 2493SOL    HW2 8379   5.742   0.291   2.633
 2494SOL     OW 8380   4.837   2.956   2.963
 2494SOL    HW1 8381   4.783   2.876   2.936
 2494SOL    HW2 8382   4.812   2.983   3.056
 2495SOL     OW 8383   4.805   1.102   5.002
 2495SOL    HW1 8384   4.870   1.043   5.049
 2495SOL    HW2 8385   4.852   1.184   4.968
 2496SOL     OW 8386   1.130   5.360   0.292
 2496SOL    HW1 8387   1.152   5.458   0.289
 2496SOL    HW2 8388   1.170   5.314   0.213
 2497SOL     OW 8389   6.871   1.665   0.805
 2497SOL    HW1 8390   6.907   1.634   0.717
 2497SOL    HW2 8391   6.945   1.669   0.871
 2498SOL     OW 8392   1.933   3.311   3.311
 2498SOL    HW1 8393   1.985   3.341   3.391
 2498SOL    HW2 8394   1.917   3.390   3.251
 2499SOL     OW 8395   5.641   0.820   4.938
 2499SOL    HW1 8396   5.640   0.728   4.900
 2499SOL    HW2 8397   5.565   0.832   5.002
 2500SOL     OW 8398   4.782   3.577   5.935
 2500SOL    HW1 8399   4.779   3.545   6.030
 2500SOL    HW2 8400   4.760   3.501   5.874
 2501SOL     OW 8401   5.644   4.186   6.914
 2501SOL    HW1 8402   5.687   4.156   6.999
 2501SOL    HW2 8403   5.645   4.111   6.848
 2502SOL     OW 8404   2.173   6.541   3.747
 2502SOL    HW1 8405   2.073   6.534   3.751
 2502SOL    HW2 8406   2.198   6.628   3.705
 2503SOL     OW 8407   3.989   5.762   5.571
 2503SOL    HW1 8408   3.934   5.779   5.489
 2503SOL    HW2 8409   3.934   5.780   5.653
 2504SOL     OW 8410   2.389   5.036   5.027
 2504SOL    HW1 8411   2.434   5.121   5.000
 2504SOL    HW2 8412   2.290   5.049   5.026
 2505SOL     OW 8413   3.586   5.674   4.680
 2505SOL    HW1 8414   3.581   5.632   4.770
 2505SOL    HW2 8415   3.597   5.603   4.610
 2506SOL     OW 8416   6.557   3.184   6.207
 2506SOL    HW1 8417   6.491   3.235   6.261
 2506SOL    HW2 8418   6.510   3.139   6.130
 2507SOL     OW 8419   6.425   5.333   0.435
 2507SOL    HW1 8420   6.444   5.239   0.407
 2507SOL    HW2 8421   6.486   5.359   0.509
 2508SOL     OW 8422   3.183   2.168   1.903
 2508SOL    HW1 8423   3.150   2.104   1.833
 2508SOL    HW2 8424   3.105   2.219   1.940
 2509SOL     OW 8425   5.914   2.046   2.438
 2509SOL    HW1 8426   5.885   2.006   2.524
 2509SOL    HW2 8427   5.988   1.991   2.399
 2510SOL     OW 8428   3.216   4.689   0.755
 2510SOL    HW1 8429   3.154   4.767   0.754
 2510SOL    HW2 8430   3.306   4.718   0.722
 2511SOL     OW 8431   1.381   1.086   4.727
 2511SOL    HW1 8432   1.382   1.081   4.827
 2511SOL    HW2 8433   1.362   1.180   4.698
 2512SOL     OW 8434   5.367   4.011   4.022
 2512SOL    HW1 8435   5.335   4.094   4.068
 2512SOL    HW2 8436   5.308   3.991   3.944
 2513SOL     OW 8437   1.098   2.461   6.490
 2513SOL    HW1 8438   1.107   2.529   6.417
 2513SOL    HW2 8439   1.189   2.433   6.521
 2514SOL     OW 8440   0.754   1.660   4.500
 2514SOL    HW1 8441   0.846   1.631   4.524
 2514SOL    HW2 8442   0.748   1.760   4.505
 2515SOL     OW 8443   1.747   6.560   0.656
 2515SOL    HW1 8444   1.648   6.555   0.643
 2515SOL    HW2 8445   1.793   6.528   0.574
 2516SOL     OW 8446   6.043   5.451   3.405
 2516SOL    HW1 8447   6.132   5.437   3.447
 2516SOL    HW2 8448   5.998   5.362   3.391
 2517SOL     OW 8449   2.268   4.309   5.874
 2517SOL    HW1 8450   2.321   4.224   5.871
 2517SOL    HW2 8451   2.179   4.295   5.830
 2518SOL     OW 8452   2.356   2.728   6.590
 2518SOL    HW1 8453   2.386   2.744   6.683
 2518SOL    HW2 8454   2.299   2.646   6.587
 2519SOL     OW 8455   5.029   5.497   4.596
 2519SOL    HW1 8456   4.984   5.465   4.512
 2519SOL    HW2 8457   5.000   5.590   4.617
 2520SOL     OW 8458   2.117   3.548   0.871
 2520SOL    HW1 8459   2.133   3.629   0.814
 2520SOL    HW2 8460   2.134   3.571   0.966
 2521SOL     OW 8461   0.771   0.292   5.742
 2521SOL    HW1 8462   0.844   0.235   5.781
 2521SOL    HW2 8463   0.765   0.276   5.643
 2522SOL     OW 8464   1.481   3.572   4.224
 2522SOL    HW1 8465   1.446   3.487   4.263
 2522SOL    HW2 8466   1.579   3.581   4.246
 2523SOL     OW 8467   6.449   3.187   0.683
 2523SOL    HW1 8468   6.533   3.230   0.649
 2523SOL    HW2 8469   6.448   3.091   0.657
 2524SOL     OW 8470   0.631   6.395   4.587
 2524SOL    HW1 8471   0.702   6.325   4.595
 2524SOL    HW2 8472   0.671   6.486   4.603
 2525SOL     OW 8473   1.094   3.973   4.125
 2525SOL    HW1 8474   1.082   3.874   4.118
 2525SOL    HW2 8475   1.134   3.996   4.213
 2526SOL     OW 8476   0.368   2.568   4.080
 2526SOL    HW1 8477   0.384   2.657   4.124
 2526SOL    HW2 8478   0.318   2.509   4.143
 2527SOL     OW 8479   5.830   6.457   5.425
 2527SOL    HW1 8480   5.789   6.430   5.511
 2527SOL    HW2 8481   5.782   6.538   5.389
 2528SOL     OW 8482   5.887   5.033   0.208
 2528SOL    HW1 8483   5.847   5.123   0.222
 2528SOL    HW2 8484   5.836   4.984   0.138
 2529SOL     OW 8485   4.879   5.353   5.515
 2529SOL    HW1 8486   4.861   5.383   5.421
 2529SOL    HW2 8487   4.860   5.255   5.523
 2530SOL     OW 8488   1.121   5.906   4.004
 2530SOL    HW1 8489   1.102   5.862   4.092
 2530SOL    HW2 8490   1.069   5.991   3.998
 2531SOL     OW 8491   5.200   6.948   4.878
 2531SOL    HW1 8492   5.131   6.959   4.806
 2531SOL    HW2 8493   5.276   6.892   4.845
 2532SOL     OW 8494   0.959   5.765   0.733
 2532SOL    HW1 8495   0.942   5.804   0.642
 2532SOL    HW2 8496   0.872   5.754   0.781
 2533SOL     OW 8497   5.389   6.849   4.533
 2533SOL    HW1 8498   5.479   6.880   4.564
 2533SOL    HW2 8499   5.401   6.780   4.462
 2534SOL     OW 8500   2.235   0.239   3.559
 2534SOL    HW1 8501   2.186   0.230   3.646
 2534SOL    HW2 8502   2.315   0.180   3.559
 2535SOL     OW 8503   1.597   2.060   4.551
 2535SOL    HW1 8504   1.563   2.093   4.639
 2535SOL    HW2 8505   1.527   2.074   4.481
 2536SOL     OW 8506   6.077   1.121   4.118
 2536SOL    HW1 8507   6.072   1.180   4.038
 2536SOL    HW2 8508   6.026   1.161   4.194
 2537SOL     OW 8509   4.731   6.519   0.943
 2537SOL    HW1 8510   4.787   6.438   0.922
 2537SOL    HW2 8511   4.766   6.597   0.892
 2538SOL     OW 8512   2.041   5.061   4.845
 2538SOL    HW1 8513   2.078   4.990   4.905
 2538SOL    HW2 8514   2.007   5.137   4.899
 2539SOL     OW 8515   4.622   0.059   5.494
 2539SOL    HW1 8516   4.577   0.142   5.459
 2539SOL    HW2 8517   4.674   0.016   5.420
 2540SOL     OW 8518   5.486   0.501   1.893
 2540SOL    HW1 8519   5.519   0.544   1.977
 2540SOL    HW2 8520   5.389   0.479   1.903
 2541SOL     OW 8521   1.689   0.433   5.197
 2541SOL    HW1 8522   1.759   0.485   5.246
 2541SOL    HW2 8523   1.730   0.386   5.119
 2542SOL     OW 8524   4.198   2.031   4.453
 2542SOL    HW1 8525   4.122   1.966   4.449
 2542SOL    HW2 8526   4.221   2.050   4.549
 2543SOL     OW 8527   0.849   0.582   3.583
 2543SOL    HW1 8528   0.866   0.670   3.627
 2543SOL    HW2 8529   0.898   0.578   3.496
 2544SOL     OW 8530   6.800   4.898   1.590
 2544SOL    HW1 8531   6.714   4.848   1.587
 2544SOL    HW2 8532   6.822   4.932   1.498
 2545SOL     OW 8533   2.313   2.224   0.889
 2545SOL    HW1 8534   2.254   2.280   0.831
 2545SOL    HW2 8535   2.357   2.154   0.833
 2546SOL     OW 8536   6.542   3.474   1.852
 2546SOL    HW1 8537   6.491   3.488   1.937
 2546SOL    HW2 8538   6.514   3.388   1.810
 2547SOL     OW 8539   6.030   5.144   0.862
 2547SOL    HW1 8540   6.046   5.124   0.958
 2547SOL    HW2 8541   6.048   5.241   0.844
 2548SOL     OW 8542   1.561   0.181   4.470
 2548SOL    HW1 8543   1.525   0.129   4.393
 2548SOL    HW2 8544   1.590   0.118   4.543
 2549SOL     OW 8545   1.830   2.952   1.844
 2549SOL    HW1 8546   1.896   2.972   1.916
 2549SOL    HW2 8547   1.863   2.988   1.757
 2550SOL     OW 8548   5.747   6.874   0.327
 2550SOL    HW1 8549   5.753   6.828   0.416
 2550SOL    HW2 8550   5.839   6.895   0.294
 2551SOL     OW 8551   3.483   4.803   6.862
 2551SOL    HW1 8552   3.496   4.801   6.961
 2551SOL    HW2 8553   3.535   4.880   6.823
 2552SOL     OW 8554   2.161   4.795   6.785
 2552SOL    HW1 8555   2.254   4.767   6.806
 2552SOL    HW2 8556   2.130   4.862   6.852
 2553SOL     OW 8557   3.674   2.026   5.940
 2553SOL    HW1 8558   3.711   2.103   5.887
 2553SOL    HW2 8559   3.613   1.972   5.881
 2554SOL     OW 8560   2.297   5.320   0.179
 2554SOL    HW1 8561   2.271   5.400   0.233
 2554SOL    HW2 8562   2.397   5.310   0.180
 2555SOL     OW 8563   6.570   5.781   6.128
 2555SOL    HW1 8564   6.506   5.832   6.186
 2555SOL    HW2 8565   6.519   5.722   6.066
 2556SOL     OW 8566   3.741   0.087   1.181
 2556SOL    HW1 8567   3.702   0.179   1.189
 2556SOL    HW2 8568   3.681   0.030   1.124
 2557SOL     OW 8569   3.114   0.485   7.002
 2557SOL    HW1 8570   3.058   0.564   6.978
 2557SOL    HW2 8571   3.074   0.402   6.963
 2558SOL     OW 8572   5.827   4.148   5.655
 2558SOL    HW1 8573   5.749   4.198   5.617
 2558SOL    HW2 8574   5.797   4.095   5.734
 2559SOL     OW 8575   6.790   3.431   3.271
 2559SOL    HW1 8576   6.848   3.467   3.198
 2559SOL    HW2 8577   6.767   3.336   3.252
 2560SOL     OW 8578   5.466   3.197   3.528
 2560SOL    HW1 8579   5.422   3.229   3.612
 2560SOL    HW2 8580   5.438   3.102   3.510
 2561SOL     OW 8581   3.594   0.962   3.923
 2561SOL    HW1 8582   3.658   1.016   3.869
 2561SOL    HW2 8583   3.618   0.969   4.020
 2562SOL     OW 8584   3.218   6.549   3.120
 2562SOL    HW1 8585   3.220   6.646   3.095
 2562SOL    HW2 8586   3.154   6.536   3.196
 2563SOL     OW 8587   3.226   1.485   6.509
 2563SOL    HW1 8588   3.266   1.490   6.601
 2563SOL    HW2 8589   3.271   1.551   6.449
 2564SOL     OW 8590   2.595   0.675   0.122
 2564SOL    HW1 8591   2.662   0.746   0.144
 2564SOL    HW2 8592   2.586   0.612   0.199
 2565SOL     OW 8593   0.063   1.222   6.856
 2565SOL    HW1 8594   0.015   1.223   6.944
 2565SOL    HW2 8595   0.016   1.281   6.791
 2566SOL     OW 8596   2.939   7.020   1.055
 2566SOL    HW1 8597   2.943   0.028   1.150
 2566SOL    HW2 8598   3.016   0.035   1.004
 2567SOL     OW 8599   1.234   1.423   0.302
 2567SOL    HW1 8600   1.164   1.444   0.371
 2567SOL    HW2 8601   1.301   1.359   0.341
 2568SOL     OW 8602   3.169   0.295   1.104
 2568SOL    HW1 8603   3.194   0.236   1.027
 2568SOL    HW2 8604   3.205   0.256   1.188
 2569SOL     OW 8605   2.482   1.100   0.443
 2569SOL    HW1 8606   2.472   1.010   0.485
 2569SOL    HW2 8607   2.552   1.152   0.492
 2570SOL     OW 8608   5.479   5.676   6.550
 2570SOL    HW1 8609   5.419   5.598   6.532
 2570SOL    HW2 8610   5.543   5.652   6.624
 2571SOL     OW 8611   4.003   3.085   4.528
 2571SOL    HW1 8612   4.074   3.018   4.551
 2571SOL    HW2 8613   3.968   3.126   4.611
 2572SOL     OW 8614   2.792   5.503   1.520
 2572SOL    HW1 8615   2.801   5.477   1.616
 2572SOL    HW2 8616   2.749   5.593   1.514
 2573SOL     OW 8617   6.366   2.537   3.726
 2573SOL    HW1 8618   6.370   2.523   3.627
 2573SOL    HW2 8619   6.438   2.600   3.754
 2574SOL     OW 8620   5.842   2.762   0.939
 2574SOL    HW1 8621   5.784   2.840   0.961
 2574SOL    HW2 8622   5.784   2.682   0.921
 2575SOL     OW 8623   5.075   4.050   0.382
 2575SOL    HW1 8624   5.089   4.114   0.307
 2575SOL    HW2 8625   5.098   3.958   0.352
 2576SOL     OW 8626   3.040   0.183   3.350
 2576SOL    HW1 8627   3.022   0.274   3.387
 2576SOL    HW2 8628   2.976   0.117   3.391
 2577SOL     OW 8629   3.566   0.349   4.129
 2577SOL    HW1 8630   3.615   0.429   4.096
 2577SOL    HW2 8631   3.512   0.310   4.054
 2578SOL     OW 8632   5.136   2.960   4.856
 2578SOL    HW1 8633   5.189   2.923   4.933
 2578SOL    HW2 8634   5.184   2.939   4.770
 2579SOL     OW 8635   0.607   1.558   5.911
 2579SOL    HW1 8636   0.622   1.468   5.870
 2579SOL    HW2 8637   0.654   1.627   5.856
 2580SOL     OW 8638   1.643   2.612   5.752
 2580SOL    HW1 8639   1.689   2.590   5.666
 2580SOL    HW2 8640   1.613   2.527   5.796
 2581SOL     OW 8641   5.308   5.367   1.831
 2581SOL    HW1 8642   5.391   5.402   1.876
 2581SOL    HW2 8643   5.330   5.281   1.784
 2582SOL     OW 8644   1.829   5.301   2.788
 2582SOL    HW1 8645   1.893   5.273   2.716
 2582SOL    HW2 8646   1.879   5.343   2.863
 2583SOL     OW 8647   1.240   0.893   1.559
 2583SOL    HW1 8648   1.194   0.959   1.499
 2583SOL    HW2 8649   1.189   0.807   1.559
 2584SOL     OW 8650   3.415   6.504   1.047
 2584SOL    HW1 8651   3.464   6.590   1.065
 2584SOL    HW2 8652   3.452   6.432   1.104
 2585SOL     OW 8653   3.439   0.525   1.239
 2585SOL    HW1 8654   3.446   0.604   1.177
 2585SOL    HW2 8655   3.344   0.516   1.270
 2586SOL     OW 8656   5.718   1.727   5.263
 2586SOL    HW1 8657   5.622   1.739   5.288
 2586SOL    HW2 8658   5.723   1.697   5.167
 2587SOL     OW 8659   0.063   0.358   4.541
 2587SOL    HW1 8660   0.007   0.419   4.597
 2587SOL    HW2 8661   0.083   0.275   4.593
 2588SOL     OW 8662   5.520   6.881   1.257
 2588SOL    HW1 8663   5.453   6.924   1.318
 2588SOL    HW2 8664   5.605   6.866   1.308
 2589SOL     OW 8665   6.672   0.038   5.769
 2589SOL    HW1 8666   6.697   0.125   5.812
 2589SOL    HW2 8667   6.667   0.050   5.670
 2590SOL     OW 8668   3.425   0.031   2.443
 2590SOL    HW1 8669   3.517   0.070   2.436
 2590SOL    HW2 8670   3.426   6.979   2.509
 2591SOL     OW 8671   5.315   5.973   0.744
 2591SOL    HW1 8672   5.247   6.027   0.695
 2591SOL    HW2 8673   5.403   5.979   0.698
 2592SOL     OW 8674   2.977   5.881   1.502
 2592SOL    HW1 8675   2.905   5.823   1.464
 2592SOL    HW2 8676   3.054   5.884   1.438
 2593SOL     OW 8677   3.092   6.854   2.524
 2593SOL    HW1 8678   3.169   6.895   2.476
 2593SOL    HW2 8679   3.125   6.804   2.605
 2594SOL     OW 8680   0.233   0.333   6.179
 2594SOL    HW1 8681   0.291   0.322   6.259
 2594SOL    HW2 8682   0.262   0.413   6.127
 2595SOL     OW 8683   6.871   2.738   5.053
 2595SOL    HW1 8684   6.894   2.694   4.966
 2595SOL    HW2 8685   6.815   2.819   5.036
 2596SOL     OW 8686   3.662   2.571   1.696
 2596SOL    HW1 8687   3.672   2.480   1.736
 2596SOL    HW2 8688   3.571   2.579   1.655
 2597SOL     OW 8689   2.254   3.580   0.416
 2597SOL    HW1 8690   2.246   3.494   0.466
 2597SOL    HW2 8691   2.307   3.645   0.471
 2598SOL     OW 8692   6.373   2.647   4.360
 2598SOL    HW1 8693   6.336   2.734   4.393
 2598SOL    HW2 8694   6.387   2.652   4.261
 2599SOL     OW 8695   3.357   5.910   6.123
 2599SOL    HW1 8696   3.403   5.822   6.110
 2599SOL    HW2 8697   3.282   5.918   6.057
 2600SOL     OW 8698   4.956   3.436   4.064
 2600SOL    HW1 8699   4.967   3.450   4.163
 2600SOL    HW2 8700   4.979   3.521   4.016
 2601SOL     OW 8701   3.073   2.539   6.625
 2601SOL    HW1 8702   2.987   2.507   6.587
 2601SOL    HW2 8703   3.095   2.487   6.707
 2602SOL     OW 8704   6.672   4.788   4.396
 2602SOL    HW1 8705   6.677   4.827   4.488
 2602SOL    HW2 8706   6.580   4.802   4.359
 2603SOL     OW 8707   2.428   2.435   1.694
 2603SOL    HW1 8708   2.424   2.381   1.610
 2603SOL    HW2 8709   2.523   2.450   1.719
 2604SOL     OW 8710   5.565   0.495   0.939
 2604SOL    HW1 8711   5.571   0.530   0.846
 2604SOL    HW2 8712   5.547   0.570   1.002
 2605SOL     OW 8713   4.907   4.748   3.043
 2605SOL    HW1 8714   4.865   4.762   3.133
 2605SOL    HW2 8715   4.839   4.763   2.972
 2606SOL     OW 8716   6.961   4.125   6.854
 2606SOL    HW1 8717   7.006   4.088   6.935
 2606SOL    HW2 8718   0.002   4.125   6.777
 2607SOL     OW 8719   1.479   1.816   4.642
 2607SOL    HW1 8720   1.414   1.888   4.667
 2607SOL    HW2 8721   1.542   1.850   4.573
 2608SOL     OW 8722   5.052   0.121   2.770
 2608SOL    HW1 8723   5.040   0.047   2.703
 2608SOL    HW2 8724   5.095   0.084   2.853
 2609SOL     OW 8725   1.084   2.165   2.133
 2609SOL    HW1 8726   1.090   2.246   2.076
 2609SOL    HW2 8727   1.065   2.085   2.076
 2610SOL     OW 8728   6.734   5.458   4.605
 2610SOL    HW1 8729   6.676   5.539   4.611
 2610SOL    HW2 8730   6.772   5.437   4.695
 2611SOL     OW 8731   6.288   6.779   1.368
 2611SOL    HW1 8732   6.251   6.856   1.419
 2611SOL    HW2 8733   6.388   6.780   1.373
 2612SOL     OW 8734   5.833   6.246   4.795
 2612SOL    HW1 8735   5.915   6.268   4.742
 2612SOL    HW2 8736   5.751   6.264   4.741
 2613SOL     OW 8737   2.878   6.343   2.005
 2613SOL    HW1 8738   2.967   6.388   2.008
 2613SOL    HW2 8739   2.828   6.375   1.924
 2614SOL     OW 8740   6.237   6.330   5.625
 2614SOL    HW1 8741   6.172   6.405   5.616
 2614SOL    HW2 8742   6.187   6.243   5.623
 2615SOL     OW 8743   5.771   5.642   3.199
 2615SOL    HW1 8744   5.720   5.581   3.260
 2615SOL    HW2 8745   5.868   5.617   3.200
 2616SOL     OW 8746   3.994   3.318   3.909
 2616SOL    HW1 8747   3.921   3.380   3.937
 2616SOL    HW2 8748   4.046   3.289   3.989
 2617SOL     OW 8749   3.000   5.214   0.827
 2617SOL    HW1 8750   3.046   5.269   0.757
 2617SOL    HW2 8751   2.901   5.225   0.818
 2618SOL     OW 8752   6.905   6.128   3.238
 2618SOL    HW1 8753   6.811   6.106   3.263
 2618SOL    HW2 8754   6.924   6.096   3.145
 2619SOL     OW 8755   4.414   1.692   2.528
 2619SOL    HW1 8756   4.480   1.617   2.534
 2619SOL    HW2 8757   4.389   1.707   2.432
 2620SOL     OW 8758   1.954   5.239   3.395
 2620SOL    HW1 8759   1.888   5.194   3.334
 2620SOL    HW2 8760   2.013   5.299   3.341
 2621SOL     OW 8761   0.869   5.504   3.654
 2621SOL    HW1 8762   0.881   5.414   3.614
 2621SOL    HW2 8763   0.775   5.513   3.687
 2622SOL     OW 8764   1.770   3.036   6.008
 2622SOL    HW1 8765   1.813   2.955   6.049
 2622SOL    HW2 8766   1.732   3.012   5.919
 2623SOL     OW 8767   3.806   0.991   4.805
 2623SOL    HW1 8768   3.890   1.045   4.811
 2623SOL    HW2 8769   3.772   0.971   4.897
 2624SOL     OW 8770   6.441   3.120   3.203
 2624SOL    HW1 8771   6.376   3.045   3.199
 2624SOL    HW2 8772   6.398   3.200   3.245
 2625SOL     OW 8773   1.462   2.959   4.745
 2625SOL    HW1 8774   1.559   2.934   4.741
 2625SOL    HW2 8775   1.453   3.052   4.782
 2626SOL     OW 8776   0.552   6.339   3.892
 2626SOL    HW1 8777   0.520   6.251   3.856
 2626SOL    HW2 8778   0.581   6.327   3.987
 2627SOL     OW 8779   0.323   0.876   5.170
 2627SOL    HW1 8780   0.403   0.861   5.112
 2627SOL    HW2 8781   0.253   0.925   5.118
 2628SOL     OW 8782   3.632   6.201   6.710
 2628SOL    HW1 8783   3.618   6.169   6.804
 2628SOL    HW2 8784   3.567   6.156   6.649
 2629SOL     OW 8785   3.897   3.904   1.948
 2629SOL    HW1 8786   3.940   3.943   1.867
 2629SOL    HW2 8787   3.965   3.855   2.002
 2630SOL     OW 8788   3.292   2.036   2.365
 2630SOL    HW1 8789   3.219   2.071   2.307
 2630SOL    HW2 8790   3.381   2.059   2.325
 2631SOL     OW 8791   4.093   6.924   3.886
 2631SOL    HW1 8792   4.185   6.964   3.891
 2631SOL    HW2 8793   4.099   6.825   3.900
 2632SOL     OW 8794   3.459   2.312   6.004
 2632SOL    HW1 8795   3.374   2.321   6.055
 2632SOL    HW2 8796   3.483   2.215   5.997
 2633SOL     OW 8797   6.085   2.478   6.341
 2633SOL    HW1 8798   6.084   2.393   6.394
 2633SOL    HW2 8799   6.054   2.460   6.248
 2634SOL     OW 8800   1.869   4.171   2.647
 2634SOL    HW1 8801   1.843   4.148   2.741
 2634SOL    HW2 8802   1.800   4.135   2.584
 2635SOL     OW 8803   5.500   5.857   4.142
 2635SOL    HW1 8804   5.543   5.780   4.095
 2635SOL    HW2 8805   5.438   5.903   4.079
 2636SOL     OW 8806   5.675   0.471   6.843
 2636SOL    HW1 8807   5.669   0.570   6.860
 2636SOL    HW2 8808   5.667   0.454   6.745
 2637SOL     OW 8809   6.493   0.859   3.805
 2637SOL    HW1 8810   6.587   0.889   3.790
 2637SOL    HW2 8811   6.442   0.865   3.720
 2638SOL     OW 8812   6.307   0.042   2.192
 2638SOL    HW1 8813   6.213   0.075   2.201
 2638SOL    HW2 8814   6.315   6.978   2.240
 2639SOL     OW 8815   6.715   6.716   2.718
 2639SOL    HW1 8816   6.784   6.647   2.694
 2639SOL    HW2 8817   6.690   6.768   2.637
 2640SOL     OW 8818   0.107   6.142   5.755
 2640SOL    HW1 8819   0.058   6.058   5.778
 2640SOL    HW2 8820   0.062   6.188   5.678
 2641SOL     OW 8821   5.877   3.067   0.666
 2641SOL    HW1 8822   5.839   2.991   0.614
 2641SOL    HW2 8823   5.911   3.137   0.603
 2642SOL     OW 8824   5.359   0.781   4.373
 2642SOL    HW1 8825   5.322   0.761   4.282
 2642SOL    HW2 8826   5.455   0.751   4.378
 2643SOL     OW 8827   7.002   5.290   3.111
 2643SOL    HW1 8828   0.022   5.377   3.136
 2643SOL    HW2 8829   7.008   5.226   3.187
 2644SOL     OW 8830   0.512   4.322   5.605
 2644SOL    HW1 8831   0.447   4.257   5.566
 2644SOL    HW2 8832   0.600   4.313   5.558
 2645SOL     OW 8833   4.619   6.495   5.224
 2645SOL    HW1 8834   4.650   6.435   5.150
 2645SOL    HW2 8835   4.542   6.452   5.271
 2646SOL     OW 8836   6.386   0.079   6.521
 2646SOL    HW1 8837   6.339   0.154   6.475
 2646SOL    HW2 8838   6.333   7.018   6.509
 2647SOL     OW 8839   5.249   0.639   1.293
 2647SOL    HW1 8840   5.247   0.704   1.368
 2647SOL    HW2 8841   5.331   0.654   1.237
 2648SOL     OW 8842   6.326   6.842   3.520
 2648SOL    HW1 8843   6.239   6.833   3.568
 2648SOL    HW2 8844   6.313   6.823   3.423
 2649SOL     OW 8845   4.017   1.222   5.765
 2649SOL    HW1 8846   4.104   1.271   5.759
 2649SOL    HW2 8847   4.034   1.128   5.795
 2650SOL     OW 8848   1.186   4.603   4.048
 2650SOL    HW1 8849   1.218   4.695   4.027
 2650SOL    HW2 8850   1.106   4.608   4.108
 2651SOL     OW 8851   1.246   1.685   0.787
 2651SOL    HW1 8852   1.268   1.692   0.690
 2651SOL    HW2 8853   1.177   1.753   0.811
 2652SOL     OW 8854   3.082   3.247   3.876
 2652SOL    HW1 8855   3.116   3.336   3.907
 2652SOL    HW2 8856   3.079   3.184   3.954
 2653SOL     OW 8857   4.936   6.778   5.292
 2653SOL    HW1 8858   5.016   6.740   5.338
 2653SOL    HW2 8859   4.951   6.775   5.193
 2654SOL     OW 8860   4.969   3.115   0.048
 2654SOL    HW1 8861   4.897   3.057   0.086
 2654SOL    HW2 8862   4.928   3.183   7.010
 2655SOL     OW 8863   4.538   4.475   4.099
 2655SOL    HW1 8864   4.442   4.498   4.084
 2655SOL    HW2 8865   4.574   4.528   4.176
 2656SOL     OW 8866   4.769   4.487   3.742
 2656SOL    HW1 8867   4.864   4.519   3.742
 2656SOL    HW2 8868   4.755   4.423   3.817
 2657SOL     OW 8869   2.762   4.289   6.218
 2657SOL    HW1 8870   2.789   4.247   6.131
 2657SOL    HW2 8871   2.774   4.388   6.211
 2658SOL     OW 8872   5.644   4.708   6.797
 2658SOL    HW1 8873   5.594   4.641   6.743
 2658SOL    HW2 8874   5.607   4.799   6.780
 2659SOL     OW 8875   6.531   2.248   4.571
 2659SOL    HW1 8876   6.538   2.338   4.528
 2659SOL    HW2 8877   6.506   2.180   4.502
 2660SOL     OW 8878   0.533   2.236   1.322
 2660SOL    HW1 8879   0.581   2.226   1.235
 2660SOL    HW2 8880   0.543   2.151   1.375
 2661SOL     OW 8881   2.235   6.365   1.636
 2661SOL    HW1 8882   2.225   6.385   1.734
 2661SOL    HW2 8883   2.148   6.383   1.590
 2662SOL     OW 8884   4.510   6.739   5.359
 2662SOL    HW1 8885   4.527   6.657   5.304
 2662SOL    HW2 8886   4.431   6.788   5.323
 2663SOL     OW 8887   2.289   4.437   1.542
 2663SOL    HW1 8888   2.275   4.501   1.618
 2663SOL    HW2 8889   2.352   4.478   1.476
 2664SOL     OW 8890   3.548   4.039   3.370
 2664SOL    HW1 8891   3.604   4.012   3.448
 2664SOL    HW2 8892   3.573   4.131   3.340
 2665SOL     OW 8893   3.714   2.125   4.961
 2665SOL    HW1 8894   3.616   2.118   4.978
 2665SOL    HW2 8895   3.730   2.142   4.864
 2666SOL     OW 8896   4.913   3.670   1.108
 2666SOL    HW1 8897   4.906   3.669   1.008
 2666SOL    HW2 8898   4.933   3.578   1.141
 2667SOL     OW 8899   1.695   6.217   4.897
 2667SOL    HW1 8900   1.710   6.119   4.914
 2667SOL    HW2 8901   1.643   6.257   4.972
 2668SOL     OW 8902   6.639   3.118   3.725
 2668SOL    HW1 8903   6.636   3.215   3.751
 2668SOL    HW2 8904   6.721   3.101   3.670
 2669SOL     OW 8905   3.281   5.003   5.427
 2669SOL    HW1 8906   3.248   4.913   5.397
 2669SOL    HW2 8907   3.304   4.999   5.524
 2670SOL     OW 8908   6.232   1.623   6.863
 2670SOL    HW1 8909   6.252   1.528   6.887
 2670SOL    HW2 8910   6.296   1.653   6.792
 2671SOL     OW 8911   2.621   4.104   0.018
 2671SOL    HW1 8912   2.564   4.031   0.057
 2671SOL    HW2 8913   2.566   4.185   0.001
 2672SOL     OW 8914   1.143   5.487   6.971
 2672SOL    HW1 8915   1.163   5.581   6.947
 2672SOL    HW2 8916   1.221   5.446   7.018
 2673SOL     OW 8917   5.514   2.732   3.655
 2673SOL    HW1 8918   5.486   2.815   3.704
 2673SOL    HW2 8919   5.597   2.751   3.602
 2674SOL     OW 8920   1.770   4.483   3.873
 2674SOL    HW1 8921   1.707   4.435   3.812
 2674SOL    HW2 8922   1.862   4.445   3.864
 2675SOL     OW 8923   1.048   4.368   5.174
 2675SOL    HW1 8924   1.020   4.449   5.123
 2675SOL    HW2 8925   1.140   4.382   5.210
 2676SOL     OW 8926   4.517   0.933   2.781
 2676SOL    HW1 8927   4.581   0.993   2.829
 2676SOL    HW2 8928   4.428   0.937   2.828
 2677SOL     OW 8929   3.678   5.154   1.613
 2677SOL    HW1 8930   3.720   5.069   1.581
 2677SOL    HW2 8931   3.591   5.135   1.657
 2678SOL     OW 8932   0.430   4.764   0.728
 2678SOL    HW1 8933   0.469   4.827   0.661
 2678SOL    HW2 8934   0.332   4.751   0.709
 2679SOL     OW 8935   4.163   5.549   1.364
 2679SOL    HW1 8936   4.151   5.467   1.418
 2679SOL    HW2 8937   4.259   5.561   1.339
 2680SOL     OW 8938   1.755   1.902   0.608
 2680SOL    HW1 8939   1.780   1.998   0.592
 2680SOL    HW2 8940   1.674   1.880   0.553
 2681SOL     OW 8941   1.659   3.024   4.224
 2681SOL    HW1 8942   1.637   3.101   4.283
 2681SOL    HW2 8943   1.576   2.971   4.206
 2682SOL     OW 8944   5.516   3.055   2.640
 2682SOL    HW1 8945   5.556   3.046   2.549
 2682SOL    HW2 8946   5.579   3.108   2.698
 2683SOL     OW 8947   1.138   4.209   1.368
 2683SOL    HW1 8948   1.120   4.279   1.299
 2683SOL    HW2 8949   1.181   4.130   1.326
 2684SOL     OW 8950   3.970   5.496   2.668
 2684SOL    HW1 8951   3.898   5.564   2.655
 2684SOL    HW2 8952   3.957   5.421   2.603
 2685SOL     OW 8953   6.164   6.888   4.981
 2685SOL    HW1 8954   6.252   6.931   4.961
 2685SOL    HW2 8955   6.152   6.879   5.080
 2686SOL     OW 8956   1.633   2.364   4.106
 2686SOL    HW1 8957   1.584   2.350   4.192
 2686SOL    HW2 8958   1.700   2.437   4.118
 2687SOL     OW 8959   4.290   4.661   2.593
 2687SOL    HW1 8960   4.335   4.739   2.551
 2687SOL    HW2 8961   4.206   4.691   2.638
 2688SOL     OW 8962   4.322   5.984   6.256
 2688SOL    HW1 8963   4.293   6.075   6.227
 2688SOL    HW2 8964   4.380   5.992   6.338
 2689SOL     OW 8965   2.118   1.793   3.755
 2689SOL    HW1 8966   2.118   1.746   3.844
 2689SOL    HW2 8967   2.138   1.727   3.683
 2690SOL     OW 8968   3.391   3.049   3.848
 2690SOL    HW1 8969   3.319   3.004   3.795
 2690SOL    HW2 8970   3.392   3.147   3.828
 2691SOL     OW 8971   1.366   5.270   2.133
 2691SOL    HW1 8972   1.367   5.208   2.054
 2691SOL    HW2 8973   1.275   5.309   2.142
 2692SOL     OW 8974   5.783   6.139   4.158
 2692SOL    HW1 8975   5.791   6.074   4.082
 2692SOL    HW2 8976   5.823   6.226   4.132
 2693SOL     OW 8977   2.231   4.362   2.847
 2693SOL    HW1 8978   2.320   4.406   2.831
 2693SOL    HW2 8979   2.173   4.373   2.766
 2694SOL     OW 8980   3.190   0.784   3.018
 2694SOL    HW1 8981   3.108   0.799   2.962
 2694SOL    HW2 8982   3.243   0.709   2.979
 2695SOL     OW 8983   5.276   1.904   2.622
 2695SOL    HW1 8984   5.209   1.944   2.560
 2695SOL    HW2 8985   5.235   1.892   2.712
 2696SOL     OW 8986   3.227   2.672   5.321
 2696SOL    HW1 8987   3.264   2.745   5.265
 2696SOL    HW2 8988   3.226   2.587   5.269
 2697SOL     OW 8989   4.312   2.111   4.139
 2697SOL    HW1 8990   4.252   2.034   4.162
 2697SOL    HW2 8991   4.265   2.197   4.159
 2698SOL     OW 8992   1.954   4.656   0.195
 2698SOL    HW1 8993   2.007   4.713   0.259
 2698SOL    HW2 8994   1.937   4.567   0.235
 2699SOL     OW 8995   3.694   5.673   6.386
 2699SOL    HW1 8996   3.707   5.614   6.306
 2699SOL    HW2 8997   3.663   5.763   6.357
 2700SOL     OW 8998   1.613   3.660   2.172
 2700SOL    HW1 8999   1.581   3.575   2.132
 2700SOL    HW2 9000   1.709   3.675   2.147
 2701SOL     OW 9001   3.984   6.911   6.903
 2701SOL    HW1 9002   4.011   6.823   6.943
 2701SOL    HW2 9003   3.968   6.899   6.805
 2702SOL     OW 9004   0.070   1.541   2.720
 2702SOL    HW1 9005   0.118   1.599   2.653
 2702SOL    HW2 9006   0.106   1.560   2.811
 2703SOL     OW 9007   2.309   0.853   3.138
 2703SOL    HW1 9008   2.338   0.884   3.229
 2703SOL    HW2 9009   2.376   0.788   3.102
 2704SOL     OW 9010   1.388   5.446   1.247
 2704SOL    HW1 9011   1.331   5.365   1.234
 2704SOL    HW2 9012   1.416   5.451   1.343
 2705SOL     OW 9013   0.469   5.267   4.237
 2705SOL    HW1 9014   0.395   5.257   4.170
 2705SOL    HW2 9015   0.433   5.309   4.320
 2706SOL     OW 9016   0.199   0.882   1.852
 2706SOL    HW1 9017   0.291   0.892   1.814
 2706SOL    HW2 9018   0.134   0.934   1.797
 2707SOL     OW 9019   2.145   0.813   5.506
 2707SOL    HW1 9020   2.238   0.832   5.477
 2707SOL    HW2 9021   2.083   0.820   5.428
 2708SOL     OW 9022   2.065   2.950   1.359
 2708SOL    HW1 9023   2.149   3.002   1.376
 2708SOL    HW2 9024   2.015   2.991   1.283
 2709SOL     OW 9025   5.107   6.842   0.669
 2709SOL    HW1 9026   5.130   6.783   0.592
 2709SOL    HW2 9027   5.177   6.832   0.740
 2710SOL     OW 9028   6.347   4.168   2.611
 2710SOL    HW1 9029   6.416   4.123   2.555
 2710SOL    HW2 9030   6.258   4.125   2.594
 2711SOL     OW 9031   2.239   0.343   2.645
 2711SOL    HW1 9032   2.172   0.417   2.653
 2711SOL    HW2 9033   2.311   0.370   2.582
 2712SOL     OW 9034   4.179   4.910   6.869
 2712SOL    HW1 9035   4.094   4.874   6.831
 2712SOL    HW2 9036   4.163   4.945   6.961
 2713SOL     OW 9037   1.334   2.574   4.537
 2713SOL    HW1 9038   1.430   2.564   4.512
 2713SOL    HW2 9039   1.316   2.522   4.621
 2714SOL     OW 9040   4.729   1.843   0.048
 2714SOL    HW1 9041   4.728   1.842   6.972
 2714SOL    HW2 9042   4.708   1.935   0.081
 2715SOL     OW 9043   6.400   0.375   0.025
 2715SOL    HW1 9044   6.347   0.291   0.043
 2715SOL    HW2 9045   6.495   0.351   0.007
 2716SOL     OW 9046   6.079   5.179   1.882
 2716SOL    HW1 9047   6.076   5.253   1.816
 2716SOL    HW2 9048   5.992   5.131   1.882
 2717SOL     OW 9049   0.877   5.441   2.219
 2717SOL    HW1 9050   0.854   5.439   2.121
 2717SOL    HW2 9051   0.843   5.525   2.260
 2718SOL     OW 9052   1.686   3.802   3.862
 2718SOL    HW1 9053   1.643   3.736   3.800
 2718SOL    HW2 9054   1.616   3.863   3.898
 2719SOL     OW 9055   4.916   4.888   1.684
 2719SOL    HW1 9056   5.012   4.876   1.661
 2719SOL    HW2 9057   4.867   4.802   1.669
 2720SOL     OW 9058   2.027   5.946   3.884
 2720SOL    HW1 9059   2.069   6.010   3.948
 2720SOL    HW2 9060   2.086   5.936   3.803
 2721SOL     OW 9061   2.956   0.456   5.171
 2721SOL    HW1 9062   2.901   0.415   5.098
 2721SOL    HW2 9063   3.042   0.490   5.134
 2722SOL     OW 9064   6.253   5.404   2.660
 2722SOL    HW1 9065   6.306   5.320   2.647
 2722SOL    HW2 9066   6.166   5.397   2.611
 2723SOL     OW 9067   1.595   1.079   6.174
 2723SOL    HW1 9068   1.503   1.070   6.212
 2723SOL    HW2 9069   1.593   1.061   6.076
 2724SOL     OW 9070   3.087   6.307   5.082
 2724SOL    HW1 9071   3.058   6.338   5.173
 2724SOL    HW2 9072   3.104   6.209   5.084
 2725SOL     OW 9073   6.414   5.230   3.200
 2725SOL    HW1 9074   6.461   5.305   3.153
 2725SOL    HW2 9075   6.315   5.242   3.191
 2726SOL     OW 9076   5.786   4.468   2.234
 2726SOL    HW1 9077   5.778   4.398   2.305
 2726SOL    HW2 9078   5.731   4.547   2.259
 2727SOL     OW 9079   0.809   4.583   2.942
 2727SOL    HW1 9080   0.800   4.502   2.884
 2727SOL    HW2 9081   0.882   4.641   2.907
 2728SOL     OW 9082   3.083   0.525   4.831
 2728SOL    HW1 9083   3.018   0.599   4.848
 2728SOL    HW2 9084   3.062   0.480   4.745
 2729SOL     OW 9085   6.833   5.578   2.058
 2729SOL    HW1 9086   6.837   5.613   1.965
 2729SOL    HW2 9087   6.910   5.516   2.074
 2730SOL     OW 9088   1.732   6.843   0.688
 2730SOL    HW1 9089   1.652   6.879   0.736
 2730SOL    HW2 9090   1.725   6.743   0.681
 2731SOL     OW 9091   3.174   3.578   1.462
 2731SOL    HW1 9092   3.221   3.518   1.526
 2731SOL    HW2 9093   3.118   3.524   1.400
 2732SOL     OW 9094   6.082   3.139   2.418
 2732SOL    HW1 9095   6.052   3.044   2.426
 2732SOL    HW2 9096   6.020   3.188   2.356
 2733SOL     OW 9097   0.444   6.795   5.827
 2733SOL    HW1 9098   0.508   6.772   5.754
 2733SOL    HW2 9099   0.492   6.846   5.898
 2734SOL     OW 9100   1.886   5.629   2.885
 2734SOL    HW1 9101   1.800   5.621   2.836
 2734SOL    HW2 9102   1.961   5.597   2.827
 2735SOL     OW 9103   0.242   2.996   2.345
 2735SOL    HW1 9104   0.245   2.981   2.444
 2735SOL    HW2 9105   0.197   2.919   2.301
 2736SOL     OW 9106   4.847   0.744   4.838
 2736SOL    HW1 9107   4.790   0.809   4.789
 2736SOL    HW2 9108   4.864   0.778   4.931
 2737SOL     OW 9109   3.377   3.233   6.181
 2737SOL    HW1 9110   3.459   3.182   6.208
 2737SOL    HW2 9111   3.296   3.176   6.196
 2738SOL     OW 9112   4.994   5.952   4.846
 2738SOL    HW1 9113   4.895   5.965   4.851
 2738SOL    HW2 9114   5.035   5.968   4.936
 2739SOL     OW 9115   5.876   4.088   0.377
 2739SOL    HW1 9116   5.789   4.046   0.404
 2739SOL    HW2 9117   5.943   4.073   0.449
 2740SOL     OW 9118   4.914   2.224   2.428
 2740SOL    HW1 9119   4.923   2.127   2.451
 2740SOL    HW2 9120   4.910   2.278   2.513
 2741SOL     OW 9121   0.091   2.083   6.240
 2741SOL    HW1 9122   7.019   2.057   6.253
 2741SOL    HW2 9123   0.148   2.034   6.306
 2742SOL     OW 9124   1.732   5.982   6.251
 2742SOL    HW1 9125   1.654   6.029   6.293
 2742SOL    HW2 9126   1.816   6.030   6.275
 2743SOL     OW 9127   6.086   5.422   1.757
 2743SOL    HW1 9128   6.155   5.494   1.754
 2743SOL    HW2 9129   6.019   5.437   1.685
 2744SOL     OW 9130   4.032   1.986   0.150
 2744SOL    HW1 9131   4.091   2.052   0.104
 2744SOL    HW2 9132   3.982   1.932   0.081
 2745SOL     OW 9133   2.180   6.306   0.147
 2745SOL    HW1 9134   2.225   6.386   0.188
 2745SOL    HW2 9135   2.174   6.319   0.048
 2746SOL     OW 9136   2.194   3.072   4.639
 2746SOL    HW1 9137   2.233   3.056   4.549
 2746SOL    HW2 9138   2.234   3.009   4.705
 2747SOL     OW 9139   5.160   4.409   4.999
 2747SOL    HW1 9140   5.086   4.390   4.934
 2747SOL    HW2 9141   5.130   4.477   5.065
 2748SOL     OW 9142   3.452   0.955   2.209
 2748SOL    HW1 9143   3.366   0.975   2.162
 2748SOL    HW2 9144   3.514   1.033   2.200
 2749SOL     OW 9145   4.924   5.221   4.122
 2749SOL    HW1 9146   4.915   5.154   4.196
 2749SOL    HW2 9147   4.863   5.195   4.047
 2750SOL     OW 9148   1.050   5.247   1.336
 2750SOL    HW1 9149   1.070   5.152   1.361
 2750SOL    HW2 9150   1.068   5.260   1.239
 2751SOL     OW 9151   1.726   0.054   6.953
 2751SOL    HW1 9152   1.795   0.101   6.898
 2751SOL    HW2 9153   1.660   0.009   6.893
 2752SOL     OW 9154   5.045   5.924   5.585
 2752SOL    HW1 9155   4.945   5.932   5.585
 2752SOL    HW2 9156   5.075   5.875   5.503
 2753SOL     OW 9157   2.511   6.094   6.197
 2753SOL    HW1 9158   2.491   6.077   6.294
 2753SOL    HW2 9159   2.437   6.058   6.141
 2754SOL     OW 9160   6.598   0.141   4.760
 2754SOL    HW1 9161   6.511   0.126   4.714
 2754SOL    HW2 9162   6.673   0.112   4.701
 2755SOL     OW 9163   2.789   6.958   3.196
 2755SOL    HW1 9164   2.728   7.010   3.136
 2755SOL    HW2 9165   2.835   6.887   3.143
 2756SOL     OW 9166   6.324   4.642   3.945
 2756SOL    HW1 9167   6.407   4.603   3.984
 2756SOL    HW2 9168   6.327   4.634   3.845
 2757SOL     OW 9169   2.942   1.443   6.474
 2757SOL    HW1 9170   3.034   1.466   6.507
 2757SOL    HW2 9171   2.932   1.343   6.473
 2758SOL     OW 9172   5.092   6.019   3.294
 2758SOL    HW1 9173   5.019   6.016   3.362
 2758SOL    HW2 9174   5.176   6.051   3.338
 2759SOL     OW 9175   3.417   4.630   5.502
 2759SOL    HW1 9176   3.492   4.664   5.558
 2759SOL    HW2 9177   3.375   4.551   5.547
 2760SOL     OW 9178   6.393   5.608   2.538
 2760SOL    HW1 9179   6.349   5.554   2.610
 2760SOL    HW2 9180   6.382   5.562   2.450
 2761SOL     OW 9181   1.149   3.913   3.022
 2761SOL    HW1 9182   1.216   3.980   3.053
 2761SOL    HW2 9183   1.150   3.907   2.923
 2762SOL     OW 9184   1.388   2.285   6.596
 2762SOL    HW1 9185   1.488   2.287   6.589
 2762SOL    HW2 9186   1.357   2.369   6.641
 2763SOL     OW 9187   5.236   1.970   5.949
 2763SOL    HW1 9188   5.288   1.923   5.878
 2763SOL    HW2 9189   5.226   1.910   6.029
 2764SOL     OW 9190   0.325   4.978   2.823
 2764SOL    HW1 9191   0.231   5.007   2.843
 2764SOL    HW2 9192   0.349   5.007   2.730
 2765SOL     OW 9193   7.023   0.092   0.832
 2765SOL    HW1 9194   6.970   0.177   0.831
 2765SOL    HW2 9195   0.013   0.062   0.927
 2766SOL     OW 9196   4.176   0.996   6.667
 2766SOL    HW1 9197   4.249   0.928   6.676
 2766SOL    HW2 9198   4.205   1.082   6.710
 2767SOL     OW 9199   6.080   5.974   6.577
 2767SOL    HW1 9200   6.118   6.062   6.550
 2767SOL    HW2 9201   6.154   5.911   6.599
 2768SOL     OW 9202   3.648   0.665   0.714
 2768SOL    HW1 9203   3.624   0.578   0.756
 2768SOL    HW2 9204   3.734   0.655   0.662
 2769SOL     OW 9205   1.088   4.102   6.161
 2769SOL    HW1 9206   1.111   4.074   6.068
 2769SOL    HW2 9207   1.127   4.036   6.226
 2770SOL     OW 9208   3.831   6.124   5.796
 2770SOL    HW1 9209   3.797   6.146   5.704
 2770SOL    HW2 9210   3.929   6.142   5.800
 2771SOL     OW 9211   5.613   6.535   4.508
 2771SOL    HW1 9212   5.631   6.447   4.552
 2771SOL    HW2 9213   5.690   6.597   4.524
 2772SOL     OW 9214   3.578   0.734   2.538
 2772SOL    HW1 9215   3.575   0.653   2.596
 2772SOL    HW2 9216   3.526   0.718   2.454
 2773SOL     OW 9217   0.338   2.565   3.437
 2773SOL    HW1 9218   0.319   2.614   3.522
 2773SOL    HW2 9219   0.259   2.509   3.413
 2774SOL     OW 9220   5.230   2.662   2.933
 2774SOL    HW1 9221   5.232   2.598   2.856
 2774SOL    HW2 9222   5.320   2.663   2.977
 2775SOL     OW 9223   6.657   3.810   3.951
 2775SOL    HW1 9224   6.580   3.822   3.888
 2775SOL    HW2 9225   6.645   3.725   4.002
 2776SOL     OW 9226   5.164   5.678   0.002
 2776SOL    HW1 9227   5.193   5.772   0.019
 2776SOL    HW2 9228   5.173   5.657   6.928
 2777SOL     OW 9229   2.533   2.012   5.912
 2777SOL    HW1 9230   2.597   1.951   5.958
 2777SOL    HW2 9231   2.505   1.972   5.825
 2778SOL     OW 9232   2.220   5.937   6.289
 2778SOL    HW1 9233   2.133   5.977   6.318
 2778SOL    HW2 9234   2.294   5.976   6.343
 2779SOL     OW 9235   5.951   6.490   1.866
 2779SOL    HW1 9236   5.950   6.568   1.928
 2779SOL    HW2 9237   5.858   6.453   1.857
 2780SOL     OW 9238   0.210   0.560   6.435
 2780SOL    HW1 9239   0.300   0.516   6.427
 2780SOL    HW2 9240   0.221   0.648   6.482
 2781SOL     OW 9241   5.975   0.747   2.614
 2781SOL    HW1 9242   5.945   0.841   2.604
 2781SOL    HW2 9243   6.033   0.739   2.696
 2782SOL     OW 9244   4.252   0.624   5.788
 2782SOL    HW1 9245   4.257   0.686   5.866
 2782SOL    HW2 9246   4.339   0.575   5.778
 2783SOL     OW 9247   6.180   3.189   0.707
 2783SOL    HW1 9248   6.278   3.194   0.689
 2783SOL    HW2 9249   6.160   3.107   0.761
 2784SOL     OW 9250   3.015   1.777   2.228
 2784SOL    HW1 9251   3.009   1.762   2.129
 2784SOL    HW2 9252   3.110   1.765   2.257
 2785SOL     OW 9253   5.046   2.555   1.689
 2785SOL    HW1 9254   5.002   2.534   1.602
 2785SOL    HW2 9255   5.023   2.649   1.716
 2786SOL     OW 9256   6.606   6.200   1.252
 2786SOL    HW1 9257   6.568   6.223   1.342
 2786SOL    HW2 9258   6.551   6.128   1.210
 2787SOL     OW 9259   6.320   5.861   5.567
 2787SOL    HW1 9260   6.394   5.818   5.516
 2787SOL    HW2 9261   6.270   5.924   5.508
 2788SOL     OW 9262   3.416   6.420   5.959
 2788SOL    HW1 9263   3.408   6.356   6.036
 2788SOL    HW2 9264   3.332   6.475   5.953
 2789SOL     OW 9265   1.024   2.451   3.999
 2789SOL    HW1 9266   1.041   2.445   3.901
 2789SOL    HW2 9267   1.010   2.359   4.036
 2790SOL     OW 9268   2.916   4.944   0.202
 2790SOL    HW1 9269   2.856   4.913   0.129
 2790SOL    HW2 9270   2.941   4.867   0.261
 2791SOL     OW 9271   0.247   4.308   2.023
 2791SOL    HW1 9272   0.162   4.344   2.061
 2791SOL    HW2 9273   0.323   4.328   2.085
 2792SOL     OW 9274   3.337   0.629   4.772
 2792SOL    HW1 9275   3.243   0.597   4.785
 2792SOL    HW2 9276   3.341   0.687   4.690
 2793SOL     OW 9277   4.682   4.248   1.344
 2793SOL    HW1 9278   4.649   4.226   1.252
 2793SOL    HW2 9279   4.604   4.269   1.403
 2794SOL     OW 9280   6.914   0.963   6.920
 2794SOL    HW1 9281   6.837   0.984   6.860
 2794SOL    HW2 9282   6.998   0.962   6.867
 2795SOL     OW 9283   0.870   4.929   1.015
 2795SOL    HW1 9284   0.806   4.958   0.944
 2795SOL    HW2 9285   0.821   4.913   1.100
 2796SOL     OW 9286   0.673   5.662   5.606
 2796SOL    HW1 9287   0.622   5.596   5.551
 2796SOL    HW2 9288   0.725   5.722   5.545
 2797SOL     OW 9289   5.737   5.506   5.577
 2797SOL    HW1 9290   5.792   5.453   5.513
 2797SOL    HW2 9291   5.733   5.601   5.548
 2798SOL     OW 9292   6.413   6.093   1.895
 2798SOL    HW1 9293   6.464   6.014   1.931
 2798SOL    HW2 9294   6.361   6.134   1.969
 2799SOL     OW 9295   5.094   5.336   5.665
 2799SOL    HW1 9296   5.150   5.399   5.611
 2799SOL    HW2 9297   5.000   5.337   5.631
 2800SOL     OW 9298   5.915   0.916   0.323
 2800SOL    HW1 9299   5.932   0.818   0.315
 2800SOL    HW2 9300   5.817   0.932   0.337
 2801SOL     OW 9301   0.780   5.556   5.841
 2801SOL    HW1 9302   0.851   5.623   5.862
 2801SOL    HW2 9303   0.727   5.587   5.762
 2802SOL     OW 9304   6.608   6.401   5.707
 2802SOL    HW1 9305   6.694   6.378   5.751
 2802SOL    HW2 9306   6.542   6.327   5.720
 2803SOL     OW 9307   3.523   3.656   5.844
 2803SOL    HW1 9308   3.464   3.577   5.827
 2803SOL    HW2 9309   3.472   3.740   5.822
 2804SOL     OW 9310   0.852   2.664   4.058
 2804SOL    HW1 9311   0.923   2.608   4.016
 2804SOL    HW2 9312   0.767   2.654   4.007
 2805SOL     OW 9313   4.982   3.665   2.178
 2805SOL    HW1 9314   4.927   3.670   2.095
 2805SOL    HW2 9315   4.941   3.600   2.242
 2806SOL     OW 9316   2.345   3.986   6.346
 2806SOL    HW1 9317   2.321   3.928   6.268
 2806SOL    HW2 9318   2.402   4.062   6.315
 2807SOL     OW 9319   2.945   0.739   2.860
 2807SOL    HW1 9320   2.846   0.732   2.842
 2807SOL    HW2 9321   2.994   0.745   2.773
 2808SOL     OW 9322   5.808   5.247   0.494
 2808SOL    HW1 9323   5.756   5.257   0.579
 2808SOL    HW2 9324   5.809   5.334   0.446
 2809SOL     OW 9325   5.758   3.748   2.071
 2809SOL    HW1 9326   5.664   3.718   2.056
 2809SOL    HW2 9327   5.765   3.847   2.056
 2810SOL     OW 9328   2.382   6.152   3.375
 2810SOL    HW1 9329   2.304   6.170   3.436
 2810SOL    HW2 9330   2.356   6.175   3.281
 2811SOL     OW 9331   0.919   0.429   2.697
 2811SOL    HW1 9332   0.991   0.499   2.688
 2811SOL    HW2 9333   0.829   0.473   2.696
 2812SOL     OW 9334   0.667   2.925   0.137
 2812SOL    HW1 9335   0.569   2.914   0.153
 2812SOL    HW2 9336   0.708   2.979   0.210
 2813SOL     OW 9337   1.185   1.657   1.267
 2813SOL    HW1 9338   1.109   1.608   1.225
 2813SOL    HW2 9339   1.154   1.703   1.350
 2814SOL     OW 9340   2.998   3.863   6.712
 2814SOL    HW1 9341   3.021   3.949   6.665
 2814SOL    HW2 9342   3.031   3.867   6.806
 2815SOL     OW 9343   6.862   5.918   5.445
 2815SOL    HW1 9344   6.822   6.007   5.466
 2815SOL    HW2 9345   6.950   5.931   5.400
 2816SOL     OW 9346   6.695   6.054   5.034
 2816SOL    HW1 9347   6.612   6.003   5.009
 2816SOL    HW2 9348   6.758   6.054   4.957
 2817SOL     OW 9349   3.853   0.510   2.357
 2817SOL    HW1 9350   3.765   0.490   2.399
 2817SOL    HW2 9351   3.843   0.581   2.289
 2818SOL     OW 9352   0.993   0.935   1.057
 2818SOL    HW1 9353   1.072   0.973   1.105
 2818SOL    HW2 9354   0.938   0.881   1.121
 2819SOL     OW 9355   0.695   0.665   0.885
 2819SOL    HW1 9356   0.703   0.585   0.825
 2819SOL    HW2 9357   0.743   0.743   0.843
 2820SOL     OW 9358   1.360   2.385   2.346
 2820SOL    HW1 9359   1.268   2.390   2.384
 2820SOL    HW2 9360   1.418   2.455   2.388
 2821SOL     OW 9361   3.986   5.340   6.032
 2821SOL    HW1 9362   4.035   5.371   5.950
 2821SOL    HW2 9363   3.971   5.241   6.026
 2822SOL     OW 9364   3.827   3.133   1.014
 2822SOL    HW1 9365   3.811   3.101   0.920
 2822SOL    HW2 9366   3.746   3.115   1.070
 2823SOL     OW 9367   4.782   0.735   0.811
 2823SOL    HW1 9368   4.809   0.767   0.902
 2823SOL    HW2 9369   4.686   0.708   0.812
 2824SOL     OW 9370   1.856   3.751   5.405
 2824SOL    HW1 9371   1.841   3.847   5.428
 2824SOL    HW2 9372   1.778   3.697   5.437
 2825SOL     OW 9373   5.474   0.904   6.675
 2825SOL    HW1 9374   5.406   0.916   6.747
 2825SOL    HW2 9375   5.455   0.966   6.599
 2826SOL     OW 9376   1.666   3.296   6.001
 2826SOL    HW1 9377   1.696   3.201   6.006
 2826SOL    HW2 9378   1.697   3.346   6.082
 2827SOL     OW 9379   0.364   0.831   6.869
 2827SOL    HW1 9380   0.352   0.753   6.931
 2827SOL    HW2 9381   0.350   0.801   6.774
 2828SOL     OW 9382   1.649   3.353   1.193
 2828SOL    HW1 9383   1.573   3.418   1.192
 2828SOL    HW2 9384   1.713   3.379   1.266
 2829SOL     OW 9385   3.210   3.736   3.057
 2829SOL    HW1 9386   3.275   3.791   3.110
 2829SOL    HW2 9387   3.242   3.642   3.052
 2830SOL     OW 9388   3.784   4.588   5.388
 2830SOL    HW1 9389   3.854   4.575   5.458
 2830SOL    HW2 9390   3.705   4.635   5.428
 2831SOL     OW 9391   6.894   2.173   2.017
 2831SOL    HW1 9392   6.979   2.220   2.037
 2831SOL    HW2 9393   6.817   2.235   2.032
 2832SOL     OW 9394   0.773   3.390   1.258
 2832SOL    HW1 9395   0.834   3.399   1.338
 2832SOL    HW2 9396   0.682   3.361   1.289
 2833SOL     OW 9397   2.298   0.416   2.019
 2833SOL    HW1 9398   2.240   0.379   2.092
 2833SOL    HW2 9399   2.346   0.341   1.974
 2834SOL     OW 9400   4.611   6.028   4.395
 2834SOL    HW1 9401   4.585   5.995   4.486
 2834SOL    HW2 9402   4.598   6.128   4.392
 2835SOL     OW 9403   1.421   6.153   0.432
 2835SOL    HW1 9404   1.512   6.114   0.446
 2835SOL    HW2 9405   1.375   6.164   0.520
 2836SOL     OW 9406   3.797   6.806   3.447
 2836SOL    HW1 9407   3.704   6.768   3.447
 2836SOL    HW2 9408   3.848   6.768   3.524
 2837SOL     OW 9409   5.725   4.035   2.220
 2837SOL    HW1 9410   5.649   4.010   2.160
 2837SOL    HW2 9411   5.690   4.048   2.313
 2838SOL     OW 9412   5.205   4.022   6.237
 2838SOL    HW1 9413   5.268   3.965   6.185
 2838SOL    HW2 9414   5.250   4.109   6.259
 2839SOL     OW 9415   6.399   3.083   3.857
 2839SOL    HW1 9416   6.407   3.119   3.950
 2839SOL    HW2 9417   6.483   3.104   3.806
 2840SOL     OW 9418   0.762   5.349   2.954
 2840SOL    HW1 9419   0.699   5.417   2.992
 2840SOL    HW2 9420   0.733   5.258   2.983
 2841SOL     OW 9421   5.883   2.392   0.657
 2841SOL    HW1 9422   5.938   2.365   0.737
 2841SOL    HW2 9423   5.904   2.487   0.633
 2842SOL     OW 9424   1.081   5.887   4.574
 2842SOL    HW1 9425   1.176   5.901   4.545
 2842SOL    HW2 9426   1.065   5.935   4.660
 2843SOL     OW 9427   2.054   3.250   3.035
 2843SOL    HW1 9428   1.976   3.210   2.988
 2843SOL    HW2 9429   2.100   3.179   3.089
 2844SOL     OW 9430   4.896   4.259   1.158
 2844SOL    HW1 9431   4.850   4.261   1.247
 2844SOL    HW2 9432   4.879   4.345   1.109
 2845SOL     OW 9433   5.045   3.162   3.765
 2845SOL    HW1 9434   5.030   3.231   3.695
 2845SOL    HW2 9435   4.982   3.178   3.841
 2846SOL     OW 9436   4.429   0.513   7.010
 2846SOL    HW1 9437   4.526   0.529   0.005
 2846SOL    HW2 9438   4.418   0.426   6.962
 2847SOL     OW 9439   4.738   4.306   2.224
 2847SOL    HW1 9440   4.664   4.293   2.159
 2847SOL    HW2 9441   4.825   4.283   2.180
 2848SOL     OW 9442   0.573   2.790   5.028
 2848SOL    HW1 9443   0.652   2.800   5.089
 2848SOL    HW2 9444   0.604   2.758   4.939
 2849SOL     OW 9445   3.564   0.620   2.079
 2849SOL    HW1 9446   3.660   0.633   2.105
 2849SOL    HW2 9447   3.505   0.646   2.156
 2850SOL     OW 9448   2.333   6.691   3.392
 2850SOL    HW1 9449   2.341   6.756   3.317
 2850SOL    HW2 9450   2.281   6.732   3.467
 2851SOL     OW 9451   4.730   3.270   7.009
 2851SOL    HW1 9452   4.666   3.194   7.022
 2851SOL    HW2 9453   4.733   3.295   6.912
 2852SOL     OW 9454   6.223   4.352   6.660
 2852SOL    HW1 9455   6.232   4.422   6.589
 2852SOL    HW2 9456   6.192   4.396   6.745
 2853SOL     OW 9457   0.171   3.415   0.098
 2853SOL    HW1 9458   0.264   3.385   0.077
 2853SOL    HW2 9459   0.120   3.427   0.013
 2854SOL     OW 9460   3.154   1.031   6.635
 2854SOL    HW1 9461   3.124   1.048   6.729
 2854SOL    HW2 9462   3.095   1.083   6.572
 2855SOL     OW 9463   0.789   2.014   4.478
 2855SOL    HW1 9464   0.823   2.031   4.385
 2855SOL    HW2 9465   0.864   2.023   4.543
 2856SOL     OW 9466   1.584   3.762   3.163
 2856SOL    HW1 9467   1.665   3.729   3.115
 2856SOL    HW2 9468   1.547   3.690   3.221
 2857SOL     OW 9469   7.012   3.248   0.253
 2857SOL    HW1 9470   0.059   3.317   0.237
 2857SOL    HW2 9471   6.923   3.284   0.227
 2858SOL     OW 9472   5.357   6.063   2.911
 2858SOL    HW1 9473   5.390   6.123   2.984
 2858SOL    HW2 9474   5.419   6.068   2.833
 2859SOL     OW 9475   5.548   5.990   0.549
 2859SOL    HW1 9476   5.484   5.957   0.479
 2859SOL    HW2 9477   5.586   5.912   0.599
 2860SOL     OW 9478   1.996   6.012   1.775
 2860SOL    HW1 9479   2.094   6.021   1.793
 2860SOL    HW2 9480   1.977   6.046   1.683
 2861SOL     OW 9481   3.760   5.118   5.902
 2861SOL    HW1 9482   3.679   5.065   5.927
 2861SOL    HW2 9483   3.841   5.075   5.942
 2862SOL     OW 9484   4.649   3.087   1.281
 2862SOL    HW1 9485   4.623   3.167   1.335
 2862SOL    HW2 9486   4.733   3.047   1.318
 2863SOL     OW 9487   5.228   0.794   6.256
 2863SOL    HW1 9488   5.262   0.866   6.316
 2863SOL    HW2 9489   5.282   0.711   6.270
 2864SOL     OW 9490   4.337   3.378   1.788
 2864SOL    HW1 9491   4.322   3.283   1.763
 2864SOL    HW2 9492   4.337   3.435   1.705
 2865SOL     OW 9493   4.939   6.240   4.107
 2865SOL    HW1 9494   4.945   6.161   4.045
 2865SOL    HW2 9495   4.974   6.214   4.197
 2866SOL     OW 9496   5.462   4.557   6.644
 2866SOL    HW1 9497   5.539   4.493   6.643
 2866SOL    HW2 9498   5.426   4.569   6.552
 2867SOL     OW 9499   6.527   6.756   2.309
 2867SOL    HW1 9500   6.513   6.669   2.356
 2867SOL    HW2 9501   6.455   6.768   2.239
 2868SOL     OW 9502   0.938   1.636   5.945
 2868SOL    HW1 9503   0.922   1.570   5.872
 2868SOL    HW2 9504   1.029   1.623   5.983
 2869SOL     OW 9505   5.567   6.700   3.977
 2869SOL    HW1 9506   5.571   6.633   3.903
 2869SOL    HW2 9507   5.568   6.792   3.940
 2870SOL     OW 9508   1.298   1.693   0.515
 2870SOL    HW1 9509   1.351   1.640   0.450
 2870SOL    HW2 9510   1.200   1.684   0.494
 2871SOL     OW 9511   6.647   1.130   1.444
 2871SOL    HW1 9512   6.695   1.043   1.445
 2871SOL    HW2 9513   6.681   1.187   1.369
 2872SOL     OW 9514   2.849   1.611   2.375
 2872SOL    HW1 9515   2.927   1.657   2.331
 2872SOL    HW2 9516   2.860   1.615   2.474
 2873SOL     OW 9517   0.672   5.951   1.116
 2873SOL    HW1 9518   0.701   6.033   1.065
 2873SOL    HW2 9519   0.661   5.975   1.212
 2874SOL     OW 9520   3.337   0.280   2.578
 2874SOL    HW1 9521   3.313   0.281   2.675
 2874SOL    HW2 9522   3.349   0.186   2.548
 2875SOL     OW 9523   2.844   6.833   2.726
 2875SOL    HW1 9524   2.885   6.924   2.728
 2875SOL    HW2 9525   2.812   6.812   2.634
 2876SOL     OW 9526   1.443   6.048   2.299
 2876SOL    HW1 9527   1.374   6.016   2.234
 2876SOL    HW2 9528   1.533   6.016   2.269
 2877SOL     OW 9529   1.843   1.990   5.798
 2877SOL    HW1 9530   1.829   2.066   5.861
 2877SOL    HW2 9531   1.927   1.941   5.823
 2878SOL     OW 9532   3.187   3.097   4.717
 2878SOL    HW1 9533   3.112   3.118   4.779
 2878SOL    HW2 9534   3.157   3.109   4.622
 2879SOL     OW 9535   4.714   4.732   5.851
 2879SOL    HW1 9536   4.696   4.830   5.863
 2879SOL    HW2 9537   4.751   4.694   5.935
 2880SOL     OW 9538   0.500   1.985   3.601
 2880SOL    HW1 9539   0.556   2.067   3.613
 2880SOL    HW2 9540   0.517   1.946   3.510
 2881SOL     OW 9541   3.223   5.405   6.721
 2881SOL    HW1 9542   3.220   5.499   6.685
 2881SOL    HW2 9543   3.280   5.404   6.803
 2882SOL     OW 9544   5.924   6.148   0.871
 2882SOL    HW1 9545   5.859   6.144   0.796
 2882SOL    HW2 9546   5.893   6.091   0.946
 2883SOL     OW 9547   6.521   6.564   3.192
 2883SOL    HW1 9548   6.502   6.556   3.094
 2883SOL    HW2 9549   6.442   6.531   3.244
 2884SOL     OW 9550   6.993   5.275   2.723
 2884SOL    HW1 9551   0.020   5.227   2.795
 2884SOL    HW2 9552   6.981   5.214   2.645
 2885SOL     OW 9553   1.513   2.964   3.833
 2885SOL    HW1 9554   1.477   2.995   3.745
 2885SOL    HW2 9555   1.565   3.038   3.875
 2886SOL     OW 9556   2.267   4.282   0.163
 2886SOL    HW1 9557   2.261   4.368   0.213
 2886SOL    HW2 9558   2.176   4.257   0.130
 2887SOL     OW 9559   0.371   5.963   4.076
 2887SOL    HW1 9560   0.289   6.011   4.106
 2887SOL    HW2 9561   0.450   5.997   4.127
 2888SOL     OW 9562   0.115   6.078   0.310
 2888SOL    HW1 9563   0.122   6.142   0.233
 2888SOL    HW2 9564   0.070   5.994   0.279
 2889SOL     OW 9565   2.582   6.801   2.863
 2889SOL    HW1 9566   2.585   6.730   2.934
 2889SOL    HW2 9567   2.675   6.826   2.837
 2890SOL     OW 9568   2.446   6.142   0.952
 2890SOL    HW1 9569   2.445   6.086   0.869
 2890SOL    HW2 9570   2.394   6.226   0.937
 2891SOL     OW 9571   0.745   3.075   2.572
 2891SOL    HW1 9572   0.705   2.988   2.545
 2891SOL    HW2 9573   0.677   3.130   2.621
 2892SOL     OW 9574   6.433   3.685   1.028
 2892SOL    HW1 9575   6.493   3.708   1.105
 2892SOL    HW2 9576   6.485   3.636   0.959
 2893SOL     OW 9577   1.188   5.885   5.094
 2893SOL    HW1 9578   1.225   5.838   5.174
 2893SOL    HW2 9579   1.250   5.872   5.016
 2894SOL     OW 9580   1.850   4.307   1.758
 2894SOL    HW1 9581   1.863   4.364   1.839
 2894SOL    HW2 9582   1.909   4.226   1.765
 2895SOL     OW 9583   3.642   0.380   6.264
 2895SOL    HW1 9584   3.567   0.409   6.204
 2895SOL    HW2 9585   3.711   0.332   6.209
 2896SOL     OW 9586   6.041   6.932   6.143
 2896SOL    HW1 9587   6.138   6.945   6.121
 2896SOL    HW2 9588   6.030   6.846   6.193
 2897SOL     OW 9589   3.658   5.219   2.549
 2897SOL    HW1 9590   3.573   5.270   2.548
 2897SOL    HW2 9591   3.686   5.201   2.643
 2898SOL     OW 9592   6.229   4.006   3.697
 2898SOL    HW1 9593   6.170   4.034   3.622
 2898SOL    HW2 9594   6.319   3.980   3.661
 2899SOL     OW 9595   0.255   2.275   1.272
 2899SOL    HW1 9596   0.244   2.284   1.371
 2899SOL    HW2 9597   0.352   2.280   1.248
 2900SOL     OW 9598   3.307   3.902   0.240
 2900SOL    HW1 9599   3.236   3.874   0.305
 2900SOL    HW2 9600   3.306   4.001   0.229
 2901SOL     OW 9601   2.044   4.792   4.071
 2901SOL    HW1 9602   1.961   4.808   4.125
 2901SOL    HW2 9603   2.021   4.788   3.974
 2902SOL     OW 9604   0.217   5.795   3.942
 2902SOL    HW1 9605   0.136   5.767   3.994
 2902SOL    HW2 9606   0.277   5.848   4.002
 2903SOL     OW 9607   4.472   6.229   0.566
 2903SOL    HW1 9608   4.388   6.219   0.513
 2903SOL    HW2 9609   4.536   6.287   0.516
 2904SOL     OW 9610   2.934   4.824   4.785
 2904SOL    HW1 9611   2.906   4.747   4.842
 2904SOL    HW2 9612   3.031   4.817   4.765
 2905SOL     OW 9613   1.007   4.740   2.847
 2905SOL    HW1 9614   1.051   4.752   2.758
 2905SOL    HW2 9615   1.063   4.782   2.918
 2906SOL     OW 9616   5.141   6.181   3.026
 2906SOL    HW1 9617   5.154   6.142   3.117
 2906SOL    HW2 9618   5.191   6.127   2.958
 2907SOL     OW 9619   1.048   0.838   4.108
 2907SOL    HW1 9620   1.076   0.933   4.096
 2907SOL    HW2 9621   0.974   0.834   4.176
 2908SOL     OW 9622   4.930   0.372   3.726
 2908SOL    HW1 9623   5.019   0.373   3.681
 2908SOL    HW2 9624   4.942   0.360   3.824
 2909SOL     OW 9625   1.169   6.320   3.232
 2909SOL    HW1 9626   1.253   6.272   3.254
 2909SOL    HW2 9627   1.190   6.408   3.189
 2910SOL     OW 9628   6.784   0.806   4.185
 2910SOL    HW1 9629   6.761   0.721   4.138
 2910SOL    HW2 9630   6.780   0.791   4.284
 2911SOL     OW 9631   0.895   5.131   3.652
 2911SOL    HW1 9632   0.836   5.068   3.704
 2911SOL    HW2 9633   0.946   5.189   3.716
 2912SOL     OW 9634   0.071   6.613   0.857
 2912SOL    HW1 9635   0.162   6.573   0.863
 2912SOL    HW2 9636   0.002   6.543   0.875
 2913SOL     OW 9637   2.057   4.315   1.959
 2913SOL    HW1 9638   2.153   4.296   1.981
 2913SOL    HW2 9639   1.999   4.247   2.004
 2914SOL     OW 9640   5.491   5.055   0.572
 2914SOL    HW1 9641   5.552   5.029   0.497
 2914SOL    HW2 9642   5.414   5.107   0.535
 2915SOL     OW 9643   2.955   2.206   2.990
 2915SOL    HW1 9644   2.933   2.172   2.899
 2915SOL    HW2 9645   2.873   2.202   3.048
 2916SOL     OW 9646   2.782   5.109   6.854
 2916SOL    HW1 9647   2.819   5.189   6.807
 2916SOL    HW2 9648   2.730   5.139   6.934
 2917SOL     OW 9649   2.753   0.100   4.202
 2917SOL    HW1 9650   2.800   0.147   4.277
 2917SOL    HW2 9651   2.667   0.146   4.182
 2918SOL     OW 9652   6.196   3.799   0.886
 2918SOL    HW1 9653   6.167   3.892   0.908
 2918SOL    HW2 9654   6.284   3.781   0.930
 2919SOL     OW 9655   0.143   5.890   4.590
 2919SOL    HW1 9656   0.085   5.824   4.638
 2919SOL    HW2 9657   0.087   5.968   4.561
 2920SOL     OW 9658   1.842   0.464   1.993
 2920SOL    HW1 9659   1.906   0.492   2.065
 2920SOL    HW2 9660   1.810   0.544   1.943
 2921SOL     OW 9661   6.836   6.841   5.759
 2921SOL    HW1 9662   6.915   6.885   5.800
 2921SOL    HW2 9663   6.755   6.897   5.773
 2922SOL     OW 9664   4.242   0.074   2.910
 2922SOL    HW1 9665   4.315   0.037   2.967
 2922SOL    HW2 9666   4.281   0.136   2.842
 2923SOL     OW 9667   6.403   4.858   4.396
 2923SOL    HW1 9668   6.381   4.761   4.388
 2923SOL    HW2 9669   6.353   4.898   4.473
 2924SOL     OW 9670   6.999   1.497   5.204
 2924SOL    HW1 9671   7.008   1.515   5.302
 2924SOL    HW2 9672   6.927   1.430   5.189
 2925SOL     OW 9673   5.282   0.910   6.896
 2925SOL    HW1 9674   5.236   0.839   6.842
 2925SOL    HW2 9675   5.220   0.943   6.967
 2926SOL     OW 9676   6.881   1.969   5.558
 2926SOL    HW1 9677   6.925   2.041   5.504
 2926SOL    HW2 9678   6.846   2.008   5.643
 2927SOL     OW 9679   2.146   3.054   0.896
 2927SOL    HW1 9680   2.130   2.978   0.833
 2927SOL    HW2 9681   2.224   3.034   0.955
 2928SOL     OW 9682   6.511   1.586   0.317
 2928SOL    HW1 9683   6.491   1.620   0.409
 2928SOL    HW2 9684   6.475   1.650   0.250
 2929SOL     OW 9685   1.055   2.765   4.648
 2929SOL    HW1 9686   1.083   2.777   4.553
 2929SOL    HW2 9687   1.137   2.749   4.704
 2930SOL     OW 9688   6.154   5.140   5.469
 2930SOL    HW1 9689   6.124   5.076   5.540
 2930SOL    HW2 9690   6.235   5.189   5.500
 2931SOL     OW 9691   4.088   4.640   0.170
 2931SOL    HW1 9692   4.065   4.584   0.091
 2931SOL    HW2 9693   4.033   4.724   0.169
 2932SOL     OW 9694   6.870   5.771   1.856
 2932SOL    HW1 9695   6.940   5.789   1.787
 2932SOL    HW2 9696   6.799   5.712   1.816
 2933SOL     OW 9697   0.528   6.979   2.219
 2933SOL    HW1 9698   0.590   0.032   2.239
 2933SOL    HW2 9699   0.481   6.996   2.132
 2934SOL     OW 9700   4.171   3.084   1.278
 2934SOL    HW1 9701   4.249   3.034   1.240
 2934SOL    HW2 9702   4.172   3.178   1.246
 2935SOL     OW 9703   0.659   2.513   6.174
 2935SOL    HW1 9704   0.650   2.451   6.097
 2935SOL    HW2 9705   0.614   2.473   6.254
 2936SOL     OW 9706   4.596   0.454   0.635
 2936SOL    HW1 9707   4.538   0.509   0.695
 2936SOL    HW2 9708   4.574   0.475   0.540
 2937SOL     OW 9709   4.552   5.074   1.157
 2937SOL    HW1 9710   4.454   5.089   1.169
 2937SOL    HW2 9711   4.585   5.015   1.231
 2938SOL     OW 9712   6.143   5.870   0.314
 2938SOL    HW1 9713   6.171   5.775   0.329
 2938SOL    HW2 9714   6.050   5.871   0.277
 2939SOL     OW 9715   0.512   6.161   1.761
 2939SOL    HW1 9716   0.529   6.253   1.797
 2939SOL    HW2 9717   0.422   6.158   1.718
 2940SOL     OW 9718   6.005   6.004   4.626
 2940SOL    HW1 9719   5.940   5.997   4.551
 2940SOL    HW2 9720   5.994   6.093   4.672
 2941SOL     OW 9721   1.976   2.832   3.045
 2941SOL    HW1 9722   1.876   2.825   3.046
 2941SOL    HW2 9723   2.016   2.745   3.018
 2942SOL     OW 9724   2.739   1.924   0.046
 2942SOL    HW1 9725   2.676   1.990   0.006
 2942SOL    HW2 9726   2.800   1.888   6.998
 2943SOL     OW 9727   6.063   4.450   3.954
 2943SOL    HW1 9728   6.159   4.431   3.939
 2943SOL    HW2 9729   6.051   4.493   4.044
 2944SOL     OW 9730   2.585   6.154   3.744
 2944SOL    HW1 9731   2.485   6.153   3.748
 2944SOL    HW2 9732   2.620   6.202   3.824
 2945SOL     OW 9733   5.270   4.182   1.859
 2945SOL    HW1 9734   5.206   4.117   1.900
 2945SOL    HW2 9735   5.337   4.133   1.805
 2946SOL     OW 9736   2.837   4.164   5.810
 2946SOL    HW1 9737   2.876   4.254   5.793
 2946SOL    HW2 9738   2.901   4.093   5.783
 2947SOL     OW 9739   6.866   6.309   0.503
 2947SOL    HW1 9740   6.867   6.242   0.577
 2947SOL    HW2 9741   6.802   6.383   0.525
 2948SOL     OW 9742   5.922   4.782   3.478
 2948SOL    HW1 9743   5.938   4.847   3.552
 2948SOL    HW2 9744   5.824   4.762   3.471
 2949SOL     OW 9745   0.969   6.248   0.304
 2949SOL    HW1 9746   1.050   6.287   0.259
 2949SOL    HW2 9747   0.980   6.253   0.403
 2950SOL     OW 9748   5.524   4.463   2.699
 2950SOL    HW1 9749   5.527   4.563   2.697
 2950SOL    HW2 9750   5.489   4.432   2.787
 2951SOL     OW 9751   5.907   0.595   1.710
 2951SOL    HW1 9752   5.874   0.508   1.673
 2951SOL    HW2 9753   5.960   0.643   1.640
 2952SOL     OW 9754   6.075   0.902   5.003
 2952SOL    HW1 9755   5.992   0.950   5.030
 2952SOL    HW2 9756   6.154   0.942   5.050
 2953SOL     OW 9757   6.753   5.212   3.071
 2953SOL    HW1 9758   6.700   5.145   3.019
 2953SOL    HW2 9759   6.845   5.219   3.033
 2954SOL     OW 9760   0.624   4.372   6.507
 2954SOL    HW1 9761   0.597   4.289   6.459
 2954SOL    HW2 9762   0.723   4.382   6.506
 2955SOL     OW 9763   1.167   4.187   0.147
 2955SOL    HW1 9764   1.133   4.262   0.091
 2955SOL    HW2 9765   1.150   4.206   0.244
 2956SOL     OW 9766   6.882   4.848   4.214
 2956SOL    HW1 9767   6.952   4.916   4.238
 2956SOL    HW2 9768   6.811   4.847   4.284
 2957SOL     OW 9769   3.865   5.341   1.724
 2957SOL    HW1 9770   3.770   5.309   1.720
 2957SOL    HW2 9771   3.925   5.274   1.681
 2958SOL     OW 9772   1.851   5.409   3.047
 2958SOL    HW1 9773   1.788   5.424   3.123
 2958SOL    HW2 9774   1.875   5.496   3.006
 2959SOL     OW 9775   5.601   2.498   3.003
 2959SOL    HW1 9776   5.660   2.452   3.069
 2959SOL    HW2 9777   5.524   2.540   3.050
 2960SOL     OW 9778   3.663   0.802   0.127
 2960SOL    HW1 9779   3.720   0.834   0.051
 2960SOL    HW2 9780   3.702   0.720   0.167
 2961SOL     OW 9781   5.876   4.807   2.923
 2961SOL    HW1 9782   5.937   4.742   2.968
 2961SOL    HW2 9783   5.848   4.877   2.988
 2962SOL     OW 9784   5.201   6.794   3.326
 2962SOL    HW1 9785   5.175   6.698   3.326
 2962SOL    HW2 9786   5.278   6.808   3.263
 2963SOL     OW 9787   1.388   1.355   5.914
 2963SOL    HW1 9788   1.466   1.296   5.892
 2963SOL    HW2 9789   1.415   1.421   5.984
 2964SOL     OW 9790   0.371   2.979   6.792
 2964SOL    HW1 9791   0.329   2.898   6.834
 2964SOL    HW2 9792   0.385   2.961   6.694
 2965SOL     OW 9793   0.760   0.829   4.996
 2965SOL    HW1 9794   0.789   0.900   4.932
 2965SOL    HW2 9795   0.787   0.855   5.089
 2966SOL     OW 9796   4.380   5.808   3.926
 2966SOL    HW1 9797   4.287   5.845   3.926
 2966SOL    HW2 9798   4.433   5.852   3.854
 2967SOL     OW 9799   0.019   1.318   5.967
 2967SOL    HW1 9800   0.042   1.401   6.016
 2967SOL    HW2 9801   6.987   1.258   6.026
 2968SOL     OW 9802   2.513   2.845   0.769
 2968SOL    HW1 9803   2.432   2.878   0.720
 2968SOL    HW2 9804   2.486   2.810   0.859
 2969SOL     OW 9805   4.930   3.565   4.543
 2969SOL    HW1 9806   4.915   3.476   4.500
 2969SOL    HW2 9807   4.990   3.620   4.485
 2970SOL     OW 9808   2.838   2.743   5.682
 2970SOL    HW1 9809   2.754   2.786   5.716
 2970SOL    HW2 9810   2.886   2.807   5.622
 2971SOL     OW 9811   5.647   3.855   0.047
 2971SOL    HW1 9812   5.679   3.762   0.063
 2971SOL    HW2 9813   5.556   3.866   0.085
 2972SOL     OW 9814   6.260   5.114   0.145
 2972SOL    HW1 9815   6.266   5.082   0.051
 2972SOL    HW2 9816   6.164   5.130   0.169
 2973SOL     OW 9817   4.877   0.026   2.312
 2973SOL    HW1 9818   4.874   0.125   2.319
 2973SOL    HW2 9819   4.938   7.013   2.383
 2974SOL     OW 9820   6.337   4.784   3.329
 2974SOL    HW1 9821   6.397   4.863   3.342
 2974SOL    HW2 9822   6.378   4.721   3.263
 2975SOL     OW 9823   4.989   4.657   3.698
 2975SOL    HW1 9824   4.995   4.711   3.782
 2975SOL    HW2 9825   5.080   4.622   3.674
 2976SOL     OW 9826   4.271   1.975   3.301
 2976SOL    HW1 9827   4.345   2.005   3.241
 2976SOL    HW2 9828   4.285   2.014   3.392
 2977SOL     OW 9829   1.079   0.344   2.292
 2977SOL    HW1 9830   1.147   0.319   2.223
 2977SOL    HW2 9831   1.041   0.434   2.272
 2978SOL     OW 9832   4.355   3.911   6.733
 2978SOL    HW1 9833   4.267   3.951   6.706
 2978SOL    HW2 9834   4.383   3.843   6.665
 2979SOL     OW 9835   3.302   1.526   4.513
 2979SOL    HW1 9836   3.249   1.598   4.557
 2979SOL    HW2 9837   3.392   1.561   4.487
 2980SOL     OW 9838   3.594   4.554   6.497
 2980SOL    HW1 9839   3.516   4.523   6.443
 2980SOL    HW2 9840   3.566   4.565   6.592
 2981SOL     OW 9841   2.155   1.972   6.923
 2981SOL    HW1 9842   2.219   1.991   6.849
 2981SOL    HW2 9843   2.173   1.880   6.959
 2982SOL     OW 9844   1.924   6.764   2.373
 2982SOL    HW1 9845   1.888   6.671   2.365
 2982SOL    HW2 9846   1.861   6.828   2.331
 2983SOL     OW 9847   7.013   2.582   6.597
 2983SOL    HW1 9848   6.946   2.511   6.577
 2983SOL    HW2 9849   6.971   2.653   6.654
 2984SOL     OW 9850   6.193   4.920   6.900
 2984SOL    HW1 9851   6.093   4.923   6.889
 2984SOL    HW2 9852   6.218   4.837   6.950
 2985SOL     OW 9853   0.664   0.146   4.796
 2985SOL    HW1 9854   0.660   0.201   4.880
 2985SOL    HW2 9855   0.754   0.158   4.753
 2986SOL     OW 9856   3.393   4.112   2.512
 2986SOL    HW1 9857   3.383   4.210   2.529
 2986SOL    HW2 9858   3.305   4.067   2.525
 2987SOL     OW 9859   1.178   2.154   3.890
 2987SOL    HW1 9860   1.235   2.124   3.813
 2987SOL    HW2 9861   1.229   2.218   3.947
 2988SOL     OW 9862   1.163   0.457   1.478
 2988SOL    HW1 9863   1.107   0.523   1.427
 2988SOL    HW2 9864   1.176   0.375   1.422
 2989SOL     OW 9865   5.118   3.249   5.209
 2989SOL    HW1 9866   5.122   3.338   5.163
 2989SOL    HW2 9867   5.076   3.261   5.299
 2990SOL     OW 9868   5.352   2.315   4.351
 2990SOL    HW1 9869   5.390   2.362   4.431
 2990SOL    HW2 9870   5.308   2.383   4.291
 2991SOL     OW 9871   6.058   3.704   0.672
 2991SOL    HW1 9872   6.126   3.651   0.621
 2991SOL    HW2 9873   6.098   3.734   0.759
 2992SOL     OW 9874   0.640   3.999   4.577
 2992SOL    HW1 9875   0.570   4.007   4.506
 2992SOL    HW2 9876   0.598   3.969   4.663
 2993SOL     OW 9877   0.397   4.663   0.337
 2993SOL    HW1 9878   0.475   4.718   0.307
 2993SOL    HW2 9879   0.410   4.568   0.309
 2994SOL     OW 9880   4.816   6.282   6.766
 2994SOL    HW1 9881   4.873   6.283   6.849
 2994SOL    HW2 9882   4.794   6.376   6.741
 2995SOL     OW 9883   4.458   0.710   0.538
 2995SOL    HW1 9884   4.432   0.676   0.448
 2995SOL    HW2 9885   4.542   0.764   0.530
 2996SOL     OW 9886   1.397   2.106   4.753
 2996SOL    HW1 9887   1.406   2.076   4.848
 2996SOL    HW2 9888   1.321   2.171   4.747
 2997SOL     OW 9889   4.232   0.778   3.276
 2997SOL    HW1 9890   4.155   0.823   3.323
 2997SOL    HW2 9891   4.198   0.700   3.224
 2998SOL     OW 9892   2.738   0.476   4.026
 2998SOL    HW1 9893   2.748   0.421   4.110
 2998SOL    HW2 9894   2.717   0.570   4.050
 2999SOL     OW 9895   3.040   4.609   6.867
 2999SOL    HW1 9896   2.970   4.615   6.796
 2999SOL    HW2 9897   3.114   4.549   6.836
 3000SOL     OW 9898   2.772   3.512   5.858
 3000SOL    HW1 9899   2.691   3.455   5.845
 3000SOL    HW2 9900   2.835   3.498   5.782
 3001SOL     OW 9901   5.609   0.987   0.282
 3001SOL    HW1 9902   5.609   1.034   0.194
 3001SOL    HW2 9903   5.547   0.908   0.278
 3002SOL     OW 9904   2.747   1.438   0.841
 3002SOL    HW1 9905   2.670   1.410   0.899
 3002SOL    HW2 9906   2.830   1.390   0.870
 3003SOL     OW 9907   1.518   6.177   0.993
 3003SOL    HW1 9908   1.435   6.231   0.978
 3003SOL    HW2 9909   1.495   6.080   0.986
 3004SOL     OW 9910   2.049   4.296   4.128
 3004SOL    HW1 9911   2.093   4.382   4.154
 3004SOL    HW2 9912   2.115   4.221   4.138
 3005SOL     OW 9913   0.720   3.230   5.533
 3005SOL    HW1 9914   0.799   3.187   5.576
 3005SOL    HW2 9915   0.711   3.196   5.439
 3006SOL     OW 9916   5.429   1.847   5.762
 3006SOL    HW1 9917   5.388   1.907   5.693
 3006SOL    HW2 9918   5.431   1.753   5.727
 3007SOL     OW 9919   4.898   5.607   0.063
 3007SOL    HW1 9920   4.989   5.601   0.022
 3007SOL    HW2 9921   4.865   5.702   0.056
 3008SOL     OW 9922   3.977   2.175   6.030
 3008SOL    HW1 9923   3.941   2.149   5.940
 3008SOL    HW2 9924   3.910   2.234   6.076
 3009SOL     OW 9925   6.508   2.426   2.964
 3009SOL    HW1 9926   6.584   2.487   2.986
 3009SOL    HW2 9927   6.543   2.338   2.931
 3010SOL     OW 9928   3.946   5.635   5.896
 3010SOL    HW1 9929   3.846   5.635   5.894
 3010SOL    HW2 9930   3.979   5.725   5.867
 3011SOL     OW 9931   6.645   0.283   2.252
 3011SOL    HW1 9932   6.588   0.228   2.190
 3011SOL    HW2 9933   6.662   0.372   2.211
 3012SOL     OW 9934   2.735   3.201   6.580
 3012SOL    HW1 9935   2.729   3.146   6.664
 3012SOL    HW2 9936   2.685   3.155   6.507
 3013SOL     OW 9937   6.819   5.308   3.327
 3013SOL    HW1 9938   6.832   5.403   3.298
 3013SOL    HW2 9939   6.809   5.250   3.246
 3014SOL     OW 9940   5.275   1.053   6.357
 3014SOL    HW1 9941   5.352   1.100   6.401
 3014SOL    HW2 9942   5.189   1.093   6.388
 3015SOL     OW 9943   2.737   0.812   0.399
 3015SOL    HW1 9944   2.794   0.890   0.374
 3015SOL    HW2 9945   2.680   0.836   0.478
 3016SOL     OW 9946   3.324   6.932   4.321
 3016SOL    HW1 9947   3.352   6.970   4.233
 3016SOL    HW2 9948   3.329   7.003   4.391
 3017SOL     OW 9949   6.235   4.886   2.122
 3017SOL    HW1 9950   6.151   4.914   2.168
 3017SOL    HW2 9951   6.218   4.803   2.069
 3018SOL     OW 9952   3.949   6.979   0.259
 3018SOL    HW1 9953   3.868   6.922   0.245
 3018SOL    HW2 9954   3.953   0.026   0.188
 3019SOL     OW 9955   1.225   6.859   0.055
 3019SOL    HW1 9956   1.178   6.785   0.103
 3019SOL    HW2 9957   1.323   6.851   0.068
 3020SOL     OW 9958   4.993   3.316   6.864
 3020SOL    HW1 9959   4.938   3.360   6.793
 3020SOL    HW2 9960   5.082   3.290   6.826
 3021SOL     OW 9961   3.027   6.667   4.442
 3021SOL    HW1 9962   3.037   6.747   4.501
 3021SOL    HW2 9963   2.931   6.656   4.417
 3022SOL     OW 9964   3.782   6.226   3.619
 3022SOL    HW1 9965   3.737   6.137   3.628
 3022SOL    HW2 9966   3.713   6.296   3.598
 3023SOL     OW 9967   4.064   0.264   2.822
 3023SOL    HW1 9968   4.117   0.226   2.897
 3023SOL    HW2 9969   4.126   0.296   2.750
 3024SOL     OW 9970   6.251   6.216   4.986
 3024SOL    HW1 9971   6.209   6.127   5.003
 3024SOL    HW2 9972   6.241   6.240   4.890
 3025SOL     OW 9973   4.055   5.758   0.512
 3025SOL    HW1 9974   3.992   5.822   0.555
 3025SOL    HW2 9975   4.147   5.771   0.549
 3026SOL     OW 9976   6.355   1.281   0.346
 3026SOL    HW1 9977   6.316   1.373   0.346
 3026SOL    HW2 9978   6.285   1.215   0.318
 3027SOL     OW 9979   4.316   1.404   2.242
 3027SOL    HW1 9980   4.270   1.383   2.329
 3027SOL    HW2 9981   4.293   1.498   2.215
 3028SOL     OW 9982   1.684   4.177   6.220
 3028SOL    HW1 9983   1.780   4.202   6.212
 3028SOL    HW2 9984   1.662   4.105   6.154
 3029SOL     OW 9985   0.406   1.912   3.855
 3029SOL    HW1 9986   0.376   1.995   3.902
 3029SOL    HW2 9987   0.440   1.936   3.764
 3030SOL     OW 9988   1.389   3.928   0.764
 3030SOL    HW1 9989   1.462   3.967   0.707
 3030SOL    HW2 9990   1.323   3.882   0.705
 3031SOL     OW 9991   1.421   5.083   1.558
 3031SOL    HW1 9992   1.331   5.040   1.545
 3031SOL    HW2 9993   1.411   5.182   1.550
 3032SOL     OW 9994   1.890   6.885   3.757
 3032SOL    HW1 9995   1.890   6.908   3.660
 3032SOL    HW2 9996   1.876   6.967   3.811
 3033SOL     OW 9997   6.183   2.732   3.815
 3033SOL    HW1 9998   6.126   2.673   3.873
 3033SOL    HW2 9999   6.242   2.675   3.758
 3034SOL     OW10000   0.892   5.973   3.717
 3034SOL    HW110001   0.902   5.883   3.676
 3034SOL    HW210002   0.802   6.011   3.693
 3035SOL     OW10003   1.566   2.839   6.126
 3035SOL    HW110004   1.482   2.819   6.177
 3035SOL    HW210005   1.543   2.874   6.035
 3036SOL     OW10006   1.244   2.633   5.759
 3036SOL    HW110007   1.242   2.540   5.723
 3036SOL    HW210008   1.159   2.679   5.736
 3037SOL     OW10009   0.534   5.184   5.707
 3037SOL    HW110010   0.627   5.147   5.701
 3037SOL    HW210011   0.495   5.191   5.615
 3038SOL     OW10012   4.837   5.416   5.774
 3038SOL    HW110013   4.747   5.411   5.818
 3038SOL    HW210014   4.830   5.387   5.679
 3039SOL     OW10015   6.413   3.503   0.124
 3039SOL    HW110016   6.327   3.488   0.074
 3039SOL    HW210017   6.478   3.550   0.065
 3040SOL     OW10018   3.620   3.956   6.169
 3040SOL    HW110019   3.528   3.997   6.171
 3040SOL    HW210020   3.643   3.922   6.261
 3041SOL     OW10021   1.129   4.362   4.815
 3041SOL    HW110022   1.152   4.278   4.865
 3041SOL    HW210023   1.086   4.339   4.728
 3042SOL     OW10024   6.797   5.245   2.264
 3042SOL    HW110025   6.750   5.241   2.352
 3042SOL    HW210026   6.816   5.152   2.232
 3043SOL     OW10027   2.749   3.588   0.615
 3043SOL    HW110028   2.708   3.605   0.525
 3043SOL    HW210029   2.686   3.617   0.686
 3044SOL     OW10030   3.174   3.644   5.757
 3044SOL    HW110031   3.172   3.723   5.818
 3044SOL    HW210032   3.110   3.575   5.791
 3045SOL     OW10033   4.778   0.739   3.724
 3045SOL    HW110034   4.699   0.773   3.673
 3045SOL    HW210035   4.751   0.663   3.782
 3046SOL     OW10036   5.325   5.463   0.143
 3046SOL    HW110037   5.262   5.523   0.094
 3046SOL    HW210038   5.273   5.400   0.200
 3047SOL     OW10039   6.255   6.523   0.754
 3047SOL    HW110040   6.195   6.459   0.801
 3047SOL    HW210041   6.334   6.473   0.717
 3048SOL     OW10042   4.556   3.062   0.780
 3048SOL    HW110043   4.457   3.059   0.766
 3048SOL    HW210044   4.576   3.111   0.865
 3049SOL     OW10045   0.779   0.565   4.944
 3049SOL    HW110046   0.815   0.541   4.854
 3049SOL    HW210047   0.755   0.662   4.946
 3050SOL     OW10048   2.116   2.581   1.497
 3050SOL    HW110049   2.146   2.538   1.582
 3050SOL    HW210050   2.035   2.637   1.514
 3051SOL     OW10051   3.156   7.004   6.067
 3051SOL    HW110052   3.224   0.048   6.096
 3051SOL    HW210053   3.114   6.962   6.147
 3052SOL     OW10054   5.632   6.079   2.631
 3052SOL    HW110055   5.573   6.152   2.666
 3052SOL    HW210056   5.718   6.119   2.600
 3053SOL     OW10057   1.623   4.533   0.361
 3053SOL    HW110058   1.666   4.552   0.272
 3053SOL    HW210059   1.642   4.438   0.387
 3054SOL     OW10060   5.615   0.817   3.547
 3054SOL    HW110061   5.574   0.758   3.478
 3054SOL    HW210062   5.543   0.858   3.603
 3055SOL     OW10063   6.631   6.563   6.331
 3055SOL    HW110064   6.615   6.632   6.401
 3055SOL    HW210065   6.578   6.481   6.351
 3056SOL     OW10066   5.381   1.720   6.081
 3056SOL    HW110067   5.466   1.704   6.131
 3056SOL    HW210068   5.370   1.651   6.010
 3057SOL     OW10069   5.860   6.351   3.622
 3057SOL    HW110070   5.782   6.362   3.560
 3057SOL    HW210071   5.878   6.254   3.636
 3058SOL     OW10072   6.438   4.363   0.963
 3058SOL    HW110073   6.447   4.319   1.052
 3058SOL    HW210074   6.387   4.304   0.901
 3059SOL     OW10075   2.519   2.564   4.260
 3059SOL    HW110076   2.576   2.503   4.315
 3059SOL    HW210077   2.446   2.603   4.317
 3060SOL     OW10078   2.981   4.836   6.453
 3060SOL    HW110079   2.913   4.885   6.399
 3060SOL    HW210080   2.940   4.804   6.538
 3061SOL     OW10081   5.815   4.808   5.824
 3061SOL    HW110082   5.833   4.710   5.833
 3061SOL    HW210083   5.726   4.829   5.864
 3062SOL     OW10084   3.967   5.055   1.274
 3062SOL    HW110085   3.948   5.020   1.182
 3062SOL    HW210086   3.894   5.117   1.302
 3063SOL     OW10087   0.322   4.481   0.576
 3063SOL    HW110088   0.395   4.421   0.544
 3063SOL    HW210089   0.309   4.555   0.511
 3064SOL     OW10090   4.437   2.741   0.216
 3064SOL    HW110091   4.342   2.771   0.214
 3064SOL    HW210092   4.483   2.769   0.131
 3065SOL     OW10093   0.924   1.587   6.489
 3065SOL    HW110094   0.866   1.662   6.458
 3065SOL    HW210095   0.912   1.574   6.588
 3066SOL     OW10096   5.126   5.047   5.634
 3066SOL    HW110097   5.213   5.014   5.600
 3066SOL    HW210098   5.138   5.138   5.673
 3067SOL     OW10099   2.181   1.709   0.078
 3067SOL    HW110100   2.103   1.689   0.018
 3067SOL    HW210101   2.211   1.625   0.122
 3068SOL     OW10102   0.593   0.812   1.602
 3068SOL    HW110103   0.600   0.891   1.663
 3068SOL    HW210104   0.604   0.841   1.507
 3069SOL     OW10105   5.681   6.948   3.559
 3069SOL    HW110106   5.620   7.013   3.604
 3069SOL    HW210107   5.651   6.934   3.465
 3070SOL     OW10108   2.789   1.215   6.800
 3070SOL    HW110109   2.706   1.255   6.760
 3070SOL    HW210110   2.845   1.288   6.839
 3071SOL     OW10111   6.753   4.339   3.596
 3071SOL    HW110112   6.756   4.439   3.595
 3071SOL    HW210113   6.840   4.303   3.563
 3072SOL     OW10114   2.211   5.746   6.578
 3072SOL    HW110115   2.245   5.703   6.662
 3072SOL    HW210116   2.266   5.714   6.500
 3073SOL     OW10117   6.771   4.778   0.839
 3073SOL    HW110118   6.834   4.852   0.816
 3073SOL    HW210119   6.821   4.704   0.885
 3074SOL     OW10120   0.747   4.151   1.170
 3074SOL    HW110121   0.692   4.196   1.241
 3074SOL    HW210122   0.808   4.219   1.128
 3075SOL     OW10123   2.846   4.941   3.826
 3075SOL    HW110124   2.755   4.971   3.858
 3075SOL    HW210125   2.855   4.842   3.841
 3076SOL     OW10126   0.130   1.006   5.034
 3076SOL    HW110127   0.088   1.097   5.039
 3076SOL    HW210128   0.069   0.943   4.985
 3077SOL     OW10129   6.088   3.925   1.572
 3077SOL    HW110130   6.184   3.899   1.575
 3077SOL    HW210131   6.044   3.902   1.659
 3078SOL     OW10132   6.399   3.175   2.065
 3078SOL    HW110133   6.379   3.245   1.996
 3078SOL    HW210134   6.468   3.211   2.129
 3079SOL     OW10135   2.506   2.606   4.995
 3079SOL    HW110136   2.561   2.679   5.037
 3079SOL    HW210137   2.514   2.613   4.895
 3080SOL     OW10138   4.422   4.484   1.738
 3080SOL    HW110139   4.333   4.529   1.744
 3080SOL    HW210140   4.422   4.402   1.796
 3081SOL     OW10141   1.089   3.942   0.087
 3081SOL    HW110142   1.091   4.042   0.095
 3081SOL    HW210143   1.032   3.905   0.160
 3082SOL     OW10144   3.090   5.393   4.782
 3082SOL    HW110145   3.074   5.307   4.734
 3082SOL    HW210146   3.161   5.445   4.735
 3083SOL     OW10147   2.612   5.309   2.315
 3083SOL    HW110148   2.652   5.217   2.311
 3083SOL    HW210149   2.679   5.372   2.355
 3084SOL     OW10150   0.810   3.355   2.687
 3084SOL    HW110151   0.857   3.322   2.769
 3084SOL    HW210152   0.722   3.395   2.712
 3085SOL     OW10153   4.891   4.801   0.575
 3085SOL    HW110154   4.902   4.759   0.665
 3085SOL    HW210155   4.978   4.840   0.545
 3086SOL     OW10156   4.940   0.850   0.319
 3086SOL    HW110157   4.845   0.821   0.312
 3086SOL    HW210158   4.958   0.884   0.411
 3087SOL     OW10159   2.254   6.253   2.196
 3087SOL    HW110160   2.354   6.253   2.191
 3087SOL    HW210161   2.222   6.347   2.213
 3088SOL     OW10162   0.489   3.248   5.653
 3088SOL    HW110163   0.436   3.165   5.672
 3088SOL    HW210164   0.565   3.225   5.592
 3089SOL     OW10165   4.673   1.210   4.574
 3089SOL    HW110166   4.705   1.303   4.587
 3089SOL    HW210167   4.671   1.188   4.476
 3090SOL     OW10168   0.977   1.448   2.354
 3090SOL    HW110169   1.046   1.510   2.318
 3090SOL    HW210170   0.956   1.378   2.285
 3091SOL     OW10171   1.121   1.468   0.689
 3091SOL    HW110172   1.141   1.385   0.742
 3091SOL    HW210173   1.167   1.546   0.732
 3092SOL     OW10174   5.175   0.120   2.176
 3092SOL    HW110175   5.132   0.142   2.264
 3092SOL    HW210176   5.248   0.187   2.157
 3093SOL     OW10177   5.759   6.051   6.383
 3093SOL    HW110178   5.831   5.982   6.378
 3093SOL    HW210179   5.761   6.095   6.473
 3094SOL     OW10180   2.179   0.971   4.921
 3094SOL    HW110181   2.262   1.015   4.886
 3094SOL    HW210182   2.100   1.029   4.902
 3095SOL     OW10183   2.707   3.240   5.289
 3095SOL    HW110184   2.773   3.172   5.320
 3095SOL    HW210185   2.626   3.193   5.252
 3096SOL     OW10186   0.553   3.132   5.081
 3096SOL    HW110187   0.471   3.079   5.060
 3096SOL    HW210188   0.526   3.222   5.117
 3097SOL     OW10189   5.693   2.837   6.661
 3097SOL    HW110190   5.639   2.758   6.690
 3097SOL    HW210191   5.770   2.849   6.724
 3098SOL     OW10192   2.041   2.625   2.153
 3098SOL    HW110193   2.093   2.652   2.234
 3098SOL    HW210194   1.943   2.621   2.177
 3099SOL     OW10195   0.633   6.230   3.422
 3099SOL    HW110196   0.585   6.187   3.346
 3099SOL    HW210197   0.731   6.211   3.413
 3100SOL     OW10198   6.434   6.303   2.839
 3100SOL    HW110199   6.366   6.271   2.773
 3100SOL    HW210200   6.514   6.243   2.838
 3101SOL     OW10201   5.184   6.881   5.525
 3101SOL    HW110202   5.117   6.855   5.594
 3101SOL    HW210203   5.142   6.942   5.459
 3102SOL     OW10204   0.604   5.535   0.341
 3102SOL    HW110205   0.549   5.611   0.375
 3102SOL    HW210206   0.544   5.457   0.321
 3103SOL     OW10207   4.100   0.278   0.854
 3103SOL    HW110208   4.178   0.332   0.886
 3103SOL    HW210209   4.085   0.201   0.916
 3104SOL     OW10210   4.699   6.773   6.601
 3104SOL    HW110211   4.657   6.809   6.685
 3104SOL    HW210212   4.700   6.844   6.531
 3105SOL     OW10213   5.259   3.297   0.985
 3105SOL    HW110214   5.231   3.361   0.913
 3105SOL    HW210215   5.355   3.312   1.008
 3106SOL     OW10216   5.287   1.094   5.366
 3106SOL    HW110217   5.203   1.109   5.314
 3106SOL    HW210218   5.345   1.176   5.360
 3107SOL     OW10219   4.097   1.653   4.446
 3107SOL    HW110220   4.191   1.637   4.479
 3107SOL    HW210221   4.097   1.656   4.346
 3108SOL     OW10222   2.381   4.428   4.307
 3108SOL    HW110223   2.319   4.489   4.258
 3108SOL    HW210224   2.434   4.482   4.373
 3109SOL     OW10225   6.211   0.406   4.607
 3109SOL    HW110226   6.129   0.369   4.652
 3109SOL    HW210227   6.209   0.506   4.611
 3110SOL     OW10228   2.604   4.605   3.652
 3110SOL    HW110229   2.654   4.660   3.585
 3110SOL    HW210230   2.582   4.516   3.613
 3111SOL     OW10231   6.438   5.146   4.041
 3111SOL    HW110232   6.381   5.100   4.110
 3111SOL    HW210233   6.397   5.136   3.951
 3112SOL     OW10234   3.696   3.080   6.681
 3112SOL    HW110235   3.695   3.001   6.742
 3112SOL    HW210236   3.789   3.097   6.649
 3113SOL     OW10237   3.193   5.534   2.482
 3113SOL    HW110238   3.267   5.588   2.522
 3113SOL    HW210239   3.105   5.571   2.511
 3114SOL     OW10240   3.625   1.257   0.260
 3114SOL    HW110241   3.549   1.222   0.315
 3114SOL    HW210242   3.603   1.248   0.163
 3115SOL     OW10243   4.112   4.319   5.265
 3115SOL    HW110244   4.047   4.393   5.284
 3115SOL    HW210245   4.180   4.351   5.198
 3116SOL     OW10246   0.944   2.368   0.602
 3116SOL    HW110247   1.021   2.346   0.661
 3116SOL    HW210248   0.895   2.447   0.638
 3117SOL     OW10249   4.846   2.561   6.171
 3117SOL    HW110250   4.837   2.653   6.211
 3117SOL    HW210251   4.816   2.493   6.238
 3118SOL     OW10252   1.353   0.382   3.299
 3118SOL    HW110253   1.259   0.349   3.308
 3118SOL    HW210254   1.381   0.378   3.202
 3119SOL     OW10255   3.169   2.613   5.575
 3119SOL    HW110256   3.071   2.598   5.561
 3119SOL    HW210257   3.209   2.648   5.491
 3120SOL     OW10258   3.209   0.514   5.072
 3120SOL    HW110259   3.308   0.523   5.075
 3120SOL    HW210260   3.177   0.531   4.979
 3121SOL     OW10261   5.247   2.083   4.440
 3121SOL    HW110262   5.194   2.104   4.522
 3121SOL    HW210263   5.285   2.168   4.403
 3122SOL     OW10264   4.403   4.585   4.465
 3122SOL    HW110265   4.316   4.633   4.450
 3122SOL    HW210266   4.435   4.604   4.558
 3123SOL     OW10267   2.255   0.674   3.670
 3123SOL    HW110268   2.237   0.623   3.586
 3123SOL    HW210269   2.352   0.696   3.676
 3124SOL     OW10270   5.300   6.478   4.569
 3124SOL    HW110271   5.302   6.478   4.669
 3124SOL    HW210272   5.349   6.399   4.535
 3125SOL     OW10273   0.898   2.836   5.298
 3125SOL    HW110274   0.922   2.769   5.227
 3125SOL    HW210275   0.885   2.788   5.385
 3126SOL     OW10276   5.478   5.039   5.092
 3126SOL    HW110277   5.458   5.061   4.997
 3126SOL    HW210278   5.530   4.954   5.098
 3127SOL     OW10279   0.924   2.626   4.869
 3127SOL    HW110280   0.938   2.558   4.797
 3127SOL    HW210281   0.951   2.716   4.834
 3128SOL     OW10282   3.366   0.671   0.460
 3128SOL    HW110283   3.346   0.710   0.550
 3128SOL    HW210284   3.441   0.605   0.469
 3129SOL     OW10285   5.214   3.205   1.285
 3129SOL    HW110286   5.265   3.207   1.199
 3129SOL    HW210287   5.216   3.296   1.327
 3130SOL     OW10288   1.409   4.175   0.933
 3130SOL    HW110289   1.449   4.107   0.871
 3130SOL    HW210290   1.324   4.210   0.894
 3131SOL     OW10291   6.866   3.313   2.311
 3131SOL    HW110292   6.936   3.250   2.276
 3131SOL    HW210293   6.889   3.340   2.405
 3132SOL     OW10294   4.504   4.648   6.800
 3132SOL    HW110295   4.495   4.626   6.897
 3132SOL    HW210296   4.515   4.746   6.789
 3133SOL     OW10297   3.339   0.638   3.322
 3133SOL    HW110298   3.246   0.660   3.294
 3133SOL    HW210299   3.373   0.710   3.383
 3134SOL     OW10300   3.717   4.897   2.164
 3134SOL    HW110301   3.799   4.867   2.211
 3134SOL    HW210302   3.689   4.826   2.098
 3135SOL     OW10303   5.861   0.081   6.064
 3135SOL    HW110304   5.879   0.087   5.966
 3135SOL    HW210305   5.918   0.009   6.104
 3136SOL     OW10306   6.000   1.007   2.562
 3136SOL    HW110307   6.088   0.979   2.523
 3136SOL    HW210308   5.993   1.107   2.560
 3137SOL     OW10309   6.550   0.540   1.808
 3137SOL    HW110310   6.625   0.587   1.761
 3137SOL    HW210311   6.463   0.562   1.763
 3138SOL     OW10312   5.365   5.628   3.761
 3138SOL    HW110313   5.278   5.669   3.735
 3138SOL    HW210314   5.403   5.678   3.839
 3139SOL     OW10315   3.314   5.091   1.431
 3139SOL    HW110316   3.365   5.007   1.411
 3139SOL    HW210317   3.345   5.127   1.519
 3140SOL     OW10318   6.724   6.115   5.578
 3140SOL    HW110319   6.661   6.104   5.655
 3140SOL    HW210320   6.672   6.123   5.493
 3141SOL     OW10321   0.139   2.264   0.461
 3141SOL    HW110322   0.172   2.326   0.390
 3141SOL    HW210323   0.204   2.188   0.472
 3142SOL     OW10324   4.225   0.414   2.644
 3142SOL    HW110325   4.280   0.456   2.571
 3142SOL    HW210326   4.130   0.443   2.634
 3143SOL     OW10327   6.283   1.980   0.123
 3143SOL    HW110328   6.308   1.884   0.110
 3143SOL    HW210329   6.196   1.999   0.079
 3144SOL     OW10330   4.147   4.040   6.830
 3144SOL    HW110331   4.062   4.037   6.778
 3144SOL    HW210332   4.155   3.958   6.887
 3145SOL     OW10333   2.189   6.496   1.903
 3145SOL    HW110334   2.098   6.539   1.906
 3145SOL    HW210335   2.194   6.425   1.973
 3146SOL     OW10336   0.804   0.937   5.248
 3146SOL    HW110337   0.793   1.034   5.268
 3146SOL    HW210338   0.902   0.915   5.245
 3147SOL     OW10339   3.840   5.233   6.410
 3147SOL    HW110340   3.773   5.239   6.336
 3147SOL    HW210341   3.873   5.324   6.433
 3148SOL     OW10342   0.211   0.045   2.874
 3148SOL    HW110343   0.288   0.066   2.934
 3148SOL    HW210344   0.220   6.975   2.840
 3149SOL     OW10345   2.886   1.136   6.554
 3149SOL    HW110346   2.807   1.110   6.499
 3149SOL    HW210347   2.855   1.178   6.640
 3150SOL     OW10348   6.781   5.378   5.537
 3150SOL    HW110349   6.767   5.413   5.444
 3150SOL    HW210350   6.724   5.429   5.600
 3151SOL     OW10351   6.836   2.020   6.301
 3151SOL    HW110352   6.788   1.995   6.216
 3151SOL    HW210353   6.778   1.998   6.379
 3152SOL     OW10354   1.094   4.218   6.504
 3152SOL    HW110355   1.147   4.284   6.557
 3152SOL    HW210356   1.155   4.154   6.459
 3153SOL     OW10357   6.304   4.602   0.395
 3153SOL    HW110358   6.251   4.649   0.465
 3153SOL    HW210359   6.252   4.524   0.360
 3154SOL     OW10360   5.775   1.065   1.844
 3154SOL    HW110361   5.867   1.058   1.807
 3154SOL    HW210362   5.780   1.087   1.942
 3155SOL     OW10363   6.616   4.584   0.542
 3155SOL    HW110364   6.523   4.595   0.576
 3155SOL    HW210365   6.650   4.672   0.508
 3156SOL     OW10366   3.610   4.129   2.317
 3156SOL    HW110367   3.534   4.090   2.370
 3156SOL    HW210368   3.687   4.146   2.378
 3157SOL     OW10369   0.892   2.297   4.900
 3157SOL    HW110370   0.818   2.351   4.939
 3157SOL    HW210371   0.855   2.222   4.846
 3158SOL     OW10372   2.750   2.093   5.628
 3158SOL    HW110373   2.841   2.116   5.592
 3158SOL    HW210374   2.758   2.067   5.724
 3159SOL     OW10375   5.370   0.118   0.818
 3159SOL    HW110376   5.427   0.188   0.774
 3159SOL    HW210377   5.383   0.122   0.917
 3160SOL     OW10378   1.764   6.995   5.396
 3160SOL    HW110379   1.757   6.895   5.398
 3160SOL    HW210380   1.839   7.021   5.334
 3161SOL     OW10381   2.062   2.705   2.701
 3161SOL    HW110382   2.123   2.632   2.672
 3161SOL    HW210383   2.037   2.761   2.623
 3162SOL     OW10384   2.535   5.487   6.965
 3162SOL    HW110385   2.501   5.522   0.029
 3162SOL    HW210386   2.465   5.430   6.923
 3163SOL     OW10387   4.118   3.385   0.115
 3163SOL    HW110388   4.181   3.414   0.043
 3163SOL    HW210389   4.106   3.459   0.181
 3164SOL     OW10390   3.477   5.816   2.170
 3164SOL    HW110391   3.570   5.786   2.150
 3164SOL    HW210392   3.419   5.800   2.090
 3165SOL     OW10393   1.118   5.042   1.013
 3165SOL    HW110394   1.174   4.962   1.032
 3165SOL    HW210395   1.021   5.017   1.013
 3166SOL     OW10396   3.974   0.961   4.376
 3166SOL    HW110397   4.065   0.926   4.352
 3166SOL    HW210398   3.964   1.054   4.340
 3167SOL     OW10399   6.026   4.258   0.584
 3167SOL    HW110400   5.969   4.307   0.519
 3167SOL    HW210401   6.111   4.229   0.539
 3168SOL     OW10402   5.637   1.989   1.361
 3168SOL    HW110403   5.698   1.993   1.440
 3168SOL    HW210404   5.544   1.966   1.392
 3169SOL     OW10405   1.927   4.592   2.932
 3169SOL    HW110406   1.958   4.511   2.981
 3169SOL    HW210407   1.863   4.564   2.860
 3170SOL     OW10408   4.301   6.047   2.435
 3170SOL    HW110409   4.265   5.972   2.491
 3170SOL    HW210410   4.233   6.072   2.366
 3171SOL     OW10411   5.066   2.222   2.207
 3171SOL    HW110412   5.012   2.279   2.145
 3171SOL    HW210413   5.019   2.215   2.295
 3172SOL     OW10414   0.616   5.245   0.183
 3172SOL    HW110415   0.693   5.309   0.190
 3172SOL    HW210416   0.611   5.211   0.089
 3173SOL     OW10417   2.749   2.651   7.002
 3173SOL    HW110418   2.658   2.689   6.983
 3173SOL    HW210419   2.819   2.715   6.970
 3174SOL     OW10420   2.176   2.670   6.000
 3174SOL    HW110421   2.272   2.665   5.974
 3174SOL    HW210422   2.165   2.641   6.095
 3175SOL     OW10423   5.942   1.608   2.604
 3175SOL    HW110424   5.884   1.557   2.667
 3175SOL    HW210425   5.921   1.580   2.510
 3176SOL     OW10426   0.240   3.196   5.240
 3176SOL    HW110427   0.281   3.132   5.305
 3176SOL    HW210428   0.247   3.159   5.147
 3177SOL     OW10429   5.408   4.316   3.934
 3177SOL    HW110430   5.501   4.294   3.904
 3177SOL    HW210431   5.412   4.377   4.013
 3178SOL     OW10432   6.038   2.049   0.022
 3178SOL    HW110433   6.020   2.147   0.013
 3178SOL    HW210434   5.953   2.002   0.048
 3179SOL     OW10435   1.495   1.785   2.145
 3179SOL    HW110436   1.509   1.741   2.057
 3179SOL    HW210437   1.554   1.742   2.213
 3180SOL     OW10438   5.785   6.317   0.100
 3180SOL    HW110439   5.744   6.300   0.190
 3180SOL    HW210440   5.712   6.324   0.032
 3181SOL     OW10441   6.662   1.116   4.022
 3181SOL    HW110442   6.650   1.187   3.953
 3181SOL    HW210443   6.757   1.085   4.021
 3182SOL     OW10444   2.879   0.702   6.325
 3182SOL    HW110445   2.826   0.764   6.382
 3182SOL    HW210446   2.844   0.609   6.335
 3183SOL     OW10447   4.780   4.794   2.544
 3183SOL    HW110448   4.710   4.783   2.474
 3183SOL    HW210449   4.813   4.704   2.573
 3184SOL     OW10450   0.395   2.002   3.232
 3184SOL    HW110451   0.325   2.070   3.250
 3184SOL    HW210452   0.472   2.045   3.185
 3185SOL     OW10453   6.297   6.545   5.998
 3185SOL    HW110454   6.230   6.497   6.055
 3185SOL    HW210455   6.304   6.640   6.029
 3186SOL     OW10456   2.281   1.270   0.349
 3186SOL    HW110457   2.357   1.256   0.412
 3186SOL    HW210458   2.247   1.181   0.317
 3187SOL     OW10459   3.441   5.204   2.127
 3187SOL    HW110460   3.388   5.252   2.057
 3187SOL    HW210461   3.390   5.124   2.159
 3188SOL     OW10462   2.082   5.639   4.746
 3188SOL    HW110463   2.084   5.692   4.661
 3188SOL    HW210464   2.126   5.551   4.731
 3189SOL     OW10465   1.847   1.395   7.003
 3189SOL    HW110466   1.761   1.372   6.958
 3189SOL    HW210467   1.844   1.363   0.074
 3190SOL     OW10468   6.716   5.454   6.352
 3190SOL    HW110469   6.773   5.390   6.301
 3190SOL    HW210470   6.727   5.546   6.315
 3191SOL     OW10471   4.573   5.433   1.840
 3191SOL    HW110472   4.536   5.348   1.877
 3191SOL    HW210473   4.634   5.475   1.907
 3192SOL     OW10474   6.994   2.723   0.583
 3192SOL    HW110475   6.977   2.675   0.669
 3192SOL    HW210476   6.917   2.784   0.563
 3193SOL     OW10477   4.254   1.154   5.145
 3193SOL    HW110478   4.291   1.159   5.052
 3193SOL    HW210479   4.329   1.155   5.211
 3194SOL     OW10480   0.982   1.149   5.609
 3194SOL    HW110481   1.035   1.139   5.525
 3194SOL    HW210482   0.970   1.246   5.629
 3195SOL     OW10483   0.703   1.129   1.751
 3195SOL    HW110484   0.666   1.145   1.842
 3195SOL    HW210485   0.653   1.183   1.683
 3196SOL     OW10486   6.994   0.893   6.569
 3196SOL    HW110487   0.017   0.948   6.639
 3196SOL    HW210488   0.029   0.886   6.488
 3197SOL     OW10489   2.472   0.044   5.491
 3197SOL    HW110490   2.458   0.122   5.553
 3197SOL    HW210491   2.570   0.023   5.486
 3198SOL     OW10492   6.080   2.238   3.567
 3198SOL    HW110493   6.040   2.329   3.578
 3198SOL    HW210494   6.153   2.225   3.635
 3199SOL     OW10495   5.745   4.870   3.161
 3199SOL    HW110496   5.669   4.903   3.105
 3199SOL    HW210497   5.714   4.793   3.217
 3200SOL     OW10498   6.035   3.445   2.794
 3200SOL    HW110499   6.032   3.402   2.885
 3200SOL    HW210500   6.085   3.385   2.731
 3201SOL     OW10501   5.864   5.193   3.677
 3201SOL    HW110502   5.949   5.241   3.695
 3201SOL    HW210503   5.847   5.189   3.578
 3202SOL     OW10504   1.068   5.693   1.085
 3202SOL    HW110505   1.068   5.699   1.185
 3202SOL    HW210506   1.145   5.637   1.055
 3203SOL     OW10507   5.109   1.080   1.508
 3203SOL    HW110508   5.186   1.112   1.452
 3203SOL    HW210509   5.035   1.146   1.502
 3204SOL     OW10510   2.952   1.321   3.273
 3204SOL    HW110511   2.990   1.413   3.280
 3204SOL    HW210512   2.859   1.327   3.235
 3205SOL     OW10513   4.820   2.556   5.611
 3205SOL    HW110514   4.878   2.613   5.669
 3205SOL    HW210515   4.825   2.588   5.516
 3206SOL     OW10516   2.810   3.632   1.494
 3206SOL    HW110517   2.870   3.574   1.547
 3206SOL    HW210518   2.790   3.589   1.406
 3207SOL     OW10519   1.327   1.070   6.185
 3207SOL    HW110520   1.309   0.997   6.251
 3207SOL    HW210521   1.258   1.141   6.193
 3208SOL     OW10522   5.865   5.488   6.210
 3208SOL    HW110523   5.847   5.534   6.297
 3208SOL    HW210524   5.877   5.390   6.226
 3209SOL     OW10525   3.367   5.354   5.048
 3209SOL    HW110526   3.325   5.362   5.138
 3209SOL    HW210527   3.351   5.262   5.011
 3210SOL     OW10528   0.764   5.106   1.876
 3210SOL    HW110529   0.741   5.009   1.867
 3210SOL    HW210530   0.863   5.116   1.883
 3211SOL     OW10531   1.855   5.153   0.344
 3211SOL    HW110532   1.867   5.074   0.405
 3211SOL    HW210533   1.939   5.165   0.290
 3212SOL     OW10534   3.207   6.774   2.194
 3212SOL    HW110535   3.271   6.714   2.242
 3212SOL    HW210536   3.195   6.741   2.100
 3213SOL     OW10537   1.476   7.007   6.174
 3213SOL    HW110538   1.479   0.075   6.134
 3213SOL    HW210539   1.551   6.952   6.138
 3214SOL     OW10540   4.758   6.588   2.747
 3214SOL    HW110541   4.659   6.587   2.730
 3214SOL    HW210542   4.801   6.656   2.687
 3215SOL     OW10543   0.829   3.456   0.633
 3215SOL    HW110544   0.866   3.508   0.710
 3215SOL    HW210545   0.771   3.515   0.578
 3216SOL     OW10546   5.626   4.916   0.873
 3216SOL    HW110547   5.620   4.846   0.944
 3216SOL    HW210548   5.690   4.886   0.802
 3217SOL     OW10549   0.293   5.364   2.326
 3217SOL    HW110550   0.309   5.405   2.237
 3217SOL    HW210551   0.206   5.315   2.326
 3218SOL     OW10552   5.799   2.252   3.657
 3218SOL    HW110553   5.744   2.335   3.670
 3218SOL    HW210554   5.868   2.246   3.729
 3219SOL     OW10555   6.910   1.033   4.852
 3219SOL    HW110556   6.900   0.951   4.907
 3219SOL    HW210557   6.990   1.025   4.792
 3220SOL     OW10558   0.869   5.659   6.685
 3220SOL    HW110559   0.915   5.685   6.770
 3220SOL    HW210560   0.823   5.571   6.698
 3221SOL     OW10561   3.711   6.747   2.325
 3221SOL    HW110562   3.795   6.801   2.326
 3221SOL    HW210563   3.690   6.715   2.417
 3222SOL     OW10564   2.943   1.041   1.883
 3222SOL    HW110565   2.878   0.973   1.918
 3222SOL    HW210566   2.974   1.014   1.792
 3223SOL     OW10567   2.540   6.288   0.344
 3223SOL    HW110568   2.624   6.248   0.378
 3223SOL    HW210569   2.502   6.350   0.413
 3224SOL     OW10570   5.142   2.601   4.899
 3224SOL    HW110571   5.185   2.570   4.814
 3224SOL    HW210572   5.203   2.666   4.945
 3225SOL     OW10573   4.358   1.628   5.109
 3225SOL    HW110574   4.386   1.582   5.025
 3225SOL    HW210575   4.259   1.621   5.120
 3226SOL     OW10576   1.858   0.320   1.468
 3226SOL    HW110577   1.787   0.388   1.485
 3226SOL    HW210578   1.877   0.315   1.370
 3227SOL     OW10579   3.383   3.027   6.478
 3227SOL    HW110580   3.443   3.024   6.399
 3227SOL    HW210581   3.289   3.005   6.451
 3228SOL     OW10582   0.023   3.963   0.280
 3228SOL    HW110583   7.022   3.934   0.372
 3228SOL    HW210584   0.122   3.967   0.271
 3229SOL     OW10585   3.517   0.630   5.274
 3229SOL    HW110586   3.505   0.579   5.189
 3229SOL    HW210587   3.428   0.653   5.313
 3230SOL     OW10588   1.754   5.645   5.782
 3230SOL    HW110589   1.808   5.627   5.864
 3230SOL    HW210590   1.717   5.559   5.747
 3231SOL     OW10591   2.353   0.833   2.562
 3231SOL    HW110592   2.351   0.771   2.640
 3231SOL    HW210593   2.390   0.922   2.590
 3232SOL     OW10594   4.011   5.844   3.855
 3232SOL    HW110595   4.031   5.936   3.890
 3232SOL    HW210596   3.919   5.818   3.882
 3233SOL     OW10597   6.758   2.769   0.394
 3233SOL    HW110598   6.756   2.832   0.472
 3233SOL    HW210599   6.800   2.815   0.316
 3234SOL     OW10600   1.838   2.971   0.227
 3234SOL    HW110601   1.863   2.875   0.239
 3234SOL    HW210602   1.912   3.030   0.259
 3235SOL     OW10603   6.373   6.721   2.032
 3235SOL    HW110604   6.443   6.788   2.006
 3235SOL    HW210605   6.390   6.635   1.983
 3236SOL     OW10606   1.271   4.552   0.600
 3236SOL    HW110607   1.230   4.465   0.628
 3236SOL    HW210608   1.291   4.549   0.502
 3237SOL     OW10609   6.351   1.745   3.264
 3237SOL    HW110610   6.280   1.675   3.269
 3237SOL    HW210611   6.348   1.790   3.175
 3238SOL     OW10612   6.183   5.522   0.064
 3238SOL    HW110613   6.093   5.479   0.073
 3238SOL    HW210614   6.254   5.453   0.071
 3239SOL     OW10615   6.828   0.129   3.578
 3239SOL    HW110616   6.870   0.219   3.566
 3239SOL    HW210617   6.805   0.090   3.489
 3240SOL     OW10618   6.961   0.285   5.847
 3240SOL    HW110619   6.867   0.275   5.880
 3240SOL    HW210620   6.962   0.282   5.747
 3241SOL     OW10621   4.847   1.598   5.944
 3241SOL    HW110622   4.755   1.637   5.952
 3241SOL    HW210623   4.907   1.663   5.898
 3242SOL     OW10624   4.978   3.523   5.729
 3242SOL    HW110625   4.946   3.528   5.634
 3242SOL    HW210626   4.902   3.541   5.791
 3243SOL     OW10627   4.550   5.449   0.507
 3243SOL    HW110628   4.594   5.360   0.507
 3243SOL    HW210629   4.609   5.516   0.463
 3244SOL     OW10630   6.002   6.261   6.901
 3244SOL    HW110631   5.925   6.247   6.964
 3244SOL    HW210632   6.088   6.248   6.950
 3245SOL     OW10633   4.814   2.095   4.209
 3245SOL    HW110634   4.895   2.153   4.222
 3245SOL    HW210635   4.734   2.139   4.251
 3246SOL     OW10636   6.183   0.021   3.030
 3246SOL    HW110637   6.138   0.102   2.991
 3246SOL    HW210638   6.273   0.011   2.989
 3247SOL     OW10639   6.514   5.010   2.040
 3247SOL    HW110640   6.440   5.006   1.973
 3247SOL    HW210641   6.476   4.995   2.131
 3248SOL     OW10642   5.374   2.427   2.405
 3248SOL    HW110643   5.469   2.412   2.432
 3248SOL    HW210644   5.315   2.364   2.456
 3249SOL     OW10645   3.345   3.763   4.000
 3249SOL    HW110646   3.289   3.845   3.990
 3249SOL    HW210647   3.441   3.790   4.013
 3250SOL     OW10648   5.158   0.172   3.198
 3250SOL    HW110649   5.157   0.131   3.289
 3250SOL    HW210650   5.237   0.234   3.191
 3251SOL     OW10651   2.620   0.853   4.562
 3251SOL    HW110652   2.618   0.772   4.620
 3251SOL    HW210653   2.689   0.841   4.490
 3252SOL     OW10654   2.777   0.555   2.726
 3252SOL    HW110655   2.747   0.642   2.686
 3252SOL    HW210656   2.700   0.491   2.727
 3253SOL     OW10657   4.552   3.793   0.502
 3253SOL    HW110658   4.472   3.823   0.450
 3253SOL    HW210659   4.529   3.709   0.553
 3254SOL     OW10660   5.333   0.081   6.166
 3254SOL    HW110661   5.259   0.148   6.173
 3254SOL    HW210662   5.301   0.002   6.113
 3255SOL     OW10663   5.407   6.217   1.131
 3255SOL    HW110664   5.499   6.181   1.120
 3255SOL    HW210665   5.344   6.168   1.071
 3256SOL     OW10666   4.029   1.762   1.383
 3256SOL    HW110667   3.955   1.728   1.441
 3256SOL    HW210668   3.995   1.774   1.289
 3257SOL     OW10669   2.440   1.814   2.022
 3257SOL    HW110670   2.464   1.822   2.119
 3257SOL    HW210671   2.357   1.758   2.013
 3258SOL     OW10672   3.538   5.175   3.523
 3258SOL    HW110673   3.520   5.080   3.550
 3258SOL    HW210674   3.456   5.230   3.539
 3259SOL     OW10675   5.158   5.342   4.054
 3259SOL    HW110676   5.149   5.382   3.963
 3259SOL    HW210677   5.072   5.297   4.080
 3260SOL     OW10678   1.516   3.787   1.420
 3260SOL    HW110679   1.446   3.719   1.441
 3260SOL    HW210680   1.607   3.746   1.430
 3261SOL     OW10681   4.674   0.596   2.083
 3261SOL    HW110682   4.704   0.576   1.990
 3261SOL    HW210683   4.753   0.620   2.140
 3262SOL     OW10684   3.969   2.101   2.062
 3262SOL    HW110685   3.885   2.156   2.072
 3262SOL    HW210686   3.948   2.005   2.082
 3263SOL     OW10687   3.199   1.224   3.357
 3263SOL    HW110688   3.234   1.138   3.319
 3263SOL    HW210689   3.109   1.244   3.318
 3264SOL     OW10690   1.957   5.201   1.248
 3264SOL    HW110691   1.962   5.142   1.328
 3264SOL    HW210692   1.968   5.297   1.276
 3265SOL     OW10693   5.698   6.672   6.386
 3265SOL    HW110694   5.755   6.716   6.455
 3265SOL    HW210695   5.612   6.723   6.378
 3266SOL     OW10696   2.982   4.194   6.900
 3266SOL    HW110697   2.986   4.170   6.803
 3266SOL    HW210698   2.995   4.112   6.956
 3267SOL     OW10699   2.887   6.900   1.954
 3267SOL    HW110700   2.811   6.943   2.002
 3267SOL    HW210701   2.876   6.801   1.955
 3268SOL     OW10702   1.605   4.647   1.177
 3268SOL    HW110703   1.621   4.552   1.152
 3268SOL    HW210704   1.575   4.653   1.272
 3269SOL     OW10705   0.246   5.407   1.457
 3269SOL    HW110706   0.158   5.392   1.503
 3269SOL    HW210707   0.240   5.376   1.362
 3270SOL     OW10708   1.741   3.236   6.665
 3270SOL    HW110709   1.769   3.300   6.593
 3270SOL    HW210710   1.747   3.143   6.630
 3271SOL     OW10711   6.841   3.055   1.327
 3271SOL    HW110712   6.807   3.146   1.351
 3271SOL    HW210713   6.778   3.012   1.263
 3272SOL     OW10714   2.899   4.422   0.007
 3272SOL    HW110715   2.930   4.501   6.978
 3272SOL    HW210716   2.925   4.338   6.982
 3273SOL     OW10717   6.009   4.838   6.212
 3273SOL    HW110718   5.991   4.840   6.310
 3273SOL    HW210719   6.066   4.917   6.187
 3274SOL     OW10720   5.850   0.508   1.219
 3274SOL    HW110721   5.861   0.468   1.128
 3274SOL    HW210722   5.877   0.442   1.288
 3275SOL     OW10723   4.655   1.106   0.958
 3275SOL    HW110724   4.653   1.205   0.942
 3275SOL    HW210725   4.607   1.060   0.883
 3276SOL     OW10726   4.563   6.117   0.091
 3276SOL    HW110727   4.558   6.159   0.001
 3276SOL    HW210728   4.595   6.184   0.158
 3277SOL     OW10729   3.691   1.283   0.543
 3277SOL    HW110730   3.697   1.301   0.444
 3277SOL    HW210731   3.782   1.284   0.583
 3278SOL     OW10732   0.517   0.540   5.650
 3278SOL    HW110733   0.593   0.603   5.633
 3278SOL    HW210734   0.498   0.537   5.749
 3279SOL     OW10735   5.336   0.155   1.100
 3279SOL    HW110736   5.375   0.197   1.182
 3279SOL    HW210737   5.246   0.194   1.082
 3280SOL     OW10738   5.018   4.286   4.409
 3280SOL    HW110739   5.005   4.376   4.450
 3280SOL    HW210740   4.993   4.290   4.312
 3281SOL     OW10741   0.719   4.677   1.465
 3281SOL    HW110742   0.630   4.684   1.509
 3281SOL    HW210743   0.784   4.738   1.510
 3282SOL     OW10744   6.703   4.543   4.906
 3282SOL    HW110745   6.610   4.540   4.944
 3282SOL    HW210746   6.756   4.613   4.952
 3283SOL     OW10747   3.793   1.177   1.647
 3283SOL    HW110748   3.704   1.132   1.651
 3283SOL    HW210749   3.829   1.172   1.554
 3284SOL     OW10750   1.561   5.876   5.193
 3284SOL    HW110751   1.639   5.890   5.254
 3284SOL    HW210752   1.527   5.783   5.204
 3285SOL     OW10753   5.582   1.800   5.018
 3285SOL    HW110754   5.546   1.853   4.941
 3285SOL    HW210755   5.677   1.774   4.999
 3286SOL     OW10756   3.339   2.646   1.726
 3286SOL    HW110757   3.307   2.694   1.808
 3286SOL    HW210758   3.296   2.687   1.645
 3287SOL     OW10759   0.718   0.457   0.159
 3287SOL    HW110760   0.649   0.528   0.145
 3287SOL    HW210761   0.716   0.393   0.082
 3288SOL     OW10762   2.027   0.154   0.041
 3288SOL    HW110763   2.003   0.142   6.968
 3288SOL    HW210764   2.013   0.249   0.067
 3289SOL     OW10765   2.767   2.010   6.251
 3289SOL    HW110766   2.737   1.964   6.167
 3289SOL    HW210767   2.693   2.006   6.319
 3290SOL     OW10768   6.873   5.330   1.157
 3290SOL    HW110769   6.818   5.260   1.113
 3290SOL    HW210770   6.941   5.364   1.093
 3291SOL     OW10771   2.829   0.863   5.709
 3291SOL    HW110772   2.910   0.915   5.736
 3291SOL    HW210773   2.825   0.854   5.610
 3292SOL     OW10774   0.398   1.252   0.822
 3292SOL    HW110775   0.491   1.287   0.836
 3292SOL    HW210776   0.332   1.315   0.865
 3293SOL     OW10777   6.564   5.106   1.506
 3293SOL    HW110778   6.637   5.068   1.450
 3293SOL    HW210779   6.555   5.204   1.487
 3294SOL     OW10780   4.946   2.128   6.072
 3294SOL    HW110781   4.966   2.192   6.146
 3294SOL    HW210782   4.913   2.042   6.110
 3295SOL     OW10783   0.971   3.695   1.563
 3295SOL    HW110784   0.970   3.600   1.532
 3295SOL    HW210785   1.060   3.736   1.542
 3296SOL     OW10786   0.340   0.746   4.061
 3296SOL    HW110787   0.361   0.657   4.022
 3296SOL    HW210788   0.274   0.793   4.003
 3297SOL     OW10789   3.021   1.890   5.343
 3297SOL    HW110790   3.046   1.909   5.438
 3297SOL    HW210791   2.924   1.909   5.329
 3298SOL     OW10792   6.729   2.413   5.466
 3298SOL    HW110793   6.735   2.478   5.391
 3298SOL    HW210794   6.704   2.323   5.430
 3299SOL     OW10795   3.856   5.932   2.787
 3299SOL    HW110796   3.869   6.011   2.848
 3299SOL    HW210797   3.805   5.961   2.706
 3300SOL     OW10798   1.349   0.521   5.961
 3300SOL    HW110799   1.286   0.468   6.018
 3300SOL    HW210800   1.347   0.617   5.989
 3301SOL     OW10801   1.732   3.405   3.477
 3301SOL    HW110802   1.805   3.375   3.416
 3301SOL    HW210803   1.707   3.330   3.539
 3302SOL     OW10804   1.044   4.441   5.846
 3302SOL    HW110805   0.973   4.376   5.874
 3302SOL    HW210806   1.132   4.413   5.886
 3303SOL     OW10807   3.104   3.482   0.312
 3303SOL    HW110808   3.120   3.494   0.410
 3303SOL    HW210809   3.030   3.543   0.283
 3304SOL     OW10810   1.908   5.564   6.029
 3304SOL    HW110811   1.997   5.525   6.005
 3304SOL    HW210812   1.919   5.661   6.050
 3305SOL     OW10813   2.990   0.581   1.793
 3305SOL    HW110814   2.963   0.678   1.795
 3305SOL    HW210815   2.995   0.546   1.886
 3306SOL     OW10816   1.099   5.562   5.195
 3306SOL    HW110817   1.055   5.486   5.147
 3306SOL    HW210818   1.110   5.639   5.133
 3307SOL     OW10819   0.657   6.989   5.424
 3307SOL    HW110820   0.566   6.975   5.387
 3307SOL    HW210821   0.675   6.922   5.496
 3308SOL     OW10822   3.428   5.532   1.184
 3308SOL    HW110823   3.417   5.460   1.115
 3308SOL    HW210824   3.411   5.493   1.275
 3309SOL     OW10825   6.187   4.650   4.534
 3309SOL    HW110826   6.178   4.555   4.564
 3309SOL    HW210827   6.097   4.689   4.517
 3310SOL     OW10828   0.547   4.048   4.907
 3310SOL    HW110829   0.520   3.979   4.840
 3310SOL    HW210830   0.488   4.129   4.898
 3311SOL     OW10831   3.035   3.725   0.662
 3311SOL    HW110832   2.988   3.650   0.708
 3311SOL    HW210833   3.067   3.791   0.730
 3312SOL     OW10834   4.291   2.904   5.956
 3312SOL    HW110835   4.323   2.995   5.982
 3312SOL    HW210836   4.329   2.879   5.867
 3313SOL     OW10837   1.129   6.989   3.618
 3313SOL    HW110838   1.191   6.942   3.555
 3313SOL    HW210839   1.037   6.950   3.609
 3314SOL     OW10840   2.874   0.539   2.047
 3314SOL    HW110841   2.778   0.539   2.020
 3314SOL    HW210842   2.895   0.625   2.094
 3315SOL     OW10843   0.794   4.163   4.932
 3315SOL    HW110844   0.700   4.137   4.910
 3315SOL    HW210845   0.823   4.236   4.870
 3316SOL     OW10846   4.115   0.543   5.226
 3316SOL    HW110847   4.137   0.488   5.306
 3316SOL    HW210848   4.015   0.546   5.214
 3317SOL     OW10849   4.949   1.959   2.489
 3317SOL    HW110850   4.953   1.907   2.404
 3317SOL    HW210851   4.892   1.911   2.555
 3318SOL     OW10852   1.475   1.189   7.005
 3318SOL    HW110853   1.539   1.261   6.978
 3318SOL    HW210854   1.440   1.143   6.924
 3319SOL     OW10855   5.897   0.466   3.671
 3319SOL    HW110856   5.874   0.496   3.763
 3319SOL    HW210857   5.968   0.396   3.675
 3320SOL     OW10858   6.377   0.608   0.149
 3320SOL    HW110859   6.420   0.692   0.118
 3320SOL    HW210860   6.395   0.535   0.084
 3321SOL     OW10861   5.867   1.612   1.034
 3321SOL    HW110862   5.800   1.667   1.084
 3321SOL    HW210863   5.935   1.576   1.097
 3322SOL     OW10864   0.156   2.598   0.971
 3322SOL    HW110865   0.242   2.559   0.937
 3322SOL    HW210866   0.169   2.695   0.991
 3323SOL     OW10867   2.645   1.986   0.966
 3323SOL    HW110868   2.600   2.018   0.883
 3323SOL    HW210869   2.598   2.023   1.047
 3324SOL     OW10870   4.582   5.368   5.962
 3324SOL    HW110871   4.574   5.271   5.987
 3324SOL    HW210872   4.580   5.423   6.045
 3325SOL     OW10873   0.058   3.529   6.776
 3325SOL    HW110874   0.017   3.476   6.702
 3325SOL    HW210875   0.155   3.506   6.784
 3326SOL     OW10876   4.466   1.510   1.488
 3326SOL    HW110877   4.493   1.523   1.392
 3326SOL    HW210878   4.406   1.586   1.516
 3327SOL     OW10879   2.487   5.352   1.293
 3327SOL    HW110880   2.411   5.327   1.352
 3327SOL    HW210881   2.503   5.451   1.297
 3328SOL     OW10882   3.587   2.063   0.941
 3328SOL    HW110883   3.549   2.155   0.955
 3328SOL    HW210884   3.685   2.065   0.955
 3329SOL     OW10885   5.768   0.021   5.482
 3329SOL    HW110886   5.824   0.097   5.514
 3329SOL    HW210887   5.770   6.971   5.549
 3330SOL     OW10888   6.075   3.491   1.469
 3330SOL    HW110889   6.050   3.561   1.402
 3330SOL    HW210890   6.006   3.488   1.542
 3331SOL     OW10891   2.554   2.766   1.128
 3331SOL    HW110892   2.564   2.759   1.227
 3331SOL    HW210893   2.567   2.675   1.087
 3332SOL     OW10894   6.068   5.299   0.170
 3332SOL    HW110895   5.984   5.288   0.116
 3332SOL    HW210896   6.045   5.341   0.258
 3333SOL     OW10897   4.523   6.024   6.436
 3333SOL    HW110898   4.546   6.098   6.500
 3333SOL    HW210899   4.541   5.936   6.479
 3334SOL     OW10900   3.665   3.241   1.581
 3334SOL    HW110901   3.675   3.160   1.523
 3334SOL    HW210902   3.756   3.278   1.601
 3335SOL     OW10903   4.791   5.401   5.221
 3335SOL    HW110904   4.791   5.310   5.180
 3335SOL    HW210905   4.710   5.451   5.191
 3336SOL     OW10906   3.051   5.404   5.052
 3336SOL    HW110907   3.015   5.314   5.074
 3336SOL    HW210908   3.077   5.408   4.955
 3337SOL     OW10909   2.965   3.155   1.415
 3337SOL    HW110910   3.034   3.121   1.479
 3337SOL    HW210911   2.951   3.088   1.342
 3338SOL     OW10912   6.283   3.296   1.287
 3338SOL    HW110913   6.185   3.304   1.309
 3338SOL    HW210914   6.307   3.200   1.277
 3339SOL     OW10915   6.920   7.005   6.774
 3339SOL    HW110916   6.953   0.076   6.777
 3339SOL    HW210917   6.821   7.004   6.793
 3340SOL     OW10918   3.628   0.190   1.516
 3340SOL    HW110919   3.652   0.144   1.601
 3340SOL    HW210920   3.711   0.210   1.464
 3341SOL     OW10921   1.676   6.505   3.889
 3341SOL    HW110922   1.578   6.523   3.897
 3341SOL    HW210923   1.717   6.502   3.980
 3342SOL     OW10924   2.043   6.462   4.010
 3342SOL    HW110925   2.115   6.497   3.950
 3342SOL    HW210926   2.043   6.362   4.008
 3343SOL     OW10927   5.073   2.789   0.235
 3343SOL    HW110928   5.082   2.729   0.314
 3343SOL    HW210929   5.142   2.861   0.240
 3344SOL     OW10930   5.570   4.037   4.805
 3344SOL    HW110931   5.518   3.953   4.792
 3344SOL    HW210932   5.508   4.115   4.811
 3345SOL     OW10933   2.250   3.690   5.878
 3345SOL    HW110934   2.261   3.632   5.959
 3345SOL    HW210935   2.257   3.786   5.904
 3346SOL     OW10936   1.566   0.963   1.816
 3346SOL    HW110937   1.646   0.996   1.866
 3346SOL    HW210938   1.493   1.031   1.820
 3347SOL     OW10939   0.602   5.482   3.734
 3347SOL    HW110940   0.586   5.578   3.711
 3347SOL    HW210941   0.594   5.469   3.833
 3348SOL     OW10942   3.036   3.135   3.346
 3348SOL    HW110943   2.977   3.185   3.283
 3348SOL    HW210944   3.008   3.155   3.440
 3349SOL     OW10945   0.643   4.489   4.579
 3349SOL    HW110946   0.575   4.437   4.526
 3349SOL    HW210947   0.641   4.458   4.674
 3350SOL     OW10948   1.269   2.179   6.385
 3350SOL    HW110949   1.257   2.255   6.321
 3350SOL    HW210950   1.318   2.210   6.466
 3351SOL     OW10951   5.096   0.232   2.414
 3351SOL    HW110952   5.141   0.319   2.431
 3351SOL    HW210953   5.015   0.225   2.473
 3352SOL     OW10954   0.050   3.599   0.460
 3352SOL    HW110955   0.085   3.645   0.542
 3352SOL    HW210956   0.107   3.622   0.382
 3353SOL     OW10957   1.232   6.918   1.924
 3353SOL    HW110958   1.282   6.879   1.847
 3353SOL    HW210959   1.270   6.884   2.010
 3354SOL     OW10960   6.439   2.582   4.110
 3354SOL    HW110961   6.539   2.577   4.100
 3354SOL    HW210962   6.404   2.657   4.056
 3355SOL     OW10963   1.310   1.422   0.019
 3355SOL    HW110964   1.410   1.427   0.018
 3355SOL    HW210965   1.277   1.431   0.113
 3356SOL     OW10966   2.048   3.109   0.352
 3356SOL    HW110967   1.962   3.143   0.391
 3356SOL    HW210968   2.125   3.161   0.391
 3357SOL     OW10969   2.502   4.963   1.902
 3357SOL    HW110970   2.505   5.063   1.911
 3357SOL    HW210971   2.580   4.933   1.846
 3358SOL     OW10972   4.531   6.757   1.389
 3358SOL    HW110973   4.628   6.736   1.384
 3358SOL    HW210974   4.519   6.849   1.427
 3359SOL     OW10975   6.879   0.466   4.228
 3359SOL    HW110976   6.785   0.492   4.248
 3359SOL    HW210977   6.914   0.405   4.299
 3360SOL     OW10978   0.388   1.151   1.216
 3360SOL    HW110979   0.385   1.241   1.173
 3360SOL    HW210980   0.471   1.103   1.186
 3361SOL     OW10981   0.113   4.725   2.322
 3361SOL    HW110982   0.184   4.682   2.378
 3361SOL    HW210983   0.153   4.750   2.234
 3362SOL     OW10984   3.672   1.396   4.485
 3362SOL    HW110985   3.661   1.336   4.406
 3362SOL    HW210986   3.635   1.487   4.463
 3363SOL     OW10987   0.380   0.599   6.201
 3363SOL    HW110988   0.372   0.682   6.257
 3363SOL    HW210989   0.380   0.625   6.105
 3364SOL     OW10990   1.398   4.689   4.594
 3364SOL    HW110991   1.453   4.772   4.588
 3364SOL    HW210992   1.457   4.612   4.620
 3365SOL     OW10993   0.396   2.503   5.141
 3365SOL    HW110994   0.353   2.549   5.219
 3365SOL    HW210995   0.383   2.404   5.150
 3366SOL     OW10996   6.392   0.713   5.097
 3366SOL    HW110997   6.481   0.758   5.102
 3366SOL    HW210998   6.341   0.750   5.019
 3367SOL     OW10999   1.924   3.061   1.586
 3367SOL    HW111000   1.995   3.096   1.648
 3367SOL    HW211001   1.967   3.014   1.509
 3368SOL     OW11002   0.044   5.768   0.223
 3368SOL    HW111003   6.976   5.737   0.199
 3368SOL    HW211004   0.108   5.742   0.151
 3369SOL     OW11005   3.491   1.997   5.708
 3369SOL    HW111006   3.464   1.999   5.612
 3369SOL    HW211007   3.421   1.950   5.762
 3370SOL     OW11008   6.456   6.448   5.317
 3370SOL    HW111009   6.442   6.352   5.343
 3370SOL    HW211010   6.528   6.488   5.373
 3371SOL     OW11011   0.440   4.318   2.234
 3371SOL    HW111012   0.402   4.229   2.258
 3371SOL    HW211013   0.539   4.314   2.236
 3372SOL     OW11014   0.843   1.274   2.707
 3372SOL    HW111015   0.820   1.351   2.648
 3372SOL    HW211016   0.916   1.220   2.665
 3373SOL     OW11017   6.290   1.227   3.751
 3373SOL    HW111018   6.227   1.281   3.807
 3373SOL    HW211019   6.251   1.214   3.660
 3374SOL     OW11020   2.948   5.871   4.207
 3374SOL    HW111021   3.045   5.849   4.201
 3374SOL    HW211022   2.924   5.934   4.133
 3375SOL     OW11023   4.158   4.754   4.348
 3375SOL    HW111024   4.079   4.814   4.352
 3375SOL    HW211025   4.161   4.708   4.260
 3376SOL     OW11026   4.088   3.557   2.956
 3376SOL    HW111027   4.001   3.537   3.002
 3376SOL    HW211028   4.160   3.497   2.992
 3377SOL     OW11029   0.216   6.523   4.371
 3377SOL    HW111030   0.225   6.622   4.369
 3377SOL    HW211031   0.226   6.490   4.465
 3378SOL     OW11032   6.641   0.634   1.495
 3378SOL    HW111033   6.583   0.555   1.473
 3378SOL    HW211034   6.727   0.602   1.534
 3379SOL     OW11035   6.778   5.324   6.052
 3379SOL    HW111036   6.861   5.339   6.105
 3379SOL    HW211037   6.764   5.401   5.989
 3380SOL     OW11038   6.000   5.820   5.892
 3380SOL    HW111039   6.055   5.788   5.815
 3380SOL    HW211040   6.041   5.788   5.978
 3381SOL     OW11041   2.062   1.983   0.312
 3381SOL    HW111042   2.139   2.042   0.289
 3381SOL    HW211043   2.079   1.940   0.400
 3382SOL     OW11044   0.952   1.233   1.030
 3382SOL    HW111045   0.997   1.246   0.941
 3382SOL    HW211046   0.977   1.143   1.066
 3383SOL     OW11047   5.505   4.896   2.475
 3383SOL    HW111048   5.459   4.921   2.560
 3383SOL    HW211049   5.450   4.927   2.397
 3384SOL     OW11050   2.865   3.399   5.136
 3384SOL    HW111051   2.840   3.488   5.173
 3384SOL    HW211052   2.820   3.327   5.188
 3385SOL     OW11053   0.511   3.862   3.959
 3385SOL    HW111054   0.602   3.841   3.922
 3385SOL    HW211055   0.441   3.826   3.897
 3386SOL     OW11056   6.038   3.149   5.333
 3386SOL    HW111057   6.086   3.207   5.399
 3386SOL    HW211058   5.943   3.179   5.326
 3387SOL     OW11059   2.177   0.985   2.893
 3387SOL    HW111060   2.262   1.019   2.854
 3387SOL    HW211061   2.197   0.925   2.971
 3388SOL     OW11062   5.805   3.453   0.968
 3388SOL    HW111063   5.892   3.438   0.921
 3388SOL    HW211064   5.814   3.428   1.064
 3389SOL     OW11065   4.347   5.417   4.809
 3389SOL    HW111066   4.284   5.346   4.779
 3389SOL    HW211067   4.378   5.470   4.730
 3390SOL     OW11068   4.843   4.300   5.820
 3390SOL    HW111069   4.937   4.265   5.819
 3390SOL    HW211070   4.819   4.327   5.914
 3391SOL     OW11071   5.535   2.446   4.802
 3391SOL    HW111072   5.548   2.442   4.901
 3391SOL    HW211073   5.457   2.504   4.781
 3392SOL     OW11074   2.655   1.064   3.507
 3392SOL    HW111075   2.661   0.965   3.503
 3392SOL    HW211076   2.560   1.092   3.523
 3393SOL     OW11077   6.674   6.483   0.562
 3393SOL    HW111078   6.635   6.527   0.643
 3393SOL    HW211079   6.601   6.438   0.510
 3394SOL     OW11080   6.170   3.693   1.152
 3394SOL    HW111081   6.114   3.718   1.073
 3394SOL    HW211082   6.266   3.715   1.133
 3395SOL     OW11083   7.007   3.536   3.869
 3395SOL    HW111084   6.965   3.589   3.795
 3395SOL    HW211085   0.071   3.500   3.839
 3396SOL     OW11086   0.366   2.587   3.098
 3396SOL    HW111087   0.454   2.549   3.070
 3396SOL    HW211088   0.357   2.580   3.198
 3397SOL     OW11089   3.178   1.314   5.760
 3397SOL    HW111090   3.090   1.352   5.791
 3397SOL    HW211091   3.180   1.314   5.660
 3398SOL     OW11092   1.218   7.001   4.392
 3398SOL    HW111093   1.147   6.937   4.364
 3398SOL    HW211094   1.186   0.071   4.376
 3399SOL     OW11095   4.982   4.074   4.097
 3399SOL    HW111096   4.927   4.022   4.163
 3399SOL    HW211097   5.002   4.165   4.134
 3400SOL     OW11098   4.046   1.047   5.302
 3400SOL    HW111099   4.134   1.083   5.271
 3400SOL    HW211100   3.977   1.061   5.230
 3401SOL     OW11101   6.899   3.616   0.972
 3401SOL    HW111102   6.905   3.712   0.998
 3401SOL    HW211103   6.992   3.579   0.960
 3402SOL     OW11104   4.671   6.044   0.481
 3402SOL    HW111105   4.600   6.101   0.522
 3402SOL    HW211106   4.709   5.983   0.551
 3403SOL     OW11107   3.619   0.342   4.395
 3403SOL    HW111108   3.604   0.359   4.298
 3403SOL    HW211109   3.693   0.275   4.407
 3404SOL     OW11110   3.693   1.562   0.415
 3404SOL    HW111111   3.779   1.536   0.372
 3404SOL    HW211112   3.711   1.595   0.508
 3405SOL     OW11113   6.465   3.729   4.340
 3405SOL    HW111114   6.514   3.723   4.254
 3405SOL    HW211115   6.366   3.726   4.323
 3406SOL     OW11116   1.273   4.066   1.730
 3406SOL    HW111117   1.276   4.158   1.691
 3406SOL    HW211118   1.322   4.067   1.818
 3407SOL     OW11119   1.571   5.369   0.212
 3407SOL    HW111120   1.578   5.418   0.125
 3407SOL    HW211121   1.594   5.273   0.197
 3408SOL     OW11122   4.899   4.361   4.891
 3408SOL    HW111123   4.825   4.345   4.955
 3408SOL    HW211124   4.917   4.459   4.885
 3409SOL     OW11125   3.456   6.287   5.734
 3409SOL    HW111126   3.448   6.358   5.803
 3409SOL    HW211127   3.485   6.201   5.778
 3410SOL     OW11128   5.920   6.125   0.374
 3410SOL    HW111129   5.945   6.059   0.445
 3410SOL    HW211130   5.821   6.132   0.369
 3411SOL     OW11131   0.278   2.694   1.934
 3411SOL    HW111132   0.218   2.636   1.878
 3411SOL    HW211133   0.286   2.784   1.891
 3412SOL     OW11134   4.571   2.765   7.015
 3412SOL    HW111135   4.651   2.813   6.979
 3412SOL    HW211136   4.515   2.733   6.939
 3413SOL     OW11137   4.950   1.141   2.952
 3413SOL    HW111138   4.987   1.185   3.034
 3413SOL    HW211139   4.888   1.067   2.980
 3414SOL     OW11140   2.404   1.375   5.346
 3414SOL    HW111141   2.466   1.296   5.348
 3414SOL    HW211142   2.445   1.448   5.293
 3415SOL     OW11143   2.259   4.111   4.145
 3415SOL    HW111144   2.294   4.131   4.237
 3415SOL    HW211145   2.194   4.035   4.151
 3416SOL     OW11146   6.737   5.314   6.801
 3416SOL    HW111147   6.697   5.240   6.748
 3416SOL    HW211148   6.832   5.293   6.822
 3417SOL     OW11149   6.411   6.083   3.384
 3417SOL    HW111150   6.388   6.171   3.424
 3417SOL    HW211151   6.327   6.033   3.363
 3418SOL     OW11152   3.963   6.984   4.582
 3418SOL    HW111153   4.062   6.991   4.577
 3418SOL    HW211154   3.921   0.034   4.527
 3419SOL     OW11155   3.111   5.532   5.660
 3419SOL    HW111156   3.064   5.619   5.643
 3419SOL    HW211157   3.103   5.474   5.579
 3420SOL     OW11158   5.319   2.362   3.485
 3420SOL    HW111159   5.239   2.302   3.484
 3420SOL    HW211160   5.368   2.350   3.571
 3421SOL     OW11161   6.267   0.311   6.465
 3421SOL    HW111162   6.203   0.275   6.397
 3421SOL    HW211163   6.333   0.371   6.421
 3422SOL     OW11164   2.275   6.599   0.904
 3422SOL    HW111165   2.199   6.662   0.919
 3422SOL    HW211166   2.361   6.643   0.931
 3423SOL     OW11167   2.110   6.978   0.712
 3423SOL    HW111168   2.169   0.034   0.723
 3423SOL    HW211169   2.049   6.991   0.635
 3424SOL     OW11170   2.713   6.719   2.171
 3424SOL    HW111171   2.766   6.768   2.239
 3424SOL    HW211172   2.774   6.687   2.098
 3425SOL     OW11173   4.800   4.324   1.857
 3425SOL    HW111174   4.775   4.311   1.953
 3425SOL    HW211175   4.764   4.249   1.802
 3426SOL     OW11176   3.323   3.032   6.744
 3426SOL    HW111177   3.366   3.037   6.654
 3426SOL    HW211178   3.226   3.058   6.735
 3427SOL     OW11179   6.595   6.703   6.572
 3427SOL    HW111180   6.615   6.792   6.530
 3427SOL    HW211181   6.538   6.716   6.653
 3428SOL     OW11182   3.778   4.937   1.527
 3428SOL    HW111183   3.777   4.901   1.433
 3428SOL    HW211184   3.790   4.862   1.592
 3429SOL     OW11185   0.348   1.798   0.126
 3429SOL    HW111186   0.439   1.771   0.093
 3429SOL    HW211187   0.351   1.812   0.225
 3430SOL     OW11188   0.267   0.038   5.651
 3430SOL    HW111189   0.339   7.020   5.706
 3430SOL    HW211190   0.284   0.136   5.641
 3431SOL     OW11191   2.178   6.823   1.239
 3431SOL    HW111192   2.127   6.797   1.157
 3431SOL    HW211193   2.206   6.919   1.232
 3432SOL     OW11194   2.578   2.619   6.292
 3432SOL    HW111195   2.523   2.701   6.298
 3432SOL    HW211196   2.625   2.616   6.203
 3433SOL     OW11197   1.444   6.719   6.439
 3433SOL    HW111198   1.503   6.795   6.464
 3433SOL    HW211199   1.433   6.657   6.517
 3434SOL     OW11200   3.541   2.819   1.019
 3434SOL    HW111201   3.587   2.749   0.964
 3434SOL    HW211202   3.469   2.775   1.073
 3435SOL     OW11203   1.352   2.257   1.332
 3435SOL    HW111204   1.387   2.260   1.238
 3435SOL    HW211205   1.371   2.167   1.372
 3436SOL     OW11206   4.199   6.684   5.569
 3436SOL    HW111207   4.129   6.747   5.535
 3436SOL    HW211208   4.290   6.726   5.559
 3437SOL     OW11209   4.363   0.283   6.555
 3437SOL    HW111210   4.392   0.364   6.606
 3437SOL    HW211211   4.268   0.263   6.575
 3438SOL     OW11212   1.340   2.541   6.645
 3438SOL    HW111213   1.360   2.614   6.710
 3438SOL    HW211214   1.294   2.580   6.565
 3439SOL     OW11215   2.016   0.291   6.126
 3439SOL    HW111216   1.939   0.302   6.189
 3439SOL    HW211217   2.069   0.210   6.153
 3440SOL     OW11218   4.587   3.446   1.696
 3440SOL    HW111219   4.518   3.402   1.754
 3440SOL    HW211220   4.660   3.380   1.677
 3441SOL     OW11221   5.049   0.352   4.004
 3441SOL    HW111222   5.007   0.332   4.093
 3441SOL    HW211223   5.147   0.332   4.008
 3442SOL     OW11224   3.098   4.825   2.526
 3442SOL    HW111225   3.024   4.835   2.593
 3442SOL    HW211226   3.186   4.842   2.570
 3443SOL     OW11227   5.518   0.740   2.297
 3443SOL    HW111228   5.558   0.651   2.316
 3443SOL    HW211229   5.522   0.757   2.198
 3444SOL     OW11230   5.326   4.884   0.024
 3444SOL    HW111231   5.368   4.812   0.079
 3444SOL    HW211232   5.384   4.904   6.968
 3445SOL     OW11233   6.044   5.155   3.999
 3445SOL    HW111234   6.058   5.223   3.927
 3445SOL    HW211235   6.124   5.097   4.007
 3446SOL     OW11236   6.202   1.312   3.103
 3446SOL    HW111237   6.253   1.340   3.185
 3446SOL    HW211238   6.104   1.320   3.122
 3447SOL     OW11239   5.695   4.426   0.750
 3447SOL    HW111240   5.775   4.472   0.712
 3447SOL    HW211241   5.724   4.357   0.816
 3448SOL     OW11242   3.251   0.019   0.580
 3448SOL    HW111243   3.227   0.114   0.562
 3448SOL    HW211244   3.176   6.982   0.553
 3449SOL     OW11245   5.981   6.581   3.730
 3449SOL    HW111246   5.912   6.518   3.694
 3449SOL    HW211247   5.946   6.675   3.726
 3450SOL     OW11248   0.662   2.375   0.015
 3450SOL    HW111249   0.604   2.393   0.095
 3450SOL    HW211250   0.647   2.445   6.969
 3451SOL     OW11251   0.356   5.525   3.295
 3451SOL    HW111252   0.371   5.455   3.365
 3451SOL    HW211253   0.403   5.609   3.321
 3452SOL     OW11254   5.464   1.563   0.130
 3452SOL    HW111255   5.545   1.509   0.106
 3452SOL    HW211256   5.489   1.660   0.133
 3453SOL     OW11257   6.808   5.762   5.667
 3453SOL    HW111258   6.823   5.815   5.583
 3453SOL    HW211259   6.773   5.822   5.739
 3454SOL     OW11260   2.400   1.065   5.592
 3454SOL    HW111261   2.368   1.000   5.660
 3454SOL    HW211262   2.380   1.158   5.624
 3455SOL     OW11263   1.898   2.919   4.269
 3455SOL    HW111264   1.804   2.952   4.263
 3455SOL    HW211265   1.960   2.996   4.278
 3456SOL     OW11266   5.213   6.367   2.297
 3456SOL    HW111267   5.308   6.343   2.317
 3456SOL    HW211268   5.157   6.284   2.295
 3457SOL     OW11269   2.497   5.469   4.226
 3457SOL    HW111270   2.496   5.375   4.192
 3457SOL    HW211271   2.540   5.529   4.158
 3458SOL     OW11272   5.388   6.737   0.564
 3458SOL    HW111273   5.441   6.801   0.620
 3458SOL    HW211274   5.380   6.774   0.471
 3459SOL     OW11275   5.961   4.073   3.177
 3459SOL    HW111276   6.050   4.082   3.133
 3459SOL    HW211277   5.961   4.124   3.263
 3460SOL     OW11278   2.862   3.539   0.204
 3460SOL    HW111279   2.768   3.544   0.237
 3460SOL    HW211280   2.867   3.478   0.125
 3461SOL     OW11281   4.227   5.453   4.412
 3461SOL    HW111282   4.289   5.490   4.480
 3461SOL    HW211283   4.154   5.519   4.393
 3462SOL     OW11284   6.696   3.739   2.277
 3462SOL    HW111285   6.749   3.670   2.229
 3462SOL    HW211286   6.751   3.822   2.288
 3463SOL     OW11287   1.290   3.093   2.855
 3463SOL    HW111288   1.295   3.092   2.755
 3463SOL    HW211289   1.339   3.173   2.890
 3464SOL     OW11290   6.532   2.241   6.781
 3464SOL    HW111291   6.520   2.283   6.691
 3464SOL    HW211292   6.601   2.293   6.832
 3465SOL     OW11293   0.565   3.320   2.028
 3465SOL    HW111294   0.561   3.403   1.971
 3465SOL    HW211295   0.650   3.271   2.009
 3466SOL     OW11296   6.547   4.926   5.935
 3466SOL    HW111297   6.502   4.930   5.846
 3466SOL    HW211298   6.499   4.861   5.995
 3467SOL     OW11299   1.870   1.527   0.260
 3467SOL    HW111300   1.952   1.510   0.316
 3467SOL    HW211301   1.863   1.624   0.239
 3468SOL     OW11302   5.155   1.476   3.484
 3468SOL    HW111303   5.166   1.572   3.460
 3468SOL    HW211304   5.232   1.447   3.541
 3469SOL     OW11305   4.431   6.989   4.331
 3469SOL    HW111306   4.472   0.056   4.348
 3469SOL    HW211307   4.360   6.997   4.262
 3470SOL     OW11308   0.754   2.214   2.049
 3470SOL    HW111309   0.811   2.295   2.037
 3470SOL    HW211310   0.801   2.135   2.010
 3471SOL     OW11311   4.708   4.506   3.328
 3471SOL    HW111312   4.792   4.560   3.328
 3471SOL    HW211313   4.658   4.523   3.412
 3472SOL     OW11314   2.687   0.779   1.688
 3472SOL    HW111315   2.604   0.825   1.659
 3472SOL    HW211316   2.732   0.739   1.608
 3473SOL     OW11317   6.314   3.434   2.547
 3473SOL    HW111318   6.381   3.377   2.498
 3473SOL    HW211319   6.255   3.377   2.603
 3474SOL     OW11320   0.156   4.281   2.539
 3474SOL    HW111321   0.225   4.333   2.588
 3474SOL    HW211322   0.200   4.213   2.480
 3475SOL     OW11323   0.782   4.716   4.563
 3475SOL    HW111324   0.720   4.640   4.584
 3475SOL    HW211325   0.834   4.694   4.480
 3476SOL     OW11326   2.541   2.235   2.413
 3476SOL    HW111327   2.500   2.176   2.481
 3476SOL    HW211328   2.639   2.216   2.407
 3477SOL     OW11329   1.681   5.008   0.879
 3477SOL    HW111330   1.616   4.937   0.853
 3477SOL    HW211331   1.638   5.070   0.945
 3478SOL     OW11332   2.536   5.723   6.453
 3478SOL    HW111333   2.584   5.706   6.539
 3478SOL    HW211334   2.593   5.691   6.377
 3479SOL     OW11335   0.487   0.398   2.906
 3479SOL    HW111336   0.510   0.309   2.867
 3479SOL    HW211337   0.391   0.418   2.888
 3480SOL     OW11338   0.201   6.251   5.267
 3480SOL    HW111339   0.200   6.342   5.308
 3480SOL    HW211340   0.127   6.196   5.305
 3481SOL     OW11341   4.719   0.555   0.138
 3481SOL    HW111342   4.697   0.635   0.194
 3481SOL    HW211343   4.722   0.473   0.195
 3482SOL     OW11344   6.296   1.032   2.271
 3482SOL    HW111345   6.370   1.023   2.337
 3482SOL    HW211346   6.330   1.073   2.186
 3483SOL     OW11347   5.332   1.963   2.324
 3483SOL    HW111348   5.428   1.955   2.296
 3483SOL    HW211349   5.288   1.873   2.320
 3484SOL     OW11350   1.409   3.028   0.519
 3484SOL    HW111351   1.393   2.962   0.445
 3484SOL    HW211352   1.489   3.084   0.496
 3485SOL     OW11353   1.793   1.976   4.079
 3485SOL    HW111354   1.731   1.912   4.036
 3485SOL    HW211355   1.795   2.062   4.027
 3486SOL     OW11356   2.145   0.061   3.369
 3486SOL    HW111357   2.152   0.080   3.271
 3486SOL    HW211358   2.177   0.140   3.421
 3487SOL     OW11359   0.151   1.774   0.679
 3487SOL    HW111360   0.085   1.848   0.692
 3487SOL    HW211361   0.122   1.716   0.603
 3488SOL     OW11362   5.674   1.136   5.172
 3488SOL    HW111363   5.754   1.078   5.157
 3488SOL    HW211364   5.663   1.153   5.270
 3489SOL     OW11365   3.555   0.094   1.864
 3489SOL    HW111366   3.532   0.180   1.908
 3489SOL    HW211367   3.655   0.082   1.865
 3490SOL     OW11368   3.835   4.476   0.993
 3490SOL    HW111369   3.781   4.487   1.076
 3490SOL    HW211370   3.861   4.566   0.958
 3491SOL     OW11371   4.539   2.169   6.097
 3491SOL    HW111372   4.621   2.211   6.058
 3491SOL    HW211373   4.480   2.240   6.135
 3492SOL     OW11374   6.262   4.566   0.920
 3492SOL    HW111375   6.185   4.515   0.881
 3492SOL    HW211376   6.333   4.503   0.949
 3493SOL     OW11377   5.052   3.669   3.929
 3493SOL    HW111378   5.076   3.734   4.001
 3493SOL    HW211379   4.988   3.711   3.865
 3494SOL     OW11380   2.300   1.043   1.784
 3494SOL    HW111381   2.374   1.086   1.836
 3494SOL    HW211382   2.335   0.961   1.738
 3495SOL     OW11383   6.183   4.778   1.783
 3495SOL    HW111384   6.102   4.720   1.792
 3495SOL    HW211385   6.253   4.728   1.730
 3496SOL     OW11386   6.113   4.771   1.024
 3496SOL    HW111387   6.178   4.702   0.991
 3496SOL    HW211388   6.022   4.751   0.988
 3497SOL     OW11389   2.960   1.628   3.860
 3497SOL    HW111390   2.950   1.621   3.959
 3497SOL    HW211391   2.933   1.720   3.831
 3498SOL     OW11392   3.010   1.387   1.593
 3498SOL    HW111393   3.096   1.439   1.590
 3498SOL    HW211394   2.996   1.342   1.505
 3499SOL     OW11395   5.536   4.437   4.159
 3499SOL    HW111396   5.594   4.380   4.100
 3499SOL    HW211397   5.524   4.393   4.247
 3500SOL     OW11398   1.845   3.156   2.870
 3500SOL    HW111399   1.751   3.123   2.876
 3500SOL    HW211400   1.866   3.181   2.775
 3501SOL     OW11401   3.209   6.637   5.951
 3501SOL    HW111402   3.165   6.650   6.040
 3501SOL    HW211403   3.139   6.625   5.880
 3502SOL     OW11404   0.071   1.862   1.326
 3502SOL    HW111405   0.076   1.875   1.227
 3502SOL    HW211406   0.008   1.787   1.347
 3503SOL     OW11407   5.891   5.973   4.916
 3503SOL    HW111408   5.892   6.071   4.896
 3503SOL    HW211409   5.874   5.921   4.832
 3504SOL     OW11410   2.366   0.075   1.567
 3504SOL    HW111411   2.300   0.143   1.596
 3504SOL    HW211412   2.411   0.035   1.647
 3505SOL     OW11413   5.160   3.960   5.544
 3505SOL    HW111414   5.185   3.867   5.519
 3505SOL    HW211415   5.088   3.957   5.614
 3506SOL     OW11416   5.187   5.196   5.018
 3506SOL    HW111417   5.284   5.210   5.003
 3506SOL    HW211418   5.141   5.187   4.930
 3507SOL     OW11419   2.987   0.532   0.835
 3507SOL    HW111420   3.038   0.593   0.895
 3507SOL    HW211421   2.908   0.580   0.798
 3508SOL     OW11422   2.054   1.910   5.573
 3508SOL    HW111423   2.134   1.958   5.538
 3508SOL    HW211424   1.999   1.974   5.627
 3509SOL     OW11425   5.460   0.085   0.264
 3509SOL    HW111426   5.516   0.094   0.347
 3509SOL    HW211427   5.424   0.175   0.239
 3510SOL     OW11428   1.349   1.145   2.180
 3510SOL    HW111429   1.260   1.144   2.134
 3510SOL    HW211430   1.336   1.126   2.278
 3511SOL     OW11431   1.941   4.064   1.740
 3511SOL    HW111432   2.028   4.017   1.729
 3511SOL    HW211433   1.881   4.043   1.662
 3512SOL     OW11434   0.119   4.651   0.127
 3512SOL    HW111435   0.155   4.705   0.051
 3512SOL    HW211436   0.123   4.554   0.103
 3513SOL     OW11437   5.930   2.081   0.742
 3513SOL    HW111438   5.932   2.084   0.642
 3513SOL    HW211439   5.836   2.081   0.774
 3514SOL     OW11440   6.863   0.836   1.966
 3514SOL    HW111441   6.898   0.745   1.989
 3514SOL    HW211442   6.929   0.884   1.909
 3515SOL     OW11443   4.557   6.066   2.746
 3515SOL    HW111444   4.532   6.041   2.839
 3515SOL    HW211445   4.624   5.999   2.710
 3516SOL     OW11446   5.084   0.123   0.793
 3516SOL    HW111447   5.180   0.114   0.818
 3516SOL    HW211448   5.058   0.048   0.731
 3517SOL     OW11449   0.882   1.892   1.369
 3517SOL    HW111450   0.964   1.839   1.393
 3517SOL    HW211451   0.835   1.918   1.453
 3518SOL     OW11452   4.916   2.834   5.136
 3518SOL    HW111453   4.969   2.748   5.138
 3518SOL    HW211454   4.925   2.875   5.045
 3519SOL     OW11455   1.288   0.539   5.699
 3519SOL    HW111456   1.332   0.541   5.790
 3519SOL    HW211457   1.211   0.475   5.701
 3520SOL     OW11458   3.433   5.647   0.003
 3520SOL    HW111459   3.442   5.693   6.938
 3520SOL    HW211460   3.523   5.638   0.045
 3521SOL     OW11461   4.811   2.849   0.334
 3521SOL    HW111462   4.911   2.849   0.344
 3521SOL    HW211463   4.769   2.884   0.418
 3522SOL     OW11464   0.489   5.206   0.868
 3522SOL    HW111465   0.555   5.135   0.842
 3522SOL    HW211466   0.462   5.258   0.788
 3523SOL     OW11467   1.699   4.565   5.111
 3523SOL    HW111468   1.599   4.558   5.117
 3523SOL    HW211469   1.734   4.490   5.055
 3524SOL     OW11470   4.420   1.281   1.635
 3524SOL    HW111471   4.445   1.349   1.565
 3524SOL    HW211472   4.375   1.204   1.591
 3525SOL     OW11473   6.621   4.645   3.690
 3525SOL    HW111474   6.600   4.734   3.730
 3525SOL    HW211475   6.539   4.589   3.689
 3526SOL     OW11476   2.203   6.991   3.907
 3526SOL    HW111477   2.157   6.912   3.948
 3526SOL    HW211478   2.300   6.987   3.930
 3527SOL     OW11479   5.612   3.219   6.497
 3527SOL    HW111480   5.682   3.178   6.438
 3527SOL    HW211481   5.529   3.164   6.494
 3528SOL     OW11482   1.239   6.602   5.637
 3528SOL    HW111483   1.331   6.581   5.604
 3528SOL    HW211484   1.245   6.672   5.708
 3529SOL     OW11485   3.937   0.113   0.495
 3529SOL    HW111486   3.951   0.048   0.421
 3529SOL    HW211487   3.865   0.080   0.556
 3530SOL     OW11488   6.467   6.300   1.529
 3530SOL    HW111489   6.477   6.213   1.576
 3530SOL    HW211490   6.394   6.354   1.572
 3531SOL     OW11491   4.827   2.542   0.992
 3531SOL    HW111492   4.807   2.579   0.901
 3531SOL    HW211493   4.742   2.517   1.038
 3532SOL     OW11494   2.591   6.842   1.789
 3532SOL    HW111495   2.545   6.753   1.793
 3532SOL    HW211496   2.585   6.886   1.879
 3533SOL     OW11497   0.752   1.505   2.923
 3533SOL    HW111498   0.808   1.439   2.873
 3533SOL    HW211499   0.663   1.463   2.944
 3534SOL     OW11500   0.500   1.959   0.893
 3534SOL    HW111501   0.538   1.924   0.979
 3534SOL    HW211502   0.522   2.056   0.884
 3535SOL     OW11503   2.080   5.058   6.549
 3535SOL    HW111504   2.005   5.003   6.511
 3535SOL    HW211505   2.139   4.999   6.604
 3536SOL     OW11506   3.170   1.921   2.801
 3536SOL    HW111507   3.085   1.967   2.776
 3536SOL    HW211508   3.248   1.975   2.770
 3537SOL     OW11509   2.617   5.276   2.597
 3537SOL    HW111510   2.623   5.293   2.499
 3537SOL    HW211511   2.643   5.359   2.647
 3538SOL     OW11512   2.212   7.014   6.032
 3538SOL    HW111513   2.274   6.941   6.061
 3538SOL    HW211514   2.199   7.009   5.932
 3539SOL     OW11515   3.311   2.900   5.130
 3539SOL    HW111516   3.347   2.891   5.037
 3539SOL    HW211517   3.246   2.976   5.133
 3540SOL     OW11518   1.596   2.318   4.832
 3540SOL    HW111519   1.691   2.316   4.800
 3540SOL    HW211520   1.594   2.328   4.932
 3541SOL     OW11521   2.043   2.890   6.134
 3541SOL    HW111522   2.000   2.849   6.215
 3541SOL    HW211523   2.078   2.817   6.075
 3542SOL     OW11524   1.246   5.366   3.547
 3542SOL    HW111525   1.197   5.366   3.634
 3542SOL    HW211526   1.251   5.459   3.511
 3543SOL     OW11527   0.637   2.434   4.952
 3543SOL    HW111528   0.642   2.417   4.853
 3543SOL    HW211529   0.546   2.467   4.975
 3544SOL     OW11530   1.701   3.982   5.426
 3544SOL    HW111531   1.714   4.078   5.401
 3544SOL    HW211532   1.625   3.975   5.491
 3545SOL     OW11533   4.321   5.718   0.204
 3545SOL    HW111534   4.225   5.744   0.205
 3545SOL    HW211535   4.376   5.797   0.176
 3546SOL     OW11536   1.713   4.083   3.734
 3546SOL    HW111537   1.772   4.074   3.814
 3546SOL    HW211538   1.719   4.176   3.697
 3547SOL     OW11539   6.802   4.517   3.837
 3547SOL    HW111540   6.741   4.565   3.774
 3547SOL    HW211541   6.859   4.453   3.785
 3548SOL     OW11542   5.802   1.639   5.788
 3548SOL    HW111543   5.792   1.541   5.805
 3548SOL    HW211544   5.822   1.656   5.692
 3549SOL     OW11545   6.428   5.017   5.696
 3549SOL    HW111546   6.353   5.083   5.693
 3549SOL    HW211547   6.510   5.056   5.656
 3550SOL     OW11548   5.636   2.377   2.510
 3550SOL    HW111549   5.709   2.383   2.578
 3550SOL    HW211550   5.677   2.372   2.418
 3551SOL     OW11551   3.659   0.026   2.794
 3551SOL    HW111552   3.593   6.978   2.820
 3551SOL    HW211553   3.672   0.089   2.870
 3552SOL     OW11554   5.543   5.981   1.374
 3552SOL    HW111555   5.497   5.937   1.452
 3552SOL    HW211556   5.489   6.061   1.345
 3553SOL     OW11557   5.334   3.780   1.340
 3553SOL    HW111558   5.375   3.839   1.409
 3553SOL    HW211559   5.235   3.793   1.338
 3554SOL     OW11560   3.901   2.711   1.120
 3554SOL    HW111561   3.897   2.705   1.021
 3554SOL    HW211562   3.821   2.667   1.160
 3555SOL     OW11563   1.120   3.697   3.203
 3555SOL    HW111564   1.026   3.681   3.233
 3555SOL    HW211565   1.119   3.755   3.121
 3556SOL     OW11566   4.537   0.780   3.585
 3556SOL    HW111567   4.504   0.843   3.516
 3556SOL    HW211568   4.463   0.719   3.614
 3557SOL     OW11569   1.055   0.448   4.174
 3557SOL    HW111570   1.105   0.495   4.101
 3557SOL    HW211571   0.958   0.446   4.153
 3558SOL     OW11572   1.197   5.889   0.929
 3558SOL    HW111573   1.132   5.937   0.870
 3558SOL    HW211574   1.148   5.830   0.993
 3559SOL     OW11575   0.441   6.701   4.852
 3559SOL    HW111576   0.528   6.736   4.887
 3559SOL    HW211577   0.412   6.756   4.774
 3560SOL     OW11578   1.631   5.582   1.338
 3560SOL    HW111579   1.675   5.569   1.249
 3560SOL    HW211580   1.617   5.493   1.381
 3561SOL     OW11581   4.176   4.730   5.463
 3561SOL    HW111582   4.261   4.782   5.453
 3561SOL    HW211583   4.198   4.637   5.495
 3562SOL     OW11584   5.541   0.912   4.165
 3562SOL    HW111585   5.469   0.982   4.162
 3562SOL    HW211586   5.547   0.876   4.258
 3563SOL     OW11587   5.884   0.781   0.947
 3563SOL    HW111588   5.959   0.767   1.011
 3563SOL    HW211589   5.821   0.703   0.952
 3564SOL     OW11590   1.649   4.564   4.122
 3564SOL    HW111591   1.721   4.627   4.152
 3564SOL    HW211592   1.673   4.527   4.032
 3565SOL     OW11593   3.787   6.143   5.228
 3565SOL    HW111594   3.724   6.208   5.185
 3565SOL    HW211595   3.842   6.098   5.157
 3566SOL     OW11596   6.806   3.490   6.393
 3566SOL    HW111597   6.787   3.457   6.301
 3566SOL    HW211598   6.833   3.586   6.390
 3567SOL     OW11599   1.060   2.849   7.014
 3567SOL    HW111600   0.963   2.853   0.014
 3567SOL    HW211601   1.072   2.797   6.930
 3568SOL     OW11602   5.298   5.953   3.970
 3568SOL    HW111603   5.235   5.899   4.025
 3568SOL    HW211604   5.248   6.029   3.927
 3569SOL     OW11605   3.270   2.454   6.184
 3569SOL    HW111606   3.191   2.514   6.197
 3569SOL    HW211607   3.337   2.499   6.125
 3570SOL     OW11608   5.249   0.198   4.951
 3570SOL    HW111609   5.216   0.104   4.945
 3570SOL    HW211610   5.270   0.220   5.047
 3571SOL     OW11611   2.165   0.708   4.865
 3571SOL    HW111612   2.187   0.805   4.878
 3571SOL    HW211613   2.249   0.654   4.872
 3572SOL     OW11614   5.482   3.759   2.587
 3572SOL    HW111615   5.550   3.765   2.660
 3572SOL    HW211616   5.432   3.846   2.581
 3573SOL     OW11617   6.071   4.002   2.584
 3573SOL    HW111618   6.100   3.996   2.679
 3573SOL    HW211619   6.002   3.932   2.566
 3574SOL     OW11620   1.059   3.317   0.511
 3574SOL    HW111621   1.103   3.255   0.576
 3574SOL    HW211622   0.965   3.335   0.540
 3575SOL     OW11623   4.873   6.015   1.942
 3575SOL    HW111624   4.878   6.043   1.846
 3575SOL    HW211625   4.952   5.960   1.965
 3576SOL     OW11626   0.531   2.040   0.199
 3576SOL    HW111627   0.552   2.116   0.261
 3576SOL    HW211628   0.433   2.018   0.205
 3577SOL     OW11629   2.107   3.079   6.791
 3577SOL    HW111630   2.205   3.096   6.799
 3577SOL    HW211631   2.057   3.159   6.822
 3578SOL     OW11632   5.220   1.691   1.396
 3578SOL    HW111633   5.253   1.783   1.419
 3578SOL    HW211634   5.296   1.626   1.401
 3579SOL     OW11635   6.858   2.837   2.773
 3579SOL    HW111636   6.865   2.933   2.744
 3579SOL    HW211637   6.922   2.782   2.720
 3580SOL     OW11638   6.081   2.972   0.111
 3580SOL    HW111639   6.065   3.047   0.047
 3580SOL    HW211640   6.095   2.887   0.059
 3581SOL     OW11641   0.338   6.042   2.726
 3581SOL    HW111642   0.416   6.019   2.785
 3581SOL    HW211643   0.344   6.137   2.698
 3582SOL     OW11644   2.186   4.575   5.929
 3582SOL    HW111645   2.243   4.493   5.917
 3582SOL    HW211646   2.107   4.570   5.868
 3583SOL     OW11647   1.449   5.023   0.258
 3583SOL    HW111648   1.519   4.952   0.271
 3583SOL    HW211649   1.397   5.002   0.175
 3584SOL     OW11650   5.467   4.674   5.422
 3584SOL    HW111651   5.498   4.632   5.337
 3584SOL    HW211652   5.521   4.640   5.499
 3585SOL     OW11653   3.233   2.125   4.877
 3585SOL    HW111654   3.162   2.161   4.938
 3585SOL    HW211655   3.196   2.048   4.826
 3586SOL     OW11656   6.892   1.860   5.056
 3586SOL    HW111657   6.918   1.848   5.152
 3586SOL    HW211658   6.915   1.777   5.005
 3587SOL     OW11659   2.734   5.595   6.299
 3587SOL    HW111660   2.823   5.622   6.336
 3587SOL    HW211661   2.745   5.516   6.239
 3588SOL     OW11662   6.722   2.971   5.033
 3588SOL    HW111663   6.661   3.005   5.105
 3588SOL    HW211664   6.766   3.048   4.988
 3589SOL     OW11665   5.936   0.218   6.736
 3589SOL    HW111666   5.893   0.175   6.815
 3589SOL    HW211667   5.937   0.317   6.747
 3590SOL     OW11668   0.447   3.747   0.221
 3590SOL    HW111669   0.467   3.768   0.125
 3590SOL    HW211670   0.355   3.707   0.228
 3591SOL     OW11671   5.791   3.682   0.582
 3591SOL    HW111672   5.798   3.618   0.505
 3591SOL    HW211673   5.876   3.679   0.634
 3592SOL     OW11674   0.612   0.133   3.248
 3592SOL    HW111675   0.697   0.141   3.300
 3592SOL    HW211676   0.608   0.043   3.204
 3593SOL     OW11677   0.572   4.315   5.873
 3593SOL    HW111678   0.610   4.405   5.894
 3593SOL    HW211679   0.543   4.313   5.777
 3594SOL     OW11680   4.923   0.374   4.256
 3594SOL    HW111681   5.011   0.397   4.298
 3594SOL    HW211682   4.860   0.451   4.266
 3595SOL     OW11683   5.173   5.738   6.503
 3595SOL    HW111684   5.134   5.676   6.436
 3595SOL    HW211685   5.115   5.819   6.512
 3596SOL     OW11686   5.036   2.905   3.706
 3596SOL    HW111687   5.052   3.000   3.733
 3596SOL    HW211688   4.971   2.902   3.630
 3597SOL     OW11689   1.987   2.779   5.085
 3597SOL    HW111690   2.037   2.747   5.005
 3597SOL    HW211691   2.009   2.722   5.164
 3598SOL     OW11692   2.183   6.419   5.557
 3598SOL    HW111693   2.159   6.485   5.486
 3598SOL    HW211694   2.272   6.378   5.536
 3599SOL     OW11695   4.414   1.802   0.388
 3599SOL    HW111696   4.473   1.803   0.307
 3599SOL    HW211697   4.469   1.787   0.470
 3600SOL     OW11698   0.327   3.601   2.136
 3600SOL    HW111699   0.401   3.568   2.195
 3600SOL    HW211700   0.309   3.533   2.065
 3601SOL     OW11701   5.339   2.395   5.931
 3601SOL    HW111702   5.297   2.471   5.981
 3601SOL    HW211703   5.314   2.309   5.975
 3602SOL     OW11704   1.263   3.619   0.825
 3602SOL    HW111705   1.298   3.663   0.908
 3602SOL    HW211706   1.221   3.531   0.848
 3603SOL     OW11707   3.545   0.988   4.753
 3603SOL    HW111708   3.643   0.971   4.766
 3603SOL    HW211709   3.492   0.925   4.808
 3604SOL     OW11710   6.726   0.282   4.419
 3604SOL    HW111711   6.740   0.195   4.465
 3604SOL    HW211712   6.660   0.270   4.344
 3605SOL     OW11713   1.222   4.337   3.886
 3605SOL    HW111714   1.169   4.373   3.963
 3605SOL    HW211715   1.168   4.345   3.802
 3606SOL     OW11716   0.886   6.483   3.329
 3606SOL    HW111717   0.954   6.434   3.383
 3606SOL    HW211718   0.916   6.486   3.234
 3607SOL     OW11719   5.496   3.736   2.012
 3607SOL    HW111720   5.479   3.721   1.915
 3607SOL    HW211721   5.429   3.685   2.066
 3608SOL     OW11722   5.037   1.465   4.396
 3608SOL    HW111723   5.035   1.378   4.444
 3608SOL    HW211724   5.131   1.498   4.389
 3609SOL     OW11725   2.288   0.223   4.276
 3609SOL    HW111726   2.200   0.191   4.309
 3609SOL    HW211727   2.339   0.263   4.352
 3610SOL     OW11728   1.370   0.779   5.588
 3610SOL    HW111729   1.469   0.769   5.577
 3610SOL    HW211730   1.335   0.704   5.643
 3611SOL     OW11731   4.204   4.714   3.871
 3611SOL    HW111732   4.152   4.731   3.787
 3611SOL    HW211733   4.294   4.678   3.847
 3612SOL     OW11734   6.992   1.204   0.092
 3612SOL    HW111735   6.989   1.107   0.068
 3612SOL    HW211736   6.900   1.234   0.120
 3613SOL     OW11737   4.496   4.800   1.776
 3613SOL    HW111738   4.595   4.785   1.781
 3613SOL    HW211739   4.451   4.753   1.852
 3614SOL     OW11740   2.961   3.814   0.182
 3614SOL    HW111741   3.012   3.825   0.267
 3614SOL    HW211742   2.932   3.719   0.173
 3615SOL     OW11743   5.767   2.403   6.247
 3615SOL    HW111744   5.776   2.503   6.236
 3615SOL    HW211745   5.726   2.365   6.164
 3616SOL     OW11746   1.073   0.608   6.353
 3616SOL    HW111747   1.154   0.550   6.355
 3616SOL    HW211748   1.071   0.659   6.267
 3617SOL     OW11749   4.519   0.533   5.810
 3617SOL    HW111750   4.584   0.482   5.754
 3617SOL    HW211751   4.536   0.631   5.801
 3618SOL     OW11752   2.682   3.494   5.387
 3618SOL    HW111753   2.599   3.515   5.439
 3618SOL    HW211754   2.675   3.401   5.351
 3619SOL     OW11755   5.503   3.644   6.871
 3619SOL    HW111756   5.426   3.637   6.807
 3619SOL    HW211757   5.476   3.702   6.949
 3620SOL     OW11758   5.965   5.320   5.739
 3620SOL    HW111759   5.981   5.395   5.803
 3620SOL    HW211760   5.909   5.250   5.783
 3621SOL     OW11761   3.439   3.950   4.584
 3621SOL    HW111762   3.349   3.909   4.575
 3621SOL    HW211763   3.455   3.974   4.680
 3622SOL     OW11764   1.870   0.788   0.474
 3622SOL    HW111765   1.861   0.761   0.378
 3622SOL    HW211766   1.902   0.883   0.478
 3623SOL     OW11767   0.283   5.682   4.938
 3623SOL    HW111768   0.343   5.709   4.862
 3623SOL    HW211769   0.287   5.752   5.010
 3624SOL     OW11770   1.416   6.965   2.671
 3624SOL    HW111771   1.475   6.950   2.592
 3624SOL    HW211772   1.348   6.892   2.676
 3625SOL     OW11773   0.111   3.655   6.333
 3625SOL    HW111774   0.114   3.572   6.277
 3625SOL    HW211775   0.016   3.682   6.348
 3626SOL     OW11776   0.582   2.998   4.026
 3626SOL    HW111777   0.562   3.095   4.037
 3626SOL    HW211778   0.672   2.978   4.064
 3627SOL     OW11779   4.777   3.235   1.710
 3627SOL    HW111780   4.866   3.190   1.703
 3627SOL    HW211781   4.725   3.195   1.785
 3628SOL     OW11782   1.474   1.372   2.108
 3628SOL    HW111783   1.539   1.347   2.036
 3628SOL    HW211784   1.434   1.289   2.147
 3629SOL     OW11785   1.132   0.504   4.534
 3629SOL    HW111786   1.128   0.599   4.503
 3629SOL    HW211787   1.210   0.458   4.491
 3630SOL     OW11788   6.549   2.722   3.794
 3630SOL    HW111789   6.502   2.758   3.874
 3630SOL    HW211790   6.586   2.797   3.739
 3631SOL     OW11791   1.465   6.721   3.655
 3631SOL    HW111792   1.503   6.763   3.737
 3631SOL    HW211793   1.418   6.791   3.601
 3632SOL     OW11794   4.524   4.570   0.019
 3632SOL    HW111795   4.578   4.487   0.004
 3632SOL    HW211796   4.581   4.637   0.067
 3633SOL     OW11797   4.174   2.586   5.796
 3633SOL    HW111798   4.257   2.584   5.851
 3633SOL    HW211799   4.108   2.649   5.838
 3634SOL     OW11800   1.842   6.398   6.163
 3634SOL    HW111801   1.843   6.492   6.197
 3634SOL    HW211802   1.753   6.378   6.122
 3635SOL     OW11803   2.391   1.405   0.733
 3635SOL    HW111804   2.375   1.503   0.720
 3635SOL    HW211805   2.319   1.354   0.686
 3636SOL     OW11806   6.811   6.135   1.087
 3636SOL    HW111807   6.746   6.175   1.152
 3636SOL    HW211808   6.762   6.071   1.027
 3637SOL     OW11809   0.832   2.605   1.004
 3637SOL    HW111810   0.760   2.565   1.061
 3637SOL    HW211811   0.921   2.590   1.047
 3638SOL     OW11812   6.493   4.087   2.840
 3638SOL    HW111813   6.477   4.096   2.741
 3638SOL    HW211814   6.573   4.140   2.866
 3639SOL     OW11815   3.764   4.809   6.554
 3639SOL    HW111816   3.691   4.751   6.517
 3639SOL    HW211817   3.808   4.858   6.480
 3640SOL     OW11818   5.234   1.760   0.719
 3640SOL    HW111819   5.167   1.830   0.744
 3640SOL    HW211820   5.200   1.670   0.745
 3641SOL     OW11821   5.139   4.375   1.244
 3641SOL    HW111822   5.166   4.431   1.166
 3641SOL    HW211823   5.089   4.295   1.211
 3642SOL     OW11824   4.880   2.392   6.782
 3642SOL    HW111825   4.941   2.328   6.734
 3642SOL    HW211826   4.883   2.372   6.880
 3643SOL     OW11827   4.164   6.499   6.002
 3643SOL    HW111828   4.174   6.493   5.903
 3643SOL    HW211829   4.105   6.577   6.024
 3644SOL     OW11830   2.760   0.457   1.304
 3644SOL    HW111831   2.685   0.394   1.285
 3644SOL    HW211832   2.828   0.451   1.231
 3645SOL     OW11833   1.391   3.833   4.286
 3645SOL    HW111834   1.379   3.808   4.382
 3645SOL    HW211835   1.390   3.750   4.230
 3646SOL     OW11836   1.846   4.891   4.693
 3646SOL    HW111837   1.843   4.797   4.727
 3646SOL    HW211838   1.908   4.944   4.751
 3647SOL     OW11839   2.715   5.882   6.782
 3647SOL    HW111840   2.797   5.827   6.767
 3647SOL    HW211841   2.663   5.844   6.858
 3648SOL     OW11842   4.733   6.135   3.132
 3648SOL    HW111843   4.777   6.196   3.066
 3648SOL    HW211844   4.642   6.170   3.155
 3649SOL     OW11845   6.746   3.845   0.174
 3649SOL    HW111846   6.794   3.848   0.261
 3649SOL    HW211847   6.719   3.937   0.147
 3650SOL     OW11848   6.303   4.217   0.521
 3650SOL    HW111849   6.394   4.256   0.507
 3650SOL    HW211850   6.310   4.117   0.522
 3651SOL     OW11851   1.882   1.511   4.392
 3651SOL    HW111852   1.903   1.568   4.312
 3651SOL    HW211853   1.909   1.559   4.475
 3652SOL     OW11854   5.607   6.941   2.727
 3652SOL    HW111855   5.702   6.969   2.714
 3652SOL    HW211856   5.583   6.872   2.659
 3653SOL     OW11857   1.406   0.873   3.296
 3653SOL    HW111858   1.357   0.959   3.314
 3653SOL    HW211859   1.343   0.796   3.307
 3654SOL     OW11860   5.156   6.174   0.676
 3654SOL    HW111861   5.131   6.245   0.741
 3654SOL    HW211862   5.208   6.214   0.600
 3655SOL     OW11863   3.100   1.334   4.133
 3655SOL    HW111864   3.141   1.404   4.192
 3655SOL    HW211865   3.004   1.356   4.117
 3656SOL     OW11866   1.322   5.372   1.535
 3656SOL    HW111867   1.319   5.413   1.626
 3656SOL    HW211868   1.229   5.359   1.501
 3657SOL     OW11869   4.756   5.916   5.596
 3657SOL    HW111870   4.717   5.993   5.646
 3657SOL    HW211871   4.697   5.893   5.519
 3658SOL     OW11872   1.865   4.899   6.485
 3658SOL    HW111873   1.825   4.929   6.572
 3658SOL    HW211874   1.810   4.825   6.447
 3659SOL     OW11875   0.387   1.945   6.644
 3659SOL    HW111876   0.478   1.913   6.620
 3659SOL    HW211877   0.323   1.921   6.571
 3660SOL     OW11878   6.176   5.877   5.012
 3660SOL    HW111879   6.205   5.875   4.917
 3660SOL    HW211880   6.076   5.881   5.017
 3661SOL     OW11881   0.474   0.638   4.777
 3661SOL    HW111882   0.390   0.587   4.756
 3661SOL    HW211883   0.529   0.585   4.841
 3662SOL     OW11884   3.750   0.514   4.582
 3662SOL    HW111885   3.703   0.466   4.508
 3662SOL    HW211886   3.848   0.519   4.560
 3663SOL     OW11887   2.183   2.973   0.128
 3663SOL    HW111888   2.122   2.917   0.071
 3663SOL    HW211889   2.130   3.023   0.196
 3664SOL     OW11890   3.708   1.593   2.063
 3664SOL    HW111891   3.694   1.525   1.991
 3664SOL    HW211892   3.771   1.555   2.131
 3665SOL     OW11893   0.716   5.850   5.811
 3665SOL    HW111894   0.683   5.785   5.742
 3665SOL    HW211895   0.815   5.853   5.810
 3666SOL     OW11896   1.096   3.019   3.023
 3666SOL    HW111897   1.176   3.035   2.964
 3666SOL    HW211898   1.121   3.037   3.118
 3667SOL     OW11899   0.845   1.134   3.928
 3667SOL    HW111900   0.797   1.184   3.999
 3667SOL    HW211901   0.785   1.121   3.849
 3668SOL     OW11902   1.308   0.721   0.821
 3668SOL    HW111903   1.253   0.644   0.852
 3668SOL    HW211904   1.277   0.805   0.866
 3669SOL     OW11905   5.662   1.610   4.097
 3669SOL    HW111906   5.661   1.607   3.997
 3669SOL    HW211907   5.574   1.643   4.131
 3670SOL     OW11908   3.051   5.161   1.077
 3670SOL    HW111909   3.024   5.166   0.981
 3670SOL    HW211910   3.082   5.251   1.107
 3671SOL     OW11911   6.677   1.466   3.166
 3671SOL    HW111912   6.635   1.389   3.214
 3671SOL    HW211913   6.653   1.551   3.212
 3672SOL     OW11914   4.742   1.564   2.752
 3672SOL    HW111915   4.814   1.550   2.684
 3672SOL    HW211916   4.693   1.478   2.766
 3673SOL     OW11917   3.977   5.684   6.782
 3673SOL    HW111918   4.005   5.607   6.839
 3673SOL    HW211919   4.038   5.690   6.702
 3674SOL     OW11920   1.258   5.858   5.377
 3674SOL    HW111921   1.196   5.838   5.452
 3674SOL    HW211922   1.326   5.785   5.369
 3675SOL     OW11923   0.142   2.683   3.602
 3675SOL    HW111924   0.120   2.714   3.509
 3675SOL    HW211925   0.132   2.760   3.665
 3676SOL     OW11926   5.752   2.551   2.748
 3676SOL    HW111927   5.684   2.613   2.709
 3676SOL    HW211928   5.736   2.541   2.846
 3677SOL     OW11929   2.267   1.002   5.194
 3677SOL    HW111930   2.254   0.905   5.215
 3677SOL    HW211931   2.227   1.022   5.104
 3678SOL     OW11932   1.513   1.873   4.164
 3678SOL    HW111933   1.560   1.790   4.194
 3678SOL    HW211934   1.417   1.869   4.194
 3679SOL     OW11935   6.751   0.359   3.940
 3679SOL    HW111936   6.722   0.453   3.960
 3679SOL    HW211937   6.761   0.309   4.026
 3680SOL     OW11938   4.162   2.277   4.331
 3680SOL    HW111939   4.068   2.257   4.304
 3680SOL    HW211940   4.193   2.209   4.397
 3681SOL     OW11941   0.601   1.293   6.221
 3681SOL    HW111942   0.691   1.335   6.235
 3681SOL    HW211943   0.552   1.290   6.308
 3682SOL     OW11944   5.316   2.199   0.790
 3682SOL    HW111945   5.353   2.291   0.806
 3682SOL    HW211946   5.352   2.136   0.859
 3683SOL     OW11947   0.828   1.043   4.806
 3683SOL    HW111948   0.815   1.116   4.873
 3683SOL    HW211949   0.866   1.082   4.722
 3684SOL     OW11950   1.525   5.926   0.050
 3684SOL    HW111951   1.498   5.948   6.979
 3684SOL    HW211952   1.592   5.851   0.048
 3685SOL     OW11953   2.537   6.231   5.279
 3685SOL    HW111954   2.537   6.265   5.185
 3685SOL    HW211955   2.611   6.165   5.291
 3686SOL     OW11956   6.580   4.493   4.021
 3686SOL    HW111957   6.640   4.511   3.943
 3686SOL    HW211958   6.618   4.419   4.076
 3687SOL     OW11959   5.089   6.775   3.588
 3687SOL    HW111960   5.140   6.819   3.663
 3687SOL    HW211961   5.134   6.795   3.501
 3688SOL     OW11962   5.857   3.304   0.157
 3688SOL    HW111963   5.955   3.325   0.152
 3688SOL    HW211964   5.807   3.366   0.096
 3689SOL     OW11965   2.256   2.077   5.484
 3689SOL    HW111966   2.267   2.141   5.560
 3689SOL    HW211967   2.233   2.127   5.401
 3690SOL     OW11968   4.795   5.809   0.942
 3690SOL    HW111969   4.778   5.826   0.845
 3690SOL    HW211970   4.747   5.726   0.970
 3691SOL     OW11971   2.612   2.461   5.942
 3691SOL    HW111972   2.640   2.538   5.999
 3691SOL    HW211973   2.649   2.377   5.980
 3692SOL     OW11974   6.592   4.582   6.044
 3692SOL    HW111975   6.582   4.641   5.964
 3692SOL    HW211976   6.515   4.598   6.106
 3693SOL     OW11977   1.991   1.705   2.442
 3693SOL    HW111978   2.009   1.768   2.366
 3693SOL    HW211979   1.954   1.757   2.520
 3694SOL     OW11980   1.166   0.026   1.604
 3694SOL    HW111981   1.194   0.049   1.510
 3694SOL    HW211982   1.241   7.003   1.650
 3695SOL     OW11983   6.271   2.068   1.555
 3695SOL    HW111984   6.204   2.070   1.629
 3695SOL    HW211985   6.349   2.012   1.582
 3696SOL     OW11986   5.038   0.304   5.453
 3696SOL    HW111987   4.972   0.281   5.525
 3696SOL    HW211988   5.085   0.221   5.423
 3697SOL     OW11989   6.537   6.208   3.163
 3697SOL    HW111990   6.486   6.208   3.077
 3697SOL    HW211991   6.482   6.164   3.234
 3698SOL     OW11992   2.040   1.357   3.700
 3698SOL    HW111993   2.074   1.356   3.794
 3698SOL    HW211994   2.046   1.265   3.661
 3699SOL     OW11995   2.259   2.062   3.260
 3699SOL    HW111996   2.325   2.135   3.240
 3699SOL    HW211997   2.202   2.090   3.337
 3700SOL     OW11998   1.292   5.379   4.939
 3700SOL    HW111999   1.217   5.380   4.872
 3700SOL    HW212000   1.374   5.417   4.897
 3701SOL     OW12001   0.742   6.194   2.689
 3701SOL    HW112002   0.801   6.257   2.639
 3701SOL    HW212003   0.711   6.121   2.627
 3702SOL     OW12004   5.444   6.546   3.547
 3702SOL    HW112005   5.386   6.471   3.515
 3702SOL    HW212006   5.518   6.561   3.481
 3703SOL     OW12007   0.394   0.849   6.298
 3703SOL    HW112008   0.447   0.882   6.221
 3703SOL    HW212009   0.451   0.847   6.380
 3704SOL     OW12010   5.730   3.223   0.853
 3704SOL    HW112011   5.771   3.298   0.904
 3704SOL    HW212012   5.783   3.206   0.770
 3705SOL     OW12013   4.622   4.928   3.566
 3705SOL    HW112014   4.721   4.943   3.569
 3705SOL    HW212015   4.589   4.941   3.473
 3706SOL     OW12016   1.015   3.827   6.848
 3706SOL    HW112017   0.994   3.890   6.774
 3706SOL    HW212018   1.026   3.877   6.934
 3707SOL     OW12019   4.026   5.485   3.810
 3707SOL    HW112020   3.997   5.394   3.840
 3707SOL    HW212021   3.976   5.554   3.862
 3708SOL     OW12022   4.586   0.266   1.011
 3708SOL    HW112023   4.681   0.268   0.978
 3708SOL    HW212024   4.525   0.243   0.935
 3709SOL     OW12025   1.903   6.849   1.325
 3709SOL    HW112026   1.893   6.878   1.421
 3709SOL    HW212027   2.000   6.832   1.306
 3710SOL     OW12028   0.883   5.831   5.365
 3710SOL    HW112029   0.872   5.813   5.267
 3710SOL    HW212030   0.944   5.762   5.404
 3711SOL     OW12031   1.421   6.046   4.653
 3711SOL    HW112032   1.514   6.066   4.623
 3711SOL    HW212033   1.389   5.963   4.608
 3712SOL     OW12034   1.935   5.861   6.555
 3712SOL    HW112035   2.021   5.815   6.536
 3712SOL    HW212036   1.859   5.808   6.516
 3713SOL     OW12037   0.466   0.026   5.106
 3713SOL    HW112038   0.479   0.045   5.009
 3713SOL    HW212039   0.385   6.992   5.119
 3714SOL     OW12040   0.163   5.164   0.018
 3714SOL    HW112041   0.253   5.124   7.021
 3714SOL    HW212042   0.127   5.122   0.101
 3715SOL     OW12043   0.389   5.356   2.929
 3715SOL    HW112044   0.393   5.280   2.994
 3715SOL    HW212045   0.469   5.416   2.942
 3716SOL     OW12046   5.717   5.122   4.258
 3716SOL    HW112047   5.815   5.124   4.277
 3716SOL    HW212048   5.668   5.087   4.337
 3717SOL     OW12049   5.861   1.618   0.176
 3717SOL    HW112050   5.853   1.677   0.095
 3717SOL    HW212051   5.885   1.674   0.255
 3718SOL     OW12052   0.272   0.168   6.973
 3718SOL    HW112053   0.344   0.108   6.936
 3718SOL    HW212054   0.221   0.120   0.020
 3719SOL     OW12055   4.491   3.265   6.495
 3719SOL    HW112056   4.567   3.245   6.556
 3719SOL    HW212057   4.523   3.261   6.400
 3720SOL     OW12058   5.557   3.688   0.703
 3720SOL    HW112059   5.648   3.673   0.665
 3720SOL    HW212060   5.528   3.607   0.754
 3721SOL     OW12061   6.929   4.926   0.433
 3721SOL    HW112062   6.988   4.845   0.429
 3721SOL    HW212063   6.838   4.899   0.464
 3722SOL     OW12064   5.283   0.016   1.360
 3722SOL    HW112065   5.306   0.026   1.264
 3722SOL    HW212066   5.239   6.951   1.375
 3723SOL     OW12067   4.607   5.305   0.103
 3723SOL    HW112068   4.510   5.289   0.122
 3723SOL    HW212069   4.616   5.381   0.039
 3724SOL     OW12070   1.866   4.966   5.303
 3724SOL    HW112071   1.784   4.915   5.279
 3724SOL    HW212072   1.842   5.042   5.364
 3725SOL     OW12073   0.600   6.378   6.930
 3725SOL    HW112074   0.553   6.465   6.922
 3725SOL    HW212075   0.546   6.316   6.987
 3726SOL     OW12076   5.546   3.399   5.778
 3726SOL    HW112077   5.630   3.423   5.828
 3726SOL    HW212078   5.497   3.483   5.754
 3727SOL     OW12079   6.861   2.981   4.517
 3727SOL    HW112080   6.924   3.058   4.519
 3727SOL    HW212081   6.788   3.000   4.452
 3728SOL     OW12082   2.360   3.850   6.581
 3728SOL    HW112083   2.275   3.799   6.572
 3728SOL    HW212084   2.372   3.910   6.502
 3729SOL     OW12085   0.776   0.463   4.144
 3729SOL    HW112086   0.725   0.383   4.112
 3729SOL    HW212087   0.735   0.546   4.107
 3730SOL     OW12088   4.298   6.113   5.350
 3730SOL    HW112089   4.247   6.038   5.392
 3730SOL    HW212090   4.345   6.165   5.422
 3731SOL     OW12091   0.719   1.825   0.420
 3731SOL    HW112092   0.646   1.894   0.416
 3731SOL    HW212093   0.748   1.812   0.515
 3732SOL     OW12094   2.125   1.782   0.900
 3732SOL    HW112095   2.069   1.836   0.962
 3732SOL    HW212096   2.067   1.737   0.832
 3733SOL     OW12097   2.094   2.843   3.815
 3733SOL    HW112098   2.043   2.758   3.807
 3733SOL    HW212099   2.041   2.910   3.867
 3734SOL     OW12100   3.887   0.588   1.851
 3734SOL    HW112101   3.975   0.617   1.814
 3734SOL    HW212102   3.840   0.530   1.784
 3735SOL     OW12103   3.978   0.542   2.621
 3735SOL    HW112104   3.938   0.602   2.552
 3735SOL    HW212105   3.927   0.552   2.707
 3736SOL     OW12106   6.743   1.323   1.243
 3736SOL    HW112107   6.650   1.321   1.206
 3736SOL    HW212108   6.806   1.354   1.171
 3737SOL     OW12109   6.274   2.331   4.044
 3737SOL    HW112110   6.332   2.265   3.996
 3737SOL    HW212111   6.322   2.419   4.051
 3738SOL     OW12112   6.441   5.970   1.165
 3738SOL    HW112113   6.380   5.962   1.086
 3738SOL    HW212114   6.521   5.910   1.151
 3739SOL     OW12115   2.884   4.652   1.628
 3739SOL    HW112116   2.982   4.671   1.625
 3739SOL    HW212117   2.864   4.589   1.704
 3740SOL     OW12118   6.044   5.943   0.561
 3740SOL    HW112119   6.043   5.899   0.651
 3740SOL    HW212120   6.088   5.882   0.494
 3741SOL     OW12121   4.234   3.370   6.566
 3741SOL    HW112122   4.321   3.321   6.568
 3741SOL    HW212123   4.158   3.306   6.580
 3742SOL     OW12124   4.394   6.955   0.660
 3742SOL    HW112125   4.316   6.900   0.691
 3742SOL    HW212126   4.477   6.920   0.702
 3743SOL     OW12127   4.798   4.632   1.648
 3743SOL    HW112128   4.841   4.545   1.626
 3743SOL    HW212129   4.730   4.619   1.720
 3744SOL     OW12130   0.596   6.239   2.901
 3744SOL    HW112131   0.656   6.236   2.821
 3744SOL    HW212132   0.597   6.330   2.941
 3745SOL     OW12133   5.124   3.834   2.338
 3745SOL    HW112134   5.078   3.773   2.273
 3745SOL    HW212135   5.165   3.910   2.288
 3746SOL     OW12136   6.461   0.541   3.179
 3746SOL    HW112137   6.520   0.507   3.252
 3746SOL    HW212138   6.415   0.464   3.135
 3747SOL     OW12139   5.162   6.405   5.496
 3747SOL    HW112140   5.171   6.489   5.441
 3747SOL    HW212141   5.229   6.338   5.463
 3748SOL     OW12142   5.088   0.643   2.315
 3748SOL    HW112143   5.115   0.592   2.396
 3748SOL    HW212144   4.993   0.672   2.323
 3749SOL     OW12145   1.884   4.993   3.265
 3749SOL    HW112146   1.959   5.031   3.211
 3749SOL    HW212147   1.863   4.901   3.233
 3750SOL     OW12148   5.933   4.045   0.744
 3750SOL    HW112149   5.974   4.115   0.686
 3750SOL    HW212150   5.927   3.959   0.693
 3751SOL     OW12151   0.483   2.473   0.748
 3751SOL    HW112152   0.533   2.558   0.763
 3751SOL    HW212153   0.385   2.493   0.746
 3752SOL     OW12154   0.584   6.935   0.217
 3752SOL    HW112155   0.560   7.003   0.148
 3752SOL    HW212156   0.533   6.851   0.200
 3753SOL     OW12157   0.366   6.867   4.616
 3753SOL    HW112158   0.355   6.961   4.583
 3753SOL    HW212159   0.457   6.834   4.594
 3754SOL     OW12160   5.061   6.511   1.474
 3754SOL    HW112161   4.973   6.537   1.513
 3754SOL    HW212162   5.135   6.544   1.532
 3755SOL     OW12163   5.570   5.488   4.425
 3755SOL    HW112164   5.470   5.500   4.423
 3755SOL    HW212165   5.592   5.403   4.472
 3756SOL     OW12166   1.642   0.737   6.252
 3756SOL    HW112167   1.692   0.783   6.179
 3756SOL    HW212168   1.704   0.677   6.302
 3757SOL     OW12169   3.513   5.929   6.765
 3757SOL    HW112170   3.595   5.883   6.731
 3757SOL    HW212171   3.524   5.951   6.862
 3758SOL     OW12172   1.671   1.502   4.706
 3758SOL    HW112173   1.733   1.576   4.683
 3758SOL    HW212174   1.708   1.415   4.673
 3759SOL     OW12175   3.938   4.895   5.435
 3759SOL    HW112176   3.979   4.862   5.350
 3759SOL    HW212177   4.007   4.899   5.507
 3760SOL     OW12178   0.888   3.936   4.459
 3760SOL    HW112179   0.796   3.940   4.498
 3760SOL    HW212180   0.955   3.955   4.530
 3761SOL     OW12181   1.009   6.850   5.144
 3761SOL    HW112182   0.923   6.901   5.138
 3761SOL    HW212183   1.047   6.840   5.053
 3762SOL     OW12184   1.010   5.058   0.012
 3762SOL    HW112185   0.961   5.145   0.019
 3762SOL    HW212186   1.064   5.057   6.951
 3763SOL     OW12187   6.837   4.962   6.984
 3763SOL    HW112188   6.756   5.017   6.999
 3763SOL    HW212189   6.874   4.982   6.893
 3764SOL     OW12190   2.389   0.372   4.487
 3764SOL    HW112191   2.404   0.465   4.453
 3764SOL    HW212192   2.451   0.354   4.563
 3765SOL     OW12193   5.417   1.322   2.027
 3765SOL    HW112194   5.367   1.248   1.984
 3765SOL    HW212195   5.367   1.354   2.108
 3766SOL     OW12196   0.501   0.873   4.938
 3766SOL    HW112197   0.471   0.811   4.866
 3766SOL    HW212198   0.591   0.845   4.971
 3767SOL     OW12199   2.465   5.201   0.626
 3767SOL    HW112200   2.484   5.116   0.576
 3767SOL    HW212201   2.390   5.249   0.581
 3768SOL     OW12202   3.025   6.100   5.988
 3768SOL    HW112203   2.981   6.017   5.955
 3768SOL    HW212204   3.048   6.159   5.911
 3769SOL     OW12205   5.812   5.774   5.507
 3769SOL    HW112206   5.795   5.811   5.598
 3769SOL    HW212207   5.906   5.796   5.479
 3770SOL     OW12208   1.585   0.634   6.651
 3770SOL    HW112209   1.615   0.556   6.596
 3770SOL    HW212210   1.655   0.657   6.719
 3771SOL     OW12211   5.547   2.009   0.418
 3771SOL    HW112212   5.574   1.940   0.485
 3771SOL    HW212213   5.461   2.051   0.445
 3772SOL     OW12214   6.597   1.595   0.819
 3772SOL    HW112215   6.689   1.617   0.786
 3772SOL    HW212216   6.595   1.604   0.919
 3773SOL     OW12217   5.517   2.714   6.029
 3773SOL    HW112218   5.519   2.671   5.938
 3773SOL    HW212219   5.565   2.801   6.025
 3774SOL     OW12220   0.967   6.974   7.016
 3774SOL    HW112221   0.914   6.889   7.008
 3774SOL    HW212222   1.065   6.952   7.023
 3775SOL     OW12223   5.196   4.067   2.138
 3775SOL    HW112224   5.285   4.112   2.138
 3775SOL    HW212225   5.184   4.016   2.053
 3776SOL     OW12226   3.143   1.622   0.963
 3776SOL    HW112227   3.158   1.612   0.864
 3776SOL    HW212228   3.230   1.611   1.011
 3777SOL     OW12229   2.898   4.878   4.423
 3777SOL    HW112230   2.841   4.827   4.359
 3777SOL    HW212231   2.871   4.858   4.517
 3778SOL     OW12232   2.520   5.769   3.033
 3778SOL    HW112233   2.533   5.729   2.942
 3778SOL    HW212234   2.425   5.759   3.061
 3779SOL     OW12235   2.046   4.507   0.455
 3779SOL    HW112236   2.027   4.420   0.498
 3779SOL    HW212237   2.144   4.515   0.437
 3780SOL     OW12238   4.006   4.675   5.231
 3780SOL    HW112239   3.920   4.634   5.261
 3780SOL    HW212240   4.069   4.680   5.308
 3781SOL     OW12241   1.874   6.577   4.391
 3781SOL    HW112242   1.810   6.520   4.443
 3781SOL    HW212243   1.966   6.563   4.426
 3782SOL     OW12244   2.903   2.270   4.500
 3782SOL    HW112245   2.964   2.289   4.423
 3782SOL    HW212246   2.955   2.269   4.585
 3783SOL     OW12247   5.686   6.302   5.140
 3783SOL    HW112248   5.742   6.363   5.085
 3783SOL    HW212249   5.714   6.207   5.124
 3784SOL     OW12250   4.649   1.974   3.343
 3784SOL    HW112251   4.598   1.938   3.422
 3784SOL    HW212252   4.734   1.923   3.331
 3785SOL     OW12253   2.133   1.263   6.670
 3785SOL    HW112254   2.142   1.311   6.758
 3785SOL    HW212255   2.137   1.165   6.685
 3786SOL     OW12256   3.067   6.354   3.296
 3786SOL    HW112257   3.006   6.276   3.304
 3786SOL    HW212258   3.146   6.329   3.240
 3787SOL     OW12259   6.111   6.192   3.584
 3787SOL    HW112260   6.089   6.254   3.659
 3787SOL    HW212261   6.200   6.217   3.545
 3788SOL     OW12262   0.348   2.978   3.539
 3788SOL    HW112263   0.282   2.923   3.487
 3788SOL    HW212264   0.406   3.029   3.476
 3789SOL     OW12265   1.224   3.459   3.849
 3789SOL    HW112266   1.290   3.529   3.877
 3789SOL    HW212267   1.254   3.370   3.883
 3790SOL     OW12268   1.464   3.740   5.122
 3790SOL    HW112269   1.520   3.660   5.145
 3790SOL    HW212270   1.437   3.788   5.205
 3791SOL     OW12271   6.513   0.132   0.773
 3791SOL    HW112272   6.447   0.057   0.771
 3791SOL    HW212273   6.474   0.210   0.820
 3792SOL     OW12274   6.721   0.757   4.454
 3792SOL    HW112275   6.725   0.669   4.501
 3792SOL    HW212276   6.700   0.829   4.521
 3793SOL     OW12277   2.914   0.124   2.905
 3793SOL    HW112278   2.827   0.136   2.954
 3793SOL    HW212279   2.895   0.093   2.812
 3794SOL     OW12280   3.544   4.723   1.376
 3794SOL    HW112281   3.472   4.735   1.307
 3794SOL    HW212282   3.515   4.767   1.461
 3795SOL     OW12283   4.147   6.533   0.218
 3795SOL    HW112284   4.109   6.505   0.130
 3795SOL    HW212285   4.245   6.515   0.220
 3796SOL     OW12286   2.401   2.277   1.484
 3796SOL    HW112287   2.361   2.301   1.395
 3796SOL    HW212288   2.384   2.181   1.503
 3797SOL     OW12289   6.864   4.998   2.493
 3797SOL    HW112290   6.902   4.906   2.499
 3797SOL    HW212291   6.938   5.065   2.491
 3798SOL     OW12292   3.087   5.579   3.479
 3798SOL    HW112293   3.061   5.482   3.471
 3798SOL    HW212294   3.052   5.630   3.401
 3799SOL     OW12295   0.590   2.186   4.538
 3799SOL    HW112296   0.547   2.097   4.551
 3799SOL    HW212297   0.684   2.174   4.508
 3800SOL     OW12298   5.314   2.592   4.703
 3800SOL    HW112299   5.379   2.668   4.700
 3800SOL    HW212300   5.257   2.593   4.621
 3801SOL     OW12301   6.916   6.448   4.867
 3801SOL    HW112302   6.911   6.531   4.923
 3801SOL    HW212303   6.920   6.368   4.927
 3802SOL     OW12304   0.705   1.431   4.680
 3802SOL    HW112305   0.629   1.492   4.704
 3802SOL    HW212306   0.702   1.409   4.583
 3803SOL     OW12307   3.757   1.636   1.625
 3803SOL    HW112308   3.763   1.557   1.686
 3803SOL    HW212309   3.660   1.654   1.604
 3804SOL     OW12310   4.991   2.315   4.185
 3804SOL    HW112311   5.083   2.354   4.184
 3804SOL    HW212312   4.975   2.264   4.101
 3805SOL     OW12313   2.717   3.779   1.704
 3805SOL    HW112314   2.812   3.764   1.733
 3805SOL    HW212315   2.709   3.761   1.606
 3806SOL     OW12316   2.326   3.182   0.043
 3806SOL    HW112317   2.352   3.151   6.975
 3806SOL    HW212318   2.248   3.129   0.075
 3807SOL     OW12319   2.520   1.517   4.227
 3807SOL    HW112320   2.570   1.568   4.157
 3807SOL    HW212321   2.581   1.448   4.267
 3808SOL     OW12322   3.082   1.107   1.367
 3808SOL    HW112323   3.179   1.115   1.344
 3808SOL    HW212324   3.035   1.193   1.346
 3809SOL     OW12325   6.441   1.967   0.389
 3809SOL    HW112326   6.401   1.952   0.298
 3809SOL    HW212327   6.403   1.900   0.453
 3810SOL     OW12328   4.159   2.799   5.363
 3810SOL    HW112329   4.075   2.844   5.393
 3810SOL    HW212330   4.136   2.716   5.312
 3811SOL     OW12331   1.044   4.633   4.423
 3811SOL    HW112332   1.079   4.685   4.501
 3811SOL    HW212333   1.009   4.545   4.454
 3812SOL     OW12334   5.553   1.198   5.534
 3812SOL    HW112335   5.540   1.114   5.586
 3812SOL    HW212336   5.473   1.257   5.543
 3813SOL     OW12337   4.665   4.434   0.691
 3813SOL    HW112338   4.614   4.492   0.754
 3813SOL    HW212339   4.744   4.394   0.739
 3814SOL     OW12340   7.011   6.325   1.129
 3814SOL    HW112341   6.953   6.246   1.110
 3814SOL    HW212342   0.007   6.330   1.227
 3815SOL     OW12343   4.978   2.356   0.467
 3815SOL    HW112344   5.015   2.423   0.404
 3815SOL    HW212345   4.896   2.392   0.510
 3816SOL     OW12346   6.850   6.491   0.961
 3816SOL    HW112347   6.768   6.441   0.932
 3816SOL    HW212348   6.910   6.429   1.011
 3817SOL     OW12349   4.812   3.021   4.137
 3817SOL    HW112350   4.768   2.969   4.211
 3817SOL    HW212351   4.808   2.967   4.053
 3818SOL     OW12352   5.034   6.852   1.071
 3818SOL    HW112353   5.048   6.754   1.087
 3818SOL    HW212354   4.937   6.873   1.076
 3819SOL     OW12355   5.305   4.629   0.508
 3819SOL    HW112356   5.302   4.720   0.551
 3819SOL    HW212357   5.368   4.570   0.558
 3820SOL     OW12358   6.684   6.958   4.091
 3820SOL    HW112359   6.701   6.899   4.011
 3820SOL    HW212360   6.771   6.982   4.133
 3821SOL     OW12361   1.774   3.453   1.737
 3821SOL    HW112362   1.754   3.379   1.672
 3821SOL    HW212363   1.846   3.422   1.800
 3822SOL     OW12364   1.120   5.579   2.502
 3822SOL    HW112365   1.181   5.541   2.433
 3822SOL    HW212366   1.066   5.653   2.462
 3823SOL     OW12367   3.959   2.139   5.572
 3823SOL    HW112368   4.054   2.117   5.593
 3823SOL    HW212369   3.954   2.190   5.486
 3824SOL     OW12370   5.940   1.307   5.880
 3824SOL    HW112371   5.955   1.372   5.955
 3824SOL    HW212372   6.011   1.321   5.810
 3825SOL     OW12373   0.591   0.515   0.421
 3825SOL    HW112374   0.654   0.501   0.345
 3825SOL    HW212375   0.509   0.460   0.407
 3826SOL     OW12376   0.298   3.683   6.513
 3826SOL    HW112377   0.232   3.684   6.438
 3826SOL    HW212378   0.390   3.667   6.476
 3827SOL     OW12379   3.836   3.853   0.490
 3827SOL    HW112380   3.847   3.914   0.411
 3827SOL    HW212381   3.739   3.845   0.514
 3828SOL     OW12382   4.364   2.079   1.432
 3828SOL    HW112383   4.415   2.153   1.475
 3828SOL    HW212384   4.301   2.038   1.498
 3829SOL     OW12385   2.511   4.531   4.087
 3829SOL    HW112386   2.416   4.519   4.116
 3829SOL    HW212387   2.567   4.457   4.124
 3830SOL     OW12388   0.701   0.299   5.041
 3830SOL    HW112389   0.719   0.391   5.006
 3830SOL    HW212390   0.667   0.305   5.135
 3831SOL     OW12391   4.458   1.977   2.871
 3831SOL    HW112392   4.406   1.897   2.900
 3831SOL    HW212393   4.429   2.005   2.779
 3832SOL     OW12394   6.365   0.364   2.244
 3832SOL    HW112395   6.449   0.398   2.202
 3832SOL    HW212396   6.360   0.396   2.339
 3833SOL     OW12397   0.766   5.857   6.473
 3833SOL    HW112398   0.827   5.841   6.396
 3833SOL    HW212399   0.784   5.790   6.545
 3834SOL     OW12400   3.534   2.647   0.166
 3834SOL    HW112401   3.497   2.565   0.124
 3834SOL    HW212402   3.458   2.707   0.193
 3835SOL     OW12403   3.239   5.220   5.262
 3835SOL    HW112404   3.166   5.210   5.194
 3835SOL    HW212405   3.247   5.136   5.315
 3836SOL     OW12406   2.119   3.042   5.027
 3836SOL    HW112407   2.218   3.039   5.044
 3836SOL    HW212408   2.080   2.950   5.039
 3837SOL     OW12409   4.667   3.394   6.729
 3837SOL    HW112410   4.693   3.312   6.678
 3837SOL    HW212411   4.569   3.391   6.749
 3838SOL     OW12412   6.003   3.779   4.080
 3838SOL    HW112413   5.952   3.846   4.134
 3838SOL    HW212414   5.969   3.780   3.986
 3839SOL     OW12415   4.489   6.764   4.601
 3839SOL    HW112416   4.535   6.726   4.520
 3839SOL    HW212417   4.443   6.691   4.651
 3840SOL     OW12418   1.178   1.174   5.385
 3840SOL    HW112419   1.238   1.133   5.454
 3840SOL    HW212420   1.233   1.218   5.315
 3841SOL     OW12421   0.498   3.806   4.741
 3841SOL    HW112422   0.595   3.789   4.722
 3841SOL    HW212423   0.461   3.730   4.794
 3842SOL     OW12424   1.304   5.102   0.479
 3842SOL    HW112425   1.369   5.098   0.556
 3842SOL    HW212426   1.354   5.097   0.393
 3843SOL     OW12427   6.731   3.308   1.405
 3843SOL    HW112428   6.659   3.323   1.473
 3843SOL    HW212429   6.731   3.384   1.340
 3844SOL     OW12430   0.376   4.903   5.429
 3844SOL    HW112431   0.420   4.840   5.494
 3844SOL    HW212432   0.423   4.991   5.431
 3845SOL     OW12433   3.378   2.922   2.762
 3845SOL    HW112434   3.301   2.980   2.738
 3845SOL    HW212435   3.345   2.832   2.791
 3846SOL     OW12436   0.341   4.636   4.091
 3846SOL    HW112437   0.332   4.537   4.089
 3846SOL    HW212438   0.435   4.661   4.066
 3847SOL     OW12439   6.318   1.057   6.218
 3847SOL    HW112440   6.305   1.138   6.161
 3847SOL    HW212441   6.303   1.081   6.314
 3848SOL     OW12442   2.278   5.588   2.888
 3848SOL    HW112443   2.214   5.521   2.850
 3848SOL    HW212444   2.242   5.623   2.974
 3849SOL     OW12445   0.489   1.108   5.610
 3849SOL    HW112446   0.497   1.207   5.602
 3849SOL    HW212447   0.448   1.071   5.526
 3850SOL     OW12448   2.505   3.564   1.696
 3850SOL    HW112449   2.596   3.591   1.729
 3850SOL    HW212450   2.456   3.515   1.767
 3851SOL     OW12451   1.735   4.459   2.779
 3851SOL    HW112452   1.675   4.406   2.838
 3851SOL    HW212453   1.776   4.399   2.710
 3852SOL     OW12454   4.587   6.541   4.836
 3852SOL    HW112455   4.668   6.551   4.894
 3852SOL    HW212456   4.611   6.487   4.755
 3853SOL     OW12457   1.529   3.534   2.504
 3853SOL    HW112458   1.491   3.615   2.460
 3853SOL    HW212459   1.481   3.452   2.471
 3854SOL     OW12460   0.709   3.497   3.193
 3854SOL    HW112461   0.708   3.460   3.286
 3854SOL    HW212462   0.737   3.593   3.196
 3855SOL     OW12463   5.505   5.459   6.916
 3855SOL    HW112464   5.488   5.556   6.929
 3855SOL    HW212465   5.428   5.417   6.868
 3856SOL     OW12466   0.037   0.023   5.523
 3856SOL    HW112467   0.027   6.948   5.508
 3856SOL    HW212468   0.118   0.041   5.578
 3857SOL     OW12469   1.613   0.146   5.223
 3857SOL    HW112470   1.672   0.162   5.144
 3857SOL    HW212471   1.663   0.094   5.291
 3858SOL     OW12472   1.086   6.234   5.942
 3858SOL    HW112473   1.123   6.175   5.870
 3858SOL    HW212474   1.160   6.283   5.988
 3859SOL     OW12475   6.668   1.929   3.374
 3859SOL    HW112476   6.605   1.956   3.447
 3859SOL    HW212477   6.660   1.831   3.357
 3860SOL     OW12478   2.318   6.305   4.203
 3860SOL    HW112479   2.408   6.293   4.245
 3860SOL    HW212480   2.290   6.401   4.212
 3861SOL     OW12481   5.788   4.328   1.158
 3861SOL    HW112482   5.730   4.332   1.077
 3861SOL    HW212483   5.884   4.324   1.131
 3862SOL     OW12484   6.761   6.977   6.069
 3862SOL    HW112485   6.679   7.020   6.106
 3862SOL    HW212486   6.762   6.987   5.970
 3863SOL     OW12487   3.844   3.611   6.991
 3863SOL    HW112488   3.866   3.708   6.994
 3863SOL    HW212489   3.922   3.557   7.022
 3864SOL     OW12490   4.473   1.871   6.084
 3864SOL    HW112491   4.478   1.969   6.062
 3864SOL    HW212492   4.391   1.832   6.043
 3865SOL     OW12493   3.509   0.377   1.938
 3865SOL    HW112494   3.530   0.474   1.943
 3865SOL    HW212495   3.437   0.362   1.871
 3866SOL     OW12496   3.946   0.626   0.616
 3866SOL    HW112497   4.002   0.624   0.534
 3866SOL    HW212498   4.001   0.601   0.696
 3867SOL     OW12499   2.069   3.954   3.310
 3867SOL    HW112500   2.137   3.998   3.251
 3867SOL    HW212501   2.033   4.021   3.374
 3868SOL     OW12502   2.415   5.510   1.644
 3868SOL    HW112503   2.454   5.567   1.716
 3868SOL    HW212504   2.323   5.542   1.622
 3869SOL     OW12505   0.048   2.284   3.865
 3869SOL    HW112506   6.994   2.318   3.918
 3869SOL    HW212507   0.067   2.346   3.789
 3870SOL     OW12508   2.963   4.909   6.886
 3870SOL    HW112509   3.059   4.928   6.906
 3870SOL    HW212510   2.915   4.995   6.870
 3871SOL     OW12511   3.204   0.535   2.483
 3871SOL    HW112512   3.254   0.460   2.527
 3871SOL    HW212513   3.107   0.511   2.476
 3872SOL     OW12514   3.893   3.272   1.310
 3872SOL    HW112515   3.888   3.174   1.287
 3872SOL    HW212516   3.890   3.283   1.409
 3873SOL     OW12517   5.478   5.209   1.307
 3873SOL    HW112518   5.480   5.301   1.269
 3873SOL    HW212519   5.500   5.143   1.236
 3874SOL     OW12520   4.230   6.843   0.196
 3874SOL    HW112521   4.139   6.865   0.231
 3874SOL    HW212522   4.285   6.803   0.269
 3875SOL     OW12523   1.130   4.060   2.389
 3875SOL    HW112524   1.080   4.015   2.463
 3875SOL    HW212525   1.065   4.108   2.330
 3876SOL     OW12526   5.101   5.546   6.304
 3876SOL    HW112527   5.029   5.482   6.330
 3876SOL    HW212528   5.074   5.595   6.220
 3877SOL     OW12529   6.311   1.296   1.126
 3877SOL    HW112530   6.280   1.268   1.217
 3877SOL    HW212531   6.237   1.283   1.060
 3878SOL     OW12532   3.374   6.838   5.852
 3878SOL    HW112533   3.302   6.783   5.893
 3878SOL    HW212534   3.353   6.935   5.864
 3879SOL     OW12535   4.760   5.853   0.650
 3879SOL    HW112536   4.836   5.792   0.627
 3879SOL    HW212537   4.674   5.801   0.651
 3880SOL     OW12538   5.969   4.175   2.400
 3880SOL    HW112539   6.008   4.102   2.456
 3880SOL    HW212540   6.041   4.216   2.344
 3881SOL     OW12541   1.693   5.489   0.446
 3881SOL    HW112542   1.667   5.462   0.353
 3881SOL    HW212543   1.703   5.408   0.503
 3882SOL     OW12544   6.310   1.140   6.471
 3882SOL    HW112545   6.321   1.232   6.508
 3882SOL    HW212546   6.249   1.088   6.531
 3883SOL     OW12547   4.559   1.009   3.749
 3883SOL    HW112548   4.564   0.922   3.701
 3883SOL    HW212549   4.513   1.076   3.691
 3884SOL     OW12550   1.219   6.555   4.862
 3884SOL    HW112551   1.242   6.460   4.887
 3884SOL    HW212552   1.252   6.574   4.769
 3885SOL     OW12553   6.587   0.995   4.283
 3885SOL    HW112554   6.667   0.944   4.254
 3885SOL    HW212555   6.575   1.075   4.223
 3886SOL     OW12556   6.812   0.651   5.208
 3886SOL    HW112557   6.881   0.626   5.276
 3886SOL    HW212558   6.721   0.646   5.249
 3887SOL     OW12559   4.190   1.461   5.451
 3887SOL    HW112560   4.100   1.449   5.410
 3887SOL    HW212561   4.198   1.555   5.486
 3888SOL     OW12562   6.947   1.552   0.571
 3888SOL    HW112563   6.882   1.541   0.496
 3888SOL    HW212564   6.966   1.463   0.612
 3889SOL     OW12565   0.535   5.335   6.582
 3889SOL    HW112566   0.527   5.376   6.673
 3889SOL    HW212567   0.553   5.407   6.515
 3890SOL     OW12568   5.559   5.781   3.388
 3890SOL    HW112569   5.586   5.795   3.293
 3890SOL    HW212570   5.459   5.777   3.394
 3891SOL     OW12571   5.248   5.642   4.966
 3891SOL    HW112572   5.316   5.634   5.039
 3891SOL    HW212573   5.164   5.682   5.003
 3892SOL     OW12574   6.911   6.546   2.693
 3892SOL    HW112575   6.946   6.488   2.619
 3892SOL    HW212576   6.884   6.488   2.770
 3893SOL     OW12577   3.563   5.658   3.865
 3893SOL    HW112578   3.540   5.719   3.941
 3893SOL    HW212579   3.482   5.645   3.808
 3894SOL     OW12580   4.059   2.831   0.471
 3894SOL    HW112581   3.987   2.779   0.426
 3894SOL    HW212582   4.121   2.768   0.518
 3895SOL     OW12583   1.447   1.660   5.282
 3895SOL    HW112584   1.414   1.576   5.238
 3895SOL    HW212585   1.531   1.640   5.333
 3896SOL     OW12586   6.977   2.122   5.891
 3896SOL    HW112587   6.977   2.220   5.869
 3896SOL    HW212588   6.899   2.079   5.846
 3897SOL     OW12589   2.496   6.222   2.110
 3897SOL    HW112590   2.569   6.185   2.169
 3897SOL    HW212591   2.528   6.307   2.067
 3898SOL     OW12592   4.128   3.574   4.146
 3898SOL    HW112593   4.115   3.591   4.244
 3898SOL    HW212594   4.176   3.486   4.134
 3899SOL     OW12595   4.634   1.270   5.444
 3899SOL    HW112596   4.581   1.349   5.413
 3899SOL    HW212597   4.624   1.195   5.378
 3900SOL     OW12598   6.354   2.534   3.440
 3900SOL    HW112599   6.269   2.496   3.403
 3900SOL    HW212600   6.351   2.633   3.435
 3901SOL     OW12601   1.117   6.815   4.897
 3901SOL    HW112602   1.171   6.733   4.879
 3901SOL    HW212603   1.094   6.859   4.810
 3902SOL     OW12604   5.575   4.686   1.583
 3902SOL    HW112605   5.552   4.631   1.663
 3902SOL    HW212606   5.499   4.684   1.518
 3903SOL     OW12607   4.116   2.460   0.345
 3903SOL    HW112608   4.084   2.399   0.272
 3903SOL    HW212609   4.087   2.424   0.434
 3904SOL     OW12610   1.245   0.336   0.309
 3904SOL    HW112611   1.286   0.345   0.400
 3904SOL    HW212612   1.317   0.333   0.240
 3905SOL     OW12613   6.995   6.515   6.242
 3905SOL    HW112614   6.927   6.577   6.202
 3905SOL    HW212615   0.038   6.489   6.172
 3906SOL     OW12616   1.957   4.845   4.436
 3906SOL    HW112617   2.027   4.774   4.425
 3906SOL    HW212618   1.919   4.840   4.529
 3907SOL     OW12619   6.801   1.246   4.282
 3907SOL    HW112620   6.788   1.197   4.368
 3907SOL    HW212621   6.720   1.233   4.224
 3908SOL     OW12622   1.369   0.767   5.285
 3908SOL    HW112623   1.360   0.673   5.252
 3908SOL    HW212624   1.374   0.766   5.385
 3909SOL     OW12625   5.062   2.672   5.689
 3909SOL    HW112626   5.126   2.737   5.732
 3909SOL    HW212627   5.082   2.580   5.723
 3910SOL     OW12628   3.348   2.698   1.143
 3910SOL    HW112629   3.302   2.623   1.096
 3910SOL    HW212630   3.391   2.665   1.227
 3911SOL     OW12631   5.695   0.793   1.792
 3911SOL    HW112632   5.726   0.884   1.820
 3911SOL    HW212633   5.775   0.736   1.770
 3912SOL     OW12634   3.947   2.406   6.960
 3912SOL    HW112635   4.026   2.447   7.006
 3912SOL    HW212636   3.882   2.478   6.936
 3913SOL     OW12637   4.247   5.984   0.371
 3913SOL    HW112638   4.208   6.062   0.420
 3913SOL    HW212639   4.294   5.925   0.436
 3914SOL     OW12640   6.100   0.860   1.084
 3914SOL    HW112641   6.110   0.937   1.021
 3914SOL    HW212642   6.188   0.837   1.125
 3915SOL     OW12643   4.726   5.231   0.607
 3915SOL    HW112644   4.708   5.141   0.647
 3915SOL    HW212645   4.824   5.247   0.603
 3916SOL     OW12646   2.003   0.889   2.696
 3916SOL    HW112647   2.031   0.831   2.620
 3916SOL    HW212648   2.080   0.903   2.757
 3917SOL     OW12649   2.657   4.890   0.646
 3917SOL    HW112650   2.738   4.848   0.687
 3917SOL    HW212651   2.604   4.820   0.597
 3918SOL     OW12652   5.654   0.246   1.048
 3918SOL    HW112653   5.750   0.268   1.029
 3918SOL    HW212654   5.596   0.321   1.016
 3919SOL     OW12655   4.319   0.444   0.883
 3919SOL    HW112656   4.325   0.497   0.967
 3919SOL    HW212657   4.285   0.502   0.809
 3920SOL     OW12658   3.034   0.951   6.215
 3920SOL    HW112659   2.956   0.967   6.275
 3920SOL    HW212660   3.006   0.961   6.120
 3921SOL     OW12661   0.944   2.930   6.329
 3921SOL    HW112662   0.880   2.951   6.255
 3921SOL    HW212663   0.919   2.983   6.410
 3922SOL     OW12664   4.572   5.085   1.794
 3922SOL    HW112665   4.510   5.150   1.837
 3922SOL    HW212666   4.522   5.001   1.772
 3923SOL     OW12667   5.262   0.827   1.485
 3923SOL    HW112668   5.313   0.799   1.567
 3923SOL    HW212669   5.186   0.887   1.512
 3924SOL     OW12670   7.009   4.630   4.629
 3924SOL    HW112671   6.909   4.635   4.629
 3924SOL    HW212672   0.018   4.612   4.536
 3925SOL     OW12673   4.922   3.595   0.348
 3925SOL    HW112674   4.864   3.587   0.267
 3925SOL    HW212675   4.983   3.516   0.353
 3926SOL     OW12676   0.692   0.731   5.700
 3926SOL    HW112677   0.749   0.667   5.751
 3926SOL    HW212678   0.749   0.806   5.666
 3927SOL     OW12679   6.981   2.753   4.610
 3927SOL    HW112680   6.946   2.682   4.672
 3927SOL    HW212681   6.907   2.813   4.583
 3928SOL     OW12682   2.190   6.628   3.071
 3928SOL    HW112683   2.256   6.556   3.092
 3928SOL    HW212684   2.128   6.641   3.148
 3929SOL     OW12685   0.011   2.119   5.340
 3929SOL    HW112686   0.003   2.032   5.292
 3929SOL    HW212687   6.992   2.191   5.285
 3930SOL     OW12688   1.076   3.694   4.083
 3930SOL    HW112689   1.051   3.638   4.162
 3930SOL    HW212690   1.105   3.635   4.008
 3931SOL     OW12691   1.682   2.611   1.322
 3931SOL    HW112692   1.582   2.607   1.327
 3931SOL    HW212693   1.721   2.583   1.410
 3932SOL     OW12694   1.671   5.718   3.981
 3932SOL    HW112695   1.575   5.704   4.004
 3932SOL    HW212696   1.678   5.756   3.889
 3933SOL     OW12697   2.082   5.020   0.251
 3933SOL    HW112698   2.061   4.959   0.327
 3933SOL    HW212699   2.163   5.075   0.273
 3934SOL     OW12700   0.708   1.215   2.271
 3934SOL    HW112701   0.640   1.286   2.288
 3934SOL    HW212702   0.721   1.160   2.353
 3935SOL     OW12703   6.248   3.327   6.693
 3935SOL    HW112704   6.325   3.371   6.741
 3935SOL    HW212705   6.282   3.280   6.612
 3936SOL     OW12706   0.201   5.468   5.105
 3936SOL    HW112707   0.254   5.527   5.044
 3936SOL    HW212708   0.259   5.394   5.139
 3937SOL     OW12709   6.833   6.232   2.559
 3937SOL    HW112710   6.914   6.239   2.618
 3937SOL    HW212711   6.851   6.168   2.485
 3938SOL     OW12712   6.480   3.995   3.133
 3938SOL    HW112713   6.551   4.060   3.159
 3938SOL    HW212714   6.479   3.985   3.033
 3939SOL     OW12715   0.658   1.046   2.513
 3939SOL    HW112716   0.583   1.097   2.554
 3939SOL    HW212717   0.621   0.966   2.465
 3940SOL     OW12718   3.153   4.717   1.575
 3940SOL    HW112719   3.128   4.628   1.537
 3940SOL    HW212720   3.251   4.733   1.563
 3941SOL     OW12721   5.583   6.441   4.229
 3941SOL    HW112722   5.649   6.508   4.195
 3941SOL    HW212723   5.557   6.465   4.323
 3942SOL     OW12724   0.777   6.102   6.608
 3942SOL    HW112725   0.842   6.167   6.569
 3942SOL    HW212726   0.792   6.012   6.569
 3943SOL     OW12727   0.932   3.118   1.256
 3943SOL    HW112728   0.911   3.034   1.306
 3943SOL    HW212729   0.847   3.165   1.232
 3944SOL     OW12730   6.527   2.319   6.537
 3944SOL    HW112731   6.453   2.387   6.537
 3944SOL    HW212732   6.591   2.339   6.463
 3945SOL     OW12733   0.683   0.994   3.018
 3945SOL    HW112734   0.656   1.027   3.109
 3945SOL    HW212735   0.693   0.895   3.021
 3946SOL     OW12736   0.746   3.043   0.384
 3946SOL    HW112737   0.843   3.022   0.374
 3946SOL    HW212738   0.702   2.971   0.438
 3947SOL     OW12739   6.022   5.419   0.828
 3947SOL    HW112740   5.931   5.379   0.839
 3947SOL    HW212741   6.052   5.459   0.915
 3948SOL     OW12742   1.926   2.373   5.964
 3948SOL    HW112743   2.022   2.363   5.990
 3948SOL    HW212744   1.919   2.413   5.873
 3949SOL     OW12745   6.475   6.506   2.396
 3949SOL    HW112746   6.547   6.466   2.454
 3949SOL    HW212747   6.405   6.437   2.378
 3950SOL     OW12748   3.492   4.181   1.407
 3950SOL    HW112749   3.461   4.206   1.499
 3950SOL    HW212750   3.413   4.157   1.351
 3951SOL     OW12751   0.116   1.171   5.319
 3951SOL    HW112752   0.170   1.231   5.259
 3951SOL    HW212753   0.034   1.141   5.271
 3952SOL     OW12754   6.544   3.290   5.457
 3952SOL    HW112755   6.516   3.196   5.475
 3952SOL    HW212756   6.544   3.307   5.358
 3953SOL     OW12757   3.571   4.314   6.248
 3953SOL    HW112758   3.537   4.249   6.180
 3953SOL    HW212759   3.671   4.317   6.244
 3954SOL     OW12760   0.920   3.868   5.242
 3954SOL    HW112761   0.886   3.852   5.335
 3954SOL    HW212762   0.911   3.965   5.219
 3955SOL     OW12763   5.293   5.347   6.786
 3955SOL    HW112764   5.198   5.370   6.807
 3955SOL    HW212765   5.295   5.269   6.724
 3956SOL     OW12766   0.081   2.877   6.050
 3956SOL    HW112767   0.017   2.801   6.056
 3956SOL    HW212768   0.173   2.845   6.074
 3957SOL     OW12769   2.034   0.154   4.328
 3957SOL    HW112770   1.960   0.121   4.269
 3957SOL    HW212771   2.017   0.124   4.422
 3958SOL     OW12772   5.915   6.163   5.445
 3958SOL    HW112773   5.858   6.122   5.373
 3958SOL    HW212774   5.887   6.257   5.461
 3959SOL     OW12775   3.228   4.986   6.912
 3959SOL    HW112776   3.275   5.041   6.980
 3959SOL    HW212777   3.278   4.990   6.825
 3960SOL     OW12778   4.169   3.021   0.272
 3960SOL    HW112779   4.092   3.058   0.324
 3960SOL    HW212780   4.252   3.027   0.327
 3961SOL     OW12781   4.659   0.974   1.661
 3961SOL    HW112782   4.693   0.937   1.575
 3961SOL    HW212783   4.559   0.963   1.665
 3962SOL     OW12784   0.858   0.174   6.714
 3962SOL    HW112785   0.831   0.191   6.619
 3962SOL    HW212786   0.831   0.082   6.740
 3963SOL     OW12787   4.661   5.689   4.212
 3963SOL    HW112788   4.567   5.688   4.180
 3963SOL    HW212789   4.706   5.603   4.187
 3964SOL     OW12790   5.155   5.525   5.889
 3964SOL    HW112791   5.179   5.610   5.844
 3964SOL    HW212792   5.127   5.457   5.821
 3965SOL     OW12793   3.068   3.859   0.425
 3965SOL    HW112794   3.071   3.956   0.445
 3965SOL    HW212795   3.044   3.808   0.508
 3966SOL     OW12796   6.234   4.553   5.099
 3966SOL    HW112797   6.272   4.591   5.183
 3966SOL    HW212798   6.152   4.499   5.120
 3967SOL     OW12799   0.741   5.845   6.091
 3967SOL    HW112800   0.721   5.843   5.993
 3967SOL    HW212801   0.803   5.921   6.111
 3968SOL     OW12802   5.125   0.939   2.534
 3968SOL    HW112803   5.150   0.989   2.617
 3968SOL    HW212804   5.190   0.864   2.520
 3969SOL     OW12805   0.552   4.969   2.980
 3969SOL    HW112806   0.471   4.970   2.922
 3969SOL    HW212807   0.571   4.876   3.011
 3970SOL     OW12808   4.791   4.802   3.289
 3970SOL    HW112809   4.834   4.803   3.380
 3970SOL    HW212810   4.728   4.879   3.281
 3971SOL     OW12811   1.822   6.210   3.535
 3971SOL    HW112812   1.761   6.212   3.456
 3971SOL    HW212813   1.876   6.294   3.537
 3972SOL     OW12814   0.696   0.026   0.553
 3972SOL    HW112815   0.682   6.951   0.564
 3972SOL    HW212816   0.711   0.047   0.456
 3973SOL     OW12817   2.962   3.900   4.579
 3973SOL    HW112818   2.906   3.980   4.555
 3973SOL    HW212819   2.974   3.897   4.678
 3974SOL     OW12820   6.635   0.925   6.458
 3974SOL    HW112821   6.541   0.911   6.487
 3974SOL    HW212822   6.644   1.016   6.417
 3975SOL     OW12823   6.595   1.448   6.269
 3975SOL    HW112824   6.530   1.524   6.269
 3975SOL    HW212825   6.688   1.485   6.276
 3976SOL     OW12826   1.443   3.432   0.595
 3976SOL    HW112827   1.423   3.528   0.615
 3976SOL    HW212828   1.542   3.417   0.598
 3977SOL     OW12829   2.715   6.390   6.347
 3977SOL    HW112830   2.805   6.356   6.376
 3977SOL    HW212831   2.647   6.366   6.416
 3978SOL     OW12832   6.071   2.321   5.780
 3978SOL    HW112833   6.078   2.222   5.795
 3978SOL    HW212834   5.979   2.352   5.803
 3979SOL     OW12835   0.969   6.685   2.049
 3979SOL    HW112836   1.023   6.711   2.129
 3979SOL    HW212837   0.872   6.702   2.067
 3980SOL     OW12838   4.957   3.072   4.539
 3980SOL    HW112839   5.035   3.011   4.524
 3980SOL    HW212840   4.876   3.017   4.557
 3981SOL     OW12841   6.712   1.894   0.753
 3981SOL    HW112842   6.780   1.831   0.790
 3981SOL    HW212843   6.725   1.902   0.654
 3982SOL     OW12844   2.469   1.884   4.098
 3982SOL    HW112845   2.482   1.829   4.016
 3982SOL    HW212846   2.557   1.904   4.140
 3983SOL     OW12847   2.936   6.530   4.066
 3983SOL    HW112848   2.965   6.592   4.139
 3983SOL    HW212849   2.839   6.510   4.076
 3984SOL     OW12850   1.817   6.057   1.973
 3984SOL    HW112851   1.858   6.128   2.030
 3984SOL    HW212852   1.869   6.048   1.888
 3985SOL     OW12853   2.611   3.218   0.743
 3985SOL    HW112854   2.573   3.126   0.753
 3985SOL    HW212855   2.571   3.279   0.811
 3986SOL     OW12856   0.312   1.757   1.928
 3986SOL    HW112857   0.218   1.758   1.963
 3986SOL    HW212858   0.355   1.846   1.944
 3987SOL     OW12859   2.185   4.773   6.508
 3987SOL    HW112860   2.171   4.760   6.606
 3987SOL    HW212861   2.119   4.717   6.458
 3988SOL     OW12862   4.198   2.831   0.798
 3988SOL    HW112863   4.262   2.889   0.748
 3988SOL    HW212864   4.107   2.842   0.760
 3989SOL     OW12865   6.371   6.823   0.018
 3989SOL    HW112866   6.308   6.901   0.019
 3989SOL    HW212867   6.319   6.738   0.021
 3990SOL     OW12868   0.676   3.319   4.032
 3990SOL    HW112869   0.680   3.262   3.950
 3990SOL    HW212870   0.581   3.346   4.049
 3991SOL     OW12871   0.454   2.349   3.853
 3991SOL    HW112872   0.382   2.390   3.908
 3991SOL    HW212873   0.528   2.317   3.913
 3992SOL     OW12874   4.278   3.709   6.261
 3992SOL    HW112875   4.233   3.621   6.281
 3992SOL    HW212876   4.286   3.721   6.162
 3993SOL     OW12877   2.902   2.133   2.728
 3993SOL    HW112878   2.829   2.200   2.720
 3993SOL    HW212879   2.959   2.136   2.645
 3994SOL     OW12880   2.522   2.514   3.677
 3994SOL    HW112881   2.514   2.606   3.714
 3994SOL    HW212882   2.599   2.467   3.720
 3995SOL     OW12883   2.080   4.240   3.418
 3995SOL    HW112884   2.131   4.190   3.488
 3995SOL    HW212885   2.131   4.236   3.331
 3996SOL     OW12886   0.622   1.151   3.734
 3996SOL    HW112887   0.542   1.095   3.755
 3996SOL    HW212888   0.600   1.213   3.659
 3997SOL     OW12889   5.252   3.884   3.076
 3997SOL    HW112890   5.350   3.867   3.090
 3997SOL    HW212891   5.203   3.858   3.159
 3998SOL     OW12892   6.622   2.204   2.899
 3998SOL    HW112893   6.628   2.149   2.983
 3998SOL    HW212894   6.630   2.144   2.819
 3999SOL     OW12895   5.991   3.676   2.477
 3999SOL    HW112896   5.907   3.630   2.452
 3999SOL    HW212897   6.053   3.678   2.398
 4000SOL     OW12898   2.717   5.495   2.769
 4000SOL    HW112899   2.631   5.544   2.788
 4000SOL    HW212900   2.794   5.549   2.803
 4001SOL     OW12901   2.553   3.919   5.649
 4001SOL    HW112902   2.547   3.876   5.559
 4001SOL    HW212903   2.524   4.014   5.642
 4002SOL     OW12904   3.390   3.422   4.711
 4002SOL    HW112905   3.411   3.337   4.664
 4002SOL    HW212906   3.474   3.471   4.731
 4003SOL     OW12907   3.006   1.042   5.962
 4003SOL    HW112908   3.030   1.026   5.867
 4003SOL    HW212909   3.016   1.139   5.984
 4004SOL     OW12910   6.791   3.897   2.875
 4004SOL    HW112911   6.761   3.848   2.957
 4004SOL    HW212912   6.785   3.996   2.891
 4005SOL     OW12913   4.671   3.851   1.221
 4005SOL    HW112914   4.592   3.795   1.242
 4005SOL    HW212915   4.750   3.792   1.205
 4006SOL     OW12916   4.978   5.503   2.340
 4006SOL    HW112917   4.976   5.419   2.395
 4006SOL    HW212918   5.071   5.539   2.337
 4007SOL     OW12919   0.855   2.198   3.060
 4007SOL    HW112920   0.874   2.175   3.155
 4007SOL    HW212921   0.891   2.289   3.040
 4008SOL     OW12922   2.899   0.007   0.483
 4008SOL    HW112923   2.801   7.013   0.475
 4008SOL    HW212924   2.947   6.988   0.407
 4009SOL     OW12925   4.967   1.574   1.297
 4009SOL    HW112926   4.973   1.488   1.247
 4009SOL    HW212927   5.054   1.593   1.343
 4010SOL     OW12928   4.040   4.398   1.640
 4010SOL    HW112929   4.049   4.497   1.632
 4010SOL    HW212930   3.959   4.375   1.694
 4011SOL     OW12931   6.820   6.134   0.699
 4011SOL    HW112932   6.747   6.073   0.669
 4011SOL    HW212933   6.786   6.192   0.774
 4012SOL     OW12934   4.536   6.978   1.947
 4012SOL    HW112935   4.528   6.900   1.886
 4012SOL    HW212936   4.466   6.973   2.018
 4013SOL     OW12937   1.975   0.320   0.856
 4013SOL    HW112938   1.975   0.236   0.911
 4013SOL    HW212939   1.902   0.315   0.787
 4014SOL     OW12940   3.184   6.355   3.828
 4014SOL    HW112941   3.171   6.269   3.877
 4014SOL    HW212942   3.158   6.343   3.732
 4015SOL     OW12943   4.523   5.099   6.048
 4015SOL    HW112944   4.487   5.043   6.123
 4015SOL    HW212945   4.587   5.044   5.993
 4016SOL     OW12946   3.424   5.080   0.076
 4016SOL    HW112947   3.499   5.033   0.122
 4016SOL    HW212948   3.460   5.132   7.021
 4017SOL     OW12949   0.719   5.001   5.533
 4017SOL    HW112950   0.660   5.036   5.461
 4017SOL    HW212951   0.804   5.054   5.536
 4018SOL     OW12952   4.027   6.634   2.248
 4018SOL    HW112953   3.965   6.711   2.231
 4018SOL    HW212954   4.062   6.599   2.161
 4019SOL     OW12955   5.141   3.425   2.299
 4019SOL    HW112956   5.045   3.442   2.320
 4019SOL    HW212957   5.152   3.331   2.266
 4020SOL     OW12958   6.990   3.886   4.523
 4020SOL    HW112959   6.935   3.902   4.604
 4020SOL    HW212960   6.930   3.862   4.446
 4021SOL     OW12961   3.359   3.704   5.556
 4021SOL    HW112962   3.295   3.686   5.630
 4021SOL    HW212963   3.401   3.618   5.527
 4022SOL     OW12964   3.888   6.472   0.604
 4022SOL    HW112965   3.827   6.529   0.659
 4022SOL    HW212966   3.882   6.498   0.508
 4023SOL     OW12967   0.077   1.322   5.561
 4023SOL    HW112968   0.131   1.301   5.643
 4023SOL    HW212969   0.081   1.245   5.498
 4024SOL     OW12970   1.928   5.093   4.092
 4024SOL    HW112971   2.010   5.102   4.036
 4024SOL    HW212972   1.877   5.011   4.064
 4025SOL     OW12973   0.906   5.943   4.365
 4025SOL    HW112974   0.969   5.931   4.441
 4025SOL    HW212975   0.897   5.856   4.315
 4026SOL     OW12976   6.058   6.286   4.639
 4026SOL    HW112977   6.158   6.289   4.645
 4026SOL    HW212978   6.030   6.284   4.543
 4027SOL     OW12979   2.452   2.282   6.773
 4027SOL    HW112980   2.389   2.260   6.698
 4027SOL    HW212981   2.537   2.319   6.735
 4028SOL     OW12982   4.453   1.233   3.602
 4028SOL    HW112983   4.484   1.289   3.679
 4028SOL    HW212984   4.355   1.248   3.587
 4029SOL     OW12985   3.054   4.190   6.143
 4029SOL    HW112986   3.085   4.224   6.054
 4029SOL    HW212987   3.061   4.090   6.145
 4030SOL     OW12988   6.950   1.115   1.907
 4030SOL    HW112989   7.008   1.125   1.989
 4030SOL    HW212990   6.922   1.205   1.875
 4031SOL     OW12991   5.457   0.025   2.950
 4031SOL    HW112992   5.437   0.123   2.954
 4031SOL    HW212993   5.539   0.010   2.896
 4032SOL     OW12994   6.859   0.003   2.605
 4032SOL    HW112995   6.869   6.944   2.549
 4032SOL    HW212996   6.764   0.014   2.632
 4033SOL     OW12997   2.605   1.746   2.745
 4033SOL    HW112998   2.588   1.730   2.842
 4033SOL    HW212999   2.579   1.665   2.692
 4034SOL     OW13000   6.244   2.204   5.181
 4034SOL    HW113001   6.308   2.281   5.180
 4034SOL    HW213002   6.167   2.224   5.120
 4035SOL     OW13003   6.607   1.529   1.412
 4035SOL    HW113004   6.665   1.454   1.379
 4035SOL    HW213005   6.631   1.552   1.506
 4036SOL     OW13006   4.163   4.701   2.322
 4036SOL    HW113007   4.230   4.661   2.259
 4036SOL    HW213008   4.164   4.650   2.408
 4037SOL     OW13009   2.372   1.620   5.890
 4037SOL    HW113010   2.370   1.687   5.816
 4037SOL    HW213011   2.279   1.593   5.913
 4038SOL     OW13012   4.729   2.987   0.124
 4038SOL    HW113013   4.772   2.937   0.049
 4038SOL    HW213014   4.739   2.935   0.209
 4039SOL     OW13015   4.743   5.809   1.594
 4039SOL    HW113016   4.714   5.830   1.688
 4039SOL    HW213017   4.753   5.895   1.543
 4040SOL     OW13018   2.790   6.269   4.657
 4040SOL    HW113019   2.722   6.196   4.664
 4040SOL    HW213020   2.794   6.302   4.562
 4041SOL     OW13021   2.263   6.375   1.067
 4041SOL    HW113022   2.267   6.464   1.021
 4041SOL    HW213023   2.343   6.365   1.126
 4042SOL     OW13024   5.980   6.455   3.385
 4042SOL    HW113025   5.935   6.534   3.343
 4042SOL    HW213026   5.974   6.463   3.485
 4043SOL     OW13027   6.675   1.988   6.567
 4043SOL    HW113028   6.595   2.025   6.614
 4043SOL    HW213029   6.756   2.001   6.625
 4044SOL     OW13030   5.511   5.250   2.798
 4044SOL    HW113031   5.576   5.196   2.745
 4044SOL    HW213032   5.418   5.222   2.777
 4045SOL     OW13033   4.179   6.468   5.742
 4045SOL    HW113034   4.136   6.555   5.715
 4045SOL    HW213035   4.243   6.440   5.671
 4046SOL     OW13036   0.932   1.806   2.666
 4046SOL    HW113037   0.927   1.906   2.671
 4046SOL    HW213038   0.969   1.770   2.752
 4047SOL     OW13039   2.220   2.520   6.666
 4047SOL    HW113040   2.144   2.463   6.697
 4047SOL    HW213041   2.296   2.513   6.730
 4048SOL     OW13042   5.622   1.453   1.932
 4048SOL    HW113043   5.555   1.403   1.986
 4048SOL    HW213044   5.703   1.472   1.987
 4049SOL     OW13045   4.815   6.165   6.460
 4049SOL    HW113046   4.781   6.259   6.462
 4049SOL    HW213047   4.760   6.108   6.521
 4050SOL     OW13048   1.269   6.457   1.943
 4050SOL    HW113049   1.310   6.511   2.016
 4050SOL    HW213050   1.192   6.507   1.903
 4051SOL     OW13051   4.830   1.142   6.513
 4051SOL    HW113052   4.767   1.112   6.442
 4051SOL    HW213053   4.856   1.063   6.570
 4052SOL     OW13054   5.766   2.204   3.215
 4052SOL    HW113055   5.726   2.149   3.289
 4052SOL    HW213056   5.855   2.239   3.245
 4053SOL     OW13057   2.114   6.288   4.469
 4053SOL    HW113058   2.148   6.259   4.380
 4053SOL    HW213059   2.032   6.235   4.492
 4054SOL     OW13060   5.346   4.224   1.001
 4054SOL    HW113061   5.421   4.162   1.024
 4054SOL    HW213062   5.263   4.194   1.047
 4055SOL     OW13063   1.808   3.920   0.748
 4055SOL    HW113064   1.825   3.933   0.846
 4055SOL    HW213065   1.744   3.989   0.715
 4056SOL     OW13066   5.481   3.977   1.463
 4056SOL    HW113067   5.414   4.004   1.394
 4056SOL    HW213068   5.570   4.016   1.439
 4057SOL     OW13069   6.919   2.905   0.219
 4057SOL    HW113070   6.974   2.833   0.178
 4057SOL    HW213071   6.948   2.994   0.183
 4058SOL     OW13072   2.823   6.606   4.920
 4058SOL    HW113073   2.828   6.507   4.913
 4058SOL    HW213074   2.864   6.636   5.006
 4059SOL     OW13075   7.000   2.336   3.167
 4059SOL    HW113076   6.949   2.411   3.210
 4059SOL    HW213077   6.946   2.252   3.170
 4060SOL     OW13078   5.389   4.948   5.543
 4060SOL    HW113079   5.400   4.873   5.478
 4060SOL    HW213080   5.479   4.986   5.566
 4061SOL     OW13081   2.697   4.673   2.213
 4061SOL    HW113082   2.605   4.649   2.184
 4061SOL    HW213083   2.764   4.624   2.157
 4062SOL     OW13084   2.277   0.685   2.354
 4062SOL    HW113085   2.315   0.749   2.420
 4062SOL    HW213086   2.319   0.699   2.264
 4063SOL     OW13087   6.188   6.973   0.495
 4063SOL    HW113088   6.273   0.001   0.509
 4063SOL    HW213089   6.202   6.878   0.521
 4064SOL     OW13090   2.734   2.034   4.489
 4064SOL    HW113091   2.736   1.979   4.573
 4064SOL    HW213092   2.803   2.106   4.494
 4065SOL     OW13093   0.757   6.721   1.775
 4065SOL    HW113094   0.714   6.671   1.700
 4065SOL    HW213095   0.780   6.813   1.745
 4066SOL     OW13096   6.667   4.647   2.811
 4066SOL    HW113097   6.707   4.685   2.895
 4066SOL    HW213098   6.735   4.647   2.738
 4067SOL     OW13099   5.557   4.341   3.548
 4067SOL    HW113100   5.494   4.412   3.518
 4067SOL    HW213101   5.651   4.372   3.534
 4068SOL     OW13102   2.504   2.275   4.606
 4068SOL    HW113103   2.441   2.303   4.678
 4068SOL    HW213104   2.560   2.199   4.638
 4069SOL     OW13105   3.911   5.240   6.894
 4069SOL    HW113106   4.002   5.278   6.877
 4069SOL    HW213107   3.846   5.315   6.905
 4070SOL     OW13108   0.503   2.698   2.720
 4070SOL    HW113109   0.433   2.639   2.760
 4070SOL    HW213110   0.478   2.720   2.626
 4071SOL     OW13111   1.426   1.504   4.841
 4071SOL    HW113112   1.515   1.487   4.800
 4071SOL    HW213113   1.412   1.602   4.851
 4072SOL     OW13114   0.938   5.666   4.646
 4072SOL    HW113115   0.895   5.609   4.576
 4072SOL    HW213116   0.984   5.744   4.603
 4073SOL     OW13117   3.370   6.208   6.164
 4073SOL    HW113118   3.391   6.118   6.128
 4073SOL    HW213119   3.273   6.214   6.188
 4074SOL     OW13120   0.540   4.429   1.411
 4074SOL    HW113121   0.493   4.428   1.323
 4074SOL    HW213122   0.634   4.462   1.399
 4075SOL     OW13123   4.927   2.225   1.332
 4075SOL    HW113124   4.934   2.143   1.390
 4075SOL    HW213125   5.003   2.227   1.267
 4076SOL     OW13126   2.569   3.038   6.389
 4076SOL    HW113127   2.514   3.108   6.343
 4076SOL    HW213128   2.546   2.948   6.352
 4077SOL     OW13129   4.085   1.983   0.696
 4077SOL    HW113130   3.996   1.968   0.654
 4077SOL    HW213131   4.106   1.909   0.759
 4078SOL     OW13132   2.251   5.212   2.116
 4078SOL    HW113133   2.160   5.201   2.076
 4078SOL    HW213134   2.320   5.211   2.044
 4079SOL     OW13135   1.807   1.579   2.971
 4079SOL    HW113136   1.710   1.555   2.959
 4079SOL    HW213137   1.829   1.578   3.068
 4080SOL     OW13138   4.754   2.805   6.223
 4080SOL    HW113139   4.660   2.803   6.258
 4080SOL    HW213140   4.752   2.823   6.124
 4081SOL     OW13141   1.641   2.900   3.399
 4081SOL    HW113142   1.721   2.939   3.353
 4081SOL    HW213143   1.663   2.886   3.496
 4082SOL     OW13144   0.897   4.211   0.498
 4082SOL    HW113145   0.855   4.162   0.422
 4082SOL    HW213146   0.990   4.179   0.512
 4083SOL     OW13147   6.535   3.265   2.541
 4083SOL    HW113148   6.580   3.337   2.592
 4083SOL    HW213149   6.502   3.195   2.604
 4084SOL     OW13150   5.329   2.310   3.782
 4084SOL    HW113151   5.351   2.219   3.750
 4084SOL    HW213152   5.407   2.348   3.831
 4085SOL     OW13153   3.650   5.494   0.903
 4085SOL    HW113154   3.684   5.580   0.941
 4085SOL    HW213155   3.683   5.418   0.959
 4086SOL     OW13156   2.144   5.652   1.627
 4086SOL    HW113157   2.100   5.673   1.540
 4086SOL    HW213158   2.077   5.661   1.701
 4087SOL     OW13159   2.975   2.122   3.433
 4087SOL    HW113160   2.946   2.119   3.337
 4087SOL    HW213161   2.994   2.030   3.465
 4088SOL     OW13162   0.271   2.023   0.479
 4088SOL    HW113163   0.217   1.939   0.482
 4088SOL    HW213164   0.366   2.003   0.502
 4089SOL     OW13165   6.148   6.401   3.840
 4089SOL    HW113166   6.234   6.423   3.794
 4089SOL    HW213167   6.075   6.461   3.806
 4090SOL     OW13168   1.754   4.354   5.816
 4090SOL    HW113169   1.676   4.293   5.801
 4090SOL    HW213170   1.720   4.444   5.845
 4091SOL     OW13171   6.430   6.434   0.441
 4091SOL    HW113172   6.463   6.421   0.348
 4091SOL    HW213173   6.330   6.441   0.440
 4092SOL     OW13174   6.493   3.343   5.182
 4092SOL    HW113175   6.400   3.308   5.190
 4092SOL    HW213176   6.492   3.438   5.151
 4093SOL     OW13177   4.208   0.028   3.456
 4093SOL    HW113178   4.145   0.010   3.532
 4093SOL    HW213179   4.260   6.968   3.436
 4094SOL     OW13180   2.397   6.061   4.476
 4094SOL    HW113181   2.364   5.986   4.419
 4094SOL    HW213182   2.325   6.086   4.541
 4095SOL     OW13183   0.573   3.468   6.695
 4095SOL    HW113184   0.539   3.376   6.713
 4095SOL    HW213185   0.635   3.467   6.617
 4096SOL     OW13186   4.660   5.390   0.830
 4096SOL    HW113187   4.660   5.371   0.732
 4096SOL    HW213188   4.646   5.305   0.881
 4097SOL     OW13189   3.932   4.030   6.282
 4097SOL    HW113190   3.911   3.967   6.207
 4097SOL    HW213191   3.868   4.013   6.357
 4098SOL     OW13192   0.677   3.109   1.436
 4098SOL    HW113193   0.734   3.169   1.491
 4098SOL    HW213194   0.607   3.163   1.389
 4099SOL     OW13195   3.017   4.669   1.250
 4099SOL    HW113196   3.046   4.617   1.170
 4099SOL    HW213197   2.960   4.611   1.308
 4100SOL     OW13198   6.506   5.897   4.952
 4100SOL    HW113199   6.543   5.804   4.960
 4100SOL    HW213200   6.409   5.891   4.926
 4101SOL     OW13201   6.041   1.048   0.655
 4101SOL    HW113202   6.078   1.063   0.746
 4101SOL    HW213203   6.078   0.963   0.617
 4102SOL     OW13204   6.600   0.736   1.245
 4102SOL    HW113205   6.620   0.833   1.229
 4102SOL    HW213206   6.623   0.713   1.340
 4103SOL     OW13207   0.458   0.736   1.023
 4103SOL    HW113208   0.439   0.645   1.060
 4103SOL    HW213209   0.531   0.730   0.955
 4104SOL     OW13210   0.652   4.732   2.153
 4104SOL    HW113211   0.576   4.677   2.120
 4104SOL    HW213212   0.682   4.697   2.242
 4105SOL     OW13213   4.035   5.768   1.165
 4105SOL    HW113214   4.068   5.691   1.220
 4105SOL    HW213215   4.112   5.823   1.134
 4106SOL     OW13216   0.228   2.012   4.627
 4106SOL    HW113217   0.190   2.001   4.536
 4106SOL    HW213218   0.159   1.989   4.696
 4107SOL     OW13219   1.862   6.230   1.229
 4107SOL    HW113220   1.780   6.277   1.194
 4107SOL    HW213221   1.922   6.208   1.152
 4108SOL     OW13222   0.172   4.259   6.117
 4108SOL    HW113223   0.105   4.324   6.153
 4108SOL    HW213224   0.231   4.227   6.191
 4109SOL     OW13225   4.716   6.175   4.983
 4109SOL    HW113226   4.641   6.225   5.026
 4109SOL    HW213227   4.746   6.101   5.043
 4110SOL     OW13228   4.888   2.896   6.489
 4110SOL    HW113229   4.894   2.865   6.394
 4110SOL    HW213230   4.878   2.816   6.549
 4111SOL     OW13231   3.977   3.228   6.574
 4111SOL    HW113232   3.995   3.274   6.661
 4111SOL    HW213233   3.885   3.250   6.542
 4112SOL     OW13234   4.927   0.591   5.147
 4112SOL    HW113235   4.846   0.535   5.127
 4112SOL    HW213236   4.905   0.655   5.221
 4113SOL     OW13237   4.594   6.335   4.377
 4113SOL    HW113238   4.644   6.338   4.464
 4113SOL    HW213239   4.500   6.367   4.393
 4114SOL     OW13240   3.619   2.083   4.133
 4114SOL    HW113241   3.679   2.075   4.212
 4114SOL    HW213242   3.589   1.992   4.105
 4115SOL     OW13243   3.901   5.861   2.217
 4115SOL    HW113244   3.992   5.819   2.217
 4115SOL    HW213245   3.910   5.960   2.222
 4116SOL     OW13246   3.782   2.225   1.646
 4116SOL    HW113247   3.775   2.289   1.570
 4116SOL    HW213248   3.709   2.242   1.712
 4117SOL     OW13249   0.579   5.264   2.036
 4117SOL    HW113250   0.646   5.221   1.975
 4117SOL    HW213251   0.603   5.244   2.131
 4118SOL     OW13252   2.693   6.501   0.621
 4118SOL    HW113253   2.594   6.493   0.631
 4118SOL    HW213254   2.714   6.539   0.531
 4119SOL     OW13255   4.062   2.154   3.679
 4119SOL    HW113256   4.066   2.169   3.580
 4119SOL    HW213257   4.129   2.212   3.724
 4120SOL     OW13258   4.557   0.974   0.749
 4120SOL    HW113259   4.576   0.880   0.720
 4120SOL    HW213260   4.463   0.997   0.724
 4121SOL     OW13261   5.737   1.383   5.415
 4121SOL    HW113262   5.674   1.324   5.466
 4121SOL    HW213263   5.767   1.457   5.475
 4122SOL     OW13264   0.907   6.241   5.529
 4122SOL    HW113265   0.848   6.234   5.610
 4122SOL    HW213266   0.955   6.328   5.530
 4123SOL     OW13267   4.460   4.757   5.402
 4123SOL    HW113268   4.480   4.719   5.492
 4123SOL    HW213269   4.475   4.856   5.403
 4124SOL     OW13270   6.105   5.058   5.998
 4124SOL    HW113271   6.149   4.997   5.932
 4124SOL    HW213272   6.013   5.082   5.965
 4125SOL     OW13273   4.724   1.727   2.328
 4125SOL    HW113274   4.732   1.815   2.375
 4125SOL    HW213275   4.779   1.659   2.376
 4126SOL     OW13276   1.019   3.929   3.865
 4126SOL    HW113277   1.070   3.939   3.951
 4126SOL    HW213278   1.080   3.894   3.794
 4127SOL     OW13279   4.588   4.514   4.754
 4127SOL    HW113280   4.615   4.433   4.703
 4127SOL    HW213281   4.514   4.490   4.818
 4128SOL     OW13282   1.342   3.596   1.553
 4128SOL    HW113283   1.412   3.583   1.623
 4128SOL    HW213284   1.316   3.508   1.515
 4129SOL     OW13285   4.712   1.390   6.926
 4129SOL    HW113286   4.733   1.337   7.009
 4129SOL    HW213287   4.775   1.365   6.853
 4130SOL     OW13288   0.200   3.262   5.564
 4130SOL    HW113289   0.293   3.271   5.599
 4130SOL    HW213290   0.177   3.343   5.509
 4131SOL     OW13291   1.405   5.653   3.920
 4131SOL    HW113292   1.309   5.627   3.932
 4131SOL    HW213293   1.461   5.570   3.915
 4132SOL     OW13294   5.036   4.303   3.595
 4132SOL    HW113295   4.983   4.221   3.616
 4132SOL    HW213296   4.999   4.348   3.514
 4133SOL     OW13297   3.090   6.740   1.678
 4133SOL    HW113298   3.025   6.678   1.632
 4133SOL    HW213299   3.048   6.831   1.686
 4134SOL     OW13300   1.919   2.928   0.559
 4134SOL    HW113301   1.861   2.872   0.499
 4134SOL    HW213302   1.874   2.940   0.647
 4135SOL     OW13303   1.968   0.989   2.164
 4135SOL    HW113304   2.037   0.991   2.236
 4135SOL    HW213305   1.992   0.918   2.097
 4136SOL     OW13306   1.550   1.979   2.553
 4136SOL    HW113307   1.584   1.980   2.647
 4136SOL    HW213308   1.458   2.018   2.551
 4137SOL     OW13309   1.780   4.269   0.895
 4137SOL    HW113310   1.733   4.347   0.937
 4137SOL    HW213311   1.759   4.266   0.797
 4138SOL     OW13312   3.859   5.135   3.088
 4138SOL    HW113313   3.889   5.040   3.082
 4138SOL    HW213314   3.821   5.153   3.178
 4139SOL     OW13315   2.264   2.220   5.242
 4139SOL    HW113316   2.286   2.154   5.170
 4139SOL    HW213317   2.344   2.278   5.259
 4140SOL     OW13318   2.757   0.842   5.425
 4140SOL    HW113319   2.835   0.782   5.443
 4140SOL    HW213320   2.776   0.898   5.345
 4141SOL     OW13321   5.253   6.619   1.660
 4141SOL    HW113322   5.330   6.637   1.599
 4141SOL    HW213323   5.232   6.701   1.713
 4142SOL     OW13324   6.552   5.398   0.947
 4142SOL    HW113325   6.563   5.363   1.040
 4142SOL    HW213326   6.533   5.322   0.885
 4143SOL     OW13327   0.212   3.066   0.180
 4143SOL    HW113328   0.174   3.158   0.195
 4143SOL    HW213329   0.293   3.073   0.123
 4144SOL     OW13330   5.401   3.283   6.831
 4144SOL    HW113331   5.313   3.276   6.784
 4144SOL    HW213332   5.431   3.192   6.859
 4145SOL     OW13333   0.270   6.007   1.331
 4145SOL    HW113334   0.304   6.101   1.335
 4145SOL    HW213335   0.255   5.982   1.235
 4146SOL     OW13336   6.917   0.832   6.109
 4146SOL    HW113337   6.938   0.862   6.016
 4146SOL    HW213338   6.948   0.738   6.122
 4147SOL     OW13339   4.212   2.064   5.642
 4147SOL    HW113340   4.289   2.014   5.601
 4147SOL    HW213341   4.204   2.038   5.739
 4148SOL     OW13342   0.624   0.175   4.374
 4148SOL    HW113343   0.691   0.240   4.410
 4148SOL    HW213344   0.669   0.087   4.355
 4149SOL     OW13345   0.632   2.850   0.535
 4149SOL    HW113346   0.724   2.830   0.570
 4149SOL    HW213347   0.565   2.837   0.608
 4150SOL     OW13348   7.013   0.978   5.898
 4150SOL    HW113349   6.982   1.051   5.837
 4150SOL    HW213350   0.076   1.005   5.941
 4151SOL     OW13351   4.769   6.751   6.076
 4151SOL    HW113352   4.680   6.739   6.033
 4151SOL    HW213353   4.791   6.669   6.129
 4152SOL     OW13354   3.013   5.978   0.684
 4152SOL    HW113355   3.099   6.005   0.641
 4152SOL    HW213356   2.953   6.058   0.692
 4153SOL     OW13357   4.844   5.110   6.696
 4153SOL    HW113358   4.807   5.102   6.603
 4153SOL    HW213359   4.838   5.205   6.727
 4154SOL     OW13360   0.315   4.202   5.238
 4154SOL    HW113361   0.226   4.179   5.198
 4154SOL    HW213362   0.353   4.281   5.191
 4155SOL     OW13363   6.134   2.468   3.300
 4155SOL    HW113364   6.075   2.545   3.326
 4155SOL    HW213365   6.077   2.389   3.277
 4156SOL     OW13366   5.396   6.516   5.086
 4156SOL    HW113367   5.375   6.609   5.114
 4156SOL    HW213368   5.362   6.500   4.993
 4157SOL     OW13369   4.196   6.748   3.570
 4157SOL    HW113370   4.127   6.820   3.572
 4157SOL    HW213371   4.214   6.716   3.663
 4158SOL     OW13372   1.556   5.435   3.942
 4158SOL    HW113373   1.549   5.336   3.940
 4158SOL    HW213374   1.650   5.463   3.962
 4159SOL     OW13375   1.899   3.032   3.581
 4159SOL    HW113376   1.840   2.962   3.621
 4159SOL    HW213377   1.843   3.104   3.540
 4160SOL     OW13378   6.975   0.929   1.166
 4160SOL    HW113379   7.022   0.846   1.195
 4160SOL    HW213380   0.019   0.997   1.138
 4161SOL     OW13381   1.630   6.670   6.232
 4161SOL    HW113382   1.714   6.722   6.252
 4161SOL    HW213383   1.572   6.669   6.313
 4162SOL     OW13384   5.968   6.728   5.478
 4162SOL    HW113385   6.060   6.736   5.440
 4162SOL    HW213386   5.901   6.730   5.403
 4163SOL     OW13387   6.269   0.337   3.202
 4163SOL    HW113388   6.300   0.244   3.215
 4163SOL    HW213389   6.267   0.385   3.290
 4164SOL     OW13390   1.175   6.706   6.329
 4164SOL    HW113391   1.269   6.691   6.359
 4164SOL    HW213392   1.132   6.619   6.306
 4165SOL     OW13393   4.434   0.297   0.290
 4165SOL    HW113394   4.435   0.229   0.363
 4165SOL    HW213395   4.351   0.287   0.236
 4166SOL     OW13396   5.818   3.359   1.208
 4166SOL    HW113397   5.880   3.336   1.283
 4166SOL    HW213398   5.724   3.336   1.235
 4167SOL     OW13399   2.492   3.831   0.257
 4167SOL    HW113400   2.470   3.740   0.220
 4167SOL    HW213401   2.589   3.833   0.283
 4168SOL     OW13402   0.578   5.403   1.379
 4168SOL    HW113403   0.537   5.408   1.288
 4168SOL    HW213404   0.625   5.489   1.399
 4169SOL     OW13405   5.855   3.469   3.648
 4169SOL    HW113406   5.825   3.531   3.722
 4169SOL    HW213407   5.849   3.517   3.561
 4170SOL     OW13408   3.175   3.479   4.864
 4170SOL    HW113409   3.258   3.458   4.812
 4170SOL    HW213410   3.109   3.404   4.855
 4171SOL     OW13411   5.675   4.436   1.376
 4171SOL    HW113412   5.627   4.522   1.355
 4171SOL    HW213413   5.715   4.400   1.292
 4172SOL     OW13414   0.127   2.361   6.168
 4172SOL    HW113415   0.208   2.343   6.112
 4172SOL    HW213416   0.089   2.274   6.201
 4173SOL     OW13417   6.248   3.189   4.947
 4173SOL    HW113418   6.155   3.173   4.915
 4173SOL    HW213419   6.302   3.229   4.872
 4174SOL     OW13420   5.768   0.589   3.903
 4174SOL    HW113421   5.678   0.632   3.903
 4174SOL    HW213422   5.815   0.610   3.989
 4175SOL     OW13423   2.738   5.929   3.776
 4175SOL    HW113424   2.689   6.012   3.749
 4175SOL    HW213425   2.685   5.848   3.752
 4176SOL     OW13426   2.542   6.502   1.993
 4176SOL    HW113427   2.531   6.530   2.089
 4176SOL    HW213428   2.497   6.569   1.934
 4177SOL     OW13429   0.263   4.886   5.178
 4177SOL    HW113430   0.303   4.875   5.269
 4177SOL    HW213431   0.329   4.855   5.109
 4178SOL     OW13432   4.289   0.821   4.324
 4178SOL    HW113433   4.384   0.818   4.354
 4178SOL    HW213434   4.234   0.759   4.380
 4179SOL     OW13435   5.545   3.256   4.025
 4179SOL    HW113436   5.579   3.327   4.087
 4179SOL    HW213437   5.568   3.279   3.931
 4180SOL     OW13438   5.681   3.242   1.962
 4180SOL    HW113439   5.717   3.255   1.870
 4180SOL    HW213440   5.645   3.149   1.972
 4181SOL     OW13441   2.174   2.338   6.080
 4181SOL    HW113442   2.103   2.327   6.149
 4181SOL    HW213443   2.258   2.292   6.109
 4182SOL     OW13444   0.365   6.276   2.587
 4182SOL    HW113445   0.352   6.256   2.490
 4182SOL    HW213446   0.411   6.364   2.597
 4183SOL     OW13447   3.578   1.084   1.467
 4183SOL    HW113448   3.511   1.010   1.468
 4183SOL    HW213449   3.661   1.053   1.422
 4184SOL     OW13450   4.264   4.879   1.183
 4184SOL    HW113451   4.199   4.864   1.109
 4184SOL    HW213452   4.301   4.791   1.213
 4185SOL     OW13453   0.548   5.437   2.699
 4185SOL    HW113454   0.528   5.533   2.715
 4185SOL    HW213455   0.515   5.382   2.777
 4186SOL     OW13456   1.642   4.837   0.311
 4186SOL    HW113457   1.729   4.878   0.336
 4186SOL    HW213458   1.596   4.802   0.393
 4187SOL     OW13459   3.815   3.037   5.652
 4187SOL    HW113460   3.827   3.135   5.632
 4187SOL    HW213461   3.848   3.018   5.744
 4188SOL     OW13462   4.835   6.691   4.236
 4188SOL    HW113463   4.846   6.665   4.140
 4188SOL    HW213464   4.874   6.783   4.249
 4189SOL     OW13465   3.329   1.274   4.613
 4189SOL    HW113466   3.378   1.268   4.699
 4189SOL    HW213467   3.306   1.370   4.594
 4190SOL     OW13468   1.942   6.942   6.662
 4190SOL    HW113469   1.902   6.863   6.616
 4190SOL    HW213470   2.035   6.957   6.628
 4191SOL     OW13471   5.539   3.832   3.067
 4191SOL    HW113472   5.511   3.766   3.137
 4191SOL    HW213473   5.627   3.872   3.093
 4192SOL     OW13474   6.527   1.134   3.632
 4192SOL    HW113475   6.459   1.174   3.694
 4192SOL    HW213476   6.611   1.115   3.683
 4193SOL     OW13477   1.970   6.422   1.522
 4193SOL    HW113478   2.022   6.440   1.439
 4193SOL    HW213479   1.924   6.506   1.552
 4194SOL     OW13480   6.458   1.974   5.333
 4194SOL    HW113481   6.500   1.888   5.363
 4194SOL    HW213482   6.490   1.996   5.241
 4195SOL     OW13483   3.347   0.265   1.535
 4195SOL    HW113484   3.443   0.236   1.535
 4195SOL    HW213485   3.312   0.265   1.629
 4196SOL     OW13486   6.401   1.825   4.276
 4196SOL    HW113487   6.452   1.781   4.202
 4196SOL    HW213488   6.332   1.762   4.311
 4197SOL     OW13489   4.506   4.907   4.120
 4197SOL    HW113490   4.576   4.936   4.055
 4197SOL    HW213491   4.522   4.953   4.208
 4198SOL     OW13492   6.167   3.927   6.826
 4198SOL    HW113493   6.160   3.893   6.732
 4198SOL    HW213494   6.123   3.862   6.887
 4199SOL     OW13495   1.809   3.429   6.201
 4199SOL    HW113496   1.836   3.396   6.291
 4199SOL    HW213497   1.890   3.460   6.151
 4200SOL     OW13498   2.721   6.435   5.351
 4200SOL    HW113499   2.652   6.362   5.356
 4200SOL    HW213500   2.812   6.396   5.365
 4201SOL     OW13501   5.566   6.516   3.780
 4201SOL    HW113502   5.512   6.521   3.696
 4201SOL    HW213503   5.534   6.439   3.836
 4202SOL     OW13504   4.341   4.712   6.030
 4202SOL    HW113505   4.328   4.668   5.941
 4202SOL    HW213506   4.268   4.684   6.092
 4203SOL     OW13507   3.788   5.646   2.472
 4203SOL    HW113508   3.755   5.739   2.455
 4203SOL    HW213509   3.760   5.586   2.397
 4204SOL     OW13510   3.568   2.836   1.924
 4204SOL    HW113511   3.563   2.757   1.985
 4204SOL    HW213512   3.625   2.906   1.965
 4205SOL     OW13513   3.520   5.339   4.312
 4205SOL    HW113514   3.447   5.308   4.373
 4205SOL    HW213515   3.489   5.332   4.217
 4206SOL     OW13516   5.058   0.901   5.846
 4206SOL    HW113517   4.975   0.920   5.793
 4206SOL    HW213518   5.121   0.849   5.789
 4207SOL     OW13519   2.169   1.663   1.695
 4207SOL    HW113520   2.248   1.664   1.633
 4207SOL    HW213521   2.159   1.572   1.735
 4208SOL     OW13522   1.515   2.358   0.372
 4208SOL    HW113523   1.599   2.303   0.372
 4208SOL    HW213524   1.452   2.322   0.440
 4209SOL     OW13525   1.088   1.368   4.698
 4209SOL    HW113526   1.178   1.330   4.678
 4209SOL    HW213527   1.089   1.410   4.789
 4210SOL     OW13528   3.333   3.137   2.099
 4210SOL    HW113529   3.259   3.129   2.031
 4210SOL    HW213530   3.413   3.178   2.055
 4211SOL     OW13531   5.180   6.021   6.067
 4211SOL    HW113532   5.253   5.953   6.070
 4211SOL    HW213533   5.104   5.986   6.012
 4212SOL     OW13534   6.506   2.537   2.097
 4212SOL    HW113535   6.491   2.580   2.008
 4212SOL    HW213536   6.483   2.603   2.169
 4213SOL     OW13537   2.174   1.009   2.376
 4213SOL    HW113538   2.223   0.944   2.433
 4213SOL    HW213539   2.232   1.038   2.300
 4214SOL     OW13540   0.030   3.887   5.953
 4214SOL    HW113541   0.070   3.800   5.926
 4214SOL    HW213542   0.097   3.940   6.005
 4215SOL     OW13543   6.867   5.572   5.069
 4215SOL    HW113544   6.793   5.637   5.084
 4215SOL    HW213545   6.953   5.610   5.103
 4216SOL     OW13546   1.364   2.294   3.440
 4216SOL    HW113547   1.293   2.288   3.371
 4216SOL    HW213548   1.412   2.206   3.446
 4217SOL     OW13549   6.350   0.506   2.874
 4217SOL    HW113550   6.400   0.592   2.888
 4217SOL    HW213551   6.404   0.446   2.814
 4218SOL     OW13552   5.564   0.258   1.932
 4218SOL    HW113553   5.537   0.342   1.886
 4218SOL    HW213554   5.659   0.266   1.962
 4219SOL     OW13555   2.959   4.861   5.184
 4219SOL    HW113556   2.938   4.799   5.108
 4219SOL    HW213557   2.890   4.852   5.255
 4220SOL     OW13558   6.198   3.356   3.014
 4220SOL    HW113559   6.284   3.385   2.972
 4220SOL    HW213560   6.169   3.425   3.081
 4221SOL     OW13561   6.808   5.689   6.241
 4221SOL    HW113562   6.832   5.772   6.292
 4221SOL    HW213563   6.732   5.709   6.179
 4222SOL     OW13564   6.029   2.093   1.987
 4222SOL    HW113565   6.066   2.185   1.979
 4222SOL    HW213566   5.946   2.095   2.042
 4223SOL     OW13567   3.830   2.972   3.691
 4223SOL    HW113568   3.862   3.016   3.775
 4223SOL    HW213569   3.732   2.952   3.700
 4224SOL     OW13570   5.176   3.329   4.342
 4224SOL    HW113571   5.086   3.329   4.386
 4224SOL    HW213572   5.227   3.410   4.370
 4225SOL     OW13573   5.470   0.885   5.386
 4225SOL    HW113574   5.394   0.948   5.367
 4225SOL    HW213575   5.494   0.891   5.483
 4226SOL     OW13576   2.140   0.513   3.406
 4226SOL    HW113577   2.042   0.523   3.424
 4226SOL    HW213578   2.167   0.418   3.421
 4227SOL     OW13579   3.395   4.136   6.503
 4227SOL    HW113580   3.414   4.041   6.529
 4227SOL    HW213581   3.469   4.195   6.535
 4228SOL     OW13582   5.702   5.347   4.095
 4228SOL    HW113583   5.732   5.420   4.157
 4228SOL    HW213584   5.703   5.259   4.143
 4229SOL     OW13585   4.134   4.645   6.231
 4229SOL    HW113586   4.107   4.741   6.226
 4229SOL    HW213587   4.180   4.628   6.318
 4230SOL     OW13588   2.425   0.274   4.770
 4230SOL    HW113589   2.382   0.218   4.840
 4230SOL    HW213590   2.518   0.242   4.754
 4231SOL     OW13591   5.306   6.448   4.839
 4231SOL    HW113592   5.214   6.417   4.865
 4231SOL    HW213593   5.369   6.371   4.842
 4232SOL     OW13594   0.720   4.833   1.896
 4232SOL    HW113595   0.690   4.789   1.981
 4232SOL    HW213596   0.640   4.852   1.839
 4233SOL     OW13597   6.711   0.500   0.705
 4233SOL    HW113598   6.738   0.430   0.772
 4233SOL    HW213599   6.723   0.590   0.746
 4234SOL     OW13600   2.046   5.793   5.341
 4234SOL    HW113601   2.021   5.744   5.425
 4234SOL    HW213602   2.144   5.814   5.342
 4235SOL     OW13603   5.739   4.266   5.036
 4235SOL    HW113604   5.689   4.234   5.117
 4235SOL    HW213605   5.780   4.188   4.989
 4236SOL     OW13606   0.073   2.862   3.380
 4236SOL    HW113607   0.038   2.776   3.342
 4236SOL    HW213608   0.076   2.931   3.308
 4237SOL     OW13609   6.442   4.569   4.281
 4237SOL    HW113610   6.467   4.584   4.186
 4237SOL    HW213611   6.517   4.523   4.329
 4238SOL     OW13612   4.451   4.599   3.803
 4238SOL    HW113613   4.510   4.553   3.870
 4238SOL    HW213614   4.495   4.599   3.714
 4239SOL     OW13615   5.190   7.023   4.343
 4239SOL    HW113616   5.264   7.013   4.410
 4239SOL    HW213617   5.221   0.059   4.269
 4240SOL     OW13618   2.807   6.032   6.249
 4240SOL    HW113619   2.841   6.050   6.156
 4240SOL    HW213620   2.707   6.024   6.246
 4241SOL     OW13621   6.197   0.393   0.655
 4241SOL    HW113622   6.288   0.433   0.661
 4241SOL    HW213623   6.159   0.411   0.564
 4242SOL     OW13624   2.353   6.838   3.169
 4242SOL    HW113625   2.306   6.766   3.117
 4242SOL    HW213626   2.298   6.922   3.166
 4243SOL     OW13627   0.609   3.885   2.737
 4243SOL    HW113628   0.703   3.895   2.770
 4243SOL    HW213629   0.604   3.913   2.641
 4244SOL     OW13630   4.789   5.872   1.207
 4244SOL    HW113631   4.845   5.808   1.259
 4244SOL    HW213632   4.804   5.857   1.109
 4245SOL     OW13633   0.045   2.685   0.160
 4245SOL    HW113634   7.004   2.622   0.202
 4245SOL    HW213635   0.036   2.680   0.060
 4246SOL     OW13636   5.283   3.287   3.038
 4246SOL    HW113637   5.295   3.190   3.058
 4246SOL    HW213638   5.186   3.311   3.048
 4247SOL     OW13639   2.466   5.426   4.497
 4247SOL    HW113640   2.403   5.498   4.526
 4247SOL    HW213641   2.495   5.443   4.403
 4248SOL     OW13642   1.518   0.528   3.437
 4248SOL    HW113643   1.460   0.458   3.394
 4248SOL    HW213644   1.589   0.556   3.372
 4249SOL     OW13645   6.850   1.818   3.653
 4249SOL    HW113646   6.869   1.810   3.556
 4249SOL    HW213647   6.925   1.867   3.698
 4250SOL     OW13648   0.025   5.872   4.185
 4250SOL    HW113649   0.073   5.956   4.160
 4250SOL    HW213650   0.092   5.804   4.215
 4251SOL     OW13651   6.067   2.561   6.606
 4251SOL    HW113652   6.067   2.538   6.508
 4251SOL    HW213653   6.004   2.636   6.623
 4252SOL     OW13654   6.128   5.501   6.275
 4252SOL    HW113655   6.032   5.482   6.254
 4252SOL    HW213656   6.156   5.586   6.231
 4253SOL     OW13657   3.798   6.359   2.864
 4253SOL    HW113658   3.853   6.340   2.783
 4253SOL    HW213659   3.772   6.273   2.908
 4254SOL     OW13660   1.976   4.471   1.586
 4254SOL    HW113661   1.944   4.421   1.666
 4254SOL    HW213662   2.069   4.442   1.563
 4255SOL     OW13663   0.274   3.765   3.840
 4255SOL    HW113664   0.240   3.677   3.807
 4255SOL    HW213665   0.232   3.838   3.786
 4256SOL     OW13666   0.853   5.488   1.732
 4256SOL    HW113667   0.805   5.424   1.672
 4256SOL    HW213668   0.815   5.482   1.825
 4257SOL     OW13669   6.628   1.418   4.740
 4257SOL    HW113670   6.689   1.362   4.796
 4257SOL    HW213671   6.661   1.512   4.738
 4258SOL     OW13672   3.412   5.919   1.111
 4258SOL    HW113673   3.407   6.005   1.061
 4258SOL    HW213674   3.508   5.896   1.128
 4259SOL     OW13675   1.811   6.591   1.186
 4259SOL    HW113676   1.808   6.656   1.262
 4259SOL    HW213677   1.751   6.514   1.205
 4260SOL     OW13678   4.977   6.970   4.189
 4260SOL    HW113679   4.894   0.001   4.202
 4260SOL    HW213680   5.051   7.008   4.244
 4261SOL     OW13681   2.514   0.217   4.099
 4261SOL    HW113682   2.427   0.190   4.141
 4261SOL    HW213683   2.495   0.261   4.011
 4262SOL     OW13684   1.538   5.016   5.903
 4262SOL    HW113685   1.465   5.013   5.972
 4262SOL    HW213686   1.582   5.106   5.907
 4263SOL     OW13687   2.770   1.842   3.514
 4263SOL    HW113688   2.739   1.749   3.535
 4263SOL    HW213689   2.859   1.858   3.556
 4264SOL     OW13690   5.839   1.378   4.487
 4264SOL    HW113691   5.869   1.362   4.581
 4264SOL    HW213692   5.919   1.386   4.427
 4265SOL     OW13693   3.204   0.103   0.263
 4265SOL    HW113694   3.130   0.144   0.211
 4265SOL    HW213695   3.268   0.174   0.293
 4266SOL     OW13696   1.797   0.447   0.183
 4266SOL    HW113697   1.853   0.418   0.106
 4266SOL    HW213698   1.707   0.477   0.150
 4267SOL     OW13699   2.099   3.893   3.871
 4267SOL    HW113700   2.057   3.831   3.937
 4267SOL    HW213701   2.112   3.846   3.783
 4268SOL     OW13702   1.651   5.094   6.942
 4268SOL    HW113703   1.557   5.077   6.912
 4268SOL    HW213704   1.685   5.014   6.992
 4269SOL     OW13705   3.602   1.642   3.867
 4269SOL    HW113706   3.534   1.591   3.815
 4269SOL    HW213707   3.688   1.646   3.816
 4270SOL     OW13708   3.957   3.295   1.595
 4270SOL    HW113709   3.984   3.356   1.669
 4270SOL    HW213710   4.023   3.220   1.587
 4271SOL     OW13711   6.161   1.040   0.897
 4271SOL    HW113712   6.169   1.138   0.916
 4271SOL    HW213713   6.248   0.995   0.915
 4272SOL     OW13714   6.721   3.248   5.658
 4272SOL    HW113715   6.658   3.263   5.582
 4272SOL    HW213716   6.731   3.333   5.710
 4273SOL     OW13717   5.003   6.385   5.170
 4273SOL    HW113718   4.927   6.361   5.230
 4273SOL    HW213719   5.085   6.335   5.199
 4274SOL     OW13720   0.828   6.590   2.456
 4274SOL    HW113721   0.855   6.517   2.394
 4274SOL    HW213722   0.816   6.553   2.548
 4275SOL     OW13723   0.039   2.293   4.474
 4275SOL    HW113724   0.092   2.373   4.501
 4275SOL    HW213725   0.094   2.235   4.415
 4276SOL     OW13726   3.471   4.920   3.565
 4276SOL    HW113727   3.385   4.927   3.615
 4276SOL    HW213728   3.462   4.852   3.493
 4277SOL     OW13729   6.827   5.054   3.814
 4277SOL    HW113730   6.904   5.105   3.778
 4277SOL    HW213731   6.854   4.958   3.827
 4278SOL     OW13732   6.852   6.519   3.738
 4278SOL    HW113733   6.952   6.514   3.736
 4278SOL    HW213734   6.820   6.571   3.659
 4279SOL     OW13735   1.552   1.039   2.658
 4279SOL    HW113736   1.650   1.021   2.659
 4279SOL    HW213737   1.534   1.122   2.605
 4280SOL     OW13738   6.284   6.803   6.297
 4280SOL    HW113739   6.255   6.708   6.285
 4280SOL    HW213740   6.281   6.827   6.394
 4281SOL     OW13741   4.892   5.527   3.660
 4281SOL    HW113742   4.800   5.528   3.700
 4281SOL    HW213743   4.927   5.621   3.656
 4282SOL     OW13744   3.609   4.006   0.656
 4282SOL    HW113745   3.525   3.955   0.676
 4282SOL    HW213746   3.586   4.089   0.604
 4283SOL     OW13747   4.811   0.915   3.030
 4283SOL    HW113748   4.811   0.900   3.129
 4283SOL    HW213749   4.851   0.836   2.984
 4284SOL     OW13750   4.029   5.559   0.034
 4284SOL    HW113751   4.014   5.469   0.075
 4284SOL    HW213752   4.021   5.630   0.105
 4285SOL     OW13753   3.366   0.645   6.092
 4285SOL    HW113754   3.368   0.642   6.192
 4285SOL    HW213755   3.278   0.680   6.062
 4286SOL     OW13756   6.929   0.809   0.129
 4286SOL    HW113757   6.923   0.814   0.029
 4286SOL    HW213758   6.873   0.881   0.169
 4287SOL     OW13759   4.534   1.066   6.957
 4287SOL    HW113760   4.502   1.138   7.019
 4287SOL    HW213761   4.496   0.978   6.986
 4288SOL     OW13762   6.478   5.838   1.997
 4288SOL    HW113763   6.529   5.765   2.044
 4288SOL    HW213764   6.477   5.820   1.899
 4289SOL     OW13765   0.365   2.306   5.397
 4289SOL    HW113766   0.275   2.349   5.410
 4289SOL    HW213767   0.372   2.271   5.304
 4290SOL     OW13768   0.030   6.614   3.399
 4290SOL    HW113769   0.054   6.555   3.322
 4290SOL    HW213770   7.020   6.558   3.475
 4291SOL     OW13771   4.994   3.323   6.113
 4291SOL    HW113772   4.986   3.242   6.170
 4291SOL    HW213773   4.988   3.297   6.016
 4292SOL     OW13774   5.359   2.435   0.285
 4292SOL    HW113775   5.280   2.403   0.233
 4292SOL    HW213776   5.366   2.383   0.370
 4293SOL     OW13777   4.554   3.723   6.668
 4293SOL    HW113778   4.627   3.670   6.710
 4293SOL    HW213779   4.524   3.795   6.731
 4294SOL     OW13780   2.495   1.727   6.136
 4294SOL    HW113781   2.476   1.674   6.053
 4294SOL    HW213782   2.449   1.683   6.213
 4295SOL     OW13783   4.139   6.429   2.834
 4295SOL    HW113784   4.126   6.523   2.802
 4295SOL    HW213785   4.089   6.367   2.774
 4296SOL     OW13786   3.664   6.903   0.748
 4296SOL    HW113787   3.601   6.863   0.815
 4296SOL    HW213788   3.613   6.931   0.666
 4297SOL     OW13789   6.858   5.534   1.342
 4297SOL    HW113790   6.929   5.599   1.316
 4297SOL    HW213791   6.857   5.458   1.278
 4298SOL     OW13792   3.925   6.180   1.401
 4298SOL    HW113793   3.874   6.095   1.391
 4298SOL    HW213794   3.976   6.198   1.317
 4299SOL     OW13795   0.674   3.043   6.903
 4299SOL    HW113796   0.715   2.969   6.850
 4299SOL    HW213797   0.683   3.023   7.000
 4300SOL     OW13798   3.472   0.478   0.840
 4300SOL    HW113799   3.470   0.527   0.928
 4300SOL    HW213800   3.379   0.465   0.807
 4301SOL     OW13801   2.870   6.725   1.310
 4301SOL    HW113802   2.848   6.822   1.315
 4301SOL    HW213803   2.910   6.696   1.397
 4302SOL     OW13804   6.643   0.294   6.850
 4302SOL    HW113805   6.657   0.368   6.915
 4302SOL    HW213806   6.680   0.320   6.761
 4303SOL     OW13807   7.009   4.556   3.598
 4303SOL    HW113808   6.938   4.617   3.562
 4303SOL    HW213809   0.068   4.565   3.543
 4304SOL     OW13810   3.606   4.115   2.026
 4304SOL    HW113811   3.622   4.163   2.113
 4304SOL    HW213812   3.632   4.019   2.036
 4305SOL     OW13813   0.379   6.933   5.426
 4305SOL    HW113814   0.420   6.843   5.436
 4305SOL    HW213815   0.325   6.954   5.507
 4306SOL     OW13816   4.933   3.686   4.796
 4306SOL    HW113817   4.920   3.650   4.703
 4306SOL    HW213818   4.880   3.630   4.860
 4307SOL     OW13819   5.522   2.574   5.782
 4307SOL    HW113820   5.521   2.577   5.682
 4307SOL    HW213821   5.460   2.502   5.814
 4308SOL     OW13822   5.423   5.083   1.777
 4308SOL    HW113823   5.410   5.121   1.685
 4308SOL    HW213824   5.349   5.019   1.798
 4309SOL     OW13825   1.020   3.461   6.680
 4309SOL    HW113826   1.049   3.556   6.677
 4309SOL    HW213827   1.094   3.405   6.719
 4310SOL     OW13828   1.552   2.466   2.528
 4310SOL    HW113829   1.648   2.445   2.512
 4310SOL    HW213830   1.543   2.561   2.557
 4311SOL     OW13831   1.311   6.085   2.524
 4311SOL    HW113832   1.356   6.069   2.612
 4311SOL    HW213833   1.376   6.071   2.450
 4312SOL     OW13834   0.906   5.073   2.590
 4312SOL    HW113835   0.824   5.126   2.568
 4312SOL    HW213836   0.905   5.049   2.687
 4313SOL     OW13837   3.901   1.606   0.609
 4313SOL    HW113838   3.856   1.625   0.696
 4313SOL    HW213839   3.958   1.685   0.584
 4314SOL     OW13840   6.375   2.290   5.776
 4314SOL    HW113841   6.371   2.205   5.829
 4314SOL    HW213842   6.282   2.322   5.757
 4315SOL     OW13843   1.944   1.842   3.478
 4315SOL    HW113844   1.894   1.909   3.423
 4315SOL    HW213845   1.898   1.832   3.567
 4316SOL     OW13846   4.627   0.093   2.696
 4316SOL    HW113847   4.580   0.016   2.654
 4316SOL    HW213848   4.715   0.107   2.649
 4317SOL     OW13849   4.260   0.696   5.532
 4317SOL    HW113850   4.237   0.648   5.617
 4317SOL    HW213851   4.210   0.783   5.528
 4318SOL     OW13852   0.424   0.939   4.416
 4318SOL    HW113853   0.475   0.952   4.331
 4318SOL    HW213854   0.487   0.923   4.491
 4319SOL     OW13855   1.592   2.120   1.226
 4319SOL    HW113856   1.685   2.112   1.260
 4319SOL    HW213857   1.537   2.044   1.260
 4320SOL     OW13858   3.963   6.092   0.476
 4320SOL    HW113859   3.936   6.072   0.382
 4320SOL    HW213860   3.882   6.122   0.527
 4321SOL     OW13861   6.775   5.336   3.590
 4321SOL    HW113862   6.748   5.432   3.599
 4321SOL    HW213863   6.821   5.323   3.502
 4322SOL     OW13864   0.744   3.100   5.288
 4322SOL    HW113865   0.797   3.015   5.286
 4322SOL    HW213866   0.658   3.087   5.240
 4323SOL     OW13867   4.165   5.342   6.897
 4323SOL    HW113868   4.196   5.431   6.932
 4323SOL    HW213869   4.154   5.347   6.798
 4324SOL     OW13870   6.835   3.401   5.345
 4324SOL    HW113871   6.932   3.386   5.323
 4324SOL    HW213872   6.797   3.317   5.385
 4325SOL     OW13873   2.592   1.594   2.297
 4325SOL    HW113874   2.685   1.610   2.328
 4325SOL    HW213875   2.555   1.678   2.256
 4326SOL     OW13876   5.251   3.034   2.723
 4326SOL    HW113877   5.195   3.106   2.683
 4326SOL    HW213878   5.346   3.044   2.692
 4327SOL     OW13879   3.759   5.699   3.348
 4327SOL    HW113880   3.855   5.727   3.340
 4327SOL    HW213881   3.755   5.602   3.373
 4328SOL     OW13882   6.381   4.713   4.735
 4328SOL    HW113883   6.460   4.756   4.691
 4328SOL    HW213884   6.309   4.699   4.668
 4329SOL     OW13885   5.552   3.041   5.468
 4329SOL    HW113886   5.648   3.037   5.496
 4329SOL    HW213887   5.527   2.955   5.424
 4330SOL     OW13888   2.786   6.678   5.224
 4330SOL    HW113889   2.749   6.597   5.271
 4330SOL    HW213890   2.731   6.697   5.143
 4331SOL     OW13891   0.381   0.386   1.638
 4331SOL    HW113892   0.303   0.374   1.699
 4331SOL    HW213893   0.387   0.481   1.609
 4332SOL     OW13894   5.641   3.781   2.799
 4332SOL    HW113895   5.691   3.695   2.804
 4332SOL    HW213896   5.574   3.785   2.873
 4333SOL     OW13897   4.953   2.423   4.961
 4333SOL    HW113898   5.019   2.498   4.954
 4333SOL    HW213899   4.953   2.389   5.055
 4334SOL     OW13900   1.027   2.836   2.733
 4334SOL    HW113901   1.059   2.849   2.827
 4334SOL    HW213902   1.042   2.920   2.681
 4335SOL     OW13903   3.191   3.316   0.772
 4335SOL    HW113904   3.274   3.264   0.792
 4335SOL    HW213905   3.113   3.254   0.766
 4336SOL     OW13906   2.133   4.908   5.316
 4336SOL    HW113907   2.035   4.923   5.301
 4336SOL    HW213908   2.145   4.838   5.387
 4337SOL     OW13909   1.312   5.997   2.802
 4337SOL    HW113910   1.221   5.960   2.782
 4337SOL    HW213911   1.351   5.948   2.880
 4338SOL     OW13912   6.291   7.022   6.126
 4338SOL    HW113913   6.308   6.992   6.032
 4338SOL    HW213914   6.323   6.951   6.189
 4339SOL     OW13915   4.119   2.185   6.996
 4339SOL    HW113916   4.053   2.258   6.976
 4339SOL    HW213917   4.159   2.152   6.910
 4340SOL     OW13918   6.033   3.400   0.822
 4340SOL    HW113919   6.094   3.328   0.789
 4340SOL    HW213920   6.038   3.479   0.760
 4341SOL     OW13921   0.987   5.766   2.344
 4341SOL    HW113922   0.979   5.823   2.262
 4341SOL    HW213923   0.901   5.718   2.360
 4342SOL     OW13924   4.877   3.340   3.302
 4342SOL    HW113925   4.797   3.399   3.288
 4342SOL    HW213926   4.947   3.362   3.233
 4343SOL     OW13927   3.315   0.024   6.425
 4343SOL    HW113928   3.378   7.003   6.362
 4343SOL    HW213929   3.363   0.051   6.508
 4344SOL     OW13930   0.627   2.716   3.400
 4344SOL    HW113931   0.539   2.671   3.420
 4344SOL    HW213932   0.675   2.733   3.486
 4345SOL     OW13933   2.959   3.719   2.678
 4345SOL    HW113934   2.932   3.753   2.588
 4345SOL    HW213935   3.016   3.637   2.666
 4346SOL     OW13936   2.289   2.763   3.115
 4346SOL    HW113937   2.205   2.708   3.113
 4346SOL    HW213938   2.337   2.752   3.028
 4347SOL     OW13939   6.289   5.850   1.356
 4347SOL    HW113940   6.349   5.903   1.297
 4347SOL    HW213941   6.286   5.892   1.447
 4348SOL     OW13942   6.860   5.899   3.948
 4348SOL    HW113943   6.790   5.833   3.921
 4348SOL    HW213944   6.899   5.873   4.036
 4349SOL     OW13945   0.123   3.874   3.571
 4349SOL    HW113946   0.122   3.785   3.524
 4349SOL    HW213947   0.173   3.940   3.515
 4350SOL     OW13948   5.548   1.443   4.447
 4350SOL    HW113949   5.570   1.526   4.395
 4350SOL    HW213950   5.633   1.397   4.473
 4351SOL     OW13951   1.864   5.816   1.609
 4351SOL    HW113952   1.775   5.771   1.596
 4351SOL    HW213953   1.876   5.837   1.706
 4352SOL     OW13954   5.594   3.624   1.017
 4352SOL    HW113955   5.625   3.702   1.073
 4352SOL    HW213956   5.674   3.577   0.980
 4353SOL     OW13957   3.166   3.244   6.564
 4353SOL    HW113958   3.124   3.161   6.529
 4353SOL    HW213959   3.135   3.262   6.657
 4354SOL     OW13960   1.094   0.486   5.410
 4354SOL    HW113961   1.085   0.457   5.506
 4354SOL    HW213962   1.004   0.507   5.373
 4355SOL     OW13963   1.279   6.477   3.632
 4355SOL    HW113964   1.282   6.379   3.652
 4355SOL    HW213965   1.370   6.516   3.644
 4356SOL     OW13966   4.657   3.154   5.781
 4356SOL    HW113967   4.572   3.102   5.772
 4356SOL    HW213968   4.672   3.207   5.697
 4357SOL     OW13969   0.379   1.272   1.844
 4357SOL    HW113970   0.407   1.356   1.889
 4357SOL    HW213971   0.293   1.287   1.795
 4358SOL     OW13972   0.471   1.356   0.108
 4358SOL    HW113973   0.455   1.395   0.198
 4358SOL    HW213974   0.404   1.393   0.043
 4359SOL     OW13975   1.862   0.537   6.277
 4359SOL    HW113976   1.874   0.543   6.178
 4359SOL    HW213977   1.950   0.552   6.322
 4360SOL     OW13978   1.039   2.691   3.722
 4360SOL    HW113979   1.093   2.724   3.799
 4360SOL    HW213980   1.044   2.591   3.718
 4361SOL     OW13981   1.917   2.800   0.926
 4361SOL    HW113982   1.886   2.851   1.006
 4361SOL    HW213983   1.840   2.789   0.862
 4362SOL     OW13984   0.628   6.305   4.168
 4362SOL    HW113985   0.674   6.217   4.155
 4362SOL    HW213986   0.577   6.304   4.254
 4363SOL     OW13987   4.388   0.203   2.730
 4363SOL    HW113988   4.482   0.190   2.699
 4363SOL    HW213989   4.345   0.276   2.677
 4364SOL     OW13990   2.947   3.797   2.402
 4364SOL    HW113991   3.014   3.759   2.338
 4364SOL    HW213992   2.867   3.828   2.351
 4365SOL     OW13993   3.037   1.967   1.763
 4365SOL    HW113994   3.017   2.022   1.682
 4365SOL    HW213995   3.115   1.907   1.744
 4366SOL     OW13996   6.151   6.044   5.336
 4366SOL    HW113997   6.086   6.091   5.396
 4366SOL    HW213998   6.104   5.970   5.288
 4367SOL     OW13999   3.358   4.880   2.621
 4367SOL    HW114000   3.429   4.914   2.559
 4367SOL    HW214001   3.395   4.874   2.714
 4368SOL     OW14002   4.090   5.874   2.639
 4368SOL    HW114003   4.157   5.850   2.709
 4368SOL    HW214004   4.001   5.889   2.681
 4369SOL     OW14005   5.017   5.556   3.033
 4369SOL    HW114006   4.942   5.619   3.010
 4369SOL    HW214007   5.090   5.566   2.966
 4370SOL     OW14008   4.023   3.583   1.690
 4370SOL    HW114009   3.954   3.512   1.707
 4370SOL    HW214010   4.035   3.639   1.772
 4371SOL     OW14011   2.622   0.832   2.121
 4371SOL    HW114012   2.639   0.754   2.181
 4371SOL    HW214013   2.577   0.905   2.173
 4372SOL     OW14014   1.594   3.457   4.556
 4372SOL    HW114015   1.675   3.479   4.502
 4372SOL    HW214016   1.581   3.526   4.627
 4373SOL     OW14017   5.012   0.854   6.105
 4373SOL    HW114018   5.028   0.875   6.009
 4373SOL    HW214019   5.097   0.821   6.146
 4374SOL     OW14020   2.808   2.215   1.294
 4374SOL    HW114021   2.800   2.116   1.306
 4374SOL    HW214022   2.768   2.261   1.373
 4375SOL     OW14023   3.594   0.154   3.375
 4375SOL    HW114024   3.620   0.242   3.336
 4375SOL    HW214025   3.499   0.158   3.405
 4376SOL     OW14026   6.417   0.045   1.700
 4376SOL    HW114027   6.417   7.006   1.778
 4376SOL    HW214028   6.406   0.139   1.733
 4377SOL     OW14029   6.603   6.032   0.554
 4377SOL    HW114030   6.671   6.045   0.482
 4377SOL    HW214031   6.529   6.098   0.541
 4378SOL     OW14032   1.597   4.895   2.094
 4378SOL    HW114033   1.524   4.852   2.041
 4378SOL    HW214034   1.562   4.976   2.140
 4379SOL     OW14035   2.053   0.332   1.876
 4379SOL    HW114036   1.973   0.369   1.924
 4379SOL    HW214037   2.136   0.368   1.919
 4380SOL     OW14038   2.283   5.723   5.020
 4380SOL    HW114039   2.294   5.675   5.107
 4380SOL    HW214040   2.235   5.664   4.955
 4381SOL     OW14041   3.265   5.528   4.641
 4381SOL    HW114042   3.262   5.597   4.569
 4381SOL    HW214043   3.337   5.551   4.707
 4382SOL     OW14044   4.767   4.302   4.644
 4382SOL    HW114045   4.800   4.329   4.735
 4382SOL    HW214046   4.794   4.208   4.625
 4383SOL     OW14047   1.018   1.623   5.216
 4383SOL    HW114048   1.035   1.567   5.297
 4383SOL    HW214049   1.060   1.713   5.229
 4384SOL     OW14050   4.587   0.358   1.292
 4384SOL    HW114051   4.562   0.291   1.222
 4384SOL    HW214052   4.682   0.387   1.278
 4385SOL     OW14053   6.779   1.792   4.196
 4385SOL    HW114054   6.688   1.813   4.162
 4385SOL    HW214055   6.788   1.693   4.206
 4386SOL     OW14056   0.890   4.417   6.529
 4386SOL    HW114057   0.913   4.503   6.485
 4386SOL    HW214058   0.953   4.345   6.499
 4387SOL     OW14059   6.775   2.280   1.691
 4387SOL    HW114060   6.861   2.323   1.663
 4387SOL    HW214061   6.778   2.182   1.672
 4388SOL     OW14062   3.895   0.973   6.775
 4388SOL    HW114063   3.988   0.937   6.774
 4388SOL    HW214064   3.873   1.014   6.686
 4389SOL     OW14065   5.703   1.741   1.849
 4389SOL    HW114066   5.672   1.656   1.891
 4389SOL    HW214067   5.633   1.812   1.861
 4390SOL     OW14068   3.963   2.259   1.834
 4390SOL    HW114069   3.964   2.186   1.903
 4390SOL    HW214070   3.878   2.253   1.780
 4391SOL     OW14071   1.152   5.845   6.490
 4391SOL    HW114072   1.126   5.753   6.461
 4391SOL    HW214073   1.154   5.906   6.410
 4392SOL     OW14074   5.465   3.530   5.051
 4392SOL    HW114075   5.511   3.531   5.140
 4392SOL    HW214076   5.490   3.447   5.001
 4393SOL     OW14077   4.897   6.751   3.141
 4393SOL    HW114078   4.977   6.811   3.131
 4393SOL    HW214079   4.921   6.659   3.110
 4394SOL     OW14080   5.537   5.958   2.401
 4394SOL    HW114081   5.488   5.873   2.419
 4394SOL    HW214082   5.571   5.996   2.488
 4395SOL     OW14083   4.455   2.361   0.465
 4395SOL    HW114084   4.411   2.396   0.383
 4395SOL    HW214085   4.399   2.289   0.505
 4396SOL     OW14086   2.425   1.985   4.498
 4396SOL    HW114087   2.430   2.010   4.401
 4396SOL    HW214088   2.405   2.067   4.552
 4397SOL     OW14089   0.277   1.075   4.126
 4397SOL    HW114090   0.207   1.129   4.172
 4397SOL    HW214091   0.346   1.045   4.193
 4398SOL     OW14092   1.321   4.358   4.139
 4398SOL    HW114093   1.292   4.453   4.128
 4398SOL    HW214094   1.344   4.320   4.050
 4399SOL     OW14095   2.743   0.645   0.760
 4399SOL    HW114096   2.678   0.587   0.711
 4399SOL    HW214097   2.707   0.667   0.851
 4400SOL     OW14098   2.270   6.494   4.823
 4400SOL    HW114099   2.302   6.506   4.916
 4400SOL    HW214100   2.246   6.582   4.783
 4401SOL     OW14101   6.512   5.702   5.436
 4401SOL    HW114102   6.606   5.670   5.420
 4401SOL    HW214103   6.452   5.665   5.365
 4402SOL     OW14104   1.422   6.148   3.026
 4402SOL    HW114105   1.396   6.138   2.930
 4402SOL    HW214106   1.442   6.058   3.065
 4403SOL     OW14107   6.565   0.166   3.657
 4403SOL    HW114108   6.562   0.066   3.662
 4403SOL    HW214109   6.655   0.195   3.626
 4404SOL     OW14110   0.975   3.519   4.311
 4404SOL    HW114111   0.956   3.421   4.307
 4404SOL    HW214112   1.018   3.541   4.398
 4405SOL     OW14113   3.325   4.691   5.812
 4405SOL    HW114114   3.400   4.657   5.869
 4405SOL    HW214115   3.320   4.637   5.728
 4406SOL     OW14116   5.116   4.519   1.003
 4406SOL    HW114117   5.188   4.529   0.935
 4406SOL    HW214118   5.093   4.609   1.041
 4407SOL     OW14119   0.238   5.517   0.652
 4407SOL    HW114120   0.168   5.557   0.592
 4407SOL    HW214121   0.194   5.477   0.732
 4408SOL     OW14122   4.510   0.688   0.828
 4408SOL    HW114123   4.427   0.715   0.780
 4408SOL    HW214124   4.486   0.637   0.910
 4409SOL     OW14125   3.724   0.942   1.985
 4409SOL    HW114126   3.757   1.028   2.023
 4409SOL    HW214127   3.733   0.869   2.053
 4410SOL     OW14128   1.722   4.527   6.841
 4410SOL    HW114129   1.756   4.471   6.765
 4410SOL    HW214130   1.788   4.599   6.860
 4411SOL     OW14131   3.494   2.907   3.279
 4411SOL    HW114132   3.507   2.829   3.219
 4411SOL    HW214133   3.471   2.988   3.224
 4412SOL     OW14134   4.494   1.848   5.211
 4412SOL    HW114135   4.442   1.780   5.160
 4412SOL    HW214136   4.442   1.874   5.293
 4413SOL     OW14137   5.068   5.981   5.105
 4413SOL    HW114138   5.063   5.881   5.105
 4413SOL    HW214139   4.987   6.019   5.150
 4414SOL     OW14140   4.987   4.767   2.220
 4414SOL    HW114141   5.007   4.681   2.171
 4414SOL    HW214142   4.929   4.747   2.299
 4415SOL     OW14143   5.311   3.299   6.352
 4415SOL    HW114144   5.288   3.202   6.351
 4415SOL    HW214145   5.243   3.349   6.405
 4416SOL     OW14146   2.715   1.659   4.028
 4416SOL    HW114147   2.748   1.732   4.087
 4416SOL    HW214148   2.668   1.698   3.949
 4417SOL     OW14149   6.935   4.695   2.694
 4417SOL    HW114150   6.900   4.657   2.609
 4417SOL    HW214151   0.010   4.680   2.700
 4418SOL     OW14152   4.301   6.709   3.890
 4418SOL    HW114153   4.372   6.733   3.823
 4418SOL    HW214154   4.344   6.681   3.975
 4419SOL     OW14155   5.826   5.481   0.356
 4419SOL    HW114156   5.830   5.564   0.411
 4419SOL    HW214157   5.761   5.494   0.280
 4420SOL     OW14158   4.634   1.321   0.730
 4420SOL    HW114159   4.689   1.237   0.736
 4420SOL    HW214160   4.543   1.299   0.697
 4421SOL     OW14161   1.647   1.826   3.189
 4421SOL    HW114162   1.708   1.747   3.181
 4421SOL    HW214163   1.565   1.799   3.240
 4422SOL     OW14164   2.605   3.287   5.760
 4422SOL    HW114165   2.686   3.231   5.745
 4422SOL    HW214166   2.575   3.326   5.673
 4423SOL     OW14167   0.490   2.756   5.386
 4423SOL    HW114168   0.410   2.696   5.386
 4423SOL    HW214169   0.555   2.725   5.316
 4424SOL     OW14170   5.267   0.018   3.471
 4424SOL    HW114171   5.180   0.063   3.493
 4424SOL    HW214172   5.250   6.945   3.451
 4425SOL     OW14173   3.649   5.937   6.344
 4425SOL    HW114174   3.729   5.995   6.332
 4425SOL    HW214175   3.572   5.991   6.378
 4426SOL     OW14176   6.919   0.978   5.532
 4426SOL    HW114177   6.951   0.924   5.609
 4426SOL    HW214178   6.936   0.928   5.447
 4427SOL     OW14179   6.722   0.735   2.367
 4427SOL    HW114180   6.689   0.824   2.399
 4427SOL    HW214181   6.647   0.686   2.322
 4428SOL     OW14182   3.221   4.955   3.701
 4428SOL    HW114183   3.189   4.973   3.794
 4428SOL    HW214184   3.144   4.961   3.638
 4429SOL     OW14185   3.066   0.223   4.012
 4429SOL    HW114186   3.050   0.126   3.991
 4429SOL    HW214187   2.992   0.256   4.071
 4430SOL     OW14188   4.771   2.747   3.812
 4430SOL    HW114189   4.869   2.741   3.792
 4430SOL    HW214190   4.746   2.673   3.875
 4431SOL     OW14191   2.979   1.241   2.475
 4431SOL    HW114192   2.965   1.270   2.570
 4431SOL    HW214193   3.077   1.240   2.454
 4432SOL     OW14194   3.160   2.996   3.697
 4432SOL    HW114195   3.126   3.077   3.649
 4432SOL    HW214196   3.206   2.936   3.631
 4433SOL     OW14197   6.438   6.977   4.390
 4433SOL    HW114198   6.382   0.031   4.358
 4433SOL    HW214199   6.458   6.917   4.313
 4434SOL     OW14200   4.711   1.314   4.112
 4434SOL    HW114201   4.767   1.382   4.064
 4434SOL    HW214202   4.620   1.351   4.127
 4435SOL     OW14203   4.057   3.535   0.785
 4435SOL    HW114204   4.076   3.495   0.695
 4435SOL    HW214205   4.040   3.633   0.774
 4436SOL     OW14206   3.212   1.848   6.908
 4436SOL    HW114207   3.286   1.819   6.847
 4436SOL    HW214208   3.249   1.862   7.000
 4437SOL     OW14209   4.885   1.138   4.257
 4437SOL    HW114210   4.946   1.116   4.181
 4437SOL    HW214211   4.816   1.204   4.227
 4438SOL     OW14212   4.553   1.821   6.786
 4438SOL    HW114213   4.494   1.787   6.859
 4438SOL    HW214214   4.520   1.910   6.754
 4439SOL     OW14215   0.751   5.277   1.567
 4439SOL    HW114216   0.704   5.327   1.493
 4439SOL    HW214217   0.694   5.200   1.597
 4440SOL     OW14218   1.828   5.518   6.503
 4440SOL    HW114219   1.926   5.500   6.493
 4440SOL    HW214220   1.780   5.486   6.422
 4441SOL     OW14221   6.248   1.705   1.614
 4441SOL    HW114222   6.324   1.767   1.592
 4441SOL    HW214223   6.259   1.672   1.708
 4442SOL     OW14224   3.069   6.309   3.577
 4442SOL    HW114225   3.092   6.334   3.483
 4442SOL    HW214226   2.971   6.287   3.583
 4443SOL     OW14227   1.333   2.427   6.207
 4443SOL    HW114228   1.278   2.456   6.129
 4443SOL    HW214229   1.327   2.496   6.279
 4444SOL     OW14230   3.941   6.396   6.430
 4444SOL    HW114231   3.903   6.320   6.483
 4444SOL    HW214232   3.869   6.436   6.373
 4445SOL     OW14233   1.311   0.838   6.322
 4445SOL    HW114234   1.234   0.816   6.382
 4445SOL    HW214235   1.375   0.762   6.322
 4446SOL     OW14236   5.882   0.924   1.272
 4446SOL    HW114237   5.966   0.896   1.227
 4446SOL    HW214238   5.822   0.968   1.205
 4447SOL     OW14239   5.447   3.162   5.678
 4447SOL    HW114240   5.477   3.256   5.694
 4447SOL    HW214241   5.485   3.129   5.592
 4448SOL     OW14242   2.701   3.858   0.420
 4448SOL    HW114243   2.702   3.958   0.417
 4448SOL    HW214244   2.783   3.823   0.374
 4449SOL     OW14245   3.501   0.430   6.014
 4449SOL    HW114246   3.476   0.408   5.920
 4449SOL    HW214247   3.466   0.521   6.037
 4450SOL     OW14248   3.795   2.968   3.405
 4450SOL    HW114249   3.810   2.976   3.504
 4450SOL    HW214250   3.717   2.908   3.388
 4451SOL     OW14251   5.777   4.138   2.606
 4451SOL    HW114252   5.836   4.184   2.540
 4451SOL    HW214253   5.800   4.040   2.609
 4452SOL     OW14254   5.848   6.499   4.908
 4452SOL    HW114255   5.942   6.517   4.936
 4452SOL    HW214256   5.844   6.410   4.862
 4453SOL     OW14257   6.122   3.245   0.277
 4453SOL    HW114258   6.166   3.170   0.228
 4453SOL    HW214259   6.192   3.309   0.309
 4454SOL     OW14260   5.008   1.956   0.810
 4454SOL    HW114261   5.002   2.047   0.768
 4454SOL    HW214262   5.003   1.965   0.909
 4455SOL     OW14263   2.848   6.326   0.782
 4455SOL    HW114264   2.785   6.393   0.743
 4455SOL    HW214265   2.805   6.236   0.781
 4456SOL     OW14266   2.481   4.929   2.616
 4456SOL    HW114267   2.403   4.931   2.553
 4456SOL    HW214268   2.564   4.904   2.565
 4457SOL     OW14269   4.182   2.539   7.023
 4457SOL    HW114270   4.281   2.534   0.008
 4457SOL    HW214271   4.146   2.607   0.063
 4458SOL     OW14272   1.589   3.654   6.227
 4458SOL    HW114273   1.536   3.600   6.161
 4458SOL    HW214274   1.672   3.603   6.251
 4459SOL     OW14275   5.563   0.288   3.956
 4459SOL    HW114276   5.520   0.346   3.887
 4459SOL    HW214277   5.652   0.256   3.923
 4460SOL     OW14278   2.822   3.014   6.109
 4460SOL    HW114279   2.800   3.110   6.093
 4460SOL    HW214280   2.882   2.981   6.036
 4461SOL     OW14281   1.229   0.244   2.886
 4461SOL    HW114282   1.133   0.259   2.864
 4461SOL    HW214283   1.238   0.162   2.944
 4462SOL     OW14284   6.621   3.978   1.078
 4462SOL    HW114285   6.719   3.962   1.066
 4462SOL    HW214286   6.577   3.989   0.989
 4463SOL     OW14287   2.293   2.705   6.866
 4463SOL    HW114288   2.206   2.745   6.836
 4463SOL    HW214289   2.275   2.637   6.937
 4464SOL     OW14290   6.155   5.309   0.459
 4464SOL    HW114291   6.250   5.318   0.432
 4464SOL    HW214292   6.149   5.251   0.541
 4465SOL     OW14293   1.705   5.871   3.495
 4465SOL    HW114294   1.741   5.900   3.583
 4465SOL    HW214295   1.632   5.804   3.509
 4466SOL     OW14296   1.218   0.675   2.967
 4466SOL    HW114297   1.296   0.665   2.905
 4466SOL    HW214298   1.148   0.732   2.923
 4467SOL     OW14299   0.620   6.911   3.725
 4467SOL    HW114300   0.649   6.914   3.820
 4467SOL    HW214301   0.529   6.953   3.716
 4468SOL     OW14302   0.832   2.119   0.343
 4468SOL    HW114303   0.742   2.145   0.377
 4468SOL    HW214304   0.836   2.020   0.330
 4469SOL     OW14305   3.107   6.628   1.204
 4469SOL    HW114306   3.015   6.668   1.203
 4469SOL    HW214307   3.174   6.702   1.210
 4470SOL     OW14308   5.740   3.204   1.666
 4470SOL    HW114309   5.833   3.207   1.631
 4470SOL    HW214310   5.686   3.276   1.622
 4471SOL     OW14311   0.248   2.647   6.905
 4471SOL    HW114312   0.234   2.558   6.949
 4471SOL    HW214313   0.160   2.694   6.897
 4472SOL     OW14314   1.370   4.106   2.839
 4472SOL    HW114315   1.300   4.178   2.848
 4472SOL    HW214316   1.440   4.135   2.774
 4473SOL     OW14317   0.350   1.117   4.926
 4473SOL    HW114318   0.267   1.102   4.980
 4473SOL    HW214319   0.407   1.036   4.928
 4474SOL     OW14320   3.532   0.423   2.407
 4474SOL    HW114321   3.467   0.374   2.465
 4474SOL    HW214322   3.501   0.517   2.395
 4475SOL     OW14323   1.907   4.131   1.425
 4475SOL    HW114324   2.000   4.099   1.406
 4475SOL    HW214325   1.851   4.054   1.454
 4476SOL     OW14326   5.619   6.571   3.313
 4476SOL    HW114327   5.708   6.609   3.339
 4476SOL    HW214328   5.577   6.629   3.243
 4477SOL     OW14329   1.668   0.436   6.459
 4477SOL    HW114330   1.609   0.433   6.379
 4477SOL    HW214331   1.751   0.487   6.437
 4478SOL     OW14332   2.236   6.512   2.554
 4478SOL    HW114333   2.221   6.520   2.652
 4478SOL    HW214334   2.324   6.467   2.537
 4479SOL     OW14335   1.147   1.192   6.660
 4479SOL    HW114336   1.224   1.129   6.646
 4479SOL    HW214337   1.141   1.216   6.757
 4480SOL     OW14338   2.001   3.466   4.412
 4480SOL    HW114339   2.036   3.375   4.436
 4480SOL    HW214340   2.042   3.496   4.326
 4481SOL     OW14341   2.126   6.570   4.492
 4481SOL    HW114342   2.127   6.471   4.506
 4481SOL    HW214343   2.116   6.615   4.580
 4482SOL     OW14344   0.518   3.401   3.747
 4482SOL    HW114345   0.496   3.337   3.821
 4482SOL    HW214346   0.599   3.454   3.772
 4483SOL     OW14347   5.959   2.703   1.168
 4483SOL    HW114348   6.041   2.650   1.143
 4483SOL    HW214349   5.912   2.734   1.086
 4484SOL     OW14350   3.729   1.678   5.161
 4484SOL    HW114351   3.673   1.757   5.137
 4484SOL    HW214352   3.710   1.603   5.096
 4485SOL     OW14353   5.613   2.494   6.468
 4485SOL    HW114354   5.631   2.404   6.429
 4485SOL    HW214355   5.637   2.564   6.401
 4486SOL     OW14356   6.203   3.643   4.255
 4486SOL    HW114357   6.156   3.700   4.188
 4486SOL    HW214358   6.230   3.556   4.213
 4487SOL     OW14359   2.415   3.611   6.823
 4487SOL    HW114360   2.416   3.679   6.896
 4487SOL    HW214361   2.494   3.624   6.764
 4488SOL     OW14362   5.295   2.353   6.291
 4488SOL    HW114363   5.333   2.296   6.218
 4488SOL    HW214364   5.283   2.447   6.257
 4489SOL     OW14365   5.321   6.177   4.428
 4489SOL    HW114366   5.403   6.142   4.384
 4489SOL    HW214367   5.260   6.215   4.359
 4490SOL     OW14368   5.514   2.194   1.978
 4490SOL    HW114369   5.486   2.228   1.889
 4490SOL    HW214370   5.468   2.246   2.050
 4491SOL     OW14371   0.750   2.663   3.148
 4491SOL    HW114372   0.727   2.671   3.245
 4491SOL    HW214373   0.783   2.751   3.115
 4492SOL     OW14374   5.225   3.241   0.517
 4492SOL    HW114375   5.145   3.196   0.555
 4492SOL    HW214376   5.306   3.216   0.571
 4493SOL     OW14377   4.235   4.974   4.792
 4493SOL    HW114378   4.198   4.920   4.867
 4493SOL    HW214379   4.173   5.051   4.772
 4494SOL     OW14380   6.665   2.501   5.937
 4494SOL    HW114381   6.649   2.576   6.002
 4494SOL    HW214382   6.671   2.538   5.844
 4495SOL     OW14383   5.425   0.175   3.292
 4495SOL    HW114384   5.373   0.108   3.345
 4495SOL    HW214385   5.464   0.130   3.211
 4496SOL     OW14386   5.289   5.480   0.822
 4496SOL    HW114387   5.277   5.391   0.866
 4496SOL    HW214388   5.307   5.467   0.725
 4497SOL     OW14389   4.934   6.304   0.015
 4497SOL    HW114390   4.939   6.221   0.070
 4497SOL    HW214391   4.969   6.381   0.068
 4498SOL     OW14392   0.282   3.265   6.537
 4498SOL    HW114393   0.283   3.302   6.444
 4498SOL    HW214394   0.372   3.227   6.559
 4499SOL     OW14395   0.137   3.293   4.323
 4499SOL    HW114396   0.127   3.360   4.249
 4499SOL    HW214397   0.199   3.221   4.295
 4500SOL     OW14398   2.950   3.591   3.692
 4500SOL    HW114399   2.975   3.685   3.668
 4500SOL    HW214400   2.923   3.542   3.609
 4501SOL     OW14401   0.422   3.929   5.546
 4501SOL    HW114402   0.387   4.008   5.496
 4501SOL    HW214403   0.346   3.872   5.577
 4502SOL     OW14404   1.993   3.022   6.533
 4502SOL    HW114405   2.031   3.047   6.623
 4502SOL    HW214406   2.032   2.935   6.504
 4503SOL     OW14407   1.915   0.596   2.973
 4503SOL    HW114408   1.990   0.629   3.030
 4503SOL    HW214409   1.858   0.673   2.945
 4504SOL     OW14410   6.318   1.820   5.034
 4504SOL    HW114411   6.392   1.883   5.057
 4504SOL    HW214412   6.235   1.873   5.013
 4505SOL     OW14413   0.321   6.170   4.632
 4505SOL    HW114414   0.382   6.140   4.559
 4505SOL    HW214415   0.363   6.151   4.720
 4506SOL     OW14416   4.834   2.649   4.566
 4506SOL    HW114417   4.788   2.597   4.638
 4506SOL    HW214418   4.857   2.588   4.490
 4507SOL     OW14419   4.845   4.366   1.557
 4507SOL    HW114420   4.794   4.317   1.487
 4507SOL    HW214421   4.814   4.337   1.647
 4508SOL     OW14422   1.184   4.239   6.863
 4508SOL    HW114423   1.093   4.280   6.857
 4508SOL    HW214424   1.187   4.174   6.939
 4509SOL     OW14425   4.510   1.870   4.170
 4509SOL    HW114426   4.537   1.830   4.083
 4509SOL    HW214427   4.476   1.963   4.156
 4510SOL     OW14428   5.590   7.015   4.684
 4510SOL    HW114429   5.617   7.019   4.779
 4510SOL    HW214430   5.491   0.006   4.677
 4511SOL     OW14431   0.093   3.433   6.203
 4511SOL    HW114432   0.108   3.379   6.120
 4511SOL    HW214433   0.170   3.419   6.266
 4512SOL     OW14434   2.234   7.002   5.748
 4512SOL    HW114435   2.245   6.935   5.674
 4512SOL    HW214436   2.291   0.059   5.729
 4513SOL     OW14437   4.767   6.874   1.125
 4513SOL    HW114438   4.758   6.972   1.139
 4513SOL    HW214439   4.793   6.830   1.211
 4514SOL     OW14440   4.041   0.644   4.745
 4514SOL    HW114441   3.982   0.715   4.706
 4514SOL    HW214442   4.067   0.670   4.838
 4515SOL     OW14443   6.527   4.124   6.440
 4515SOL    HW114444   6.573   4.149   6.525
 4515SOL    HW214445   6.502   4.207   6.390
 4516SOL     OW14446   0.680   1.734   6.339
 4516SOL    HW114447   0.755   1.760   6.277
 4516SOL    HW214448   0.598   1.716   6.286
 4517SOL     OW14449   2.714   6.988   6.049
 4517SOL    HW114450   2.626   7.015   6.011
 4517SOL    HW214451   2.785   6.999   5.980
 4518SOL     OW14452   0.002   1.953   3.793
 4518SOL    HW114453   0.096   1.955   3.760
 4518SOL    HW214454   0.002   1.927   3.889
 4519SOL     OW14455   6.786   1.759   2.065
 4519SOL    HW114456   6.693   1.792   2.080
 4519SOL    HW214457   6.808   1.692   2.136
 4520SOL     OW14458   5.665   5.660   2.935
 4520SOL    HW114459   5.714   5.691   3.017
 4520SOL    HW214460   5.681   5.562   2.922
 4521SOL     OW14461   4.678   1.579   5.646
 4521SOL    HW114462   4.688   1.673   5.676
 4521SOL    HW214463   4.689   1.517   5.725
 4522SOL     OW14464   5.255   0.199   3.755
 4522SOL    HW114465   5.197   0.197   3.674
 4522SOL    HW214466   5.292   0.291   3.768
 4523SOL     OW14467   1.357   4.067   0.349
 4523SOL    HW114468   1.327   4.098   0.258
 4523SOL    HW214469   1.319   3.976   0.367
 4524SOL     OW14470   5.027   2.123   5.793
 4524SOL    HW114471   5.115   2.086   5.825
 4524SOL    HW214472   4.963   2.129   5.870
 4525SOL     OW14473   6.644   2.294   3.644
 4525SOL    HW114474   6.616   2.347   3.564
 4525SOL    HW214475   6.614   2.199   3.633
 4526SOL     OW14476   5.224   0.339   1.442
 4526SOL    HW114477   5.303   0.284   1.416
 4526SOL    HW214478   5.225   0.425   1.391
 4527SOL     OW14479   4.235   1.095   3.803
 4527SOL    HW114480   4.312   1.137   3.851
 4527SOL    HW214481   4.242   0.996   3.808
 4528SOL     OW14482   4.655   6.663   0.540
 4528SOL    HW114483   4.565   6.674   0.497
 4528SOL    HW214484   4.697   6.753   0.552
 4529SOL     OW14485   2.385   1.413   3.578
 4529SOL    HW114486   2.424   1.327   3.612
 4529SOL    HW214487   2.318   1.447   3.644
 4530SOL     OW14488   0.222   3.764   5.636
 4530SOL    HW114489   0.205   3.697   5.708
 4530SOL    HW214490   0.135   3.805   5.607
 4531SOL     OW14491   0.380   3.394   3.282
 4531SOL    HW114492   0.437   3.407   3.363
 4531SOL    HW214493   0.408   3.457   3.210
 4532SOL     OW14494   0.383   1.250   2.210
 4532SOL    HW114495   0.350   1.302   2.132
 4532SOL    HW214496   0.446   1.306   2.264
 4533SOL     OW14497   1.537   0.191   3.670
 4533SOL    HW114498   1.521   0.289   3.667
 4533SOL    HW214499   1.543   0.154   3.577
 4534SOL     OW14500   6.374   3.387   4.482
 4534SOL    HW114501   6.412   3.473   4.448
 4534SOL    HW214502   6.284   3.372   4.442
 4535SOL     OW14503   4.700   2.091   2.924
 4535SOL    HW114504   4.709   2.182   2.884
 4535SOL    HW214505   4.618   2.046   2.888
 4536SOL     OW14506   4.966   1.833   4.668
 4536SOL    HW114507   5.011   1.913   4.628
 4536SOL    HW214508   4.899   1.863   4.736
 4537SOL     OW14509   3.551   3.483   6.346
 4537SOL    HW114510   3.455   3.463   6.362
 4537SOL    HW214511   3.566   3.500   6.248
 4538SOL     OW14512   3.331   2.117   4.242
 4538SOL    HW114513   3.337   2.110   4.143
 4538SOL    HW214514   3.417   2.087   4.283
 4539SOL     OW14515   2.728   1.901   4.204
 4539SOL    HW114516   2.819   1.930   4.172
 4539SOL    HW214517   2.714   1.934   4.297
 4540SOL     OW14518   3.677   3.435   3.829
 4540SOL    HW114519   3.717   3.409   3.742
 4540SOL    HW214520   3.683   3.535   3.841
 4541SOL     OW14521   5.598   1.046   0.770
 4541SOL    HW114522   5.625   1.087   0.684
 4541SOL    HW214523   5.658   1.079   0.843
 4542SOL     OW14524   6.055   6.422   1.624
 4542SOL    HW114525   6.014   6.447   1.712
 4542SOL    HW214526   6.086   6.327   1.627
 4543SOL     OW14527   4.429   1.450   6.560
 4543SOL    HW114528   4.348   1.508   6.555
 4543SOL    HW214529   4.404   1.356   6.537
 4544SOL     OW14530   2.719   6.125   5.957
 4544SOL    HW114531   2.772   6.140   5.874
 4544SOL    HW214532   2.645   6.060   5.938
 4545SOL     OW14533   5.526   2.408   5.088
 4545SOL    HW114534   5.595   2.341   5.113
 4545SOL    HW214535   5.456   2.412   5.160
 4546SOL     OW14536   1.203   0.275   6.392
 4546SOL    HW114537   1.161   0.243   6.477
 4546SOL    HW214538   1.215   0.198   6.330
 4547SOL     OW14539   6.300   2.912   2.000
 4547SOL    HW114540   6.332   3.006   2.013
 4547SOL    HW214541   6.345   2.874   1.919
 4548SOL     OW14542   1.389   4.556   3.851
 4548SOL    HW114543   1.361   4.646   3.885
 4548SOL    HW214544   1.319   4.488   3.872
 4549SOL     OW14545   6.221   4.171   2.938
 4549SOL    HW114546   6.150   4.118   2.891
 4549SOL    HW214547   6.306   4.165   2.887
 4550SOL     OW14548   0.633   6.036   3.651
 4550SOL    HW114549   0.553   6.038   3.711
 4550SOL    HW214550   0.629   6.113   3.588
 4551SOL     OW14551   0.221   1.756   5.414
 4551SOL    HW114552   0.140   1.803   5.380
 4551SOL    HW214553   0.263   1.810   5.487
 4552SOL     OW14554   6.874   3.099   6.266
 4552SOL    HW114555   6.838   3.007   6.255
 4552SOL    HW214556   6.807   3.166   6.235
 4553SOL     OW14557   3.647   4.202   0.238
 4553SOL    HW114558   3.573   4.167   0.296
 4553SOL    HW214559   3.609   4.231   0.150
 4554SOL     OW14560   3.837   0.676   2.120
 4554SOL    HW114561   3.846   0.605   2.050
 4554SOL    HW214562   3.913   0.740   2.114
 4555SOL     OW14563   4.330   1.194   6.476
 4555SOL    HW114564   4.252   1.237   6.430
 4555SOL    HW214565   4.360   1.115   6.423
 4556SOL     OW14566   4.301   1.645   3.857
 4556SOL    HW114567   4.292   1.740   3.829
 4556SOL    HW214568   4.394   1.614   3.841
 4557SOL     OW14569   5.370   0.129   5.209
 4557SOL    HW114570   5.452   0.123   5.151
 4557SOL    HW214571   5.385   0.198   5.280
 4558SOL     OW14572   6.609   4.056   5.886
 4558SOL    HW114573   6.656   4.055   5.799
 4558SOL    HW214574   6.542   4.130   5.887
 4559SOL     OW14575   1.714   6.470   2.041
 4559SOL    HW114576   1.747   6.554   1.997
 4559SOL    HW214577   1.635   6.491   2.097
 4560SOL     OW14578   5.121   4.639   3.147
 4560SOL    HW114579   5.185   4.711   3.120
 4560SOL    HW214580   5.027   4.673   3.140
 4561SOL     OW14581   2.509   0.487   1.047
 4561SOL    HW114582   2.420   0.529   1.029
 4561SOL    HW214583   2.573   0.557   1.078
 4562SOL     OW14584   2.977   5.712   5.360
 4562SOL    HW114585   2.996   5.785   5.426
 4562SOL    HW214586   2.959   5.627   5.408
 4563SOL     OW14587   6.481   3.881   7.011
 4563SOL    HW114588   6.434   3.892   6.924
 4563SOL    HW214589   6.546   3.805   7.004
 4564SOL     OW14590   1.285   5.548   1.026
 4564SOL    HW114591   1.340   5.509   0.952
 4564SOL    HW214592   1.328   5.527   1.114
 4565SOL     OW14593   0.721   1.200   5.286
 4565SOL    HW114594   0.681   1.222   5.197
 4565SOL    HW214595   0.653   1.214   5.358
 4566SOL     OW14596   0.132   0.421   0.820
 4566SOL    HW114597   0.117   0.376   0.731
 4566SOL    HW214598   0.224   0.400   0.852
 4567SOL     OW14599   0.725   1.056   0.854
 4567SOL    HW114600   0.683   1.083   0.767
 4567SOL    HW214601   0.817   1.021   0.836
 4568SOL     OW14602   1.654   4.084   5.144
 4568SOL    HW114603   1.664   3.984   5.143
 4568SOL    HW214604   1.649   4.118   5.051
 4569SOL     OW14605   2.000   2.071   3.738
 4569SOL    HW114606   2.051   1.984   3.740
 4569SOL    HW214607   1.910   2.058   3.780
 4570SOL     OW14608   0.087   5.898   3.486
 4570SOL    HW114609   0.078   5.890   3.387
 4570SOL    HW214610   0.038   5.822   3.530
 4571SOL     OW14611   3.604   3.945   5.499
 4571SOL    HW114612   3.667   4.022   5.497
 4571SOL    HW214613   3.612   3.892   5.414
 4572SOL     OW14614   0.461   6.589   0.536
 4572SOL    HW114615   0.443   6.505   0.588
 4572SOL    HW214616   0.379   6.646   0.536
 4573SOL     OW14617   5.989   5.724   0.758
 4573SOL    HW114618   6.053   5.650   0.739
 4573SOL    HW214619   5.931   5.698   0.835
 4574SOL     OW14620   6.884   4.424   0.853
 4574SOL    HW114621   6.957   4.466   0.799
 4574SOL    HW214622   6.821   4.376   0.792
 4575SOL     OW14623   7.008   2.000   0.744
 4575SOL    HW114624   0.060   2.017   0.809
 4575SOL    HW214625   6.930   2.058   0.769
 4576SOL     OW14626   2.506   5.557   6.083
 4576SOL    HW114627   2.549   5.491   6.021
 4576SOL    HW214628   2.453   5.508   6.152
 4577SOL     OW14629   0.213   3.294   2.968
 4577SOL    HW114630   0.263   3.220   3.013
 4577SOL    HW214631   0.278   3.358   2.927
 4578SOL     OW14632   0.425   4.312   3.422
 4578SOL    HW114633   0.382   4.347   3.506
 4578SOL    HW214634   0.376   4.231   3.390
 4579SOL     OW14635   4.878   1.802   3.263
 4579SOL    HW114636   4.961   1.855   3.282
 4579SOL    HW214637   4.886   1.760   3.172
 4580SOL     OW14638   5.901   4.999   0.474
 4580SOL    HW114639   5.875   5.096   0.474
 4580SOL    HW214640   5.914   4.968   0.380
 4581SOL     OW14641   2.831   5.147   2.322
 4581SOL    HW114642   2.872   5.059   2.345
 4581SOL    HW214643   2.886   5.220   2.362
 4582SOL     OW14644   6.143   6.401   4.346
 4582SOL    HW114645   6.096   6.463   4.409
 4582SOL    HW214646   6.242   6.417   4.351
 4583SOL     OW14647   3.200   1.871   5.097
 4583SOL    HW114648   3.153   1.858   5.185
 4583SOL    HW214649   3.278   1.809   5.091
 4584SOL     OW14650   0.358   5.626   5.961
 4584SOL    HW114651   0.390   5.546   5.910
 4584SOL    HW214652   0.293   5.678   5.905
 4585SOL     OW14653   2.970   6.517   2.877
 4585SOL    HW114654   3.057   6.487   2.916
 4585SOL    HW214655   2.948   6.459   2.798
 4586SOL     OW14656   3.905   4.334   1.397
 4586SOL    HW114657   3.917   4.320   1.495
 4586SOL    HW214658   3.899   4.431   1.377
 4587SOL     OW14659   4.233   3.804   1.802
 4587SOL    HW114660   4.327   3.814   1.767
 4587SOL    HW214661   4.226   3.719   1.854
 4588SOL     OW14662   3.654   3.517   4.801
 4588SOL    HW114663   3.682   3.603   4.758
 4588SOL    HW214664   3.630   3.534   4.897
 4589SOL     OW14665   5.805   1.858   2.664
 4589SOL    HW114666   5.707   1.863   2.646
 4589SOL    HW214667   5.842   1.773   2.627
 4590SOL     OW14668   4.485   6.094   1.463
 4590SOL    HW114669   4.490   6.046   1.550
 4590SOL    HW214670   4.405   6.154   1.462
 4591SOL     OW14671   6.940   6.220   5.279
 4591SOL    HW114672   6.867   6.240   5.214
 4591SOL    HW214673   6.995   6.143   5.246
 4592SOL     OW14674   4.170   3.139   1.557
 4592SOL    HW114675   4.267   3.129   1.578
 4592SOL    HW214676   4.147   3.086   1.475
 4593SOL     OW14677   4.438   5.598   3.190
 4593SOL    HW114678   4.374   5.541   3.241
 4593SOL    HW214679   4.454   5.683   3.241
 4594SOL     OW14680   3.889   1.859   1.722
 4594SOL    HW114681   3.875   1.762   1.703
 4594SOL    HW214682   3.808   1.895   1.769
 4595SOL     OW14683   3.902   2.701   5.809
 4595SOL    HW114684   3.895   2.617   5.755
 4595SOL    HW214685   3.810   2.736   5.828
 4596SOL     OW14686   5.836   6.626   1.570
 4596SOL    HW114687   5.751   6.622   1.622
 4596SOL    HW214688   5.885   6.539   1.581
 4597SOL     OW14689   4.922   4.870   6.833
 4597SOL    HW114690   4.895   4.783   6.791
 4597SOL    HW214691   4.892   4.945   6.775
 4598SOL     OW14692   0.985   4.855   6.512
 4598SOL    HW114693   1.073   4.837   6.466
 4598SOL    HW214694   0.917   4.789   6.479
 4599SOL     OW14695   1.285   3.985   1.275
 4599SOL    HW114696   1.366   4.043   1.262
 4599SOL    HW214697   1.303   3.919   1.348
 4600SOL     OW14698   2.890   5.304   6.068
 4600SOL    HW114699   2.927   5.356   5.991
 4600SOL    HW214700   2.919   5.209   6.061
 4601SOL     OW14701   2.070   1.224   5.248
 4601SOL    HW114702   2.142   1.155   5.236
 4601SOL    HW214703   2.088   1.277   5.331
 4602SOL     OW14704   1.155   6.357   0.966
 4602SOL    HW114705   1.141   6.438   1.022
 4602SOL    HW214706   1.189   6.384   0.876
 4603SOL     OW14707   3.858   6.570   0.997
 4603SOL    HW114708   3.923   6.495   1.002
 4603SOL    HW214709   3.821   6.576   0.904
 4604SOL     OW14710   4.250   0.855   1.313
 4604SOL    HW114711   4.292   0.946   1.310
 4604SOL    HW214712   4.311   0.792   1.361
 4605SOL     OW14713   4.752   0.740   4.024
 4605SOL    HW114714   4.842   0.758   3.985
 4605SOL    HW214715   4.693   0.699   3.954
 4606SOL     OW14716   0.296   6.434   2.245
 4606SOL    HW114717   0.312   6.530   2.266
 4606SOL    HW214718   0.383   6.386   2.237
 4607SOL     OW14719   2.494   2.076   0.528
 4607SOL    HW114720   2.500   2.159   0.584
 4607SOL    HW214721   2.515   2.098   0.433
 4608SOL     OW14722   1.320   5.190   4.684
 4608SOL    HW114723   1.266   5.214   4.764
 4608SOL    HW214724   1.278   5.113   4.637
 4609SOL     OW14725   4.314   5.238   6.195
 4609SOL    HW114726   4.383   5.207   6.129
 4609SOL    HW214727   4.345   5.217   6.288
 4610SOL     OW14728   6.885   2.539   0.322
 4610SOL    HW114729   6.944   2.486   0.383
 4610SOL    HW214730   6.841   2.612   0.373
 4611SOL     OW14731   6.483   4.292   5.879
 4611SOL    HW114732   6.520   4.364   5.820
 4611SOL    HW214733   6.465   4.328   5.970
 4612SOL     OW14734   1.791   6.531   6.867
 4612SOL    HW114735   1.881   6.569   6.888
 4612SOL    HW214736   1.788   6.435   6.892
 4613SOL     OW14737   2.154   5.839   2.980
 4613SOL    HW114738   2.070   5.892   2.988
 4613SOL    HW214739   2.191   5.848   2.888
 4614SOL     OW14740   1.654   5.160   6.177
 4614SOL    HW114741   1.610   5.070   6.187
 4614SOL    HW214742   1.649   5.209   6.264
 4615SOL     OW14743   1.927   1.271   6.488
 4615SOL    HW114744   1.867   1.194   6.508
 4615SOL    HW214745   2.003   1.273   6.554
 4616SOL     OW14746   7.004   0.279   6.321
 4616SOL    HW114747   6.934   0.338   6.281
 4616SOL    HW214748   0.069   0.298   6.277
 4617SOL     OW14749   1.300   2.084   2.495
 4617SOL    HW114750   1.326   2.165   2.443
 4617SOL    HW214751   1.201   2.071   2.490
 4618SOL     OW14752   1.884   2.699   4.742
 4618SOL    HW114753   1.880   2.622   4.678
 4618SOL    HW214754   1.968   2.695   4.794
 4619SOL     OW14755   4.886   6.492   3.560
 4619SOL    HW114756   4.906   6.484   3.463
 4619SOL    HW214757   4.855   6.585   3.581
 4620SOL     OW14758   3.292   3.869   6.915
 4620SOL    HW114759   3.361   3.909   6.975
 4620SOL    HW214760   3.319   3.883   6.820
 4621SOL     OW14761   5.831   2.114   4.143
 4621SOL    HW114762   5.755   2.162   4.100
 4621SOL    HW214763   5.840   2.022   4.103
 4622SOL     OW14764   0.765   2.861   1.362
 4622SOL    HW114765   0.723   2.940   1.405
 4622SOL    HW214766   0.693   2.804   1.320
 4623SOL     OW14767   6.960   5.344   0.794
 4623SOL    HW114768   6.965   5.262   0.736
 4623SOL    HW214769   0.028   5.381   0.807
 4624SOL     OW14770   4.444   7.013   3.120
 4624SOL    HW114771   4.440   6.990   3.217
 4624SOL    HW214772   4.532   6.987   3.082
 4625SOL     OW14773   1.275   4.504   0.076
 4625SOL    HW114774   1.332   4.423   0.087
 4625SOL    HW214775   1.263   4.523   7.002
 4626SOL     OW14776   5.887   4.683   0.871
 4626SOL    HW114777   5.895   4.767   0.816
 4626SOL    HW214778   5.818   4.697   0.942
 4627SOL     OW14779   3.263   5.615   5.192
 4627SOL    HW114780   3.170   5.583   5.208
 4627SOL    HW214781   3.316   5.610   5.277
 4628SOL     OW14782   6.273   4.137   3.198
 4628SOL    HW114783   6.258   4.162   3.102
 4628SOL    HW214784   6.341   4.064   3.204
 4629SOL     OW14785   1.785   4.622   6.411
 4629SOL    HW114786   1.882   4.610   6.429
 4629SOL    HW214787   1.765   4.596   6.316
 4630SOL     OW14788   3.341   5.974   3.443
 4630SOL    HW114789   3.287   5.896   3.413
 4630SOL    HW214790   3.436   5.946   3.454
 4631SOL     OW14791   2.642   0.143   3.067
 4631SOL    HW114792   2.560   0.120   3.120
 4631SOL    HW214793   2.660   0.241   3.075
 4632SOL     OW14794   4.232   5.139   3.016
 4632SOL    HW114795   4.213   5.113   3.110
 4632SOL    HW214796   4.183   5.224   2.995
 4633SOL     OW14797   6.453   2.067   4.384
 4633SOL    HW114798   6.469   2.121   4.302
 4633SOL    HW214799   6.438   1.971   4.359
 4634SOL     OW14800   2.504   4.192   6.279
 4634SOL    HW114801   2.523   4.165   6.373
 4634SOL    HW214802   2.588   4.224   6.235
 4635SOL     OW14803   6.207   3.725   2.286
 4635SOL    HW114804   6.232   3.638   2.242
 4635SOL    HW214805   6.284   3.758   2.340
 4636SOL     OW14806   2.586   4.800   6.827
 4636SOL    HW114807   2.525   4.729   6.861
 4636SOL    HW214808   2.535   4.885   6.814
 4637SOL     OW14809   1.666   0.883   7.009
 4637SOL    HW114810   1.726   0.842   6.940
 4637SOL    HW214811   1.577   0.838   7.006
 4638SOL     OW14812   3.878   2.721   6.355
 4638SOL    HW114813   3.925   2.645   6.312
 4638SOL    HW214814   3.825   2.688   6.433
 4639SOL     OW14815   1.633   4.867   5.226
 4639SOL    HW114816   1.682   4.805   5.164
 4639SOL    HW214817   1.537   4.873   5.200
 4640SOL     OW14818   4.662   5.539   3.416
 4640SOL    HW114819   4.745   5.570   3.370
 4640SOL    HW214820   4.601   5.496   3.350
 4641SOL     OW14821   2.835   5.265   3.852
 4641SOL    HW114822   2.833   5.191   3.920
 4641SOL    HW214823   2.752   5.261   3.797
 4642SOL     OW14824   6.935   6.502   5.464
 4642SOL    HW114825   6.850   6.543   5.498
 4642SOL    HW214826   6.948   6.413   5.507
 4643SOL     OW14827   4.787   2.655   0.739
 4643SOL    HW114828   4.737   2.722   0.794
 4643SOL    HW214829   4.721   2.595   0.694
 4644SOL     OW14830   1.321   5.030   5.196
 4644SOL    HW114831   1.296   5.035   5.099
 4644SOL    HW214832   1.355   4.938   5.217
 4645SOL     OW14833   1.811   0.075   4.795
 4645SOL    HW114834   1.714   0.065   4.773
 4645SOL    HW214835   1.848   0.154   4.746
 4646SOL     OW14836   2.423   6.353   2.447
 4646SOL    HW114837   2.435   6.257   2.472
 4646SOL    HW214838   2.512   6.391   2.421
 4647SOL     OW14839   0.557   6.510   3.258
 4647SOL    HW114840   0.477   6.570   3.249
 4647SOL    HW214841   0.588   6.510   3.353
 4648SOL     OW14842   4.012   0.144   1.094
 4648SOL    HW114843   4.092   0.116   1.146
 4648SOL    HW214844   3.929   0.113   1.141
 4649SOL     OW14845   5.065   0.067   5.810
 4649SOL    HW114846   5.162   0.075   5.833
 4649SOL    HW214847   5.049   7.004   5.761
 4650SOL     OW14848   3.642   6.161   3.025
 4650SOL    HW114849   3.587   6.097   2.972
 4650SOL    HW214850   3.623   6.149   3.123
 4651SOL     OW14851   0.115   1.873   1.585
 4651SOL    HW114852   0.108   1.870   1.485
 4651SOL    HW214853   0.143   1.964   1.614
 4652SOL     OW14854   0.836   0.123   3.407
 4652SOL    HW114855   0.866   0.032   3.435
 4652SOL    HW214856   0.880   0.192   3.466
 4653SOL     OW14857   6.835   5.428   0.137
 4653SOL    HW114858   6.826   5.391   0.045
 4653SOL    HW214859   6.747   5.464   0.167
 4654SOL     OW14860   0.869   0.191   6.993
 4654SOL    HW114861   0.890   0.095   7.011
 4654SOL    HW214862   0.888   0.212   6.897
 4655SOL     OW14863   6.764   4.577   2.065
 4655SOL    HW114864   6.791   4.550   2.158
 4655SOL    HW214865   6.692   4.645   2.069
 4656SOL     OW14866   0.807   0.287   3.101
 4656SOL    HW114867   0.859   0.284   3.015
 4656SOL    HW214868   0.715   0.252   3.086
 4657SOL     OW14869   5.433   0.026   1.881
 4657SOL    HW114870   5.488   0.101   1.917
 4657SOL    HW214871   5.436   6.973   1.946
 4658SOL     OW14872   3.512   0.521   2.693
 4658SOL    HW114873   3.547   0.543   2.784
 4658SOL    HW214874   3.491   0.423   2.688
 4659SOL     OW14875   2.238   3.697   5.442
 4659SOL    HW114876   2.203   3.783   5.406
 4659SOL    HW214877   2.218   3.622   5.379
 4660SOL     OW14878   1.279   2.757   4.786
 4660SOL    HW114879   1.332   2.832   4.746
 4660SOL    HW214880   1.319   2.669   4.760
 4661SOL     OW14881   4.167   3.849   5.190
 4661SOL    HW114882   4.221   3.768   5.213
 4661SOL    HW214883   4.109   3.830   5.111
 4662SOL     OW14884   4.846   0.332   5.267
 4662SOL    HW114885   4.884   0.302   5.179
 4662SOL    HW214886   4.917   0.332   5.336
 4663SOL     OW14887   6.924   1.323   2.646
 4663SOL    HW114888   6.991   1.390   2.679
 4663SOL    HW214889   6.832   1.350   2.675
 4664SOL     OW14890   2.188   2.262   6.497
 4664SOL    HW114891   2.285   2.256   6.474
 4664SOL    HW214892   2.163   2.358   6.512
 4665SOL     OW14893   4.719   0.021   6.966
 4665SOL    HW114894   4.796   6.995   7.006
 4665SOL    HW214895   4.633   7.001   6.993
 4666SOL     OW14896   2.138   1.383   6.940
 4666SOL    HW114897   2.041   1.403   6.951
 4666SOL    HW214898   2.191   1.441   7.003
 4667SOL     OW14899   6.592   5.108   0.056
 4667SOL    HW114900   6.517   5.084   7.018
 4667SOL    HW214901   6.568   5.191   0.107
 4668SOL     OW14902   7.021   1.819   4.042
 4668SOL    HW114903   6.932   1.842   4.081
 4668SOL    HW214904   0.051   1.767   4.109
 4669SOL     OW14905   3.679   6.597   0.748
 4669SOL    HW114906   3.593   6.546   0.745
 4669SOL    HW214907   3.661   6.694   0.733
 4670SOL     OW14908   3.253   1.313   5.009
 4670SOL    HW114909   3.201   1.388   4.968
 4670SOL    HW214910   3.325   1.283   4.946
 4671SOL     OW14911   6.147   3.095   1.590
 4671SOL    HW114912   6.228   3.057   1.635
 4671SOL    HW214913   6.117   3.177   1.639
 4672SOL     OW14914   2.954   4.674   6.004
 4672SOL    HW114915   2.923   4.761   5.966
 4672SOL    HW214916   2.904   4.654   6.089
 4673SOL     OW14917   3.642   0.354   1.155
 4673SOL    HW114918   3.729   0.399   1.135
 4673SOL    HW214919   3.577   0.420   1.192
 4674SOL     OW14920   5.406   5.999   6.566
 4674SOL    HW114921   5.371   6.002   6.473
 4674SOL    HW214922   5.364   5.923   6.615
 4675SOL     OW14923   0.409   3.649   0.503
 4675SOL    HW114924   0.419   3.564   0.452
 4675SOL    HW214925   0.455   3.723   0.453
 4676SOL     OW14926   0.750   5.713   3.962
 4676SOL    HW114927   0.762   5.771   3.881
 4676SOL    HW214928   0.653   5.692   3.973
 4677SOL     OW14929   1.896   2.261   0.931
 4677SOL    HW114930   1.971   2.256   0.866
 4677SOL    HW214931   1.914   2.333   0.998
 4678SOL     OW14932   2.702   4.727   3.043
 4678SOL    HW114933   2.644   4.802   3.076
 4678SOL    HW214934   2.686   4.712   2.946
 4679SOL     OW14935   4.392   6.980   2.248
 4679SOL    HW114936   4.297   6.971   2.220
 4679SOL    HW214937   4.444   6.900   2.218
 4680SOL     OW14938   4.137   1.820   0.915
 4680SOL    HW114939   4.064   1.752   0.904
 4680SOL    HW214940   4.226   1.774   0.915
 4681SOL     OW14941   4.566   5.081   6.910
 4681SOL    HW114942   4.665   5.095   6.911
 4681SOL    HW214943   4.521   5.155   6.959
 4682SOL     OW14944   5.868   3.519   6.173
 4682SOL    HW114945   5.789   3.459   6.186
 4682SOL    HW214946   5.909   3.540   6.262
 4683SOL     OW14947   5.970   5.441   2.635
 4683SOL    HW114948   5.974   5.364   2.698
 4683SOL    HW214949   5.971   5.408   2.541
 4684SOL     OW14950   4.620   6.265   5.963
 4684SOL    HW114951   4.535   6.305   5.997
 4684SOL    HW214952   4.658   6.205   6.033
 4685SOL     OW14953   1.518   4.406   6.182
 4685SOL    HW114954   1.584   4.331   6.181
 4685SOL    HW214955   1.449   4.389   6.252
 4686SOL     OW14956   3.952   5.204   0.585
 4686SOL    HW114957   3.907   5.291   0.604
 4686SOL    HW214958   4.025   5.189   0.652
 4687SOL     OW14959   4.599   2.290   4.335
 4687SOL    HW114960   4.564   2.211   4.386
 4687SOL    HW214961   4.535   2.366   4.344
 4688SOL     OW14962   5.842   2.525   5.477
 4688SOL    HW114963   5.840   2.428   5.500
 4688SOL    HW214964   5.749   2.562   5.481
 4689SOL     OW14965   5.679   0.717   1.330
 4689SOL    HW114966   5.727   0.803   1.310
 4689SOL    HW214967   5.735   0.640   1.301
 4690SOL     OW14968   1.598   1.385   0.650
 4690SOL    HW114969   1.531   1.342   0.710
 4690SOL    HW214970   1.675   1.419   0.705
 4691SOL     OW14971   4.455   3.744   0.091
 4691SOL    HW114972   4.530   3.807   0.073
 4691SOL    HW214973   4.399   3.778   0.166
 4692SOL     OW14974   5.981   5.023   3.181
 4692SOL    HW114975   6.076   4.993   3.166
 4692SOL    HW214976   5.924   4.943   3.199
 4693SOL     OW14977   1.352   0.962   4.076
 4693SOL    HW114978   1.313   1.042   4.030
 4693SOL    HW214979   1.327   0.879   4.027
 4694SOL     OW14980   2.234   2.305   0.433
 4694SOL    HW114981   2.273   2.237   0.371
 4694SOL    HW214982   2.256   2.397   0.402
 4695SOL     OW14983   1.683   5.988   0.753
 4695SOL    HW114984   1.760   5.930   0.779
 4695SOL    HW214985   1.700   6.082   0.784
 4696SOL     OW14986   0.494   5.505   6.876
 4696SOL    HW114987   0.423   5.497   6.947
 4696SOL    HW214988   0.578   5.540   6.917
 4697SOL     OW14989   0.959   3.639   1.842
 4697SOL    HW114990   0.969   3.685   1.754
 4697SOL    HW214991   0.931   3.544   1.826
 4698SOL     OW14992   3.842   0.002   3.275
 4698SOL    HW114993   3.832   6.947   3.336
 4698SOL    HW214994   3.773   0.071   3.298
 4699SOL     OW14995   0.409   6.676   2.930
 4699SOL    HW114996   0.315   6.677   2.961
 4699SOL    HW214997   0.414   6.714   2.837
 4700SOL     OW14998   6.541   1.584   2.317
 4700SOL    HW114999   6.495   1.506   2.360
 4700SOL    HW215000   6.616   1.552   2.259
 4701SOL     OW15001   3.433   1.899   1.109
 4701SOL    HW115002   3.340   1.913   1.143
 4701SOL    HW215003   3.474   1.987   1.086
 4702SOL     OW15004   4.584   5.068   0.234
 4702SOL    HW115005   4.586   5.116   0.146
 4702SOL    HW215006   4.640   4.986   0.227
 4703SOL     OW15007   0.896   5.608   2.650
 4703SOL    HW115008   0.980   5.599   2.596
 4703SOL    HW215009   0.872   5.519   2.689
 4704SOL     OW15010   0.456   5.830   6.194
 4704SOL    HW115011   0.442   5.736   6.163
 4704SOL    HW215012   0.503   5.882   6.122
 4705SOL     OW15013   3.322   2.429   0.520
 4705SOL    HW115014   3.277   2.478   0.444
 4705SOL    HW215015   3.345   2.495   0.592
 4706SOL     OW15016   1.355   0.353   0.578
 4706SOL    HW115017   1.261   0.362   0.611
 4706SOL    HW215018   1.396   0.444   0.570
 4707SOL     OW15019   1.231   6.019   1.749
 4707SOL    HW115020   1.173   5.973   1.682
 4707SOL    HW215021   1.247   6.113   1.721
 4708SOL     OW15022   0.639   2.390   5.928
 4708SOL    HW115023   0.589   2.304   5.925
 4708SOL    HW215024   0.688   2.404   5.842
 4709SOL     OW15025   4.522   5.008   4.392
 4709SOL    HW115026   4.599   4.944   4.404
 4709SOL    HW215027   4.442   4.973   4.442
 4710SOL     OW15028   5.720   6.824   5.632
 4710SOL    HW115029   5.811   6.785   5.626
 4710SOL    HW215030   5.656   6.769   5.578
 4711SOL     OW15031   6.919   1.986   2.628
 4711SOL    HW115032   6.982   2.002   2.552
 4711SOL    HW215033   6.846   1.926   2.598
 4712SOL     OW15034   4.084   4.839   6.548
 4712SOL    HW115035   4.008   4.882   6.498
 4712SOL    HW215036   4.048   4.779   6.619
 4713SOL     OW15037   5.134   5.591   0.999
 4713SOL    HW115038   5.048   5.541   0.987
 4713SOL    HW215039   5.204   5.550   0.941
 4714SOL     OW15040   0.178   1.561   6.687
 4714SOL    HW115041   0.156   1.639   6.745
 4714SOL    HW215042   0.098   1.500   6.681
 4715SOL     OW15043   5.687   2.203   1.203
 4715SOL    HW115044   5.664   2.115   1.244
 4715SOL    HW215045   5.766   2.242   1.251
 4716SOL     OW15046   4.979   5.953   5.897
 4716SOL    HW115047   5.005   5.885   5.829
 4716SOL    HW215048   4.912   6.016   5.857
 4717SOL     OW15049   2.263   5.145   5.290
 4717SOL    HW115050   2.240   5.048   5.280
 4717SOL    HW215051   2.269   5.168   5.387
 4718SOL     OW15052   4.839   2.873   1.149
 4718SOL    HW115053   4.904   2.834   1.084
 4718SOL    HW215054   4.768   2.923   1.100
 4719SOL     OW15055   4.878   4.025   2.771
 4719SOL    HW115056   4.954   4.086   2.795
 4719SOL    HW215057   4.792   4.066   2.802
 4720SOL     OW15058   2.037   4.453   6.147
 4720SOL    HW115059   1.962   4.517   6.134
 4720SOL    HW215060   2.120   4.489   6.104
 4721SOL     OW15061   5.699   2.344   1.666
 4721SOL    HW115062   5.733   2.393   1.746
 4721SOL    HW215063   5.659   2.409   1.601
 4722SOL     OW15064   0.561   6.111   0.064
 4722SOL    HW115065   0.549   6.040   7.018
 4722SOL    HW215066   0.657   6.138   0.068
 4723SOL     OW15067   3.665   4.339   5.622
 4723SOL    HW115068   3.735   4.278   5.584
 4723SOL    HW215069   3.595   4.356   5.552
 4724SOL     OW15070   0.197   0.181   3.988
 4724SOL    HW115071   0.201   0.214   3.894
 4724SOL    HW215072   0.242   0.247   4.048
 4725SOL     OW15073   5.567   5.044   0.317
 4725SOL    HW115074   5.604   4.958   0.282
 4725SOL    HW215075   5.618   5.120   0.276
 4726SOL     OW15076   1.133   3.362   5.826
 4726SOL    HW115077   1.098   3.294   5.762
 4726SOL    HW215078   1.190   3.428   5.777
 4727SOL     OW15079   0.130   6.008   1.095
 4727SOL    HW115080   0.039   6.017   1.056
 4727SOL    HW215081   0.172   6.098   1.104
 4728SOL     OW15082   6.624   1.655   2.705
 4728SOL    HW115083   6.547   1.686   2.649
 4728SOL    HW215084   6.614   1.691   2.797
 4729SOL     OW15085   5.126   0.385   0.727
 4729SOL    HW115086   5.139   0.294   0.766
 4729SOL    HW215087   5.029   0.409   0.730
 4730SOL     OW15088   4.216   5.870   5.443
 4730SOL    HW115089   4.243   5.798   5.379
 4730SOL    HW215090   4.138   5.839   5.497
 4731SOL     OW15091   3.234   0.895   0.665
 4731SOL    HW115092   3.136   0.879   0.650
 4731SOL    HW215093   3.253   0.993   0.661
 4732SOL     OW15094   0.265   3.633   5.328
 4732SOL    HW115095   0.239   3.657   5.422
 4732SOL    HW215096   0.342   3.689   5.300
 4733SOL     OW15097   1.527   4.168   2.600
 4733SOL    HW115098   1.471   4.096   2.558
 4733SOL    HW215099   1.491   4.257   2.572
 4734SOL     OW15100   5.405   3.328   0.082
 4734SOL    HW115101   5.432   3.324   7.010
 4734SOL    HW215102   5.306   3.333   0.089
 4735SOL     OW15103   6.727   5.300   4.369
 4735SOL    HW115104   6.747   5.356   4.450
 4735SOL    HW215105   6.632   5.270   4.373
 4736SOL     OW15106   5.640   1.951   4.371
 4736SOL    HW115107   5.587   1.959   4.287
 4736SOL    HW215108   5.671   2.042   4.399
 4737SOL     OW15109   2.559   4.270   0.859
 4737SOL    HW115110   2.570   4.226   0.949
 4737SOL    HW215111   2.650   4.291   0.821
 4738SOL     OW15112   3.102   6.712   3.853
 4738SOL    HW115113   3.082   6.712   3.951
 4738SOL    HW215114   3.030   6.664   3.805
 4739SOL     OW15115   5.469   1.955   4.106
 4739SOL    HW115116   5.395   2.022   4.099
 4739SOL    HW215117   5.532   1.966   4.030
 4740SOL     OW15118   0.722   0.460   0.681
 4740SOL    HW115119   0.677   0.377   0.714
 4740SOL    HW215120   0.670   0.498   0.605
 4741SOL     OW15121   4.920   4.385   0.799
 4741SOL    HW115122   4.911   4.287   0.814
 4741SOL    HW215123   5.010   4.415   0.830
 4742SOL     OW15124   3.167   5.634   1.510
 4742SOL    HW115125   3.124   5.556   1.556
 4742SOL    HW215126   3.266   5.623   1.512
 4743SOL     OW15127   1.467   1.723   5.900
 4743SOL    HW115128   1.507   1.722   5.992
 4743SOL    HW215129   1.492   1.808   5.853
 4744SOL     OW15130   2.467   3.323   5.540
 4744SOL    HW115131   2.427   3.268   5.466
 4744SOL    HW215132   2.399   3.390   5.571
 4745SOL     OW15133   2.587   5.047   5.274
 4745SOL    HW115134   2.673   5.069   5.229
 4745SOL    HW215135   2.511   5.087   5.223
 4746SOL     OW15136   6.095   6.523   1.361
 4746SOL    HW115137   6.102   6.504   1.459
 4746SOL    HW215138   6.127   6.616   1.342
 4747SOL     OW15139   1.478   3.521   5.902
 4747SOL    HW115140   1.397   3.536   5.958
 4747SOL    HW215141   1.520   3.434   5.928
 4748SOL     OW15142   1.627   6.350   1.194
 4748SOL    HW115143   1.580   6.288   1.130
 4748SOL    HW215144   1.613   6.317   1.287
 4749SOL     OW15145   2.988   6.511   5.790
 4749SOL    HW115146   3.009   6.563   5.707
 4749SOL    HW215147   2.927   6.565   5.849
 4750SOL     OW15148   0.183   1.727   3.807
 4750SOL    HW115149   0.113   1.768   3.866
 4750SOL    HW215150   0.270   1.772   3.823
 4751SOL     OW15151   2.023   3.485   0.034
 4751SOL    HW115152   2.121   3.497   0.023
 4751SOL    HW215153   1.990   3.418   6.990
 4752SOL     OW15154   2.929   0.067   0.742
 4752SOL    HW115155   2.927   0.059   0.643
 4752SOL    HW215156   2.918   7.000   0.784
 4753SOL     OW15157   5.403   0.194   4.144
 4753SOL    HW115158   5.455   0.228   4.065
 4753SOL    HW215159   5.467   0.164   4.215
 4754SOL     OW15160   5.871   0.304   5.474
 4754SOL    HW115161   5.903   0.396   5.452
 4754SOL    HW215162   5.949   0.244   5.491
 4755SOL     OW15163   2.347   0.783   0.048
 4755SOL    HW115164   2.343   0.872   0.094
 4755SOL    HW215165   2.437   0.742   0.062
 4756SOL     OW15166   5.931   1.762   1.716
 4756SOL    HW115167   5.927   1.787   1.619
 4756SOL    HW215168   5.842   1.782   1.759
 4757SOL     OW15169   1.754   2.094   2.364
 4757SOL    HW115170   1.713   2.097   2.273
 4757SOL    HW215171   1.689   2.055   2.429
 4758SOL     OW15172   3.620   5.776   5.019
 4758SOL    HW115173   3.716   5.751   5.025
 4758SOL    HW215174   3.566   5.697   4.991
 4759SOL     OW15175   5.531   5.365   4.948
 4759SOL    HW115176   5.613   5.369   4.892
 4759SOL    HW215177   5.556   5.347   5.043
 4760SOL     OW15178   3.465   2.286   1.020
 4760SOL    HW115179   3.383   2.286   1.078
 4760SOL    HW215180   3.444   2.332   0.933
 4761SOL     OW15181   6.793   1.015   0.230
 4761SOL    HW115182   6.815   1.105   0.269
 4761SOL    HW215183   6.701   1.018   0.190
 4762SOL     OW15184   2.951   5.113   3.030
 4762SOL    HW115185   2.978   5.209   3.020
 4762SOL    HW215186   3.024   5.055   2.996
 4763SOL     OW15187   5.913   6.220   3.272
 4763SOL    HW115188   5.908   6.302   3.330
 4763SOL    HW215189   5.827   6.170   3.277
 4764SOL     OW15190   5.082   3.714   5.389
 4764SOL    HW115191   5.061   3.755   5.300
 4764SOL    HW215192   5.078   3.615   5.382
 4765SOL     OW15193   5.188   6.503   4.340
 4765SOL    HW115194   5.242   6.504   4.425
 4765SOL    HW215195   5.240   6.547   4.267
 4766SOL     OW15196   4.269   0.648   3.627
 4766SOL    HW115197   4.232   0.674   3.538
 4766SOL    HW215198   4.252   0.551   3.644
 4767SOL     OW15199   4.317   5.827   6.833
 4767SOL    HW115200   4.286   5.845   6.740
 4767SOL    HW215201   4.307   5.730   6.854
 4768SOL     OW15202   5.448   1.770   5.353
 4768SOL    HW115203   5.439   1.870   5.348
 4768SOL    HW215204   5.377   1.728   5.296
 4769SOL     OW15205   4.282   5.137   1.302
 4769SOL    HW115206   4.218   5.187   1.361
 4769SOL    HW215207   4.234   5.061   1.258
 4770SOL     OW15208   2.090   0.193   3.804
 4770SOL    HW115209   2.099   0.262   3.876
 4770SOL    HW215210   2.125   0.106   3.837
 4771SOL     OW15211   3.671   5.275   6.167
 4771SOL    HW115212   3.576   5.282   6.198
 4771SOL    HW215213   3.681   5.194   6.109
 4772SOL     OW15214   1.919   5.704   2.346
 4772SOL    HW115215   1.979   5.642   2.397
 4772SOL    HW215216   1.927   5.796   2.383
 4773SOL     OW15217   6.812   5.219   4.758
 4773SOL    HW115218   6.814   5.175   4.848
 4773SOL    HW215219   6.776   5.155   4.690
 4774SOL     OW15220   1.115   2.468   2.170
 4774SOL    HW115221   1.146   2.562   2.154
 4774SOL    HW215222   1.103   2.454   2.269
 4775SOL     OW15223   5.761   0.389   3.128
 4775SOL    HW115224   5.735   0.326   3.201
 4775SOL    HW215225   5.843   0.439   3.155
 4776SOL     OW15226   2.261   6.675   4.256
 4776SOL    HW115227   2.201   6.690   4.335
 4776SOL    HW215228   2.222   6.720   4.175
 4777SOL     OW15229   2.921   4.935   1.294
 4777SOL    HW115230   2.992   4.865   1.290
 4777SOL    HW215231   2.848   4.905   1.355
 4778SOL     OW15232   5.254   2.580   2.046
 4778SOL    HW115233   5.258   2.499   2.105
 4778SOL    HW215234   5.179   2.640   2.076
 4779SOL     OW15235   6.602   6.918   2.521
 4779SOL    HW115236   6.543   6.988   2.482
 4779SOL    HW215237   6.610   6.841   2.457
 4780SOL     OW15238   0.461   7.014   6.912
 4780SOL    HW115239   0.530   7.008   6.840
 4780SOL    HW215240   0.414   6.926   6.921
 4781SOL     OW15241   2.943   5.955   1.106
 4781SOL    HW115242   2.956   5.898   1.025
 4781SOL    HW215243   2.896   6.039   1.080
 4782SOL     OW15244   4.625   6.969   0.312
 4782SOL    HW115245   4.557   6.961   0.238
 4782SOL    HW215246   4.579   6.994   0.397
 4783SOL     OW15247   4.859   4.182   0.063
 4783SOL    HW115248   4.916   4.217   0.136
 4783SOL    HW215249   4.912   4.177   7.001
 4784SOL     OW15250   6.636   4.102   0.081
 4784SOL    HW115251   6.614   4.187   0.034
 4784SOL    HW215252   6.590   4.026   0.035
 4785SOL     OW15253   7.016   5.791   1.647
 4785SOL    HW115254   6.978   5.878   1.615
 4785SOL    HW215255   0.067   5.763   1.586
 4786SOL     OW15256   2.067   2.200   1.757
 4786SOL    HW115257   2.030   2.184   1.849
 4786SOL    HW215258   2.108   2.291   1.753
 4787SOL     OW15259   3.298   2.016   3.421
 4787SOL    HW115260   3.377   2.075   3.408
 4787SOL    HW215261   3.244   2.014   3.337
 4788SOL     OW15262   1.478   5.788   5.963
 4788SOL    HW115263   1.576   5.805   5.962
 4788SOL    HW215264   1.462   5.689   5.964
 4789SOL     OW15265   5.259   1.023   0.505
 4789SOL    HW115266   5.192   1.096   0.496
 4789SOL    HW215267   5.349   1.063   0.524
 4790SOL     OW15268   6.523   3.412   6.413
 4790SOL    HW115269   6.534   3.382   6.507
 4790SOL    HW215270   6.610   3.446   6.378
 4791SOL     OW15271   5.841   2.097   2.169
 4791SOL    HW115272   5.838   2.058   2.260
 4791SOL    HW215273   5.851   2.197   2.176
 4792SOL     OW15274   1.382   3.384   2.301
 4792SOL    HW115275   1.377   3.284   2.307
 4792SOL    HW215276   1.442   3.410   2.226
 4793SOL     OW15277   0.909   2.853   5.639
 4793SOL    HW115278   0.822   2.802   5.641
 4793SOL    HW215279   0.970   2.812   5.571
 4794SOL     OW15280   3.650   0.884   3.553
 4794SOL    HW115281   3.677   0.951   3.622
 4794SOL    HW215282   3.722   0.815   3.543
 4795SOL     OW15283   6.401   2.107   3.312
 4795SOL    HW115284   6.347   2.073   3.235
 4795SOL    HW215285   6.370   2.062   3.396
 4796SOL     OW15286   4.736   2.148   6.494
 4796SOL    HW115287   4.822   2.108   6.527
 4796SOL    HW215288   4.750   2.246   6.476
 4797SOL     OW15289   1.480   6.109   5.070
 4797SOL    HW115290   1.507   6.194   5.115
 4797SOL    HW215291   1.507   6.031   5.127
 4798SOL     OW15292   0.087   3.407   5.295
 4798SOL    HW115293   0.155   3.480   5.305
 4798SOL    HW215294   0.128   3.330   5.245
 4799SOL     OW15295   4.963   2.012   6.553
 4799SOL    HW115296   5.048   2.008   6.604
 4799SOL    HW215297   4.983   2.019   6.455
 4800SOL     OW15298   3.317   3.262   5.890
 4800SOL    HW115299   3.371   3.228   5.813
 4800SOL    HW215300   3.372   3.263   5.973
 4801SOL     OW15301   2.518   2.397   6.999
 4801SOL    HW115302   2.483   2.357   6.915
 4801SOL    HW215303   2.617   2.382   7.004
 4802SOL     OW15304   1.232   6.789   2.646
 4802SOL    HW115305   1.241   6.700   2.689
 4802SOL    HW215306   1.165   6.784   2.573
 4803SOL     OW15307   1.458   6.607   0.252
 4803SOL    HW115308   1.479   6.509   0.239
 4803SOL    HW215309   1.415   6.643   0.170
 4804SOL     OW15310   4.694   5.127   6.415
 4804SOL    HW115311   4.610   5.152   6.463
 4804SOL    HW215312   4.719   5.200   6.351
 4805SOL     OW15313   6.947   6.905   1.611
 4805SOL    HW115314   6.901   6.870   1.693
 4805SOL    HW215315   6.927   6.845   1.534
 4806SOL     OW15316   6.893   4.036   3.307
 4806SOL    HW115317   6.936   3.946   3.307
 4806SOL    HW215318   6.870   4.062   3.401
 4807SOL     OW15319   1.197   5.221   0.802
 4807SOL    HW115320   1.143   5.163   0.863
 4807SOL    HW215321   1.238   5.296   0.855
 4808SOL     OW15322   6.363   4.163   6.801
 4808SOL    HW115323   6.317   4.074   6.799
 4808SOL    HW215324   6.308   4.230   6.751
 4809SOL     OW15325   3.706   3.828   6.699
 4809SOL    HW115326   3.747   3.801   6.786
 4809SOL    HW215327   3.705   3.751   6.636
 4810SOL     OW15328   1.099   4.467   2.421
 4810SOL    HW115329   1.093   4.534   2.347
 4810SOL    HW215330   1.051   4.384   2.394
 4811SOL     OW15331   2.152   4.840   2.290
 4811SOL    HW115332   2.195   4.865   2.203
 4811SOL    HW215333   2.204   4.880   2.366
 4812SOL     OW15334   0.019   5.359   5.552
 4812SOL    HW115335   6.943   5.369   5.546
 4812SOL    HW215336   0.044   5.263   5.541
 4813SOL     OW15337   5.359   1.588   1.916
 4813SOL    HW115338   5.356   1.618   1.820
 4813SOL    HW215339   5.389   1.493   1.920
 4814SOL     OW15340   6.156   4.421   0.236
 4814SOL    HW115341   6.169   4.450   0.141
 4814SOL    HW215342   6.179   4.324   0.244
 4815SOL     OW15343   5.291   4.539   2.491
 4815SOL    HW115344   5.284   4.634   2.459
 4815SOL    HW215345   5.211   4.488   2.458
 4816SOL     OW15346   6.176   5.066   2.626
 4816SOL    HW115347   6.239   4.989   2.638
 4816SOL    HW215348   6.128   5.056   2.538
 4817SOL     OW15349   0.510   2.395   6.410
 4817SOL    HW115350   0.575   2.335   6.456
 4817SOL    HW215351   0.458   2.342   6.343
 4818SOL     OW15352   0.393   0.085   4.487
 4818SOL    HW115353   0.312   0.108   4.435
 4818SOL    HW215354   0.475   0.116   4.438
 4819SOL     OW15355   1.507   2.978   0.775
 4819SOL    HW115356   1.496   3.050   0.844
 4819SOL    HW215357   1.445   2.995   0.698
 4820SOL     OW15358   6.987   2.927   1.514
 4820SOL    HW115359   6.987   2.985   1.595
 4820SOL    HW215360   6.932   2.969   1.442
 4821SOL     OW15361   0.511   5.980   2.931
 4821SOL    HW115362   0.537   6.075   2.911
 4821SOL    HW215363   0.590   5.930   2.964
 4822SOL     OW15364   1.334   3.319   4.206
 4822SOL    HW115365   1.247   3.288   4.245
 4822SOL    HW215366   1.353   3.269   4.122
 4823SOL     OW15367   1.617   2.117   3.097
 4823SOL    HW115368   1.652   2.054   3.165
 4823SOL    HW215369   1.517   2.125   3.107
 4824SOL     OW15370   5.529   2.248   5.459
 4824SOL    HW115371   5.430   2.249   5.472
 4824SOL    HW215372   5.555   2.170   5.402
 4825SOL     OW15373   1.381   2.074   4.374
 4825SOL    HW115374   1.391   1.991   4.319
 4825SOL    HW215375   1.285   2.098   4.381
 4826SOL     OW15376   5.839   0.353   0.676
 4826SOL    HW115377   5.879   0.307   0.598
 4826SOL    HW215378   5.832   0.451   0.657
 4827SOL     OW15379   5.952   2.206   0.476
 4827SOL    HW115380   5.947   2.261   0.559
 4827SOL    HW215381   6.028   2.239   0.419
 4828SOL     OW15382   4.907   0.628   1.597
 4828SOL    HW115383   4.997   0.657   1.630
 4828SOL    HW215384   4.909   0.531   1.573
 4829SOL     OW15385   4.212   0.006   6.531
 4829SOL    HW115386   4.194   6.984   6.443
 4829SOL    HW215387   4.276   0.081   6.517
 4830SOL     OW15388   3.592   5.695   4.279
 4830SOL    HW115389   3.676   5.745   4.260
 4830SOL    HW215390   3.585   5.677   4.377
 4831SOL     OW15391   2.580   5.410   5.187
 4831SOL    HW115392   2.617   5.459   5.109
 4831SOL    HW215393   2.490   5.373   5.165
 4832SOL     OW15394   2.943   3.365   4.400
 4832SOL    HW115395   2.943   3.397   4.306
 4832SOL    HW215396   2.955   3.443   4.462
 4833SOL     OW15397   5.729   2.126   2.813
 4833SOL    HW115398   5.648   2.082   2.774
 4833SOL    HW215399   5.731   2.111   2.912
 4834SOL     OW15400   2.121   6.017   2.247
 4834SOL    HW115401   2.037   6.032   2.196
 4834SOL    HW215402   2.176   6.100   2.247
 4835SOL     OW15403   5.971   2.901   5.960
 4835SOL    HW115404   6.053   2.845   5.948
 4835SOL    HW215405   5.932   2.881   6.050
 4836SOL     OW15406   5.469   1.292   5.079
 4836SOL    HW115407   5.457   1.270   4.982
 4836SOL    HW215408   5.540   1.233   5.118
 4837SOL     OW15409   6.514   3.602   3.022
 4837SOL    HW115410   6.439   3.638   2.966
 4837SOL    HW215411   6.499   3.625   3.118
 4838SOL     OW15412   2.310   5.397   6.685
 4838SOL    HW115413   2.293   5.495   6.690
 4838SOL    HW215414   2.387   5.378   6.624
 4839SOL     OW15415   1.467   3.755   0.147
 4839SOL    HW115416   1.549   3.732   0.095
 4839SOL    HW215417   1.492   3.779   0.241
 4840SOL     OW15418   5.861   3.884   5.527
 4840SOL    HW115419   5.876   3.980   5.552
 4840SOL    HW215420   5.944   3.846   5.487
 4841SOL     OW15421   3.333   5.430   2.978
 4841SOL    HW115422   3.339   5.522   2.938
 4841SOL    HW215423   3.407   5.417   3.044
 4842SOL     OW15424   2.947   5.669   3.222
 4842SOL    HW115425   2.867   5.714   3.264
 4842SOL    HW215426   2.916   5.596   3.161
 4843SOL     OW15427   6.393   2.292   2.042
 4843SOL    HW115428   6.364   2.303   1.947
 4843SOL    HW215429   6.469   2.354   2.062
 4844SOL     OW15430   0.655   4.303   5.265
 4844SOL    HW115431   0.742   4.348   5.288
 4844SOL    HW215432   0.663   4.205   5.280
 4845SOL     OW15433   4.517   5.067   5.352
 4845SOL    HW115434   4.535   5.022   5.264
 4845SOL    HW215435   4.439   5.129   5.342
 4846SOL     OW15436   0.093   1.881   3.372
 4846SOL    HW115437   0.024   1.953   3.364
 4846SOL    HW215438   0.061   1.799   3.324
 4847SOL     OW15439   2.712   1.245   5.187
 4847SOL    HW115440   2.766   1.161   5.181
 4847SOL    HW215441   2.623   1.231   5.144
 4848SOL     OW15442   2.650   1.135   4.196
 4848SOL    HW115443   2.720   1.084   4.147
 4848SOL    HW215444   2.565   1.082   4.197
 4849SOL     OW15445   1.759   0.115   0.409
 4849SOL    HW115446   1.669   0.107   0.453
 4849SOL    HW215447   1.819   0.044   0.445
 4850SOL     OW15448   4.423   0.612   1.725
 4850SOL    HW115449   4.484   0.553   1.672
 4850SOL    HW215450   4.477   0.666   1.790
 4851SOL     OW15451   4.216   5.819   6.568
 4851SOL    HW115452   4.309   5.799   6.539
 4851SOL    HW215453   4.161   5.845   6.489
 4852SOL     OW15454   2.940   6.028   4.594
 4852SOL    HW115455   2.886   6.112   4.593
 4852SOL    HW215456   3.029   6.046   4.552
 4853SOL     OW15457   3.854   1.381   3.139
 4853SOL    HW115458   3.794   1.302   3.149
 4853SOL    HW215459   3.799   1.465   3.136
 4854SOL     OW15460   5.212   6.822   1.839
 4854SOL    HW115461   5.227   6.906   1.789
 4854SOL    HW215462   5.121   6.824   1.881
 4855SOL     OW15463   6.513   3.563   5.016
 4855SOL    HW115464   6.596   3.618   5.008
 4855SOL    HW215465   6.433   3.623   5.012
 4856SOL     OW15466   0.636   2.832   2.428
 4856SOL    HW115467   0.585   2.789   2.353
 4856SOL    HW215468   0.719   2.780   2.445
 4857SOL     OW15469   3.453   1.809   3.559
 4857SOL    HW115470   3.373   1.834   3.505
 4857SOL    HW215471   3.481   1.887   3.615
 4858SOL     OW15472   1.274   0.106   4.727
 4858SOL    HW115473   1.212   0.125   4.803
 4858SOL    HW215474   1.229   0.128   4.641
 4859SOL     OW15475   1.574   4.892   1.401
 4859SOL    HW115476   1.543   4.957   1.471
 4859SOL    HW215477   1.513   4.896   1.322
 4860SOL     OW15478   4.347   4.581   0.283
 4860SOL    HW115479   4.258   4.571   0.238
 4860SOL    HW215480   4.419   4.580   0.214
 4861SOL     OW15481   6.203   5.313   6.458
 4861SOL    HW115482   6.143   5.361   6.395
 4861SOL    HW215483   6.295   5.354   6.454
 4862SOL     OW15484   3.191   4.918   4.695
 4862SOL    HW115485   3.118   4.984   4.677
 4862SOL    HW215486   3.215   4.921   4.792
 4863SOL     OW15487   4.956   3.212   2.892
 4863SOL    HW115488   4.900   3.134   2.920
 4863SOL    HW215489   4.977   3.204   2.794
 4864SOL     OW15490   3.267   1.555   1.903
 4864SOL    HW115491   3.192   1.519   1.959
 4864SOL    HW215492   3.322   1.618   1.958
 4865SOL     OW15493   2.697   4.690   5.797
 4865SOL    HW115494   2.669   4.680   5.701
 4865SOL    HW215495   2.662   4.613   5.850
 4866SOL     OW15496   5.825   4.898   1.205
 4866SOL    HW115497   5.876   4.963   1.147
 4866SOL    HW215498   5.872   4.888   1.293
 4867SOL     OW15499   4.665   5.827   3.481
 4867SOL    HW115500   4.643   5.729   3.473
 4867SOL    HW215501   4.702   5.860   3.395
 4868SOL     OW15502   0.890   5.832   1.737
 4868SOL    HW115503   0.946   5.765   1.786
 4868SOL    HW215504   0.929   5.848   1.647
 4869SOL     OW15505   6.821   2.183   0.864
 4869SOL    HW115506   6.801   2.262   0.806
 4869SOL    HW215507   6.786   2.199   0.956
 4870SOL     OW15508   4.384   5.488   1.620
 4870SOL    HW115509   4.399   5.564   1.556
 4870SOL    HW215510   4.459   5.486   1.687
 4871SOL     OW15511   1.275   1.125   3.282
 4871SOL    HW115512   1.288   1.222   3.260
 4871SOL    HW215513   1.219   1.081   3.213
 4872SOL     OW15514   1.055   0.322   3.234
 4872SOL    HW115515   1.023   0.351   3.325
 4872SOL    HW215516   0.977   0.290   3.181
 4873SOL     OW15517   0.205   5.165   4.465
 4873SOL    HW115518   0.122   5.172   4.410
 4873SOL    HW215519   0.191   5.097   4.537
 4874SOL     OW15520   5.798   3.605   2.296
 4874SOL    HW115521   5.795   3.671   2.221
 4874SOL    HW215522   5.758   3.518   2.266
 4875SOL     OW15523   5.368   2.373   1.109
 4875SOL    HW115524   5.439   2.329   1.055
 4875SOL    HW215525   5.288   2.314   1.114
 4876SOL     OW15526   5.884   0.552   5.687
 4876SOL    HW115527   5.850   0.460   5.706
 4876SOL    HW215528   5.949   0.549   5.611
 4877SOL     OW15529   0.128   1.441   1.227
 4877SOL    HW115530   0.126   1.474   1.321
 4877SOL    HW215531   0.062   1.492   1.172
 4878SOL     OW15532   0.468   1.505   1.974
 4878SOL    HW115533   0.398   1.576   1.977
 4878SOL    HW215534   0.545   1.532   2.032
 4879SOL     OW15535   4.516   4.657   2.778
 4879SOL    HW115536   4.440   4.656   2.714
 4879SOL    HW215537   4.571   4.574   2.768
 4880SOL     OW15538   5.280   2.340   6.956
 4880SOL    HW115539   5.326   2.251   6.957
 4880SOL    HW215540   5.216   2.345   0.009
 4881SOL     OW15541   2.535   6.267   6.521
 4881SOL    HW115542   2.604   6.261   6.593
 4881SOL    HW215543   2.480   6.183   6.520
 4882SOL     OW15544   6.205   1.702   5.696
 4882SOL    HW115545   6.262   1.620   5.704
 4882SOL    HW215546   6.151   1.696   5.612
 4883SOL     OW15547   5.054   4.864   2.594
 4883SOL    HW115548   5.048   4.879   2.693
 4883SOL    HW215549   4.964   4.838   2.559
 4884SOL     OW15550   4.615   6.992   1.566
 4884SOL    HW115551   4.669   0.001   1.488
 4884SOL    HW215552   4.591   0.047   1.624
 4885SOL     OW15553   2.208   6.518   2.264
 4885SOL    HW115554   2.213   6.513   2.364
 4885SOL    HW215555   2.264   6.595   2.232
 4886SOL     OW15556   0.239   6.577   6.591
 4886SOL    HW115557   0.248   6.623   6.680
 4886SOL    HW215558   0.217   6.644   6.521
 4887SOL     OW15559   6.893   2.064   3.323
 4887SOL    HW115560   6.812   2.010   3.341
 4887SOL    HW215561   6.915   2.121   3.402
 4888SOL     OW15562   1.607   6.824   3.864
 4888SOL    HW115563   1.675   6.895   3.849
 4888SOL    HW215564   1.646   6.752   3.922
 4889SOL     OW15565   0.352   1.736   0.393
 4889SOL    HW115566   0.397   1.649   0.373
 4889SOL    HW215567   0.253   1.726   0.383
 4890SOL     OW15568   0.283   1.387   4.303
 4890SOL    HW115569   0.293   1.309   4.364
 4890SOL    HW215570   0.353   1.455   4.324
 4891SOL     OW15571   0.938   5.328   7.022
 4891SOL    HW115572   1.014   5.386   6.992
 4891SOL    HW215573   0.892   5.371   0.076
 4892SOL     OW15574   1.135   5.586   2.870
 4892SOL    HW115575   1.072   5.520   2.829
 4892SOL    HW215576   1.182   5.636   2.797
 4893SOL     OW15577   6.603   4.580   6.899
 4893SOL    HW115578   6.668   4.615   6.968
 4893SOL    HW215579   6.600   4.644   6.822
 4894SOL     OW15580   2.253   0.160   2.416
 4894SOL    HW115581   2.187   0.211   2.470
 4894SOL    HW215582   2.345   0.197   2.432
 4895SOL     OW15583   0.698   3.949   0.907
 4895SOL    HW115584   0.760   4.017   0.868
 4895SOL    HW215585   0.751   3.878   0.954
 4896SOL     OW15586   3.511   5.409   3.187
 4896SOL    HW115587   3.496   5.311   3.169
 4896SOL    HW215588   3.576   5.418   3.263
 4897SOL     OW15589   3.642   5.233   6.617
 4897SOL    HW115590   3.618   5.330   6.616
 4897SOL    HW215591   3.718   5.216   6.553
 4898SOL     OW15592   5.750   2.263   5.606
 4898SOL    HW115593   5.670   2.260   5.547
 4898SOL    HW215594   5.828   2.220   5.559
 4899SOL     OW15595   6.367   4.835   2.632
 4899SOL    HW115596   6.364   4.774   2.711
 4899SOL    HW215597   6.445   4.897   2.641
 4900SOL     OW15598   0.242   6.239   5.986
 4900SOL    HW115599   0.220   6.162   6.046
 4900SOL    HW215600   0.214   6.216   5.892
 4901SOL     OW15601   1.952   6.832   4.215
 4901SOL    HW115602   1.902   6.772   4.277
 4901SOL    HW215603   1.898   6.913   4.196
 4902SOL     OW15604   1.299   3.386   2.651
 4902SOL    HW115605   1.377   3.369   2.711
 4902SOL    HW215606   1.286   3.307   2.591
 4903SOL     OW15607   3.910   6.407   6.753
 4903SOL    HW115608   3.844   6.343   6.714
 4903SOL    HW215609   3.884   6.427   6.847
 4904SOL     OW15610   2.101   5.767   4.484
 4904SOL    HW115611   2.003   5.772   4.466
 4904SOL    HW215612   2.138   5.859   4.491
 4905SOL     OW15613   4.523   2.280   2.527
 4905SOL    HW115614   4.533   2.369   2.572
 4905SOL    HW215615   4.608   2.258   2.478
 4906SOL     OW15616   4.152   0.276   0.212
 4906SOL    HW115617   4.067   0.302   0.166
 4906SOL    HW215618   4.132   0.252   0.307
 4907SOL     OW15619   3.900   6.158   3.215
 4907SOL    HW115620   3.941   6.116   3.296
 4907SOL    HW215621   3.802   6.141   3.214
 4908SOL     OW15622   4.056   5.754   0.239
 4908SOL    HW115623   4.057   5.748   0.339
 4908SOL    HW215624   3.989   5.822   0.210
 4909SOL     OW15625   6.042   0.799   6.364
 4909SOL    HW115626   6.055   0.700   6.361
 4909SOL    HW215627   5.968   0.825   6.301
 4910SOL     OW15628   5.320   0.137   5.558
 4910SOL    HW115629   5.255   0.062   5.540
 4910SOL    HW215630   5.401   0.100   5.603
 4911SOL     OW15631   6.696   2.080   5.796
 4911SOL    HW115632   6.729   2.151   5.734
 4911SOL    HW215633   6.615   2.037   5.757
 4912SOL     OW15634   4.949   1.109   1.832
 4912SOL    HW115635   4.900   1.184   1.790
 4912SOL    HW215636   4.924   1.023   1.787
 4913SOL     OW15637   3.207   4.009   3.944
 4913SOL    HW115638   3.125   3.988   3.891
 4913SOL    HW215639   3.255   4.087   3.903
 4914SOL     OW15640   2.784   1.275   4.584
 4914SOL    HW115641   2.884   1.272   4.592
 4914SOL    HW215642   2.759   1.296   4.490
 4915SOL     OW15643   4.532   6.772   4.119
 4915SOL    HW115644   4.476   6.692   4.100
 4915SOL    HW215645   4.509   6.808   4.210
 4916SOL     OW15646   2.402   1.725   2.961
 4916SOL    HW115647   2.318   1.779   2.964
 4916SOL    HW215648   2.463   1.754   3.035
 4917SOL     OW15649   1.116   4.018   0.535
 4917SOL    HW115650   1.151   3.936   0.489
 4917SOL    HW215651   1.110   4.000   0.633
 4918SOL     OW15652   2.547   0.438   2.733
 4918SOL    HW115653   2.533   0.346   2.769
 4918SOL    HW215654   2.485   0.453   2.656
 4919SOL     OW15655   1.597   2.054   2.844
 4919SOL    HW115656   1.605   2.060   2.944
 4919SOL    HW215657   1.568   2.143   2.808
 4920SOL     OW15658   4.411   0.220   6.944
 4920SOL    HW115659   4.360   0.146   6.900
 4920SOL    HW215660   4.503   0.225   6.904
 4921SOL     OW15661   2.252   3.883   1.828
 4921SOL    HW115662   2.225   3.877   1.732
 4921SOL    HW215663   2.349   3.859   1.837
 4922SOL     OW15664   1.172   3.539   5.397
 4922SOL    HW115665   1.155   3.447   5.434
 4922SOL    HW215666   1.171   3.535   5.297
 4923SOL     OW15667   5.039   0.195   1.908
 4923SOL    HW115668   4.969   0.133   1.942
 4923SOL    HW215669   5.122   0.187   1.963
 4924SOL     OW15670   1.977   3.102   4.794
 4924SOL    HW115671   2.008   3.094   4.889
 4924SOL    HW215672   2.056   3.099   4.733
 4925SOL     OW15673   5.903   6.049   1.170
 4925SOL    HW115674   5.915   6.096   1.258
 4925SOL    HW215675   5.982   5.990   1.153
 4926SOL     OW15676   4.933   2.788   1.740
 4926SOL    HW115677   4.838   2.792   1.707
 4926SOL    HW215678   4.954   2.872   1.790
 4927SOL     OW15679   3.925   3.150   3.199
 4927SOL    HW115680   3.889   3.119   3.111
 4927SOL    HW215681   3.895   3.087   3.271
 4928SOL     OW15682   0.152   0.043   6.498
 4928SOL    HW115683   0.143   0.086   6.409
 4928SOL    HW215684   0.175   0.112   6.567
 4929SOL     OW15685   1.449   4.520   5.085
 4929SOL    HW115686   1.398   4.496   5.168
 4929SOL    HW215687   1.420   4.461   5.010
 4930SOL     OW15688   0.924   1.472   0.319
 4930SOL    HW115689   0.945   1.384   0.360
 4930SOL    HW215690   0.967   1.478   0.229
 4931SOL     OW15691   0.992   0.478   0.057
 4931SOL    HW115692   0.923   0.493   0.129
 4931SOL    HW215693   0.979   0.388   0.017
 4932SOL     OW15694   2.102   3.176   1.773
 4932SOL    HW115695   2.046   3.223   1.841
 4932SOL    HW215696   2.181   3.232   1.750
 4933SOL     OW15697   2.292   1.130   4.112
 4933SOL    HW115698   2.295   1.228   4.134
 4933SOL    HW215699   2.201   1.105   4.080
 4934SOL     OW15700   0.809   5.012   4.515
 4934SOL    HW115701   0.775   4.923   4.546
 4934SOL    HW215702   0.758   5.042   4.435
 4935SOL     OW15703   1.140   0.792   6.532
 4935SOL    HW115704   1.129   0.705   6.483
 4935SOL    HW215705   1.075   0.796   6.608
 4936SOL     OW15706   2.482   5.957   1.146
 4936SOL    HW115707   2.536   5.998   1.220
 4936SOL    HW215708   2.460   6.027   1.079
 4937SOL     OW15709   0.968   3.784   5.946
 4937SOL    HW115710   1.055   3.797   5.897
 4937SOL    HW215711   0.919   3.706   5.906
 4938SOL     OW15712   3.213   4.937   2.071
 4938SOL    HW115713   3.127   4.886   2.062
 4938SOL    HW215714   3.233   4.951   2.168
 4939SOL     OW15715   1.310   2.578   1.931
 4939SOL    HW115716   1.390   2.527   1.962
 4939SOL    HW215717   1.338   2.645   1.862
 4940SOL     OW15718   0.125   1.573   5.008
 4940SOL    HW115719   0.079   1.546   5.093
 4940SOL    HW215720   0.213   1.615   5.031
 4941SOL     OW15721   3.845   2.549   5.352
 4941SOL    HW115722   3.838   2.475   5.284
 4941SOL    HW215723   3.934   2.593   5.343
 4942SOL     OW15724   5.840   3.071   3.528
 4942SOL    HW115725   5.797   3.090   3.439
 4942SOL    HW215726   5.911   3.139   3.546
 4943SOL     OW15727   5.937   3.875   6.202
 4943SOL    HW115728   5.929   3.815   6.282
 4943SOL    HW215729   5.951   3.819   6.120
 4944SOL     OW15730   1.977   4.240   0.543
 4944SOL    HW115731   2.018   4.152   0.568
 4944SOL    HW215732   1.896   4.224   0.486
 4945SOL     OW15733   1.765   0.964   5.007
 4945SOL    HW115734   1.785   1.059   4.980
 4945SOL    HW215735   1.683   0.933   4.960
 4946SOL     OW15736   1.178   4.630   6.816
 4946SOL    HW115737   1.101   4.679   6.858
 4946SOL    HW215738   1.235   4.694   6.764
 4947SOL     OW15739   2.793   0.834   1.929
 4947SOL    HW115740   2.725   0.841   2.002
 4947SOL    HW215741   2.746   0.817   1.842
 4948SOL     OW15742   1.905   2.521   2.484
 4948SOL    HW115743   1.870   2.541   2.575
 4948SOL    HW215744   1.955   2.600   2.449
 4949SOL     OW15745   6.522   3.840   5.668
 4949SOL    HW115746   6.555   3.804   5.755
 4949SOL    HW215747   6.480   3.930   5.682
 4950SOL     OW15748   2.065   3.990   5.099
 4950SOL    HW115749   2.001   4.065   5.083
 4950SOL    HW215750   2.157   4.019   5.073
 4951SOL     OW15751   6.014   6.648   4.129
 4951SOL    HW115752   6.019   6.560   4.176
 4951SOL    HW215753   5.929   6.652   4.076
 4952SOL     OW15754   6.944   0.471   6.956
 4952SOL    HW115755   6.849   0.487   6.985
 4952SOL    HW215756   6.975   0.548   6.900
 4953SOL     OW15757   2.171   1.818   4.206
 4953SOL    HW115758   2.249   1.805   4.267
 4953SOL    HW215759   2.171   1.913   4.173
 4954SOL     OW15760   2.189   3.947   6.114
 4954SOL    HW115761   2.097   3.984   6.120
 4954SOL    HW215762   2.251   4.018   6.079
 4955SOL     OW15763   3.240   5.302   0.251
 4955SOL    HW115764   3.280   5.213   0.274
 4955SOL    HW215765   3.148   5.308   0.290
 4956SOL     OW15766   3.149   0.737   5.950
 4956SOL    HW115767   3.190   0.828   5.948
 4956SOL    HW215768   3.053   0.745   5.977
 4957SOL     OW15769   5.825   3.504   0.391
 4957SOL    HW115770   5.786   3.418   0.357
 4957SOL    HW215771   5.904   3.484   0.449
 4958SOL     OW15772   1.978   6.088   5.749
 4958SOL    HW115773   2.035   6.005   5.754
 4958SOL    HW215774   1.969   6.127   5.841
 4959SOL     OW15775   6.615   1.806   1.327
 4959SOL    HW115776   6.627   1.709   1.348
 4959SOL    HW215777   6.612   1.818   1.227
 4960SOL     OW15778   4.079   4.882   3.659
 4960SOL    HW115779   4.002   4.938   3.688
 4960SOL    HW215780   4.062   4.845   3.568
 4961SOL     OW15781   3.392   0.645   6.356
 4961SOL    HW115782   3.439   0.620   6.441
 4961SOL    HW215783   3.340   0.730   6.371
 4962SOL     OW15784   5.289   2.491   0.764
 4962SOL    HW115785   5.333   2.535   0.842
 4962SOL    HW215786   5.355   2.484   0.689
 4963SOL     OW15787   2.128   5.545   1.131
 4963SOL    HW115788   2.182   5.625   1.159
 4963SOL    HW215789   2.186   5.482   1.079
 4964SOL     OW15790   2.130   6.608   5.364
 4964SOL    HW115791   2.063   6.591   5.292
 4964SOL    HW215792   2.211   6.651   5.324
 4965SOL     OW15793   0.771   6.803   2.716
 4965SOL    HW115794   0.782   6.863   2.637
 4965SOL    HW215795   0.711   6.847   2.783
 4966SOL     OW15796   1.836   6.452   4.926
 4966SOL    HW115797   1.798   6.508   4.852
 4966SOL    HW215798   1.807   6.357   4.914
 4967SOL     OW15799   3.365   5.281   5.990
 4967SOL    HW115800   3.368   5.306   6.086
 4967SOL    HW215801   3.384   5.362   5.934
 4968SOL     OW15802   7.000   1.283   3.971
 4968SOL    HW115803   6.987   1.196   4.016
 4968SOL    HW215804   0.061   1.325   4.003
 4969SOL     OW15805   0.194   5.977   2.482
 4969SOL    HW115806   0.203   6.005   2.578
 4969SOL    HW215807   0.172   5.880   2.478
 4970SOL     OW15808   2.435   0.870   1.608
 4970SOL    HW115809   2.444   0.782   1.563
 4970SOL    HW215810   2.430   0.943   1.540
 4971SOL     OW15811   6.196   6.009   2.996
 4971SOL    HW115812   6.168   6.080   2.931
 4971SOL    HW215813   6.205   5.922   2.948
 4972SOL     OW15814   1.153   4.333   0.396
 4972SOL    HW115815   1.221   4.403   0.374
 4972SOL    HW215816   1.195   4.263   0.454
 4973SOL     OW15817   0.643   0.261   1.716
 4973SOL    HW115818   0.647   0.356   1.685
 4973SOL    HW215819   0.556   0.220   1.688
 4974SOL     OW15820   5.456   4.581   0.771
 4974SOL    HW115821   5.542   4.536   0.793
 4974SOL    HW215822   5.382   4.514   0.771
 4975SOL     OW15823   5.535   4.069   0.721
 4975SOL    HW115824   5.598   4.128   0.772
 4975SOL    HW215825   5.458   4.044   0.779
 4976SOL     OW15826   1.554   0.058   4.725
 4976SOL    HW115827   1.551   6.999   4.782
 4976SOL    HW215828   1.461   0.088   4.705
 4977SOL     OW15829   3.533   3.951   0.026
 4977SOL    HW115830   3.576   3.873   7.004
 4977SOL    HW215831   3.473   3.918   0.098
 4978SOL     OW15832   4.975   4.852   5.029
 4978SOL    HW115833   5.069   4.872   5.003
 4978SOL    HW215834   4.937   4.930   5.079
 4979SOL     OW15835   0.190   6.276   0.144
 4979SOL    HW115836   0.142   6.364   0.149
 4979SOL    HW215837   0.222   6.261   0.050
 4980SOL     OW15838   5.610   4.723   2.701
 4980SOL    HW115839   5.676   4.754   2.770
 4980SOL    HW215840   5.631   4.767   2.613
 4981SOL     OW15841   3.516   6.029   1.948
 4981SOL    HW115842   3.604   6.052   1.906
 4981SOL    HW215843   3.504   6.082   2.032
 4982SOL     OW15844   3.874   1.936   6.533
 4982SOL    HW115845   3.856   1.925   6.631
 4982SOL    HW215846   3.946   2.003   6.519
 4983SOL     OW15847   5.743   4.836   4.277
 4983SOL    HW115848   5.795   4.871   4.199
 4983SOL    HW215849   5.743   4.736   4.275
 4984SOL     OW15850   4.637   4.366   2.651
 4984SOL    HW115851   4.586   4.417   2.581
 4984SOL    HW215852   4.659   4.275   2.616
 4985SOL     OW15853   5.126   6.179   2.590
 4985SOL    HW115854   5.032   6.164   2.620
 4985SOL    HW215855   5.170   6.091   2.574
 4986SOL     OW15856   6.539   4.903   0.755
 4986SOL    HW115857   6.623   4.862   0.791
 4986SOL    HW215858   6.477   4.832   0.724
 4987SOL     OW15859   1.180   6.317   2.901
 4987SOL    HW115860   1.239   6.272   2.968
 4987SOL    HW215861   1.103   6.257   2.879
 4988SOL     OW15862   6.284   1.394   3.347
 4988SOL    HW115863   6.289   1.314   3.406
 4988SOL    HW215864   6.195   1.438   3.357
 4989SOL     OW15865   5.035   0.411   1.750
 4989SOL    HW115866   5.045   0.367   1.661
 4989SOL    HW215867   5.028   0.341   1.821
 4990SOL     OW15868   3.382   2.152   6.610
 4990SOL    HW115869   3.419   2.211   6.538
 4990SOL    HW215870   3.303   2.102   6.574
 4991SOL     OW15871   6.710   5.656   3.982
 4991SOL    HW115872   6.614   5.663   3.952
 4991SOL    HW215873   6.758   5.591   3.923
 4992SOL     OW15874   5.416   1.209   3.221
 4992SOL    HW115875   5.459   1.135   3.170
 4992SOL    HW215876   5.446   1.297   3.184
 4993SOL     OW15877   4.049   6.510   5.241
 4993SOL    HW115878   4.017   6.493   5.147
 4993SOL    HW215879   4.036   6.427   5.295
 4994SOL     OW15880   2.504   5.781   4.818
 4994SOL    HW115881   2.433   5.792   4.887
 4994SOL    HW215882   2.579   5.844   4.838
 4995SOL     OW15883   1.072   0.946   5.286
 4995SOL    HW115884   1.141   0.873   5.281
 4995SOL    HW215885   1.109   1.023   5.338
 4996SOL     OW15886   6.462   1.523   3.815
 4996SOL    HW115887   6.371   1.563   3.799
 4996SOL    HW215888   6.532   1.590   3.789
 4997SOL     OW15889   3.686   2.549   1.189
 4997SOL    HW115890   3.607   2.558   1.250
 4997SOL    HW215891   3.657   2.557   1.094
 4998SOL     OW15892   1.543   3.397   3.931
 4998SOL    HW115893   1.632   3.397   3.977
 4998SOL    HW215894   1.491   3.478   3.959
 4999SOL     OW15895   0.036   3.616   4.666
 4999SOL    HW115896   0.104   3.620   4.592
 4999SOL    HW215897   6.969   3.640   4.630
 5000SOL     OW15898   3.006   6.728   3.484
 5000SOL    HW115899   2.977   6.682   3.569
 5000SOL    HW215900   2.982   6.670   3.406
 5001SOL     OW15901   0.726   5.812   2.701
 5001SOL    HW115902   0.805   5.752   2.688
 5001SOL    HW215903   0.648   5.759   2.733
 5002SOL     OW15904   0.404   5.032   2.046
 5002SOL    HW115905   0.422   5.129   2.061
 5002SOL    HW215906   0.431   5.007   1.953
 5003SOL     OW15907   4.483   6.523   2.604
 5003SOL    HW115908   4.400   6.514   2.659
 5003SOL    HW215909   4.503   6.436   2.559
 5004SOL     OW15910   2.173   4.737   5.525
 5004SOL    HW115911   2.211   4.666   5.466
 5004SOL    HW215912   2.126   4.694   5.603
 5005SOL     OW15913   2.639   2.823   6.581
 5005SOL    HW115914   2.634   2.900   6.517
 5005SOL    HW215915   2.555   2.769   6.575
 5006SOL     OW15916   6.076   1.270   2.605
 5006SOL    HW115917   6.043   1.319   2.524
 5006SOL    HW215918   6.110   1.336   2.672
 5007SOL     OW15919   0.045   0.382   1.466
 5007SOL    HW115920   0.020   0.473   1.499
 5007SOL    HW215921   6.993   0.319   1.482
 5008SOL     OW15922   6.196   5.473   1.098
 5008SOL    HW115923   6.099   5.500   1.096
 5008SOL    HW215924   6.225   5.461   1.193
 5009SOL     OW15925   0.264   2.447   0.301
 5009SOL    HW115926   0.362   2.447   0.283
 5009SOL    HW215927   0.216   2.488   0.224
 5010SOL     OW15928   4.173   2.482   0.830
 5010SOL    HW115929   4.163   2.580   0.812
 5010SOL    HW215930   4.118   2.457   0.910
 5011SOL     OW15931   2.172   4.334   1.306
 5011SOL    HW115932   2.209   4.381   1.386
 5011SOL    HW215933   2.157   4.238   1.328
 5012SOL     OW15934   6.454   2.494   5.255
 5012SOL    HW115935   6.389   2.499   5.179
 5012SOL    HW215936   6.408   2.527   5.339
 5013SOL     OW15937   5.475   1.147   6.520
 5013SOL    HW115938   5.573   1.142   6.502
 5013SOL    HW215939   5.457   1.219   6.587
 5014SOL     OW15940   6.577   4.292   6.910
 5014SOL    HW115941   6.502   4.236   6.873
 5014SOL    HW215942   6.551   4.389   6.905
 5015SOL     OW15943   4.495   0.772   4.722
 5015SOL    HW115944   4.477   0.698   4.788
 5015SOL    HW215945   4.572   0.827   4.754
 5016SOL     OW15946   0.788   2.907   4.761
 5016SOL    HW115947   0.880   2.883   4.730
 5016SOL    HW215948   0.731   2.825   4.761
 5017SOL     OW15949   1.954   1.949   1.063
 5017SOL    HW115950   1.995   2.004   1.135
 5017SOL    HW215951   1.923   2.009   0.989
 5018SOL     OW15952   1.113   5.144   2.902
 5018SOL    HW115953   1.153   5.142   2.993
 5018SOL    HW215954   1.022   5.102   2.905
 5019SOL     OW15955   2.496   6.232   5.738
 5019SOL    HW115956   2.486   6.161   5.807
 5019SOL    HW215957   2.568   6.296   5.765
 5020SOL     OW15958   6.411   6.982   5.874
 5020SOL    HW115959   6.487   0.012   5.838
 5020SOL    HW215960   6.407   6.894   5.827
 5021SOL     OW15961   1.297   1.001   0.965
 5021SOL    HW115962   1.392   0.998   0.996
 5021SOL    HW215963   1.244   1.058   1.027
 5022SOL     OW15964   1.226   2.298   1.907
 5022SOL    HW115965   1.310   2.251   1.934
 5022SOL    HW215966   1.236   2.396   1.922
 5023SOL     OW15967   0.280   4.091   1.266
 5023SOL    HW115968   0.301   4.174   1.318
 5023SOL    HW215969   0.335   4.089   1.183
 5024SOL     OW15970   5.564   5.054   1.109
 5024SOL    HW115971   5.658   5.078   1.133
 5024SOL    HW215972   5.564   5.003   1.023
 5025SOL     OW15973   3.922   2.164   4.205
 5025SOL    HW115974   3.835   2.155   4.158
 5025SOL    HW215975   3.993   2.115   4.154
 5026SOL     OW15976   0.074   5.701   5.194
 5026SOL    HW115977   0.041   5.677   5.285
 5026SOL    HW215978   0.136   5.630   5.161
 5027SOL     OW15979   6.537   0.143   2.039
 5027SOL    HW115980   6.511   0.217   1.977
 5027SOL    HW215981   6.456   0.090   2.064
 5028SOL     OW15982   6.619   2.035   3.129
 5028SOL    HW115983   6.694   1.984   3.172
 5028SOL    HW215984   6.550   2.057   3.198
 5029SOL     OW15985   6.397   2.650   2.322
 5029SOL    HW115986   6.456   2.729   2.338
 5029SOL    HW215987   6.340   2.634   2.403
 5030SOL     OW15988   6.590   6.097   6.865
 5030SOL    HW115989   6.545   6.163   6.925
 5030SOL    HW215990   6.676   6.136   6.831
 5031SOL     OW15991   6.318   1.453   5.616
 5031SOL    HW115992   6.377   1.411   5.685
 5031SOL    HW215993   6.266   1.382   5.570
 5032SOL     OW15994   3.112   1.602   5.922
 5032SOL    HW115995   3.202   1.561   5.910
 5032SOL    HW215996   3.074   1.574   6.010
 5033SOL     OW15997   1.869   0.496   6.862
 5033SOL    HW115998   1.826   0.419   6.814
 5033SOL    HW215999   1.915   0.462   6.944
 5034SOL     OW16000   5.878   0.131   3.521
 5034SOL    HW116001   5.827   0.047   3.543
 5034SOL    HW216002   5.964   0.107   3.476
 5035SOL     OW16003   0.305   4.180   5.504
 5035SOL    HW116004   0.221   4.126   5.515
 5035SOL    HW216005   0.326   4.190   5.407
 5036SOL     OW16006   6.939   5.021   6.717
 5036SOL    HW116007   6.902   5.082   6.647
 5036SOL    HW216008   0.014   5.010   6.704
 5037SOL     OW16009   5.237   4.827   1.901
 5037SOL    HW116010   5.257   4.778   1.985
 5037SOL    HW216011   5.205   4.763   1.831
 5038SOL     OW16012   3.688   3.148   4.866
 5038SOL    HW116013   3.594   3.146   4.830
 5038SOL    HW216014   3.742   3.213   4.813
 5039SOL     OW16015   2.006   3.190   5.247
 5039SOL    HW116016   1.981   3.133   5.325
 5039SOL    HW216017   2.066   3.139   5.185
 5040SOL     OW16018   0.973   6.611   5.312
 5040SOL    HW116019   0.999   6.692   5.259
 5040SOL    HW216020   0.919   6.549   5.255
 5041SOL     OW16021   1.606   1.727   1.888
 5041SOL    HW116022   1.632   1.810   1.839
 5041SOL    HW216023   1.642   1.647   1.840
 5042SOL     OW16024   6.749   3.396   0.219
 5042SOL    HW116025   6.714   3.305   0.200
 5042SOL    HW216026   6.692   3.464   0.173
 5043SOL     OW16027   4.523   0.512   6.681
 5043SOL    HW116028   4.588   0.436   6.672
 5043SOL    HW216029   4.540   0.561   6.767
 5044SOL     OW16030   0.767   6.181   1.024
 5044SOL    HW116031   0.777   6.278   1.001
 5044SOL    HW216032   0.772   6.126   0.941
 5045SOL     OW16033   6.138   5.778   6.146
 5045SOL    HW116034   6.070   5.789   6.219
 5045SOL    HW216035   6.209   5.847   6.156
 5046SOL     OW16036   3.784   3.793   3.120
 5046SOL    HW116037   3.758   3.711   3.069
 5046SOL    HW216038   3.702   3.838   3.156
 5047SOL     OW16039   1.810   4.057   2.898
 5047SOL    HW116040   1.716   4.028   2.880
 5047SOL    HW216041   1.819   4.085   2.993
 5048SOL     OW16042   1.223   1.157   3.542
 5048SOL    HW116043   1.313   1.140   3.583
 5048SOL    HW216044   1.218   1.112   3.453
 5049SOL     OW16045   5.146   1.809   0.143
 5049SOL    HW116046   5.074   1.764   0.090
 5049SOL    HW216047   5.119   1.813   0.240
 5050SOL     OW16048   1.537   1.035   0.210
 5050SOL    HW116049   1.532   1.116   0.152
 5050SOL    HW216050   1.506   0.955   0.159
 5051SOL     OW16051   4.825   4.527   1.321
 5051SOL    HW116052   4.840   4.517   1.419
 5051SOL    HW216053   4.894   4.589   1.283
 5052SOL     OW16054   3.002   1.603   5.659
 5052SOL    HW116055   2.955   1.517   5.676
 5052SOL    HW216056   3.053   1.629   5.741
 5053SOL     OW16057   1.164   4.786   3.465
 5053SOL    HW116058   1.238   4.822   3.409
 5053SOL    HW216059   1.165   4.830   3.555
 5054SOL     OW16060   2.605   5.009   4.604
 5054SOL    HW116061   2.546   5.090   4.612
 5054SOL    HW216062   2.580   4.956   4.524
 5055SOL     OW16063   0.545   2.739   6.025
 5055SOL    HW116064   0.485   2.713   5.949
 5055SOL    HW216065   0.564   2.659   6.082
 5056SOL     OW16066   5.549   4.146   6.092
 5056SOL    HW116067   5.473   4.190   6.140
 5056SOL    HW216068   5.634   4.193   6.114
 5057SOL     OW16069   7.014   6.901   3.414
 5057SOL    HW116070   7.012   6.801   3.417
 5057SOL    HW216071   6.921   6.936   3.407
 5058SOL     OW16072   3.716   3.764   5.669
 5058SOL    HW116073   3.654   3.741   5.744
 5058SOL    HW216074   3.670   3.823   5.604
 5059SOL     OW16075   6.493   0.941   3.437
 5059SOL    HW116076   6.405   0.897   3.452
 5059SOL    HW216077   6.514   1.002   3.513
 5060SOL     OW16078   0.300   2.808   6.173
 5060SOL    HW116079   0.396   2.834   6.176
 5060SOL    HW216080   0.284   2.731   6.236
 5061SOL     OW16081   5.050   2.737   0.752
 5061SOL    HW116082   5.047   2.830   0.716
 5061SOL    HW216083   4.964   2.691   0.734
 5062SOL     OW16084   6.132   6.834   2.765
 5062SOL    HW116085   6.210   6.895   2.776
 5062SOL    HW216086   6.135   6.792   2.674
 5063SOL     OW16087   0.546   0.202   2.570
 5063SOL    HW116088   0.566   0.121   2.514
 5063SOL    HW216089   0.560   0.284   2.514
 5064SOL     OW16090   5.010   3.450   0.865
 5064SOL    HW116091   4.962   3.393   0.931
 5064SOL    HW216092   4.955   3.531   0.844
 5065SOL     OW16093   2.945   0.496   5.645
 5065SOL    HW116094   2.889   0.505   5.728
 5065SOL    HW216095   3.039   0.524   5.666
 5066SOL     OW16096   5.033   4.538   2.073
 5066SOL    HW116097   5.060   4.504   1.983
 5066SOL    HW216098   4.964   4.477   2.112
 5067SOL     OW16099   4.989   1.343   1.133
 5067SOL    HW116100   5.081   1.325   1.170
 5067SOL    HW216101   4.968   1.275   1.063
 5068SOL     OW16102   3.109   4.580   1.003
 5068SOL    HW116103   3.017   4.596   0.965
 5068SOL    HW216104   3.177   4.596   0.932
 5069SOL     OW16105   1.224   3.887   3.685
 5069SOL    HW116106   1.262   3.929   3.603
 5069SOL    HW216107   1.296   3.876   3.753
 5070SOL     OW16108   5.315   3.461   3.930
 5070SOL    HW116109   5.363   3.515   4.000
 5070SOL    HW216110   5.253   3.397   3.975
 5071SOL     OW16111   5.069   2.074   4.654
 5071SOL    HW116112   5.086   2.053   4.750
 5071SOL    HW216113   5.035   2.168   4.647
 5072SOL     OW16114   1.048   6.647   0.437
 5072SOL    HW116115   0.949   6.657   0.440
 5072SOL    HW216116   1.091   6.731   0.471
 5073SOL     OW16117   6.729   6.745   3.265
 5073SOL    HW116118   6.651   6.690   3.235
 5073SOL    HW216119   6.813   6.709   3.225
 5074SOL     OW16120   3.473   3.273   6.652
 5074SOL    HW116121   3.523   3.191   6.681
 5074SOL    HW216122   3.376   3.251   6.642
 5075SOL     OW16123   0.474   2.040   6.238
 5075SOL    HW116124   0.426   2.088   6.311
 5075SOL    HW216125   0.408   1.987   6.184
 5076SOL     OW16126   3.348   0.792   0.904
 5076SOL    HW116127   3.439   0.759   0.880
 5076SOL    HW216128   3.308   0.840   0.825
 5077SOL     OW16129   0.294   2.675   4.574
 5077SOL    HW116130   0.208   2.709   4.612
 5077SOL    HW216131   0.368   2.739   4.596
 5078SOL     OW16132   0.797   1.635   3.660
 5078SOL    HW116133   0.840   1.719   3.691
 5078SOL    HW216134   0.772   1.644   3.564
 5079SOL     OW16135   2.372   4.857   6.252
 5079SOL    HW116136   2.448   4.871   6.316
 5079SOL    HW216137   2.290   4.830   6.302
 5080SOL     OW16138   5.685   6.392   5.650
 5080SOL    HW116139   5.634   6.459   5.705
 5080SOL    HW216140   5.630   6.310   5.638
 5081SOL     OW16141   3.983   3.323   3.399
 5081SOL    HW116142   4.017   3.293   3.488
 5081SOL    HW216143   3.965   3.244   3.342
 5082SOL     OW16144   5.894   5.057   5.736
 5082SOL    HW116145   5.872   4.977   5.793
 5082SOL    HW216146   5.951   5.028   5.659
 5083SOL     OW16147   1.777   6.360   2.889
 5083SOL    HW116148   1.715   6.375   2.966
 5083SOL    HW216149   1.742   6.410   2.809
 5084SOL     OW16150   1.197   4.999   4.534
 5084SOL    HW116151   1.199   4.994   4.434
 5084SOL    HW216152   1.141   4.924   4.569
 5085SOL     OW16153   5.360   2.590   6.521
 5085SOL    HW116154   5.301   2.565   6.598
 5085SOL    HW216155   5.438   2.528   6.517
 5086SOL     OW16156   6.625   5.614   3.603
 5086SOL    HW116157   6.548   5.577   3.550
 5086SOL    HW216158   6.593   5.637   3.695
 5087SOL     OW16159   6.389   6.177   3.675
 5087SOL    HW116160   6.474   6.157   3.723
 5087SOL    HW216161   6.312   6.140   3.727
 5088SOL     OW16162   5.537   1.954   4.776
 5088SOL    HW116163   5.478   2.035   4.774
 5088SOL    HW216164   5.596   1.954   4.696
 5089SOL     OW16165   5.971   3.197   2.980
 5089SOL    HW116166   5.964   3.103   3.015
 5089SOL    HW216167   6.067   3.226   2.982
 5090SOL     OW16168   1.896   3.963   2.353
 5090SOL    HW116169   1.919   4.045   2.301
 5090SOL    HW216170   1.980   3.918   2.382
 5091SOL     OW16171   1.617   6.073   3.346
 5091SOL    HW116172   1.624   6.007   3.271
 5091SOL    HW216173   1.650   6.031   3.431
 5092SOL     OW16174   3.080   2.387   1.302
 5092SOL    HW116175   2.995   2.400   1.353
 5092SOL    HW216176   3.136   2.317   1.347
 5093SOL     OW16177   2.469   1.399   1.742
 5093SOL    HW116178   2.461   1.389   1.643
 5093SOL    HW216179   2.547   1.345   1.774
 5094SOL     OW16180   0.836   6.817   4.514
 5094SOL    HW116181   0.865   6.846   4.423
 5094SOL    HW216182   0.757   6.871   4.542
 5095SOL     OW16183   0.882   1.641   4.219
 5095SOL    HW116184   0.854   1.677   4.130
 5095SOL    HW216185   0.806   1.650   4.284
 5096SOL     OW16186   4.312   4.228   0.636
 5096SOL    HW116187   4.214   4.238   0.620
 5096SOL    HW216188   4.338   4.132   0.627
 5097SOL     OW16189   2.095   0.237   6.490
 5097SOL    HW116190   2.083   0.333   6.465
 5097SOL    HW216191   2.036   0.180   6.434
 5098SOL     OW16192   0.871   0.144   1.578
 5098SOL    HW116193   0.887   0.074   1.648
 5098SOL    HW216194   0.792   0.199   1.603
 5099SOL     OW16195   0.819   0.562   6.459
 5099SOL    HW116196   0.901   0.582   6.405
 5099SOL    HW216197   0.774   0.481   6.423
 5100SOL     OW16198   4.562   6.523   5.631
 5100SOL    HW116199   4.624   6.548   5.556
 5100SOL    HW216200   4.610   6.528   5.718
 5101SOL     OW16201   4.962   6.520   0.171
 5101SOL    HW116202   4.963   6.463   0.253
 5101SOL    HW216203   4.878   6.575   0.170
 5102SOL     OW16204   6.120   0.334   5.873
 5102SOL    HW116205   6.192   0.389   5.829
 5102SOL    HW216206   6.103   0.369   5.965
 5103SOL     OW16207   0.050   1.156   4.302
 5103SOL    HW116208   0.067   1.099   4.382
 5103SOL    HW216209   6.987   1.205   4.313
 5104SOL     OW16210   1.942   6.266   2.113
 5104SOL    HW116211   1.875   6.340   2.123
 5104SOL    HW216212   2.029   6.295   2.153
 5105SOL     OW16213   4.123   3.461   0.550
 5105SOL    HW116214   4.133   3.556   0.519
 5105SOL    HW216215   4.189   3.403   0.501
 5106SOL     OW16216   3.631   0.296   2.188
 5106SOL    HW116217   3.584   0.331   2.107
 5106SOL    HW216218   3.607   0.352   2.268
 5107SOL     OW16219   3.451   1.138   0.449
 5107SOL    HW116220   3.518   1.138   0.523
 5107SOL    HW216221   3.415   1.046   0.436
 5108SOL     OW16222   2.983   3.236   3.612
 5108SOL    HW116223   3.034   3.254   3.696
 5108SOL    HW216224   2.905   3.297   3.607
 5109SOL     OW16225   0.972   1.490   1.150
 5109SOL    HW116226   0.972   1.420   1.078
 5109SOL    HW216227   0.879   1.527   1.159
 5110SOL     OW16228   0.674   6.971   6.736
 5110SOL    HW116229   0.678   6.871   6.729
 5110SOL    HW216230   0.677   7.011   6.645
 5111SOL     OW16231   0.308   1.568   5.893
 5111SOL    HW116232   0.405   1.564   5.868
 5111SOL    HW216233   0.258   1.499   5.841
 5112SOL     OW16234   0.424   0.084   3.022
 5112SOL    HW116235   0.496   0.150   3.044
 5112SOL    HW216236   0.436   0.002   3.078
 5113SOL     OW16237   1.489   6.617   1.242
 5113SOL    HW116238   1.545   6.695   1.214
 5113SOL    HW216239   1.511   6.538   1.186
 5114SOL     OW16240   3.534   3.205   0.541
 5114SOL    HW116241   3.440   3.208   0.507
 5114SOL    HW216242   3.533   3.209   0.641
 5115SOL     OW16243   1.895   4.551   5.330
 5115SOL    HW116244   1.812   4.534   5.277
 5115SOL    HW216245   1.942   4.465   5.346
 5116SOL     OW16246   5.719   6.248   6.181
 5116SOL    HW116247   5.771   6.332   6.196
 5116SOL    HW216248   5.728   6.189   6.261
 5117SOL     OW16249   2.205   4.572   4.156
 5117SOL    HW116250   2.136   4.600   4.223
 5117SOL    HW216251   2.181   4.608   4.066
 5118SOL     OW16252   4.822   6.162   0.731
 5118SOL    HW116253   4.795   6.197   0.641
 5118SOL    HW216254   4.839   6.064   0.724
 5119SOL     OW16255   5.151   0.650   1.683
 5119SOL    HW116256   5.121   0.559   1.712
 5119SOL    HW216257   5.248   0.661   1.703
 5120SOL     OW16258   5.602   1.623   3.828
 5120SOL    HW116259   5.510   1.652   3.802
 5120SOL    HW216260   5.643   1.572   3.752
 5121SOL     OW16261   1.711   2.592   6.732
 5121SOL    HW116262   1.681   2.523   6.666
 5121SOL    HW216263   1.676   2.568   6.823
 5122SOL     OW16264   2.914   0.453   4.323
 5122SOL    HW116265   2.873   0.534   4.366
 5122SOL    HW216266   2.872   0.371   4.362
 5123SOL     OW16267   5.880   3.651   4.537
 5123SOL    HW116268   5.887   3.626   4.441
 5123SOL    HW216269   5.912   3.745   4.550
 5124SOL     OW16270   2.621   4.891   6.423
 5124SOL    HW116271   2.700   4.899   6.362
 5124SOL    HW216272   2.617   4.970   6.484
 5125SOL     OW16273   6.784   3.681   4.637
 5125SOL    HW116274   6.725   3.620   4.689
 5125SOL    HW216275   6.729   3.750   4.590
 5126SOL     OW16276   6.122   4.792   5.378
 5126SOL    HW116277   6.073   4.810   5.293
 5126SOL    HW216278   6.174   4.706   5.368
 5127SOL     OW16279   5.902   3.688   0.178
 5127SOL    HW116280   5.926   3.777   0.217
 5127SOL    HW216281   5.860   3.631   0.249
 5128SOL     OW16282   1.115   0.590   0.338
 5128SOL    HW116283   1.054   0.562   0.412
 5128SOL    HW216284   1.155   0.510   0.295
 5129SOL     OW16285   4.882   1.173   2.621
 5129SOL    HW116286   4.864   1.197   2.716
 5129SOL    HW216287   4.973   1.132   2.613
 5130SOL     OW16288   1.373   5.820   4.511
 5130SOL    HW116289   1.383   5.836   4.413
 5130SOL    HW216290   1.436   5.748   4.540
 5131SOL     OW16291   3.045   4.823   3.330
 5131SOL    HW116292   3.110   4.898   3.318
 5131SOL    HW216293   3.008   4.826   3.423
 5132SOL     OW16294   3.757   1.113   5.872
 5132SOL    HW116295   3.765   1.013   5.870
 5132SOL    HW216296   3.738   1.147   5.780
 5133SOL     OW16297   2.790   5.647   6.004
 5133SOL    HW116298   2.703   5.678   6.043
 5133SOL    HW216299   2.771   5.583   5.929
 5134SOL     OW16300   6.526   0.182   2.483
 5134SOL    HW116301   6.571   0.218   2.565
 5134SOL    HW216302   6.574   0.215   2.402
 5135SOL     OW16303   6.474   3.739   3.282
 5135SOL    HW116304   6.561   3.747   3.330
 5135SOL    HW216305   6.453   3.824   3.235
 5136SOL     OW16306   6.483   1.915   5.654
 5136SOL    HW116307   6.477   1.882   5.560
 5136SOL    HW216308   6.390   1.933   5.689
 5137SOL     OW16309   5.095   3.002   5.578
 5137SOL    HW116310   5.167   2.968   5.639
 5137SOL    HW216311   5.015   2.943   5.586
 5138SOL     OW16312   3.446   3.903   3.721
 5138SOL    HW116313   3.488   3.817   3.692
 5138SOL    HW216314   3.362   3.918   3.668
 5139SOL     OW16315   1.128   0.222   4.960
 5139SOL    HW116316   1.118   0.321   4.960
 5139SOL    HW216317   1.051   0.180   5.007
 5140SOL     OW16318   3.895   1.541   6.089
 5140SOL    HW116319   3.869   1.505   5.999
 5140SOL    HW216320   3.844   1.625   6.107
 5141SOL     OW16321   6.209   2.562   1.133
 5141SOL    HW116322   6.295   2.608   1.157
 5141SOL    HW216323   6.209   2.540   1.036
 5142SOL     OW16324   5.927   6.934   4.847
 5142SOL    HW116325   6.015   6.938   4.895
 5142SOL    HW216326   5.925   6.853   4.788
 5143SOL     OW16327   1.401   4.388   4.860
 5143SOL    HW116328   1.455   4.430   4.787
 5143SOL    HW216329   1.304   4.408   4.847
 5144SOL     OW16330   1.924   3.932   6.534
 5144SOL    HW116331   1.828   3.958   6.537
 5144SOL    HW216332   1.969   3.981   6.459
 5145SOL     OW16333   3.234   6.278   6.707
 5145SOL    HW116334   3.192   6.238   6.626
 5145SOL    HW216335   3.231   6.213   6.782
 5146SOL     OW16336   3.785   4.140   5.463
 5146SOL    HW116337   3.878   4.112   5.436
 5146SOL    HW216338   3.744   4.194   5.389
 5147SOL     OW16339   5.672   4.677   3.452
 5147SOL    HW116340   5.609   4.704   3.526
 5147SOL    HW216341   5.620   4.663   3.368
 5148SOL     OW16342   0.565   0.440   2.437
 5148SOL    HW116343   0.499   0.417   2.366
 5148SOL    HW216344   0.534   0.521   2.487
 5149SOL     OW16345   5.481   4.792   4.384
 5149SOL    HW116346   5.574   4.769   4.354
 5149SOL    HW216347   5.439   4.713   4.427
 5150SOL     OW16348   1.670   4.734   3.797
 5150SOL    HW116349   1.651   4.637   3.816
 5150SOL    HW216350   1.625   4.760   3.711
 5151SOL     OW16351   5.744   4.235   1.830
 5151SOL    HW116352   5.817   4.195   1.775
 5151SOL    HW216353   5.776   4.251   1.923
 5152SOL     OW16354   1.095   5.957   6.748
 5152SOL    HW116355   1.111   5.902   6.666
 5152SOL    HW216356   0.997   5.970   6.762
 5153SOL     OW16357   1.410   1.396   1.085
 5153SOL    HW116358   1.399   1.409   1.184
 5153SOL    HW216359   1.409   1.486   1.040
 5154SOL     OW16360   1.609   2.861   6.716
 5154SOL    HW116361   1.670   2.782   6.720
 5154SOL    HW216362   1.647   2.929   6.653
 5155SOL     OW16363   2.882   1.875   0.652
 5155SOL    HW116364   2.972   1.851   0.688
 5155SOL    HW216365   2.865   1.972   0.667
 5156SOL     OW16366   5.155   4.604   4.624
 5156SOL    HW116367   5.242   4.593   4.575
 5156SOL    HW216368   5.088   4.647   4.563
 5157SOL     OW16369   3.108   1.406   2.052
 5157SOL    HW116370   3.022   1.400   2.102
 5157SOL    HW216371   3.184   1.391   2.114
 5158SOL     OW16372   3.186   2.183   1.105
 5158SOL    HW116373   3.169   2.163   1.201
 5158SOL    HW216374   3.106   2.230   1.066
 5159SOL     OW16375   6.280   3.972   6.130
 5159SOL    HW116376   6.194   4.009   6.095
 5159SOL    HW216377   6.275   3.872   6.131
 5160SOL     OW16378   6.417   6.406   3.398
 5160SOL    HW116379   6.511   6.412   3.433
 5160SOL    HW216380   6.353   6.432   3.470
 5161SOL     OW16381   1.221   3.328   0.126
 5161SOL    HW116382   1.272   3.345   0.211
 5161SOL    HW216383   1.213   3.230   0.112
 5162SOL     OW16384   0.645   5.270   2.293
 5162SOL    HW116385   0.728   5.321   2.313
 5162SOL    HW216386   0.593   5.255   2.377
 5163SOL     OW16387   3.576   6.694   1.205
 5163SOL    HW116388   3.627   6.610   1.224
 5163SOL    HW216389   3.617   6.770   1.255
 5164SOL     OW16390   2.714   3.172   0.328
 5164SOL    HW116391   2.743   3.077   0.329
 5164SOL    HW216392   2.789   3.230   0.358
 5165SOL     OW16393   0.940   3.989   6.637
 5165SOL    HW116394   1.004   4.036   6.577
 5165SOL    HW216395   0.868   3.947   6.582
 5166SOL     OW16396   1.576   5.458   2.156
 5166SOL    HW116397   1.495   5.400   2.150
 5166SOL    HW216398   1.550   5.552   2.132
 5167SOL     OW16399   6.002   4.390   5.050
 5167SOL    HW116400   5.912   4.364   5.085
 5167SOL    HW216401   6.061   4.310   5.046
 5168SOL     OW16402   4.343   2.091   2.611
 5168SOL    HW116403   4.294   2.065   2.528
 5168SOL    HW216404   4.398   2.172   2.594
 5169SOL     OW16405   4.652   1.783   3.915
 5169SOL    HW116406   4.634   1.782   3.817
 5169SOL    HW216407   4.674   1.691   3.946
 5170SOL     OW16408   1.178   3.798   5.748
 5170SOL    HW116409   1.218   3.717   5.705
 5170SOL    HW216410   1.154   3.865   5.678
 5171SOL     OW16411   1.271   5.042   5.560
 5171SOL    HW116412   1.240   5.001   5.646
 5171SOL    HW216413   1.302   4.970   5.498
 5172SOL     OW16414   1.406   5.137   3.720
 5172SOL    HW116415   1.462   5.208   3.679
 5172SOL    HW216416   1.342   5.177   3.785
 5173SOL     OW16417   4.499   3.861   6.112
 5173SOL    HW116418   4.450   3.926   6.170
 5173SOL    HW216419   4.595   3.890   6.103
 5174SOL     OW16420   2.080   6.757   3.991
 5174SOL    HW116421   2.046   6.799   4.075
 5174SOL    HW216422   2.054   6.661   3.989
 5175SOL     OW16423   2.812   4.086   6.468
 5175SOL    HW116424   2.813   4.156   6.397
 5175SOL    HW216425   2.808   3.995   6.426
 5176SOL     OW16426   5.165   5.301   6.150
 5176SOL    HW116427   5.075   5.346   6.147
 5176SOL    HW216428   5.236   5.369   6.133
 5177SOL     OW16429   5.143   6.602   1.120
 5177SOL    HW116430   5.234   6.608   1.079
 5177SOL    HW216431   5.132   6.513   1.164
 5178SOL     OW16432   0.515   4.749   1.686
 5178SOL    HW116433   0.422   4.754   1.649
 5178SOL    HW216434   0.533   4.655   1.717
 5179SOL     OW16435   4.886   4.246   3.278
 5179SOL    HW116436   4.833   4.318   3.322
 5179SOL    HW216437   4.825   4.178   3.237
 5180SOL     OW16438   3.436   0.095   1.143
 5180SOL    HW116439   3.455   0.158   1.218
 5180SOL    HW216440   3.380   0.019   1.177
 5181SOL     OW16441   0.143   0.600   0.351
 5181SOL    HW116442   0.164   0.680   0.295
 5181SOL    HW216443   0.115   0.524   0.292
 5182SOL     OW16444   4.526   4.532   2.182
 5182SOL    HW116445   4.548   4.456   2.120
 5182SOL    HW216446   4.470   4.599   2.134
 5183SOL     OW16447   3.692   1.577   2.946
 5183SOL    HW116448   3.669   1.612   2.855
 5183SOL    HW216449   3.711   1.478   2.940
 5184SOL     OW16450   1.834   2.247   3.032
 5184SOL    HW116451   1.910   2.191   2.998
 5184SOL    HW216452   1.758   2.187   3.058
 5185SOL     OW16453   4.802   0.116   2.931
 5185SOL    HW116454   4.899   0.103   2.909
 5185SOL    HW216455   4.752   0.145   2.850
 5186SOL     OW16456   5.726   2.793   5.799
 5186SOL    HW116457   5.778   2.816   5.882
 5186SOL    HW216458   5.679   2.706   5.812
 5187SOL     OW16459   2.516   5.300   4.760
 5187SOL    HW116460   2.488   5.329   4.668
 5187SOL    HW216461   2.535   5.381   4.816
 5188SOL     OW16462   0.017   6.067   1.532
 5188SOL    HW116463   6.967   6.109   1.586
 5188SOL    HW216464   7.012   6.061   1.437
 5189SOL     OW16465   5.575   6.001   0.016
 5189SOL    HW116466   5.549   5.982   0.111
 5189SOL    HW216467   5.673   5.981   0.004
 5190SOL     OW16468   1.866   3.366   2.149
 5190SOL    HW116469   1.922   3.420   2.212
 5190SOL    HW216470   1.862   3.271   2.181
 5191SOL     OW16471   3.156   5.761   2.723
 5191SOL    HW116472   3.246   5.750   2.682
 5191SOL    HW216473   3.160   5.830   2.796
 5192SOL     OW16474   2.032   5.790   1.400
 5192SOL    HW116475   2.054   5.882   1.368
 5192SOL    HW216476   1.951   5.794   1.459
 5193SOL     OW16477   4.999   0.051   6.494
 5193SOL    HW116478   5.031   0.047   6.589
 5193SOL    HW216479   5.055   0.116   6.443
 5194SOL     OW16480   2.536   1.846   6.584
 5194SOL    HW116481   2.598   1.841   6.662
 5194SOL    HW216482   2.503   1.755   6.561
 5195SOL     OW16483   0.651   0.361   3.900
 5195SOL    HW116484   0.725   0.428   3.908
 5195SOL    HW216485   0.681   0.285   3.843
 5196SOL     OW16486   4.525   6.758   2.167
 5196SOL    HW116487   4.483   6.672   2.136
 5196SOL    HW216488   4.611   6.773   2.118
 5197SOL     OW16489   1.412   3.729   6.429
 5197SOL    HW116490   1.334   3.667   6.434
 5197SOL    HW216491   1.475   3.698   6.358
 5198SOL     OW16492   4.393   5.412   2.957
 5198SOL    HW116493   4.401   5.499   3.005
 5198SOL    HW216494   4.306   5.368   2.980
 5199SOL     OW16495   0.492   5.424   1.133
 5199SOL    HW116496   0.484   5.522   1.115
 5199SOL    HW216497   0.552   5.383   1.064
 5200SOL     OW16498   6.754   3.699   5.010
 5200SOL    HW116499   6.839   3.737   4.972
 5200SOL    HW216500   6.774   3.613   5.056
 5201SOL     OW16501   0.510   6.705   3.554
 5201SOL    HW116502   0.587   6.643   3.537
 5201SOL    HW216503   0.542   6.783   3.608
 5202SOL     OW16504   6.372   2.621   6.011
 5202SOL    HW116505   6.300   2.629   5.942
 5202SOL    HW216506   6.445   2.687   5.992
 5203SOL     OW16507   2.014   2.370   6.758
 5203SOL    HW116508   1.922   2.408   6.765
 5203SOL    HW216509   2.030   2.306   6.833
 5204SOL     OW16510   3.823   4.845   0.437
 5204SOL    HW116511   3.910   4.847   0.486
 5204SOL    HW216512   3.837   4.872   0.342
 5205SOL     OW16513   1.754   6.896   1.007
 5205SOL    HW116514   1.768   6.819   0.945
 5205SOL    HW216515   1.704   6.866   1.088
 5206SOL     OW16516   0.544   4.119   6.206
 5206SOL    HW116517   0.520   4.216   6.201
 5206SOL    HW216518   0.642   4.108   6.191
 5207SOL     OW16519   1.031   5.354   4.258
 5207SOL    HW116520   0.966   5.389   4.191
 5207SOL    HW216521   1.078   5.275   4.220
 5208SOL     OW16522   3.657   1.100   0.728
 5208SOL    HW116523   3.680   1.172   0.662
 5208SOL    HW216524   3.617   1.023   0.680
 5209SOL     OW16525   6.009   5.576   4.167
 5209SOL    HW116526   5.923   5.595   4.215
 5209SOL    HW216527   6.025   5.477   4.167
 5210SOL     OW16528   5.773   3.476   5.881
 5210SOL    HW116529   5.799   3.440   5.791
 5210SOL    HW216530   5.830   3.433   5.951
 5211SOL     OW16531   3.438   2.963   4.435
 5211SOL    HW116532   3.515   2.928   4.381
 5211SOL    HW216533   3.353   2.949   4.383
 5212SOL     OW16534   6.698   2.261   1.092
 5212SOL    HW116535   6.747   2.332   1.143
 5212SOL    HW216536   6.634   2.215   1.154
 5213SOL     OW16537   5.302   2.008   0.135
 5213SOL    HW116538   5.239   1.931   0.125
 5213SOL    HW216539   5.326   2.043   0.044
 5214SOL     OW16540   4.889   1.360   6.739
 5214SOL    HW116541   4.981   1.354   6.779
 5214SOL    HW216542   4.881   1.292   6.666
 5215SOL     OW16543   5.246   5.291   3.221
 5215SOL    HW116544   5.337   5.329   3.202
 5215SOL    HW216545   5.240   5.266   3.317
 5216SOL     OW16546   4.969   6.151   1.188
 5216SOL    HW116547   4.984   6.059   1.153
 5216SOL    HW216548   4.929   6.208   1.116
 5217SOL     OW16549   3.115   5.237   4.303
 5217SOL    HW116550   3.115   5.140   4.281
 5217SOL    HW216551   3.173   5.253   4.383
 5218SOL     OW16552   1.593   0.095   3.409
 5218SOL    HW116553   1.677   0.041   3.400
 5218SOL    HW216554   1.536   0.082   3.327
 5219SOL     OW16555   3.796   0.441   6.680
 5219SOL    HW116556   3.811   0.365   6.743
 5219SOL    HW216557   3.785   0.526   6.732
 5220SOL     OW16558   1.363   5.383   2.820
 5220SOL    HW116559   1.284   5.379   2.881
 5220SOL    HW216560   1.356   5.462   2.760
 5221SOL     OW16561   5.488   2.472   4.521
 5221SOL    HW116562   5.492   2.571   4.506
 5221SOL    HW216563   5.505   2.452   4.618
 5222SOL     OW16564   2.560   0.042   4.458
 5222SOL    HW116565   2.653   0.006   4.468
 5222SOL    HW216566   2.564   0.138   4.431
 5223SOL     OW16567   4.656   0.843   1.407
 5223SOL    HW116568   4.646   0.915   1.339
 5223SOL    HW216569   4.745   0.798   1.397
 5224SOL     OW16570   6.997   1.637   3.296
 5224SOL    HW116571   6.955   1.566   3.352
 5224SOL    HW216572   0.057   1.602   3.253
 5225SOL     OW16573   6.677   0.917   3.174
 5225SOL    HW116574   6.581   0.922   3.202
 5225SOL    HW216575   6.703   1.001   3.127
 5226SOL     OW16576   0.496   6.262   5.493
 5226SOL    HW116577   0.450   6.336   5.445
 5226SOL    HW216578   0.581   6.239   5.447
 5227SOL     OW16579   1.587   4.899   3.992
 5227SOL    HW116580   1.616   4.882   4.086
 5227SOL    HW216581   1.631   4.834   3.931
 5228SOL     OW16582   6.346   2.747   0.834
 5228SOL    HW116583   6.344   2.771   0.737
 5228SOL    HW216584   6.311   2.655   0.846
 5229SOL     OW16585   1.256   4.405   6.653
 5229SOL    HW116586   1.215   4.483   6.701
 5229SOL    HW216587   1.265   4.328   6.716
 5230SOL     OW16588   0.305   0.022   0.468
 5230SOL    HW116589   0.364   6.966   0.480
 5230SOL    HW216590   0.352   0.090   0.411
 5231SOL     OW16591   2.932   3.264   4.701
 5231SOL    HW116592   2.863   3.210   4.652
 5231SOL    HW216593   2.942   3.353   4.658
 5232SOL     OW16594   3.166   2.021   6.505
 5232SOL    HW116595   3.125   1.998   6.417
 5232SOL    HW216596   3.100   2.072   6.560
 5233SOL     OW16597   6.866   0.057   1.290
 5233SOL    HW116598   6.873   0.023   1.384
 5233SOL    HW216599   6.836   0.153   1.292
 5234SOL     OW16600   3.307   0.232   6.695
 5234SOL    HW116601   3.223   0.182   6.676
 5234SOL    HW216602   3.349   0.262   6.609
 5235SOL     OW16603   1.669   3.073   1.199
 5235SOL    HW116604   1.682   3.170   1.219
 5235SOL    HW216605   1.758   3.028   1.193
 5236SOL     OW16606   5.807   2.743   1.634
 5236SOL    HW116607   5.790   2.822   1.693
 5236SOL    HW216608   5.720   2.702   1.608
 5237SOL     OW16609   2.621   1.788   5.424
 5237SOL    HW116610   2.676   1.856   5.375
 5237SOL    HW216611   2.650   1.783   5.519
 5238SOL     OW16612   2.256   5.097   0.439
 5238SOL    HW116613   2.242   5.055   0.529
 5238SOL    HW216614   2.250   5.196   0.447
 5239SOL     OW16615   3.811   3.859   3.520
 5239SOL    HW116616   3.856   3.881   3.607
 5239SOL    HW216617   3.875   3.877   3.444
 5240SOL     OW16618   2.940   2.342   5.787
 5240SOL    HW116619   2.844   2.318   5.770
 5240SOL    HW216620   2.996   2.314   5.709
 5241SOL     OW16621   1.461   5.941   6.553
 5241SOL    HW116622   1.376   5.893   6.530
 5241SOL    HW216623   1.463   6.029   6.506
 5242SOL     OW16624   6.237   6.765   5.435
 5242SOL    HW116625   6.223   6.842   5.373
 5242SOL    HW216626   6.295   6.697   5.391
 5243SOL     OW16627   1.941   6.150   1.507
 5243SOL    HW116628   1.884   6.149   1.425
 5243SOL    HW216629   1.973   6.244   1.524
 5244SOL     OW16630   4.309   3.788   5.914
 5244SOL    HW116631   4.359   3.829   5.991
 5244SOL    HW216632   4.225   3.840   5.898
 5245SOL     OW16633   4.279   4.440   6.630
 5245SOL    HW116634   4.357   4.380   6.647
 5245SOL    HW216635   4.195   4.387   6.633
 5246SOL     OW16636   5.854   4.464   2.930
 5246SOL    HW116637   5.809   4.380   2.900
 5246SOL    HW216638   5.897   4.509   2.852
 5247SOL     OW16639   1.662   6.011   0.486
 5247SOL    HW116640   1.670   6.029   0.584
 5247SOL    HW216641   1.675   5.913   0.469
 5248SOL     OW16642   6.067   0.648   5.895
 5248SOL    HW116643   6.000   0.622   5.826
 5248SOL    HW216644   6.048   0.600   5.981
 5249SOL     OW16645   0.814   5.749   5.120
 5249SOL    HW116646   0.834   5.783   5.028
 5249SOL    HW216647   0.728   5.698   5.119
 5250SOL     OW16648   6.718   1.510   5.804
 5250SOL    HW116649   6.680   1.430   5.757
 5250SOL    HW216650   6.723   1.587   5.740
 5251SOL     OW16651   0.252   2.778   1.183
 5251SOL    HW116652   0.213   2.753   1.271
 5251SOL    HW216653   0.283   2.873   1.186
 5252SOL     OW16654   1.881   5.796   0.754
 5252SOL    HW116655   1.936   5.713   0.759
 5252SOL    HW216656   1.874   5.827   0.659
 5253SOL     OW16657   5.350   3.476   5.497
 5253SOL    HW116658   5.368   3.390   5.449
 5253SOL    HW216659   5.289   3.533   5.442
 5254SOL     OW16660   5.486   1.797   3.560
 5254SOL    HW116661   5.535   1.726   3.509
 5254SOL    HW216662   5.405   1.757   3.603
 5255SOL     OW16663   4.235   0.021   4.582
 5255SOL    HW116664   4.253   0.019   4.680
 5255SOL    HW216665   4.320   0.002   4.532
 5256SOL     OW16666   5.105   1.210   3.190
 5256SOL    HW116667   5.023   1.245   3.236
 5256SOL    HW216668   5.158   1.287   3.153
 5257SOL     OW16669   4.315   0.376   2.156
 5257SOL    HW116670   4.350   0.469   2.166
 5257SOL    HW216671   4.245   0.374   2.084
 5258SOL     OW16672   4.887   3.970   1.404
 5258SOL    HW116673   4.833   4.014   1.333
 5258SOL    HW216674   4.841   3.978   1.492
 5259SOL     OW16675   4.394   6.312   1.175
 5259SOL    HW116676   4.482   6.348   1.204
 5259SOL    HW216677   4.356   6.371   1.103
 5260SOL     OW16678   5.239   2.969   1.023
 5260SOL    HW116679   5.163   2.904   1.016
 5260SOL    HW216680   5.213   3.056   0.983
 5261SOL     OW16681   0.989   2.905   5.914
 5261SOL    HW116682   0.901   2.906   5.962
 5261SOL    HW216683   0.974   2.880   5.818
 5262SOL     OW16684   2.636   0.045   2.583
 5262SOL    HW116685   2.601   6.981   2.548
 5262SOL    HW216686   2.639   0.042   2.683
 5263SOL     OW16687   0.932   0.354   6.229
 5263SOL    HW116688   0.893   0.279   6.176
 5263SOL    HW216689   0.961   0.320   6.318
 5264SOL     OW16690   6.239   0.761   1.944
 5264SOL    HW116691   6.185   0.688   1.986
 5264SOL    HW216692   6.298   0.722   1.874
 5265SOL     OW16693   5.043   4.292   2.514
 5265SOL    HW116694   5.078   4.320   2.425
 5265SOL    HW216695   4.978   4.216   2.503
 5266SOL     OW16696   2.412   6.545   1.537
 5266SOL    HW116697   2.389   6.578   1.445
 5266SOL    HW216698   2.337   6.488   1.571
 5267SOL     OW16699   4.837   4.386   6.089
 5267SOL    HW116700   4.748   4.364   6.129
 5267SOL    HW216701   4.904   4.316   6.113
 5268SOL     OW16702   0.019   5.621   5.452
 5268SOL    HW116703   0.015   5.530   5.493
 5268SOL    HW216704   0.075   5.681   5.509
 5269SOL     OW16705   2.346   5.792   3.960
 5269SOL    HW116706   2.425   5.818   4.016
 5269SOL    HW216707   2.266   5.779   4.019
 5270SOL     OW16708   4.265   2.159   1.864
 5270SOL    HW116709   4.178   2.138   1.818
 5270SOL    HW216710   4.264   2.120   1.956
 5271SOL     OW16711   4.568   5.285   4.386
 5271SOL    HW116712   4.479   5.316   4.354
 5271SOL    HW216713   4.562   5.189   4.415
 5272SOL     OW16714   1.239   5.646   3.648
 5272SOL    HW116715   1.296   5.708   3.701
 5272SOL    HW216716   1.197   5.696   3.572
 5273SOL     OW16717   0.836   2.917   3.050
 5273SOL    HW116718   0.806   2.887   2.960
 5273SOL    HW216719   0.934   2.938   3.048
 5274SOL     OW16720   6.209   4.934   3.073
 5274SOL    HW116721   6.203   4.834   3.076
 5274SOL    HW216722   6.303   4.961   3.049
 5275SOL     OW16723   3.002   1.545   6.168
 5275SOL    HW116724   2.919   1.540   6.222
 5275SOL    HW216725   3.068   1.476   6.200
 5276SOL     OW16726   0.103   6.151   0.756
 5276SOL    HW116727   0.013   6.107   0.753
 5276SOL    HW216728   0.110   6.216   0.681
 5277SOL     OW16729   1.804   2.636   2.727
 5277SOL    HW116730   1.883   2.698   2.720
 5277SOL    HW216731   1.811   2.583   2.811
 5278SOL     OW16732   5.333   6.792   5.151
 5278SOL    HW116733   5.361   6.887   5.141
 5278SOL    HW216734   5.246   6.778   5.103
 5279SOL     OW16735   1.821   6.224   6.949
 5279SOL    HW116736   1.760   6.194   7.023
 5279SOL    HW216737   1.813   6.161   6.872
 5280SOL     OW16738   3.405   5.649   5.440
 5280SOL    HW116739   3.367   5.576   5.497
 5280SOL    HW216740   3.494   5.677   5.475
 5281SOL     OW16741   1.713   1.635   4.006
 5281SOL    HW116742   1.617   1.619   3.985
 5281SOL    HW216743   1.767   1.628   3.921
 5282SOL     OW16744   1.795   6.925   1.638
 5282SOL    HW116745   1.852   7.006   1.646
 5282SOL    HW216746   1.798   6.873   1.724
 5283SOL     OW16747   1.701   0.509   3.197
 5283SOL    HW116748   1.686   0.608   3.201
 5283SOL    HW216749   1.647   0.471   3.121
 5284SOL     OW16750   4.732   2.733   3.534
 5284SOL    HW116751   4.691   2.734   3.625
 5284SOL    HW216752   4.775   2.821   3.515
 5285SOL     OW16753   0.559   3.450   4.308
 5285SOL    HW116754   0.541   3.513   4.233
 5285SOL    HW216755   0.559   3.500   4.395
 5286SOL     OW16756   6.745   3.238   1.041
 5286SOL    HW116757   6.835   3.222   1.001
 5286SOL    HW216758   6.712   3.328   1.013
 5287SOL     OW16759   3.027   5.589   1.277
 5287SOL    HW116760   2.947   5.568   1.334
 5287SOL    HW216761   3.086   5.654   1.325
 5288SOL     OW16762   3.687   0.285   2.651
 5288SOL    HW116763   3.664   0.194   2.686
 5288SOL    HW216764   3.710   0.279   2.554
 5289SOL     OW16765   2.144   5.459   5.899
 5289SOL    HW116766   2.208   5.385   5.922
 5289SOL    HW216767   2.118   5.451   5.803
 5290SOL     OW16768   1.859   3.531   5.216
 5290SOL    HW116769   1.866   3.573   5.306
 5290SOL    HW216770   1.926   3.458   5.208
 5291SOL     OW16771   3.387   4.530   6.269
 5291SOL    HW116772   3.326   4.539   6.190
 5291SOL    HW216773   3.441   4.447   6.260
 5292SOL     OW16774   6.008   4.564   5.615
 5292SOL    HW116775   6.006   4.478   5.565
 5292SOL    HW216776   5.952   4.632   5.567
 5293SOL     OW16777   2.595   6.721   5.022
 5293SOL    HW116778   2.524   6.762   4.964
 5293SOL    HW216779   2.659   6.669   4.965
 5294SOL     OW16780   4.877   2.053   5.583
 5294SOL    HW116781   4.887   1.955   5.569
 5294SOL    HW216782   4.925   2.080   5.666
 5295SOL     OW16783   3.601   1.123   2.640
 5295SOL    HW116784   3.600   1.151   2.736
 5295SOL    HW216785   3.583   1.025   2.633
 5296SOL     OW16786   3.260   4.226   6.975
 5296SOL    HW116787   3.161   4.212   6.966
 5296SOL    HW216788   3.287   4.306   6.922
 5297SOL     OW16789   1.504   3.697   0.502
 5297SOL    HW116790   1.558   3.769   0.546
 5297SOL    HW216791   1.561   3.651   0.433
 5298SOL     OW16792   1.202   6.007   0.207
 5298SOL    HW116793   1.268   5.941   0.242
 5298SOL    HW216794   1.236   6.046   0.121
 5299SOL     OW16795   2.768   2.635   0.856
 5299SOL    HW116796   2.740   2.715   0.803
 5299SOL    HW216797   2.686   2.584   0.885
 5300SOL     OW16798   0.448   5.835   0.987
 5300SOL    HW116799   0.534   5.869   1.026
 5300SOL    HW216800   0.409   5.905   0.926
 5301SOL     OW16801   4.162   1.473   6.059
 5301SOL    HW116802   4.215   1.557   6.050
 5301SOL    HW216803   4.065   1.494   6.057
 5302SOL     OW16804   6.360   5.839   3.618
 5302SOL    HW116805   6.393   5.928   3.650
 5302SOL    HW216806   6.321   5.789   3.696
 5303SOL     OW16807   0.324   5.434   4.482
 5303SOL    HW116808   0.266   5.353   4.475
 5303SOL    HW216809   0.305   5.482   4.568
 5304SOL     OW16810   5.900   0.325   0.954
 5304SOL    HW116811   5.884   0.336   0.856
 5304SOL    HW216812   5.993   0.293   0.969
 5305SOL     OW16813   0.621   4.536   3.552
 5305SOL    HW116814   0.654   4.441   3.548
 5305SOL    HW216815   0.549   4.549   3.484
 5306SOL     OW16816   1.022   4.629   5.080
 5306SOL    HW116817   0.940   4.679   5.051
 5306SOL    HW216818   1.095   4.647   5.015
 5307SOL     OW16819   4.170   1.703   0.110
 5307SOL    HW116820   4.162   1.794   0.151
 5307SOL    HW216821   4.078   1.664   0.098
 5308SOL     OW16822   1.125   4.713   2.553
 5308SOL    HW116823   1.164   4.760   2.474
 5308SOL    HW216824   1.132   4.614   2.540
 5309SOL     OW16825   4.137   4.747   1.958
 5309SOL    HW116826   4.141   4.816   1.886
 5309SOL    HW216827   4.059   4.766   2.018
 5310SOL     OW16828   6.044   3.276   1.748
 5310SOL    HW116829   6.040   3.266   1.847
 5310SOL    HW216830   5.995   3.359   1.720
 5311SOL     OW16831   6.588   0.095   7.007
 5311SOL    HW116832   6.562   0.012   6.957
 5311SOL    HW216833   6.625   0.162   6.943
 5312SOL     OW16834   1.003   5.507   1.468
 5312SOL    HW116835   0.994   5.419   1.421
 5312SOL    HW216836   0.978   5.497   1.564
 5313SOL     OW16837   1.244   2.899   5.993
 5313SOL    HW116838   1.260   2.936   6.084
 5313SOL    HW216839   1.147   2.909   5.969
 5314SOL     OW16840   3.911   6.607   0.355
 5314SOL    HW116841   4.004   6.620   0.322
 5314SOL    HW216842   3.855   6.686   0.327
 5315SOL     OW16843   4.863   3.632   1.904
 5315SOL    HW116844   4.921   3.640   1.823
 5315SOL    HW216845   4.772   3.599   1.876
 5316SOL     OW16846   1.150   3.460   5.131
 5316SOL    HW116847   1.113   3.551   5.112
 5316SOL    HW216848   1.081   3.390   5.109
 5317SOL     OW16849   5.826   1.463   5.139
 5317SOL    HW116850   5.776   1.433   5.221
 5317SOL    HW216851   5.923   1.469   5.160
 5318SOL     OW16852   0.881   2.529   0.136
 5318SOL    HW116853   0.905   2.494   0.226
 5318SOL    HW216854   0.797   2.484   0.104
 5319SOL     OW16855   4.311   6.021   0.113
 5319SOL    HW116856   4.294   6.010   0.211
 5319SOL    HW216857   4.402   6.058   0.098
 5320SOL     OW16858   4.675   4.670   0.476
 5320SOL    HW116859   4.746   4.724   0.521
 5320SOL    HW216860   4.588   4.685   0.522
 5321SOL     OW16861   2.249   5.047   4.629
 5321SOL    HW116862   2.273   4.956   4.594
 5321SOL    HW216863   2.165   5.041   4.683
 5322SOL     OW16864   5.676   5.944   6.697
 5322SOL    HW116865   5.727   6.025   6.668
 5322SOL    HW216866   5.578   5.961   6.688
 5323SOL     OW16867   4.186   1.460   6.357
 5323SOL    HW116868   4.167   1.462   6.259
 5323SOL    HW216869   4.231   1.545   6.384
 5324SOL     OW16870   3.202   2.227   0.655
 5324SOL    HW116871   3.267   2.151   0.657
 5324SOL    HW216872   3.244   2.306   0.612
 5325SOL     OW16873   4.537   0.207   4.395
 5325SOL    HW116874   4.559   0.147   4.472
 5325SOL    HW216875   4.579   0.297   4.409
 5326SOL     OW16876   6.571   5.058   2.909
 5326SOL    HW116877   6.584   5.041   2.811
 5326SOL    HW216878   6.509   5.135   2.921
 5327SOL     OW16879   5.524   2.568   5.503
 5327SOL    HW116880   5.519   2.496   5.434
 5327SOL    HW216881   5.505   2.656   5.460
 5328SOL     OW16882   3.678   3.283   5.101
 5328SOL    HW116883   3.599   3.343   5.091
 5328SOL    HW216884   3.680   3.217   5.026
 5329SOL     OW16885   0.193   4.174   6.633
 5329SOL    HW116886   0.253   4.146   6.558
 5329SOL    HW216887   0.148   4.261   6.609
 5330SOL     OW16888   3.945   3.995   6.665
 5330SOL    HW116889   3.949   3.902   6.627
 5330SOL    HW216890   3.853   4.031   6.654
 5331SOL     OW16891   5.290   1.219   0.243
 5331SOL    HW116892   5.365   1.194   0.304
 5331SOL    HW216893   5.203   1.206   0.290
 5332SOL     OW16894   0.570   2.813   1.137
 5332SOL    HW116895   0.473   2.834   1.154
 5332SOL    HW216896   0.590   2.721   1.169
 5333SOL     OW16897   0.515   0.494   3.302
 5333SOL    HW116898   0.458   0.421   3.265
 5333SOL    HW216899   0.539   0.472   3.397
 5334SOL     OW16900   2.979   0.165   4.350
 5334SOL    HW116901   2.973   0.072   4.386
 5334SOL    HW216902   3.074   0.195   4.351
 5335SOL     OW16903   6.771   6.237   1.491
 5335SOL    HW116904   6.683   6.223   1.536
 5335SOL    HW216905   6.775   6.180   1.409
 5336SOL     OW16906   1.853   3.057   3.260
 5336SOL    HW116907   1.920   2.984   3.243
 5336SOL    HW216908   1.900   3.146   3.259
 5337SOL     OW16909   5.144   4.094   1.160
 5337SOL    HW116910   5.162   4.002   1.194
 5337SOL    HW216911   5.046   4.109   1.153
 5338SOL     OW16912   5.993   1.740   6.843
 5338SOL    HW116913   5.996   1.809   6.915
 5338SOL    HW216914   6.078   1.686   6.845
 5339SOL     OW16915   6.525   2.153   4.122
 5339SOL    HW116916   6.546   2.242   4.081
 5339SOL    HW216917   6.559   2.080   4.062
 5340SOL     OW16918   4.898   4.113   0.829
 5340SOL    HW116919   4.952   4.042   0.782
 5340SOL    HW216920   4.847   4.071   0.904
 5341SOL     OW16921   3.312   2.803   6.239
 5341SOL    HW116922   3.258   2.751   6.305
 5341SOL    HW216923   3.260   2.812   6.153
 5342SOL     OW16924   3.094   6.768   4.126
 5342SOL    HW116925   3.160   6.803   4.192
 5342SOL    HW216926   3.038   6.844   4.092
 5343SOL     OW16927   3.833   4.075   4.315
 5343SOL    HW116928   3.744   4.085   4.359
 5343SOL    HW216929   3.881   3.996   4.355
 5344SOL     OW16930   2.198   3.112   2.599
 5344SOL    HW116931   2.234   3.037   2.655
 5344SOL    HW216932   2.202   3.198   2.651
 5345SOL     OW16933   3.707   6.396   1.407
 5345SOL    HW116934   3.791   6.342   1.416
 5345SOL    HW216935   3.729   6.493   1.417
 5346SOL     OW16936   3.195   6.204   4.123
 5346SOL    HW116937   3.191   6.299   4.089
 5346SOL    HW216938   3.195   6.142   4.045
 5347SOL     OW16939   0.896   2.450   2.019
 5347SOL    HW116940   0.978   2.465   2.073
 5347SOL    HW216941   0.906   2.494   1.930
 5348SOL     OW16942   0.064   2.307   0.894
 5348SOL    HW116943   0.082   2.269   0.803
 5348SOL    HW216944   0.080   2.406   0.893
 5349SOL     OW16945   1.825   2.705   0.341
 5349SOL    HW116946   1.732   2.675   0.361
 5349SOL    HW216947   1.890   2.632   0.365
 5350SOL     OW16948   1.991   0.233   5.398
 5350SOL    HW116949   1.972   0.149   5.347
 5350SOL    HW216950   2.053   0.214   5.473
 5351SOL     OW16951   6.079   6.025   1.988
 5351SOL    HW116952   6.018   5.947   1.972
 5351SOL    HW216953   6.141   6.005   2.063
 5352SOL     OW16954   2.260   5.092   3.207
 5352SOL    HW116955   2.177   5.084   3.152
 5352SOL    HW216956   2.281   5.188   3.221
 5353SOL     OW16957   3.950   5.262   3.541
 5353SOL    HW116958   4.041   5.222   3.533
 5353SOL    HW216959   3.903   5.223   3.620
 5354SOL     OW16960   2.811   5.400   1.782
 5354SOL    HW116961   2.779   5.420   1.874
 5354SOL    HW216962   2.869   5.318   1.783
 5355SOL     OW16963   5.645   3.189   3.359
 5355SOL    HW116964   5.564   3.182   3.417
 5355SOL    HW216965   5.619   3.173   3.264
 5356SOL     OW16966   5.528   4.494   1.797
 5356SOL    HW116967   5.506   4.413   1.743
 5356SOL    HW216968   5.447   4.522   1.848
 5357SOL     OW16969   4.664   6.394   0.447
 5357SOL    HW116970   4.740   6.399   0.383
 5357SOL    HW216971   4.659   6.478   0.501
 5358SOL     OW16972   4.664   1.582   0.114
 5358SOL    HW116973   4.694   1.527   0.037
 5358SOL    HW216974   4.687   1.678   0.097
 5359SOL     OW16975   1.252   1.904   6.443
 5359SOL    HW116976   1.295   1.889   6.532
 5359SOL    HW216977   1.231   2.001   6.431
 5360SOL     OW16978   4.478   6.855   5.606
 5360SOL    HW116979   4.508   6.805   5.525
 5360SOL    HW216980   4.491   6.953   5.591
 5361SOL     OW16981   2.598   0.922   5.103
 5361SOL    HW116982   2.550   0.987   5.043
 5361SOL    HW216983   2.578   0.944   5.198
 5362SOL     OW16984   5.894   5.207   3.369
 5362SOL    HW116985   5.811   5.249   3.333
 5362SOL    HW216986   5.930   5.141   3.302
 5363SOL     OW16987   0.226   0.247   6.654
 5363SOL    HW116988   0.275   0.323   6.696
 5363SOL    HW216989   0.144   0.226   6.708
 5364SOL     OW16990   6.335   6.531   1.571
 5364SOL    HW116991   6.255   6.589   1.586
 5364SOL    HW216992   6.406   6.584   1.525
 5365SOL     OW16993   3.579   3.673   6.959
 5365SOL    HW116994   3.538   3.620   6.885
 5365SOL    HW216995   3.677   3.652   6.964
 5366SOL     OW16996   5.406   5.851   1.555
 5366SOL    HW116997   5.307   5.860   1.565
 5366SOL    HW216998   5.444   5.804   1.635
 5367SOL     OW16999   0.788   6.310   0.516
 5367SOL    HW117000   0.744   6.220   0.514
 5367SOL    HW217001   0.769   6.358   0.430
 5368SOL     OW17002   5.394   0.274   2.958
 5368SOL    HW117003   5.354   0.280   2.867
 5368SOL    HW217004   5.435   0.362   2.982
 5369SOL     OW17005   2.863   6.627   1.949
 5369SOL    HW117006   2.957   6.593   1.950
 5369SOL    HW217007   2.806   6.567   1.894
 5370SOL     OW17008   4.424   2.875   1.555
 5370SOL    HW117009   4.429   2.891   1.457
 5370SOL    HW217010   4.376   2.789   1.573
 5371SOL     OW17011   1.398   3.933   4.739
 5371SOL    HW117012   1.470   3.928   4.808
 5371SOL    HW217013   1.413   3.862   4.669
 5372SOL     OW17014   2.714   5.734   3.364
 5372SOL    HW117015   2.643   5.787   3.318
 5372SOL    HW217016   2.679   5.701   3.452
 5373SOL     OW17017   3.863   6.408   3.986
 5373SOL    HW117018   3.790   6.355   3.942
 5373SOL    HW217019   3.869   6.382   4.082
 5374SOL     OW17020   1.195   3.742   6.663
 5374SOL    HW117021   1.141   3.743   6.578
 5374SOL    HW217022   1.137   3.770   6.739
 5375SOL     OW17023   2.154   5.358   4.651
 5375SOL    HW117024   2.160   5.385   4.555
 5375SOL    HW217025   2.117   5.265   4.657
 5376SOL     OW17026   1.115   3.389   0.867
 5376SOL    HW117027   1.150   3.324   0.800
 5376SOL    HW217028   1.016   3.379   0.875
 5377SOL     OW17029   0.250   6.916   2.062
 5377SOL    HW117030   0.301   6.946   1.980
 5377SOL    HW217031   0.280   6.825   2.089
 5378SOL     OW17032   0.139   0.686   2.077
 5378SOL    HW117033   0.129   0.741   2.160
 5378SOL    HW217034   0.149   0.746   1.998
 5379SOL     OW17035   2.151   5.342   4.931
 5379SOL    HW117036   2.068   5.398   4.933
 5379SOL    HW217037   2.184   5.335   4.837
 5380SOL     OW17038   2.007   2.070   2.855
 5380SOL    HW117039   2.030   2.111   2.767
 5380SOL    HW217040   1.939   1.998   2.842
 5381SOL     OW17041   6.623   3.767   1.258
 5381SOL    HW117042   6.602   3.810   1.346
 5381SOL    HW217043   6.634   3.838   1.188
 5382SOL     OW17044   3.120   0.204   2.026
 5382SOL    HW117045   3.177   0.178   2.104
 5382SOL    HW217046   3.115   0.128   1.962
 5383SOL     OW17047   2.213   2.579   5.723
 5383SOL    HW117048   2.224   2.580   5.822
 5383SOL    HW217049   2.258   2.497   5.685
 5384SOL     OW17050   5.686   6.941   4.940
 5384SOL    HW117051   5.772   6.939   4.890
 5384SOL    HW217052   5.652   6.848   4.952
 5385SOL     OW17053   3.043   3.155   4.140
 5385SOL    HW117054   2.971   3.219   4.113
 5385SOL    HW217055   3.114   3.204   4.190
 5386SOL     OW17056   4.562   0.044   4.601
 5386SOL    HW117057   4.661   0.041   4.584
 5386SOL    HW217058   4.527   6.974   4.602
 5387SOL     OW17059   2.651   6.499   3.732
 5387SOL    HW117060   2.557   6.483   3.700
 5387SOL    HW217061   2.648   6.548   3.819
 5388SOL     OW17062   6.801   0.075   4.619
 5388SOL    HW117063   6.750   0.012   4.560
 5388SOL    HW217064   6.896   0.044   4.626
 5389SOL     OW17065   4.454   1.195   2.125
 5389SOL    HW117066   4.474   1.236   2.037
 5389SOL    HW217067   4.403   1.260   2.181
 5390SOL     OW17068   4.778   4.045   3.135
 5390SOL    HW117069   4.845   3.984   3.093
 5390SOL    HW217070   4.696   4.049   3.078
 5391SOL     OW17071   2.107   2.065   1.331
 5391SOL    HW117072   2.171   2.004   1.378
 5391SOL    HW217073   2.155   2.115   1.259
 5392SOL     OW17074   5.536   3.422   1.557
 5392SOL    HW117075   5.596   3.497   1.588
 5392SOL    HW217076   5.447   3.460   1.530
 5393SOL     OW17077   5.162   7.022   6.710
 5393SOL    HW117078   5.240   6.977   6.754
 5393SOL    HW217079   5.083   6.960   6.709
 5394SOL     OW17080   6.899   5.180   6.502
 5394SOL    HW117081   6.801   5.186   6.486
 5394SOL    HW217082   6.948   5.222   6.425
 5395SOL     OW17083   4.553   0.788   1.886
 5395SOL    HW117084   4.562   0.887   1.893
 5395SOL    HW217085   4.582   0.745   1.972
 5396SOL     OW17086   4.727   4.817   2.862
 5396SOL    HW117087   4.759   4.898   2.813
 5396SOL    HW217088   4.659   4.769   2.806
 5397SOL     OW17089   0.098   2.557   1.729
 5397SOL    HW117090   0.004   2.583   1.750
 5397SOL    HW217091   0.131   2.610   1.651
 5398SOL     OW17092   3.215   2.159   2.995
 5398SOL    HW117093   3.120   2.186   2.984
 5398SOL    HW217094   3.253   2.132   2.906
 5399SOL     OW17095   2.347   5.572   0.665
 5399SOL    HW117096   2.382   5.567   0.759
 5399SOL    HW217097   2.248   5.584   0.667
 5400SOL     OW17098   2.785   4.234   0.701
 5400SOL    HW117099   2.751   4.148   0.664
 5400SOL    HW217100   2.883   4.228   0.717
 5401SOL     OW17101   5.663   3.555   1.758
 5401SOL    HW117102   5.688   3.652   1.760
 5401SOL    HW217103   5.576   3.542   1.804
 5402SOL     OW17104   2.265   4.893   1.549
 5402SOL    HW117105   2.281   4.801   1.587
 5402SOL    HW217106   2.171   4.898   1.513
 5403SOL     OW17107   6.123   2.235   6.128
 5403SOL    HW117108   6.149   2.196   6.040
 5403SOL    HW217109   6.050   2.181   6.169
 5404SOL     OW17110   1.064   0.631   2.580
 5404SOL    HW117111   1.145   0.631   2.521
 5404SOL    HW217112   1.017   0.718   2.573
 5405SOL     OW17113   6.178   6.165   0.317
 5405SOL    HW117114   6.209   6.074   0.291
 5405SOL    HW217115   6.078   6.164   0.329
 5406SOL     OW17116   2.952   0.341   6.731
 5406SOL    HW117117   2.878   0.327   6.797
 5406SOL    HW217118   2.934   0.288   6.648
 5407SOL     OW17119   4.412   2.910   1.291
 5407SOL    HW117120   4.476   2.982   1.265
 5407SOL    HW217121   4.420   2.833   1.228
 5408SOL     OW17122   3.385   1.099   6.247
 5408SOL    HW117123   3.318   1.035   6.285
 5408SOL    HW217124   3.419   1.063   6.160
 5409SOL     OW17125   5.762   1.370   4.084
 5409SOL    HW117126   5.730   1.465   4.086
 5409SOL    HW217127   5.775   1.341   3.989
 5410SOL     OW17128   1.779   3.266   0.946
 5410SOL    HW117129   1.824   3.345   0.905
 5410SOL    HW217130   1.686   3.291   0.974
 5411SOL     OW17131   6.612   5.192   5.891
 5411SOL    HW117132   6.585   5.095   5.896
 5411SOL    HW217133   6.654   5.219   5.977
 5412SOL     OW17134   4.400   0.787   7.001
 5412SOL    HW117135   4.407   0.689   7.018
 5412SOL    HW217136   4.389   0.804   6.904
 5413SOL     OW17137   1.925   1.015   1.391
 5413SOL    HW117138   1.936   1.111   1.415
 5413SOL    HW217139   1.906   0.961   1.474
 5414SOL     OW17140   6.003   3.131   4.828
 5414SOL    HW117141   5.989   3.171   4.737
 5414SOL    HW217142   5.966   3.038   4.829
 5415SOL     OW17143   1.427   5.929   1.490
 5415SOL    HW117144   1.383   5.997   1.430
 5415SOL    HW217145   1.458   5.974   1.573
 5416SOL     OW17146   4.265   4.666   6.489
 5416SOL    HW117147   4.257   4.587   6.551
 5416SOL    HW217148   4.200   4.737   6.518
 5417SOL     OW17149   4.334   6.433   5.487
 5417SOL    HW117150   4.270   6.506   5.464
 5417SOL    HW217151   4.405   6.469   5.548
 5418SOL     OW17152   4.089   6.409   4.251
 5418SOL    HW117153   4.058   6.390   4.344
 5418SOL    HW217154   4.046   6.494   4.218
 5419SOL     OW17155   3.223   5.013   0.282
 5419SOL    HW117156   3.128   5.027   0.255
 5419SOL    HW217157   3.283   5.028   0.204
 5420SOL     OW17158   1.651   2.171   1.841
 5420SOL    HW117159   1.684   2.258   1.879
 5420SOL    HW217160   1.554   2.161   1.859
 5421SOL     OW17161   2.177   3.931   2.423
 5421SOL    HW117162   2.168   3.995   2.499
 5421SOL    HW217163   2.273   3.921   2.398
 5422SOL     OW17164   0.583   5.902   6.919
 5422SOL    HW117165   0.587   5.802   6.920
 5422SOL    HW217166   0.526   5.933   6.843
 5423SOL     OW17167   5.422   2.768   6.753
 5423SOL    HW117168   5.409   2.684   6.701
 5423SOL    HW217169   5.409   2.751   6.850
 5424SOL     OW17170   4.898   3.318   4.426
 5424SOL    HW117171   4.937   3.237   4.470
 5424SOL    HW217172   4.800   3.303   4.410
 5425SOL     OW17173   4.344   1.339   3.980
 5425SOL    HW117174   4.362   1.284   4.062
 5425SOL    HW217175   4.261   1.394   3.995
 5426SOL     OW17176   6.690   5.218   3.984
 5426SOL    HW117177   6.714   5.149   3.916
 5426SOL    HW217178   6.600   5.196   4.023
 5427SOL     OW17179   5.363   4.840   0.716
 5427SOL    HW117180   5.421   4.759   0.727
 5427SOL    HW217181   5.415   4.912   0.669
 5428SOL     OW17182   0.125   0.306   1.763
 5428SOL    HW117183   0.112   0.207   1.764
 5428SOL    HW217184   0.048   0.349   1.716
 5429SOL     OW17185   0.821   1.842   5.780
 5429SOL    HW117186   0.800   1.925   5.831
 5429SOL    HW217187   0.854   1.771   5.843
 5430SOL     OW17188   0.807   3.433   5.320
 5430SOL    HW117189   0.833   3.381   5.401
 5430SOL    HW217190   0.843   3.387   5.239
 5431SOL     OW17191   3.520   5.941   0.024
 5431SOL    HW117192   3.431   5.935   0.070
 5431SOL    HW217193   3.591   5.904   0.084
 5432SOL     OW17194   4.435   6.463   6.414
 5432SOL    HW117195   4.422   6.562   6.408
 5432SOL    HW217196   4.437   6.435   6.509
 5433SOL     OW17197   0.192   1.403   4.046
 5433SOL    HW117198   0.252   1.389   3.966
 5433SOL    HW217199   0.246   1.392   4.130
 5434SOL     OW17200   3.919   0.839   4.611
 5434SOL    HW117201   3.943   0.896   4.533
 5434SOL    HW217202   3.873   0.896   4.680
 5435SOL     OW17203   5.256   1.163   1.799
 5435SOL    HW117204   5.157   1.161   1.792
 5435SOL    HW217205   5.294   1.080   1.758
 5436SOL     OW17206   5.099   3.822   4.166
 5436SOL    HW117207   5.008   3.858   4.185
 5436SOL    HW217208   5.166   3.897   4.170
 5437SOL     OW17209   2.878   5.001   6.263
 5437SOL    HW117210   2.942   5.007   6.187
 5437SOL    HW217211   2.858   5.093   6.297
 5438SOL     OW17212   5.488   4.078   2.928
 5438SOL    HW117213   5.495   4.000   2.990
 5438SOL    HW217214   5.578   4.121   2.917
 5439SOL     OW17215   1.036   2.512   1.171
 5439SOL    HW117216   1.099   2.497   1.094
 5439SOL    HW217217   1.036   2.432   1.231
 5440SOL     OW17218   0.945   0.034   2.089
 5440SOL    HW117219   0.867   0.073   2.041
 5440SOL    HW217220   1.027   0.088   2.068
 5441SOL     OW17221   4.982   2.631   3.319
 5441SOL    HW117222   4.891   2.611   3.357
 5441SOL    HW217223   4.972   2.674   3.230
 5442SOL     OW17224   3.612   6.421   3.500
 5442SOL    HW117225   3.648   6.414   3.407
 5442SOL    HW217226   3.615   6.517   3.530
 5443SOL     OW17227   2.684   0.783   3.627
 5443SOL    HW117228   2.781   0.804   3.643
 5443SOL    HW217229   2.675   0.733   3.541
 5444SOL     OW17230   1.756   0.511   3.747
 5444SOL    HW117231   1.798   0.445   3.685
 5444SOL    HW217232   1.815   0.592   3.754
 5445SOL     OW17233   5.573   3.993   4.472
 5445SOL    HW117234   5.495   4.015   4.531
 5445SOL    HW217235   5.541   3.950   4.388
 5446SOL     OW17236   6.597   4.991   5.013
 5446SOL    HW117237   6.515   4.936   5.030
 5446SOL    HW217238   6.613   5.052   5.090
 5447SOL     OW17239   2.190   1.654   6.716
 5447SOL    HW117240   2.184   1.587   6.790
 5447SOL    HW217241   2.101   1.663   6.672
 5448SOL     OW17242   5.528   3.361   4.846
 5448SOL    HW117243   5.585   3.433   4.806
 5448SOL    HW217244   5.485   3.308   4.772
 5449SOL     OW17245   1.654   2.344   6.619
 5449SOL    HW117246   1.650   2.394   6.533
 5449SOL    HW217247   1.694   2.254   6.604
 5450SOL     OW17248   1.747   0.641   1.799
 5450SOL    HW117249   1.680   0.712   1.824
 5450SOL    HW217250   1.698   0.556   1.777
 5451SOL     OW17251   1.454   5.881   3.756
 5451SOL    HW117252   1.527   5.949   3.763
 5451SOL    HW217253   1.463   5.816   3.831
 5452SOL     OW17254   2.024   4.376   6.618
 5452SOL    HW117255   2.041   4.297   6.677
 5452SOL    HW217256   1.927   4.377   6.592
 5453SOL     OW17257   5.336   4.411   2.029
 5453SOL    HW117258   5.309   4.343   1.961
 5453SOL    HW217259   5.401   4.370   2.093
 5454SOL     OW17260   0.276   3.830   6.189
 5454SOL    HW117261   0.192   3.783   6.215
 5454SOL    HW217262   0.254   3.910   6.133
 5455SOL     OW17263   6.175   3.122   1.059
 5455SOL    HW117264   6.127   3.073   0.986
 5455SOL    HW217265   6.242   3.183   1.018
 5456SOL     OW17266   2.724   0.450   6.526
 5456SOL    HW117267   2.735   0.356   6.494
 5456SOL    HW217268   2.799   0.474   6.586
 5457SOL     OW17269   6.415   2.804   7.016
 5457SOL    HW117270   6.427   2.788   0.091
 5457SOL    HW217271   6.363   2.728   6.976
 5458SOL     OW17272   0.792   4.223   0.778
 5458SOL    HW117273   0.842   4.230   0.692
 5458SOL    HW217274   0.853   4.247   0.854
 5459SOL     OW17275   1.644   4.107   0.164
 5459SOL    HW117276   1.675   4.060   0.082
 5459SOL    HW217277   1.577   4.177   0.139
 5460SOL     OW17278   3.852   0.759   3.276
 5460SOL    HW117279   3.877   0.808   3.193
 5460SOL    HW217280   3.769   0.706   3.259
 5461SOL     OW17281   5.934   0.125   5.811
 5461SOL    HW117282   6.021   0.174   5.817
 5461SOL    HW217283   5.947   0.041   5.758
 5462SOL     OW17284   0.143   6.884   6.908
 5462SOL    HW117285   0.073   6.906   6.840
 5462SOL    HW217286   0.126   6.936   6.992
 5463SOL     OW17287   0.258   1.890   1.005
 5463SOL    HW117288   0.334   1.898   0.940
 5463SOL    HW217289   0.212   1.979   1.013
 5464SOL     OW17290   1.293   1.206   4.246
 5464SOL    HW117291   1.212   1.243   4.291
 5464SOL    HW217292   1.270   1.118   4.203
 5465SOL     OW17293   3.492   0.010   3.653
 5465SOL    HW117294   3.416   0.030   3.592
 5465SOL    HW217295   3.467   6.957   3.713
 5466SOL     OW17296   5.291   2.831   5.056
 5466SOL    HW117297   5.388   2.807   5.057
 5466SOL    HW217298   5.256   2.836   5.150
 5467SOL     OW17299   5.164   3.009   3.184
 5467SOL    HW117300   5.249   2.975   3.144
 5467SOL    HW217301   5.143   2.957   3.267
 5468SOL     OW17302   5.799   2.688   4.381
 5468SOL    HW117303   5.707   2.702   4.416
 5468SOL    HW217304   5.797   2.692   4.281
 5469SOL     OW17305   3.888   6.087   6.252
 5469SOL    HW117306   3.970   6.136   6.224
 5469SOL    HW217307   3.810   6.150   6.254
 5470SOL     OW17308   3.186   5.958   2.898
 5470SOL    HW117309   3.122   6.034   2.885
 5470SOL    HW217310   3.195   5.937   2.995
 5471SOL     OW17311   5.068   6.942   2.488
 5471SOL    HW117312   5.125   6.863   2.464
 5471SOL    HW217313   5.122   7.009   2.538
 5472SOL     OW17314   4.816   3.922   6.074
 5472SOL    HW117315   4.857   3.851   6.016
 5472SOL    HW217316   4.831   3.900   6.170
 5473SOL     OW17317   0.165   2.764   2.214
 5473SOL    HW117318   0.228   2.756   2.138
 5473SOL    HW217319   0.073   2.737   2.185
 5474SOL     OW17320   1.225   4.919   4.220
 5474SOL    HW117321   1.158   4.905   4.147
 5474SOL    HW217322   1.262   4.831   4.248
 5475SOL     OW17323   2.275   3.127   1.425
 5475SOL    HW117324   2.262   3.209   1.481
 5475SOL    HW217325   2.372   3.113   1.408
 5476SOL     OW17326   1.690   4.415   5.529
 5476SOL    HW117327   1.726   4.360   5.454
 5476SOL    HW217328   1.742   4.500   5.535
 5477SOL     OW17329   2.521   4.770   3.342
 5477SOL    HW117330   2.449   4.739   3.403
 5477SOL    HW217331   2.487   4.844   3.285
 5478SOL     OW17332   3.643   5.346   5.081
 5478SOL    HW117333   3.544   5.363   5.076
 5478SOL    HW217334   3.658   5.249   5.099
 5479SOL     OW17335   4.645   1.630   6.492
 5479SOL    HW117336   4.598   1.542   6.486
 5479SOL    HW217337   4.605   1.685   6.565
 5480SOL     OW17338   6.255   4.448   3.036
 5480SOL    HW117339   6.164   4.432   3.075
 5480SOL    HW217340   6.286   4.366   2.988
 5481SOL     OW17341   4.041   1.382   4.443
 5481SOL    HW117342   4.140   1.369   4.439
 5481SOL    HW217343   4.020   1.479   4.448
 5482SOL     OW17344   3.621   4.493   1.558
 5482SOL    HW117345   3.623   4.530   1.651
 5482SOL    HW217346   3.620   4.569   1.493
 5483SOL     OW17347   0.367   1.877   5.633
 5483SOL    HW117348   0.444   1.815   5.647
 5483SOL    HW217349   0.397   1.971   5.645
 5484SOL     OW17350   3.623   1.241   4.256
 5484SOL    HW117351   3.716   1.223   4.223
 5484SOL    HW217352   3.561   1.250   4.177
 5485SOL     OW17353   4.682   0.410   5.641
 5485SOL    HW117354   4.635   0.423   5.553
 5485SOL    HW217355   4.779   0.391   5.624
 5486SOL     OW17356   2.349   5.977   5.132
 5486SOL    HW117357   2.434   6.013   5.096
 5486SOL    HW217358   2.342   5.879   5.111
 5487SOL     OW17359   4.135   2.902   6.458
 5487SOL    HW117360   4.198   2.971   6.422
 5487SOL    HW217361   4.069   2.878   6.386
 5488SOL     OW17362   6.204   6.962   1.068
 5488SOL    HW117363   6.178   6.875   1.110
 5488SOL    HW217364   6.209   0.009   1.139
 5489SOL     OW17365   0.259   3.826   1.590
 5489SOL    HW117366   0.311   3.911   1.602
 5489SOL    HW217367   0.221   3.824   1.498
 5490SOL     OW17368   2.930   0.476   2.482
 5490SOL    HW117369   2.932   0.377   2.463
 5490SOL    HW217370   2.903   0.491   2.577
 5491SOL     OW17371   0.780   2.751   7.012
 5491SOL    HW117372   0.813   2.677   0.047
 5491SOL    HW217373   0.729   2.817   0.045
 5492SOL     OW17374   0.988   3.609   0.037
 5492SOL    HW117375   0.975   3.693   7.007
 5492SOL    HW217376   1.072   3.618   0.091
 5493SOL     OW17377   3.609   2.918   4.234
 5493SOL    HW117378   3.557   3.000   4.209
 5493SOL    HW217379   3.631   2.867   4.151
 5494SOL     OW17380   6.836   3.671   5.432
 5494SOL    HW117381   6.816   3.574   5.423
 5494SOL    HW217382   6.753   3.724   5.413
 5495SOL     OW17383   5.947   0.999   1.530
 5495SOL    HW117384   5.917   0.976   1.437
 5495SOL    HW217385   5.960   1.097   1.537
 5496SOL     OW17386   3.977   0.533   3.415
 5496SOL    HW117387   3.974   0.632   3.398
 5496SOL    HW217388   4.045   0.491   3.356
 5497SOL     OW17389   0.982   1.225   5.188
 5497SOL    HW117390   0.886   1.244   5.209
 5497SOL    HW217391   1.013   1.149   5.245
 5498SOL     OW17392   0.143   5.158   2.204
 5498SOL    HW117393   0.241   5.160   2.184
 5498SOL    HW217394   0.094   5.123   2.125
 5499SOL     OW17395   0.784   0.580   4.409
 5499SOL    HW117396   0.694   0.549   4.439
 5499SOL    HW217397   0.805   0.540   4.320
 5500SOL     OW17398   0.736   0.665   6.861
 5500SOL    HW117399   0.702   0.588   6.807
 5500SOL    HW217400   0.672   0.684   6.936
 5501SOL     OW17401   3.816   2.186   0.658
 5501SOL    HW117402   3.845   2.179   0.754
 5501SOL    HW217403   3.800   2.094   0.622
 5502SOL     OW17404   5.483   3.514   6.270
 5502SOL    HW117405   5.421   3.438   6.291
 5502SOL    HW217406   5.437   3.600   6.293
 5503SOL     OW17407   0.025   4.679   0.386
 5503SOL    HW117408   0.094   4.679   0.313
 5503SOL    HW217409   6.991   4.598   0.376
 5504SOL     OW17410   4.616   1.070   5.205
 5504SOL    HW117411   4.673   1.088   5.125
 5504SOL    HW217412   4.552   0.996   5.185
 5505SOL     OW17413   2.033   4.416   3.103
 5505SOL    HW117414   2.095   4.362   3.046
 5505SOL    HW217415   2.085   4.480   3.158
 5506SOL     OW17416   0.389   3.099   0.473
 5506SOL    HW117417   0.430   3.008   0.459
 5506SOL    HW217418   0.290   3.089   0.485
 5507SOL     OW17419   3.727   0.768   4.981
 5507SOL    HW117420   3.628   0.778   4.990
 5507SOL    HW217421   3.749   0.682   4.936
 5508SOL     OW17422   1.022   1.658   0.515
 5508SOL    HW117423   1.036   1.579   0.576
 5508SOL    HW217424   0.979   1.627   0.430
 5509SOL     OW17425   0.769   5.906   0.233
 5509SOL    HW117426   0.762   6.001   0.202
 5509SOL    HW217427   0.678   5.865   0.236
 5510SOL     OW17428   4.344   5.553   6.978
 5510SOL    HW117429   4.319   5.605   0.036
 5510SOL    HW217430   4.444   5.550   6.969
 5511SOL     OW17431   1.836   1.262   5.110
 5511SOL    HW117432   1.841   1.360   5.089
 5511SOL    HW217433   1.918   1.234   5.159
 5512SOL     OW17434   3.948   1.605   0.874
 5512SOL    HW117435   3.899   1.582   0.958
 5512SOL    HW217436   4.032   1.551   0.869
 5513SOL     OW17437   3.767   5.537   6.099
 5513SOL    HW117438   3.850   5.591   6.111
 5513SOL    HW217439   3.787   5.440   6.112
 5514SOL     OW17440   3.335   0.611   4.476
 5514SOL    HW117441   3.432   0.638   4.473
 5514SOL    HW217442   3.310   0.568   4.389
 5515SOL     OW17443   1.089   5.456   1.866
 5515SOL    HW117444   1.184   5.467   1.838
 5515SOL    HW217445   1.029   5.499   1.799
 5516SOL     OW17446   2.270   2.404   4.746
 5516SOL    HW117447   2.203   2.365   4.682
 5516SOL    HW217448   2.226   2.419   4.835
 5517SOL     OW17449   2.037   3.687   1.793
 5517SOL    HW117450   1.991   3.634   1.864
 5517SOL    HW217451   2.131   3.707   1.823
 5518SOL     OW17452   6.239   5.264   6.146
 5518SOL    HW117453   6.163   5.231   6.089
 5518SOL    HW217454   6.209   5.345   6.196
 5519SOL     OW17455   5.988   2.952   3.090
 5519SOL    HW117456   6.083   2.926   3.105
 5519SOL    HW217457   5.928   2.878   3.119
 5520SOL     OW17458   5.370   6.950   2.220
 5520SOL    HW117459   5.314   6.886   2.273
 5520SOL    HW217460   5.327   0.017   2.223
 5521SOL     OW17461   5.684   6.380   1.805
 5521SOL    HW117462   5.629   6.321   1.745
 5521SOL    HW217463   5.655   6.475   1.792
 5522SOL     OW17464   6.572   5.253   1.196
 5522SOL    HW117465   6.625   5.168   1.197
 5522SOL    HW217466   6.475   5.232   1.184
 5523SOL     OW17467   4.352   0.870   2.078
 5523SOL    HW117468   4.354   0.938   2.004
 5523SOL    HW217469   4.352   0.916   2.166
 5524SOL     OW17470   3.601   6.850   4.948
 5524SOL    HW117471   3.630   6.779   5.013
 5524SOL    HW217472   3.535   6.910   4.992
 5525SOL     OW17473   1.544   2.521   6.966
 5525SOL    HW117474   1.510   2.607   7.004
 5525SOL    HW217475   1.468   2.459   6.952
 5526SOL     OW17476   5.136   4.799   2.861
 5526SOL    HW117477   5.213   4.766   2.916
 5526SOL    HW217478   5.054   4.801   2.919
 5527SOL     OW17479   4.957   3.681   3.461
 5527SOL    HW117480   4.996   3.618   3.528
 5527SOL    HW217481   4.910   3.755   3.509
 5528SOL     OW17482   1.890   0.835   0.825
 5528SOL    HW117483   1.832   0.761   0.790
 5528SOL    HW217484   1.889   0.833   0.925
 5529SOL     OW17485   3.390   0.110   4.490
 5529SOL    HW117486   3.428   0.188   4.539
 5529SOL    HW217487   3.336   0.142   4.413
 5530SOL     OW17488   6.085   1.848   1.453
 5530SOL    HW117489   6.141   1.928   1.431
 5530SOL    HW217490   6.133   1.791   1.520
 5531SOL     OW17491   3.711   3.640   1.714
 5531SOL    HW117492   3.614   3.643   1.736
 5531SOL    HW217493   3.750   3.731   1.722
 5532SOL     OW17494   0.916   3.094   0.876
 5532SOL    HW117495   0.893   3.014   0.932
 5532SOL    HW217496   0.895   3.177   0.926
 5533SOL     OW17497   4.990   1.153   3.590
 5533SOL    HW117498   4.942   1.241   3.599
 5533SOL    HW217499   4.954   1.089   3.658
 5534SOL     OW17500   0.873   1.461   6.739
 5534SOL    HW117501   0.919   1.433   6.824
 5534SOL    HW217502   0.781   1.421   6.736
 5535SOL     OW17503   0.833   1.144   3.219
 5535SOL    HW117504   0.850   1.165   3.123
 5535SOL    HW217505   0.883   1.061   3.244
 5536SOL     OW17506   4.216   0.337   4.239
 5536SOL    HW117507   4.299   0.360   4.290
 5536SOL    HW217508   4.218   0.240   4.215
 5537SOL     OW17509   3.240   1.061   2.682
 5537SOL    HW117510   3.196   1.128   2.743
 5537SOL    HW217511   3.257   1.104   2.593
 5538SOL     OW17512   3.963   6.127   4.995
 5538SOL    HW117513   3.905   6.108   4.915
 5538SOL    HW217514   4.012   6.213   4.980
 5539SOL     OW17515   1.536   4.089   1.358
 5539SOL    HW117516   1.614   4.145   1.330
 5539SOL    HW217517   1.566   4.019   1.423
 5540SOL     OW17518   4.972   4.769   3.935
 5540SOL    HW117519   4.885   4.809   3.964
 5540SOL    HW217520   5.045   4.835   3.951
 5541SOL     OW17521   5.191   0.488   6.489
 5541SOL    HW117522   5.214   0.406   6.542
 5541SOL    HW217523   5.276   0.533   6.459
 5542SOL     OW17524   4.186   3.270   6.141
 5542SOL    HW117525   4.238   3.288   6.058
 5542SOL    HW217526   4.095   3.237   6.117
 5543SOL     OW17527   5.394   3.747   6.375
 5543SOL    HW117528   5.308   3.798   6.382
 5543SOL    HW217529   5.463   3.788   6.434
 5544SOL     OW17530   5.216   6.696   6.565
 5544SOL    HW117531   5.201   6.753   6.645
 5544SOL    HW217532   5.185   6.745   6.483
 5545SOL     OW17533   4.321   1.379   2.652
 5545SOL    HW117534   4.394   1.430   2.606
 5545SOL    HW217535   4.360   1.327   2.729
 5546SOL     OW17536   0.969   5.319   5.078
 5546SOL    HW117537   0.972   5.267   5.164
 5546SOL    HW217538   0.997   5.260   5.003
 5547SOL     OW17539   2.605   6.345   5.031
 5547SOL    HW117540   2.696   6.379   5.007
 5547SOL    HW217541   2.542   6.365   4.956
 5548SOL     OW17542   6.199   3.630   5.566
 5548SOL    HW117543   6.293   3.628   5.532
 5548SOL    HW217544   6.150   3.549   5.532
 5549SOL     OW17545   3.670   4.495   0.366
 5549SOL    HW117546   3.765   4.468   0.354
 5549SOL    HW217547   3.613   4.449   0.298
 5550SOL     OW17548   2.791   5.760   2.136
 5550SOL    HW117549   2.862   5.829   2.120
 5550SOL    HW217550   2.833   5.672   2.155
 5551SOL     OW17551   1.643   0.484   2.914
 5551SOL    HW117552   1.646   0.428   2.831
 5551SOL    HW217553   1.731   0.530   2.926
 5552SOL     OW17554   0.058   1.736   0.403
 5552SOL    HW117555   0.038   1.826   0.366
 5552SOL    HW217556   7.003   1.703   0.457
 5553SOL     OW17557   4.166   6.487   6.763
 5553SOL    HW117558   4.187   6.575   6.722
 5553SOL    HW217559   4.068   6.471   6.760
 5554SOL     OW17560   2.956   2.585   5.909
 5554SOL    HW117561   2.928   2.640   5.830
 5554SOL    HW217562   2.979   2.492   5.878
 5555SOL     OW17563   0.578   5.757   3.674
 5555SOL    HW117564   0.611   5.849   3.656
 5555SOL    HW217565   0.478   5.758   3.683
 5556SOL     OW17566   0.654   2.440   4.679
 5556SOL    HW117567   0.616   2.363   4.626
 5556SOL    HW217568   0.743   2.466   4.642
 5557SOL     OW17569   2.658   5.632   4.029
 5557SOL    HW117570   2.606   5.616   3.945
 5557SOL    HW217571   2.737   5.571   4.031
 5558SOL     OW17572   4.828   3.112   5.145
 5558SOL    HW117573   4.793   3.018   5.145
 5558SOL    HW217574   4.851   3.138   5.051
 5559SOL     OW17575   2.334   7.007   0.982
 5559SOL    HW117576   2.289   0.025   1.061
 5559SOL    HW217577   2.337   0.050   0.907
 5560SOL     OW17578   6.745   7.005   3.371
 5560SOL    HW117579   6.716   6.911   3.355
 5560SOL    HW217580   6.732   0.035   3.287
 5561SOL     OW17581   1.439   2.925   4.115
 5561SOL    HW117582   1.390   2.872   4.184
 5561SOL    HW217583   1.479   2.863   4.047
 5562SOL     OW17584   1.838   2.764   6.318
 5562SOL    HW117585   1.738   2.769   6.314
 5562SOL    HW217586   1.867   2.763   6.414
 5563SOL     OW17587   4.453   6.163   2.033
 5563SOL    HW117588   4.503   6.155   1.948
 5563SOL    HW217589   4.511   6.205   2.103
 5564SOL     OW17590   5.377   3.643   1.779
 5564SOL    HW117591   5.337   3.625   1.689
 5564SOL    HW217592   5.304   3.664   1.844
 5565SOL     OW17593   4.112   2.418   5.573
 5565SOL    HW117594   4.013   2.407   5.584
 5565SOL    HW217595   4.147   2.477   5.646
 5566SOL     OW17596   1.408   5.402   0.828
 5566SOL    HW117597   1.497   5.373   0.865
 5566SOL    HW217598   1.409   5.391   0.728
 5567SOL     OW17599   1.664   5.389   0.986
 5567SOL    HW117600   1.650   5.461   1.054
 5567SOL    HW217601   1.705   5.309   1.030
 5568SOL     OW17602   4.643   2.104   0.880
 5568SOL    HW117603   4.560   2.133   0.928
 5568SOL    HW217604   4.695   2.185   0.853
 5569SOL     OW17605   3.822   1.412   1.815
 5569SOL    HW117606   3.805   1.335   1.754
 5569SOL    HW217607   3.920   1.431   1.819
 5570SOL     OW17608   5.659   4.751   4.704
 5570SOL    HW117609   5.753   4.764   4.736
 5570SOL    HW217610   5.637   4.653   4.705
 5571SOL     OW17611   0.441   5.701   0.709
 5571SOL    HW117612   0.372   5.628   0.702
 5571SOL    HW217613   0.427   5.751   0.794
 5572SOL     OW17614   4.071   2.486   6.510
 5572SOL    HW117615   3.975   2.462   6.525
 5572SOL    HW217616   4.107   2.535   6.589
 5573SOL     OW17617   1.261   3.817   0.439
 5573SOL    HW117618   1.211   3.750   0.385
 5573SOL    HW217619   1.347   3.777   0.471
 5574SOL     OW17620   0.153   0.011   4.348
 5574SOL    HW117621   0.145   0.087   4.283
 5574SOL    HW217622   0.092   0.027   4.426
 5575SOL     OW17623   1.545   0.966   1.084
 5575SOL    HW117624   1.601   0.958   1.167
 5575SOL    HW217625   1.544   0.878   1.037
 5576SOL     OW17626   6.058   5.029   1.134
 5576SOL    HW117627   6.072   4.935   1.104
 5576SOL    HW217628   6.146   5.071   1.154
 5577SOL     OW17629   1.923   3.163   5.582
 5577SOL    HW117630   1.921   3.252   5.537
 5577SOL    HW217631   1.890   3.093   5.519
 5578SOL     OW17632   3.733   2.582   7.013
 5578SOL    HW117633   3.653   2.573   0.049
 5578SOL    HW217634   3.776   2.671   0.005
 5579SOL     OW17635   5.281   3.801   6.708
 5579SOL    HW117636   5.322   3.716   6.673
 5579SOL    HW217637   5.232   3.847   6.634
 5580SOL     OW17638   4.769   1.923   0.668
 5580SOL    HW117639   4.854   1.905   0.717
 5580SOL    HW217640   4.712   1.985   0.721
 5581SOL     OW17641   2.109   0.568   6.384
 5581SOL    HW117642   2.122   0.595   6.479
 5581SOL    HW217643   2.196   0.577   6.335
 5582SOL     OW17644   3.428   3.488   4.096
 5582SOL    HW117645   3.515   3.454   4.058
 5582SOL    HW217646   3.427   3.588   4.091
 5583SOL     OW17647   3.521   6.527   1.879
 5583SOL    HW117648   3.430   6.490   1.896
 5583SOL    HW217649   3.522   6.625   1.898
 5584SOL     OW17650   5.823   4.457   3.532
 5584SOL    HW117651   5.767   4.539   3.515
 5584SOL    HW217652   5.866   4.465   3.622
 5585SOL     OW17653   6.215   0.640   3.672
 5585SOL    HW117654   6.265   0.571   3.724
 5585SOL    HW217655   6.129   0.662   3.719
 5586SOL     OW17656   2.062   1.906   6.242
 5586SOL    HW117657   2.138   1.933   6.183
 5586SOL    HW217658   2.032   1.984   6.296
 5587SOL     OW17659   3.862   0.582   3.653
 5587SOL    HW117660   3.785   0.520   3.664
 5587SOL    HW217661   3.892   0.582   3.557
 5588SOL     OW17662   2.234   7.017   5.290
 5588SOL    HW117663   2.307   0.058   5.312
 5588SOL    HW217664   2.232   6.944   5.359
 5589SOL     OW17665   5.107   2.824   6.159
 5589SOL    HW117666   5.184   2.882   6.188
 5589SOL    HW217667   5.067   2.862   6.076
 5590SOL     OW17668   6.550   6.164   4.759
 5590SOL    HW117669   6.543   6.073   4.800
 5590SOL    HW217670   6.646   6.189   4.750
 5591SOL     OW17671   6.104   0.679   0.262
 5591SOL    HW117672   6.049   0.610   0.214
 5591SOL    HW217673   6.200   0.670   0.235
 5592SOL     OW17674   1.160   4.300   2.750
 5592SOL    HW117675   1.195   4.379   2.800
 5592SOL    HW217676   1.161   4.319   2.652
 5593SOL     OW17677   0.765   2.892   6.073
 5593SOL    HW117678   0.690   2.839   6.034
 5593SOL    HW217679   0.740   2.989   6.077
 5594SOL     OW17680   2.318   0.404   0.018
 5594SOL    HW117681   2.396   0.357   0.059
 5594SOL    HW217682   2.337   0.422   6.945
 5595SOL     OW17683   6.495   0.856   5.734
 5595SOL    HW117684   6.573   0.882   5.792
 5595SOL    HW217685   6.427   0.807   5.789
 5596SOL     OW17686   5.363   0.581   2.768
 5596SOL    HW117687   5.307   0.624   2.839
 5596SOL    HW217688   5.448   0.632   2.757
 5597SOL     OW17689   5.921   1.426   6.625
 5597SOL    HW117690   5.909   1.460   6.718
 5597SOL    HW217691   5.861   1.347   6.611
 5598SOL     OW17692   5.346   1.485   3.944
 5598SOL    HW117693   5.289   1.405   3.965
 5598SOL    HW217694   5.379   1.525   4.030
 5599SOL     OW17695   5.081   3.830   1.266
 5599SOL    HW117696   5.025   3.773   1.207
 5599SOL    HW217697   5.023   3.872   1.336
 5600SOL     OW17698   1.784   0.810   2.908
 5600SOL    HW117699   1.703   0.855   2.946
 5600SOL    HW217700   1.833   0.873   2.848
 5601SOL     OW17701   5.213   2.861   5.815
 5601SOL    HW117702   5.307   2.878   5.788
 5601SOL    HW217703   5.181   2.936   5.874
 5602SOL     OW17704   0.715   2.159   3.353
 5602SOL    HW117705   0.627   2.158   3.401
 5602SOL    HW217706   0.745   2.254   3.340
 5603SOL     OW17707   4.584   2.638   5.280
 5603SOL    HW117708   4.578   2.708   5.209
 5603SOL    HW217709   4.494   2.624   5.321
 5604SOL     OW17710   1.109   0.231   4.352
 5604SOL    HW117711   1.023   0.233   4.403
 5604SOL    HW217712   1.122   0.319   4.306
 5605SOL     OW17713   1.857   0.056   4.136
 5605SOL    HW117714   1.871   0.105   4.050
 5605SOL    HW217715   1.762   0.065   4.165
 5606SOL     OW17716   5.140   1.545   0.883
 5606SOL    HW117717   5.184   1.464   0.920
 5606SOL    HW217718   5.150   1.621   0.948
 5607SOL     OW17719   6.241   2.634   2.521
 5607SOL    HW117720   6.143   2.654   2.524
 5607SOL    HW217721   6.263   2.569   2.595
 5608SOL     OW17722   5.568   0.800   3.905
 5608SOL    HW117723   5.555   0.809   4.004
 5608SOL    HW217724   5.646   0.855   3.876
 5609SOL     OW17725   5.585   6.712   0.872
 5609SOL    HW117726   5.588   6.797   0.820
 5609SOL    HW217727   5.666   6.657   0.852
 5610SOL     OW17728   5.376   4.118   0.182
 5610SOL    HW117729   5.425   4.194   0.223
 5610SOL    HW217730   5.378   4.039   0.243
 5611SOL     OW17731   0.468   4.991   1.792
 5611SOL    HW117732   0.469   5.062   1.722
 5611SOL    HW217733   0.483   4.902   1.749
 5612SOL     OW17734   3.011   1.330   0.388
 5612SOL    HW117735   3.106   1.355   0.403
 5612SOL    HW217736   2.975   1.286   0.470
 5613SOL     OW17737   6.933   5.448   4.822
 5613SOL    HW117738   6.891   5.358   4.811
 5613SOL    HW217739   6.925   5.477   4.917
 5614SOL     OW17740   5.789   1.740   4.619
 5614SOL    HW117741   5.707   1.711   4.667
 5614SOL    HW217742   5.774   1.732   4.520
 5615SOL     OW17743   0.016   2.345   2.341
 5615SOL    HW117744   6.955   2.297   2.366
 5615SOL    HW217745   7.023   2.401   2.260
 5616SOL     OW17746   1.698   3.133   3.907
 5616SOL    HW117747   1.767   3.071   3.943
 5616SOL    HW217748   1.695   3.216   3.963
 5617SOL     OW17749   1.928   5.262   5.809
 5617SOL    HW117750   1.994   5.276   5.735
 5617SOL    HW217751   1.968   5.201   5.878
 5618SOL     OW17752   6.905   5.073   4.378
 5618SOL    HW117753   6.922   5.030   4.467
 5618SOL    HW217754   6.867   5.165   4.393
 5619SOL     OW17755   3.728   3.328   4.076
 5619SOL    HW117756   3.657   3.263   4.101
 5619SOL    HW217757   3.714   3.360   3.982
 5620SOL     OW17758   4.206   4.341   5.734
 5620SOL    HW117759   4.260   4.260   5.712
 5620SOL    HW217760   4.113   4.313   5.760
 5621SOL     OW17761   1.610   2.731   4.955
 5621SOL    HW117762   1.632   2.810   5.011
 5621SOL    HW217763   1.671   2.727   4.876
 5622SOL     OW17764   4.473   5.377   5.040
 5622SOL    HW117765   4.416   5.401   4.961
 5622SOL    HW217766   4.546   5.315   5.010
 5623SOL     OW17767   4.796   5.924   4.229
 5623SOL    HW117768   4.730   5.967   4.291
 5623SOL    HW217769   4.762   5.834   4.201
 5624SOL     OW17770   6.808   5.538   4.214
 5624SOL    HW117771   6.793   5.566   4.119
 5624SOL    HW217772   6.786   5.441   4.223
 5625SOL     OW17773   1.536   5.617   4.570
 5625SOL    HW117774   1.572   5.560   4.496
 5625SOL    HW217775   1.500   5.559   4.642
 5626SOL     OW17776   2.025   3.891   4.159
 5626SOL    HW117777   1.929   3.864   4.171
 5626SOL    HW217778   2.071   3.888   4.247
 5627SOL     OW17779   1.398   5.691   0.472
 5627SOL    HW117780   1.398   5.733   0.563
 5627SOL    HW217781   1.483   5.715   0.424
 5628SOL     OW17782   3.209   3.025   0.606
 5628SOL    HW117783   3.221   3.119   0.573
 5628SOL    HW217784   3.149   3.025   0.685
 5629SOL     OW17785   4.724   3.374   1.012
 5629SOL    HW117786   4.638   3.323   1.018
 5629SOL    HW217787   4.706   3.467   0.981
 5630SOL     OW17788   1.323   4.404   6.350
 5630SOL    HW117789   1.227   4.394   6.324
 5630SOL    HW217790   1.329   4.434   6.445
 5631SOL     OW17791   4.426   0.616   2.168
 5631SOL    HW117792   4.522   0.604   2.143
 5631SOL    HW217793   4.393   0.703   2.132
 5632SOL     OW17794   6.052   0.465   6.124
 5632SOL    HW117795   6.031   0.470   6.222
 5632SOL    HW217796   6.151   0.460   6.112
 5633SOL     OW17797   0.495   4.669   5.545
 5633SOL    HW117798   0.462   4.670   5.639
 5633SOL    HW217799   0.480   4.579   5.505
 5634SOL     OW17800   2.924   5.859   5.910
 5634SOL    HW117801   2.890   5.862   5.816
 5634SOL    HW217802   2.880   5.785   5.960
 5635SOL     OW17803   2.627   0.191   6.475
 5635SOL    HW117804   2.656   0.104   6.437
 5635SOL    HW217805   2.536   0.214   6.441
 5636SOL     OW17806   6.374   0.726   5.512
 5636SOL    HW117807   6.401   0.788   5.585
 5636SOL    HW217808   6.308   0.773   5.452
 5637SOL     OW17809   5.219   6.134   4.931
 5637SOL    HW117810   5.161   6.072   4.983
 5637SOL    HW217811   5.221   6.223   4.977
 5638SOL     OW17812   5.041   5.912   1.054
 5638SOL    HW117813   5.032   5.817   1.083
 5638SOL    HW217814   4.988   5.926   0.970
 5639SOL     OW17815   1.638   6.866   1.259
 5639SOL    HW117816   1.736   6.888   1.267
 5639SOL    HW217817   1.584   6.942   1.293
 5640SOL     OW17818   2.257   6.256   3.159
 5640SOL    HW117819   2.173   6.280   3.111
 5640SOL    HW217820   2.333   6.313   3.126
 5641SOL     OW17821   1.496   5.406   4.748
 5641SOL    HW117822   1.444   5.327   4.717
 5641SOL    HW217823   1.566   5.377   4.814
 5642SOL     OW17824   0.796   4.551   5.885
 5642SOL    HW117825   0.791   4.648   5.861
 5642SOL    HW217826   0.891   4.522   5.887
 5643SOL     OW17827   4.185   2.123   4.711
 5643SOL    HW117828   4.143   2.160   4.794
 5643SOL    HW217829   4.280   2.154   4.706
 5644SOL     OW17830   5.017   1.605   4.827
 5644SOL    HW117831   5.037   1.691   4.781
 5644SOL    HW217832   5.103   1.563   4.857
 5645SOL     OW17833   5.192   5.254   2.073
 5645SOL    HW117834   5.274   5.238   2.127
 5645SOL    HW217835   5.217   5.268   1.977
 5646SOL     OW17836   0.200   6.093   3.630
 5646SOL    HW117837   0.176   6.017   3.569
 5646SOL    HW217838   0.132   6.102   3.702
 5647SOL     OW17839   6.376   5.888   0.098
 5647SOL    HW117840   6.410   5.982   0.099
 5647SOL    HW217841   6.327   5.869   0.183
 5648SOL     OW17842   1.811   1.625   3.258
 5648SOL    HW117843   1.774   1.545   3.306
 5648SOL    HW217844   1.873   1.675   3.319
 5649SOL     OW17845   1.988   0.497   4.869
 5649SOL    HW117846   1.948   0.507   4.778
 5649SOL    HW217847   2.060   0.566   4.881
 5650SOL     OW17848   0.024   4.949   1.051
 5650SOL    HW117849   6.990   5.031   1.044
 5650SOL    HW217850   0.039   4.928   1.148
 5651SOL     OW17851   0.645   1.909   1.621
 5651SOL    HW117852   0.607   1.825   1.660
 5651SOL    HW217853   0.599   1.930   1.535
 5652SOL     OW17854   5.760   5.677   1.687
 5652SOL    HW117855   5.795   5.752   1.631
 5652SOL    HW217856   5.661   5.669   1.673
 5653SOL     OW17857   6.734   5.935   5.912
 5653SOL    HW117858   6.681   6.016   5.889
 5653SOL    HW217859   6.687   5.882   5.983
 5654SOL     OW17860   0.125   0.172   6.007
 5654SOL    HW117861   0.165   0.245   6.063
 5654SOL    HW217862   0.037   0.203   5.971
 5655SOL     OW17863   1.326   3.218   3.932
 5655SOL    HW117864   1.354   3.124   3.951
 5655SOL    HW217865   1.400   3.267   3.886
 5656SOL     OW17866   3.314   4.229   0.758
 5656SOL    HW117867   3.329   4.171   0.838
 5656SOL    HW217868   3.398   4.279   0.737
 5657SOL     OW17869   5.179   6.804   1.321
 5657SOL    HW117870   5.100   6.784   1.379
 5657SOL    HW217871   5.199   6.726   1.262
 5658SOL     OW17872   3.448   6.851   5.353
 5658SOL    HW117873   3.432   6.841   5.451
 5658SOL    HW217874   3.544   6.836   5.332
 5659SOL     OW17875   2.910   3.295   3.198
 5659SOL    HW117876   2.818   3.299   3.159
 5659SOL    HW217877   2.967   3.367   3.158
 5660SOL     OW17878   5.671   0.099   0.457
 5660SOL    HW117879   5.684   0.016   0.403
 5660SOL    HW217880   5.759   0.145   0.469
 5661SOL     OW17881   6.446   6.369   5.065
 5661SOL    HW117882   6.388   6.288   5.058
 5661SOL    HW217883   6.449   6.399   5.161
 5662SOL     OW17884   2.716   4.655   3.911
 5662SOL    HW117885   2.666   4.611   3.986
 5662SOL    HW217886   2.679   4.623   3.824
 5663SOL     OW17887   0.947   3.834   0.294
 5663SOL    HW117888   0.989   3.763   0.350
 5663SOL    HW217889   0.855   3.805   0.267
 5664SOL     OW17890   0.357   4.990   3.382
 5664SOL    HW117891   0.315   4.917   3.329
 5664SOL    HW217892   0.457   4.979   3.380
 5665SOL     OW17893   1.591   2.510   6.425
 5665SOL    HW117894   1.645   2.512   6.341
 5665SOL    HW217895   1.497   2.540   6.405
 5666SOL     OW17896   4.660   5.592   1.018
 5666SOL    HW117897   4.671   5.512   0.959
 5666SOL    HW217898   4.685   5.569   1.112
 5667SOL     OW17899   0.645   4.901   3.302
 5667SOL    HW117900   0.595   4.816   3.284
 5667SOL    HW217901   0.721   4.883   3.363
 5668SOL     OW17902   4.661   1.343   6.434
 5668SOL    HW117903   4.586   1.293   6.478
 5668SOL    HW217904   4.746   1.293   6.447
 5669SOL     OW17905   0.107   5.092   5.456
 5669SOL    HW117906   0.193   5.044   5.439
 5669SOL    HW217907   0.037   5.027   5.486
 5670SOL     OW17908   0.117   3.217   3.567
 5670SOL    HW117909   0.193   3.154   3.552
 5670SOL    HW217910   0.125   3.257   3.658
 5671SOL     OW17911   1.951   6.160   6.314
 5671SOL    HW117912   2.013   6.176   6.391
 5671SOL    HW217913   1.902   6.245   6.293
 5672SOL     OW17914   4.953   3.766   5.866
 5672SOL    HW117915   4.929   3.807   5.778
 5672SOL    HW217916   4.900   3.682   5.879
 5673SOL     OW17917   0.400   0.364   2.229
 5673SOL    HW117918   0.363   0.426   2.159
 5673SOL    HW217919   0.350   0.278   2.226
 5674SOL     OW17920   0.046   3.878   1.755
 5674SOL    HW117921   0.128   3.849   1.705
 5674SOL    HW217922   6.989   3.834   1.714
 5675SOL     OW17923   4.368   2.612   5.435
 5675SOL    HW117924   4.427   2.555   5.493
 5675SOL    HW217925   4.315   2.674   5.493
 5676SOL     OW17926   1.878   1.091   0.755
 5676SOL    HW117927   1.867   1.096   0.655
 5676SOL    HW217928   1.861   0.997   0.785
 5677SOL     OW17929   6.861   1.589   2.861
 5677SOL    HW117930   6.779   1.598   2.805
 5677SOL    HW217931   6.940   1.572   2.803
 5678SOL     OW17932   3.217   6.361   2.934
 5678SOL    HW117933   3.297   6.346   2.876
 5678SOL    HW217934   3.244   6.416   3.013
 5679SOL     OW17935   1.424   6.842   4.842
 5679SOL    HW117936   1.434   6.823   4.940
 5679SOL    HW217937   1.327   6.849   4.819
 5680SOL     OW17938   1.914   5.507   0.016
 5680SOL    HW117939   1.944   5.413   0.031
 5680SOL    HW217940   1.854   5.511   6.960
 5681SOL     OW17941   0.695   3.101   6.417
 5681SOL    HW117942   0.673   3.187   6.370
 5681SOL    HW217943   0.774   3.116   6.477
 5682SOL     OW17944   1.546   2.908   5.444
 5682SOL    HW117945   1.481   2.875   5.513
 5682SOL    HW217946   1.568   2.834   5.381
 5683SOL     OW17947   3.837   2.390   6.141
 5683SOL    HW117948   3.926   2.429   6.165
 5683SOL    HW217949   3.810   2.423   6.050
 5684SOL     OW17950   4.012   3.258   4.171
 5684SOL    HW117951   3.996   3.162   4.193
 5684SOL    HW217952   3.927   3.309   4.183
 5685SOL     OW17953   0.197   4.823   2.069
 5685SOL    HW117954   0.278   4.877   2.093
 5685SOL    HW217955   0.120   4.884   2.052
 5686SOL     OW17956   3.373   0.331   0.331
 5686SOL    HW117957   3.350   0.418   0.288
 5686SOL    HW217958   3.428   0.348   0.413
 5687SOL     OW17959   6.379   4.348   4.615
 5687SOL    HW117960   6.440   4.276   4.646
 5687SOL    HW217961   6.346   4.400   4.695
 5688SOL     OW17962   6.441   1.822   0.843
 5688SOL    HW117963   6.526   1.770   0.831
 5688SOL    HW217964   6.363   1.763   0.820
 5689SOL     OW17965   4.340   1.601   0.942
 5689SOL    HW117966   4.423   1.652   0.964
 5689SOL    HW217967   4.293   1.575   1.027
 5690SOL     OW17968   3.587   5.943   0.631
 5690SOL    HW117969   3.591   6.040   0.607
 5690SOL    HW217970   3.597   5.887   0.548
 5691SOL     OW17971   2.760   6.140   2.163
 5691SOL    HW117972   2.801   6.211   2.106
 5691SOL    HW217973   2.808   6.053   2.149
 5692SOL     OW17974   6.424   1.941   6.434
 5692SOL    HW117975   6.510   1.906   6.397
 5692SOL    HW217976   6.442   2.020   6.491
 5693SOL     OW17977   4.950   2.664   2.546
 5693SOL    HW117978   4.998   2.735   2.599
 5693SOL    HW217979   4.858   2.695   2.524
 5694SOL     OW17980   0.621   1.374   3.567
 5694SOL    HW117981   0.631   1.407   3.473
 5694SOL    HW217982   0.615   1.453   3.628
 5695SOL     OW17983   1.144   2.335   2.742
 5695SOL    HW117984   1.211   2.350   2.814
 5695SOL    HW217985   1.173   2.382   2.659
 5696SOL     OW17986   3.088   0.966   4.623
 5696SOL    HW117987   3.063   1.059   4.651
 5696SOL    HW217988   3.161   0.970   4.555
 5697SOL     OW17989   6.810   2.496   1.219
 5697SOL    HW117990   6.906   2.512   1.242
 5697SOL    HW217991   6.782   2.559   1.146
 5698SOL     OW17992   0.248   1.951   2.173
 5698SOL    HW117993   0.250   2.038   2.223
 5698SOL    HW217994   0.328   1.945   2.113
 5699SOL     OW17995   5.869   1.939   3.767
 5699SOL    HW117996   5.894   2.035   3.778
 5699SOL    HW217997   5.857   1.897   3.857
 5700SOL     OW17998   0.219   6.441   4.633
 5700SOL    HW117999   0.237   6.488   4.719
 5700SOL    HW218000   0.251   6.346   4.639
 5701SOL     OW18001   0.550   5.561   3.054
 5701SOL    HW118002   0.569   5.657   3.035
 5701SOL    HW218003   0.516   5.551   3.148
 5702SOL     OW18004   2.077   0.013   6.301
 5702SOL    HW118005   2.147   0.005   6.372
 5702SOL    HW218006   2.114   7.000   6.215
 5703SOL     OW18007   4.916   5.271   6.968
 5703SOL    HW118008   4.894   5.300   0.038
 5703SOL    HW218009   4.956   5.179   6.970
 5704SOL     OW18010   4.304   5.730   2.835
 5704SOL    HW118011   4.224   5.671   2.848
 5704SOL    HW218012   4.292   5.813   2.889
 5705SOL     OW18013   6.400   0.948   0.990
 5705SOL    HW118014   6.377   0.897   1.073
 5705SOL    HW218015   6.485   0.999   1.005
 5706SOL     OW18016   1.620   1.582   0.106
 5706SOL    HW118017   1.697   1.550   0.161
 5706SOL    HW218018   1.652   1.612   0.016
 5707SOL     OW18019   1.125   0.125   6.628
 5707SOL    HW118020   1.044   0.154   6.679
 5707SOL    HW218021   1.119   0.028   6.608
 5708SOL     OW18022   5.328   0.309   2.096
 5708SOL    HW118023   5.278   0.383   2.051
 5708SOL    HW218024   5.420   0.303   2.057
 5709SOL     OW18025   0.507   6.144   3.173
 5709SOL    HW118026   0.443   6.189   3.110
 5709SOL    HW218027   0.549   6.066   3.128
 5710SOL     OW18028   2.891   3.456   5.592
 5710SOL    HW118029   2.968   3.488   5.536
 5710SOL    HW218030   2.806   3.469   5.541
 5711SOL     OW18031   4.665   0.356   3.669
 5711SOL    HW118032   4.648   0.329   3.574
 5711SOL    HW218033   4.762   0.344   3.691
 5712SOL     OW18034   0.845   6.776   5.476
 5712SOL    HW118035   0.918   6.843   5.494
 5712SOL    HW218036   0.872   6.716   5.402
 5713SOL     OW18037   1.092   2.261   1.365
 5713SOL    HW118038   1.077   2.231   1.459
 5713SOL    HW218039   1.190   2.273   1.348
 5714SOL     OW18040   1.370   6.557   6.637
 5714SOL    HW118041   1.280   6.514   6.636
 5714SOL    HW218042   1.380   6.613   6.719
 5715SOL     OW18043   1.412   5.831   3.450
 5715SOL    HW118044   1.346   5.900   3.420
 5715SOL    HW218045   1.448   5.857   3.540
 5716SOL     OW18046   0.927   4.128   5.158
 5716SOL    HW118047   0.882   4.131   5.069
 5716SOL    HW218048   0.961   4.220   5.181
 5717SOL     OW18049   2.220   5.011   0.691
 5717SOL    HW118050   2.136   5.047   0.732
 5717SOL    HW218051   2.278   4.974   0.764
 5718SOL     OW18052   1.545   4.795   6.848
 5718SOL    HW118053   1.599   4.832   6.924
 5718SOL    HW218054   1.560   4.696   6.841
 5719SOL     OW18055   3.073   0.998   5.688
 5719SOL    HW118056   3.088   1.085   5.641
 5719SOL    HW218057   3.159   0.947   5.693
 5720SOL     OW18058   0.592   5.007   5.078
 5720SOL    HW118059   0.646   5.074   5.130
 5720SOL    HW218060   0.654   4.940   5.036
 5721SOL     OW18061   0.875   3.321   0.087
 5721SOL    HW118062   0.915   3.411   0.070
 5721SOL    HW218063   0.908   3.255   0.019
 5722SOL     OW18064   5.181   0.760   4.968
 5722SOL    HW118065   5.202   0.838   4.909
 5722SOL    HW218066   5.232   0.680   4.936
 5723SOL     OW18067   4.499   4.737   0.693
 5723SOL    HW118068   4.411   4.750   0.646
 5723SOL    HW218069   4.500   4.647   0.737
 5724SOL     OW18070   3.839   2.500   5.611
 5724SOL    HW118071   3.764   2.436   5.626
 5724SOL    HW218072   3.848   2.517   5.513
 5725SOL     OW18073   4.891   5.665   3.304
 5725SOL    HW118074   4.963   5.634   3.243
 5725SOL    HW218075   4.840   5.739   3.260
 5726SOL     OW18076   6.689   3.393   3.834
 5726SOL    HW118077   6.670   3.461   3.764
 5726SOL    HW218078   6.778   3.411   3.875
 5727SOL     OW18079   5.744   3.550   2.697
 5727SOL    HW118080   5.661   3.503   2.665
 5727SOL    HW218081   5.816   3.482   2.712
 5728SOL     OW18082   5.112   1.308   6.887
 5728SOL    HW118083   5.139   1.225   6.936
 5728SOL    HW218084   5.169   1.385   6.918
 5729SOL     OW18085   0.945   1.810   0.915
 5729SOL    HW118086   0.941   1.909   0.918
 5729SOL    HW218087   0.888   1.772   0.988
 5730SOL     OW18088   3.738   5.512   5.512
 5730SOL    HW118089   3.739   5.469   5.602
 5730SOL    HW218090   3.713   5.608   5.520
 5731SOL     OW18091   1.257   6.331   4.101
 5731SOL    HW118092   1.168   6.312   4.144
 5731SOL    HW218093   1.264   6.277   4.017
 5732SOL     OW18094   5.950   4.818   4.756
 5732SOL    HW118095   5.959   4.910   4.795
 5732SOL    HW218096   5.940   4.751   4.829
 5733SOL     OW18097   3.652   1.037   6.118
 5733SOL    HW118098   3.660   0.938   6.130
 5733SOL    HW218099   3.719   1.068   6.051
 5734SOL     OW18100   1.015   0.227   5.285
 5734SOL    HW118101   1.051   0.320   5.287
 5734SOL    HW218102   0.953   0.213   5.363
 5735SOL     OW18103   3.774   0.881   2.424
 5735SOL    HW118104   3.738   0.931   2.345
 5735SOL    HW218105   3.700   0.836   2.472
 5736SOL     OW18106   5.382   4.629   6.396
 5736SOL    HW118107   5.378   4.714   6.344
 5736SOL    HW218108   5.365   4.552   6.335
 5737SOL     OW18109   5.240   6.100   0.968
 5737SOL    HW118110   5.283   6.074   0.882
 5737SOL    HW218111   5.188   6.022   1.004
 5738SOL     OW18112   3.665   1.479   6.528
 5738SOL    HW118113   3.602   1.465   6.451
 5738SOL    HW218114   3.726   1.555   6.508
 5739SOL     OW18115   1.826   6.726   5.425
 5739SOL    HW118116   1.779   6.674   5.497
 5739SOL    HW218117   1.816   6.677   5.338
 5740SOL     OW18118   5.020   3.927   0.683
 5740SOL    HW118119   4.975   3.912   0.594
 5740SOL    HW218120   5.116   3.900   0.676
 5741SOL     OW18121   0.236   3.518   3.714
 5741SOL    HW118122   0.189   3.537   3.628
 5741SOL    HW218123   0.323   3.472   3.695
 5742SOL     OW18124   3.819   0.153   3.547
 5742SOL    HW118125   3.743   0.135   3.485
 5742SOL    HW218126   3.897   0.189   3.494
 5743SOL     OW18127   3.728   4.575   6.251
 5743SOL    HW118128   3.672   4.585   6.334
 5743SOL    HW218129   3.755   4.480   6.240
 5744SOL     OW18130   6.300   1.076   2.953
 5744SOL    HW118131   6.273   1.147   3.018
 5744SOL    HW218132   6.285   0.986   2.994
 5745SOL     OW18133   2.489   1.669   3.881
 5745SOL    HW118134   2.395   1.666   3.916
 5745SOL    HW218135   2.488   1.684   3.783
 5746SOL     OW18136   4.093   0.272   3.418
 5746SOL    HW118137   4.150   0.190   3.421
 5746SOL    HW218138   4.100   0.322   3.504
 5747SOL     OW18139   0.863   6.326   2.336
 5747SOL    HW118140   0.932   6.272   2.385
 5747SOL    HW218141   0.866   6.304   2.239
 5748SOL     OW18142   0.943   0.168   0.685
 5748SOL    HW118143   0.968   0.085   0.635
 5748SOL    HW218144   0.844   0.183   0.676
 5749SOL     OW18145   1.894   6.549   5.177
 5749SOL    HW118146   1.888   6.516   5.083
 5749SOL    HW218147   1.903   6.471   5.239
 5750SOL     OW18148   6.069   4.899   5.613
 5750SOL    HW118149   6.098   4.861   5.526
 5750SOL    HW218150   6.134   4.872   5.685
 5751SOL     OW18151   1.488   3.612   4.779
 5751SOL    HW118152   1.454   3.556   4.854
 5751SOL    HW218153   1.503   3.705   4.812
 5752SOL     OW18154   5.854   0.034   1.331
 5752SOL    HW118155   5.856   6.976   1.388
 5752SOL    HW218156   5.835   0.009   1.236
 5753SOL     OW18157   3.179   3.757   4.711
 5753SOL    HW118158   3.148   3.692   4.780
 5753SOL    HW218159   3.203   3.708   4.628
 5754SOL     OW18160   1.162   6.060   2.160
 5754SOL    HW118161   1.217   6.115   2.097
 5754SOL    HW218162   1.135   6.117   2.238
 5755SOL     OW18163   1.367   2.150   5.745
 5755SOL    HW118164   1.324   2.104   5.822
 5755SOL    HW218165   1.397   2.242   5.773
 5756SOL     OW18166   6.714   0.660   3.092
 5756SOL    HW118167   6.637   0.603   3.122
 5756SOL    HW218168   6.699   0.754   3.121
 5757SOL     OW18169   0.566   5.407   3.976
 5757SOL    HW118170   0.570   5.314   4.014
 5757SOL    HW218171   0.509   5.464   4.034
 5758SOL     OW18172   2.453   0.448   3.572
 5758SOL    HW118173   2.373   0.388   3.570
 5758SOL    HW218174   2.489   0.452   3.665
 5759SOL     OW18175   4.587   0.452   1.568
 5759SOL    HW118176   4.652   0.393   1.617
 5759SOL    HW218177   4.570   0.414   1.477
 5760SOL     OW18178   6.692   2.814   2.023
 5760SOL    HW118179   6.676   2.820   2.121
 5760SOL    HW218180   6.607   2.792   1.976
 5761SOL     OW18181   5.420   5.566   5.219
 5761SOL    HW118182   5.497   5.504   5.232
 5761SOL    HW218183   5.354   5.554   5.294
 5762SOL     OW18184   4.691   4.133   0.287
 5762SOL    HW118185   4.732   4.196   0.221
 5762SOL    HW218186   4.603   4.100   0.253
 5763SOL     OW18187   5.744   6.152   0.667
 5763SOL    HW118188   5.674   6.093   0.628
 5763SOL    HW218189   5.715   6.247   0.663
 5764SOL     OW18190   4.283   5.423   3.680
 5764SOL    HW118191   4.348   5.491   3.713
 5764SOL    HW218192   4.191   5.445   3.713
 5765SOL     OW18193   6.740   3.493   0.786
 5765SOL    HW118194   6.798   3.479   0.706
 5765SOL    HW218195   6.791   3.541   0.857
 5766SOL     OW18196   2.257   1.978   4.800
 5766SOL    HW118197   2.182   2.042   4.816
 5766SOL    HW218198   2.232   1.912   4.729
 5767SOL     OW18199   2.649   0.118   6.747
 5767SOL    HW118200   2.608   0.028   6.756
 5767SOL    HW218201   2.638   0.151   6.654
 5768SOL     OW18202   0.308   6.889   3.438
 5768SOL    HW118203   0.365   6.808   3.453
 5768SOL    HW218204   0.213   6.867   3.462
 5769SOL     OW18205   2.942   5.660   5.077
 5769SOL    HW118206   2.924   5.660   5.175
 5769SOL    HW218207   2.975   5.570   5.049
 5770SOL     OW18208   0.272   6.231   6.895
 5770SOL    HW118209   0.224   6.248   6.809
 5770SOL    HW218210   0.365   6.199   6.876
 5771SOL     OW18211   1.728   0.337   4.285
 5771SOL    HW118212   1.803   0.395   4.317
 5771SOL    HW218213   1.683   0.294   4.363
 5772SOL     OW18214   4.895   1.272   1.518
 5772SOL    HW118215   4.837   1.323   1.455
 5772SOL    HW218216   4.842   1.244   1.598
 5773SOL     OW18217   4.156   0.844   2.708
 5773SOL    HW118218   4.172   0.797   2.795
 5773SOL    HW218219   4.194   0.788   2.633
 5774SOL     OW18220   1.881   0.598   4.650
 5774SOL    HW118221   1.957   0.659   4.630
 5774SOL    HW218222   1.794   0.648   4.643
 5775SOL     OW18223   0.992   6.694   2.917
 5775SOL    HW118224   0.977   6.787   2.950
 5775SOL    HW218225   0.945   6.681   2.831
 5776SOL     OW18226   1.210   0.318   3.691
 5776SOL    HW118227   1.271   0.387   3.653
 5776SOL    HW218228   1.260   0.232   3.701
 5777SOL     OW18229   0.867   0.210   3.782
 5777SOL    HW118230   0.940   0.212   3.851
 5777SOL    HW218231   0.861   0.119   3.743
 5778SOL     OW18232   1.656   1.022   0.466
 5778SOL    HW118233   1.593   1.042   0.391
 5778SOL    HW218234   1.683   0.926   0.461
 5779SOL     OW18235   4.711   2.355   0.242
 5779SOL    HW118236   4.744   2.444   0.212
 5779SOL    HW218237   4.697   2.355   0.341
 5780SOL     OW18238   4.971   6.143   4.644
 5780SOL    HW118239   5.047   6.209   4.644
 5780SOL    HW218240   5.005   6.054   4.676
 5781SOL     OW18241   6.244   5.003   4.196
 5781SOL    HW118242   6.313   4.978   4.264
 5781SOL    HW218243   6.161   5.034   4.243
 5782SOL     OW18244   1.509   1.895   0.436
 5782SOL    HW118245   1.489   1.806   0.394
 5782SOL    HW218246   1.445   1.963   0.400
 5783SOL     OW18247   1.108   0.639   2.240
 5783SOL    HW118248   1.180   0.628   2.172
 5783SOL    HW218249   1.061   0.727   2.226
 5784SOL     OW18250   0.486   6.673   5.425
 5784SOL    HW118251   0.512   6.581   5.454
 5784SOL    HW218252   0.498   6.682   5.326
 5785SOL     OW18253   1.840   1.808   0.215
 5785SOL    HW118254   1.763   1.857   0.174
 5785SOL    HW218255   1.913   1.874   0.236
 5786SOL     OW18256   6.822   4.247   0.645
 5786SOL    HW118257   6.827   4.285   0.553
 5786SOL    HW218258   6.888   4.172   0.653
 5787SOL     OW18259   2.138   2.571   5.383
 5787SOL    HW118260   2.193   2.593   5.465
 5787SOL    HW218261   2.200   2.557   5.305
 5788SOL     OW18262   3.235   1.176   2.413
 5788SOL    HW118263   3.277   1.262   2.385
 5788SOL    HW218264   3.203   1.127   2.331
 5789SOL     OW18265   3.397   4.620   6.680
 5789SOL    HW118266   3.329   4.672   6.628
 5789SOL    HW218267   3.429   4.675   6.757
 5790SOL     OW18268   1.870   4.088   3.984
 5790SOL    HW118269   1.895   4.183   4.004
 5790SOL    HW218270   1.948   4.028   4.002
 5791SOL     OW18271   4.039   0.298   2.276
 5791SOL    HW118272   4.135   0.312   2.253
 5791SOL    HW218273   4.005   0.378   2.325
 5792SOL     OW18274   6.778   2.534   2.983
 5792SOL    HW118275   6.756   2.631   2.995
 5792SOL    HW218276   6.853   2.525   2.917
 5793SOL     OW18277   5.631   0.495   4.150
 5793SOL    HW118278   5.551   0.555   4.138
 5793SOL    HW218279   5.629   0.422   4.082
 5794SOL     OW18280   3.930   2.250   0.920
 5794SOL    HW118281   3.916   2.153   0.942
 5794SOL    HW218282   3.994   2.290   0.986
 5795SOL     OW18283   6.405   5.923   6.486
 5795SOL    HW118284   6.418   5.929   6.585
 5795SOL    HW218285   6.351   5.841   6.465
 5796SOL     OW18286   3.866   1.115   6.992
 5796SOL    HW118287   3.881   1.064   6.907
 5796SOL    HW218288   3.774   1.154   6.991
 5797SOL     OW18289   4.479   1.896   5.502
 5797SOL    HW118290   4.562   1.856   5.542
 5797SOL    HW218291   4.403   1.832   5.513
 5798SOL     OW18292   0.756   4.786   4.956
 5798SOL    HW118293   0.809   4.737   4.887
 5798SOL    HW218294   0.676   4.730   4.982
 5799SOL     OW18295   5.414   1.061   3.652
 5799SOL    HW118296   5.367   1.076   3.565
 5799SOL    HW218297   5.378   0.979   3.696
 5800SOL     OW18298   6.110   5.892   1.147
 5800SOL    HW118299   6.155   5.865   1.232
 5800SOL    HW218300   6.143   5.834   1.072
 5801SOL     OW18301   1.503   2.318   4.332
 5801SOL    HW118302   1.449   2.239   4.362
 5801SOL    HW218303   1.556   2.353   4.409
 5802SOL     OW18304   1.121   4.594   1.007
 5802SOL    HW118305   1.173   4.679   1.003
 5802SOL    HW218306   1.103   4.560   0.915
 5803SOL     OW18307   1.282   4.584   2.072
 5803SOL    HW118308   1.343   4.651   2.030
 5803SOL    HW218309   1.337   4.514   2.119
 5804SOL     OW18310   0.217   5.296   4.108
 5804SOL    HW118311   0.185   5.211   4.067
 5804SOL    HW218312   0.160   5.319   4.186
 5805SOL     OW18313   2.384   3.317   5.949
 5805SOL    HW118314   2.465   3.307   5.891
 5805SOL    HW218315   2.306   3.345   5.894
 5806SOL     OW18316   7.006   5.913   5.938
 5806SOL    HW118317   6.907   5.923   5.925
 5806SOL    HW218318   0.012   5.825   5.901
 5807SOL     OW18319   0.706   3.675   1.658
 5807SOL    HW118320   0.730   3.737   1.732
 5807SOL    HW218321   0.777   3.679   1.587
 5808SOL     OW18322   6.001   4.712   4.228
 5808SOL    HW118323   5.989   4.790   4.167
 5808SOL    HW218324   5.982   4.739   4.322
 5809SOL     OW18325   6.892   2.135   4.592
 5809SOL    HW118326   6.961   2.197   4.553
 5809SOL    HW218327   6.857   2.075   4.520
 5810SOL     OW18328   3.846   1.332   3.927
 5810SOL    HW118329   3.815   1.325   3.833
 5810SOL    HW218330   3.904   1.254   3.950
 5811SOL     OW18331   3.091   0.329   5.954
 5811SOL    HW118332   3.173   0.291   5.998
 5811SOL    HW218333   3.110   0.421   5.920
 5812SOL     OW18334   6.139   1.574   4.016
 5812SOL    HW118335   6.233   1.550   4.039
 5812SOL    HW218336   6.082   1.566   4.098
 5813SOL     OW18337   1.709   1.535   0.894
 5813SOL    HW118338   1.645   1.598   0.938
 5813SOL    HW218339   1.767   1.492   0.963
 5814SOL     OW18340   6.265   4.738   1.483
 5814SOL    HW118341   6.301   4.801   1.551
 5814SOL    HW218342   6.257   4.646   1.522
 5815SOL     OW18343   4.633   2.588   4.256
 5815SOL    HW118344   4.567   2.532   4.307
 5815SOL    HW218345   4.606   2.684   4.262
 5816SOL     OW18346   4.827   6.035   0.232
 5816SOL    HW118347   4.737   6.027   0.275
 5816SOL    HW218348   4.898   6.007   0.297
 5817SOL     OW18349   5.499   3.627   6.012
 5817SOL    HW118350   5.485   3.560   6.085
 5817SOL    HW218351   5.578   3.600   5.957
 5818SOL     OW18352   6.512   5.759   4.648
 5818SOL    HW118353   6.610   5.763   4.669
 5818SOL    HW218354   6.493   5.816   4.568
 5819SOL     OW18355   4.176   6.586   6.380
 5819SOL    HW118356   4.084   6.550   6.360
 5819SOL    HW218357   4.243   6.513   6.369
 5820SOL     OW18358   4.098   5.845   4.293
 5820SOL    HW118359   4.102   5.943   4.272
 5820SOL    HW218360   4.172   5.821   4.355
 5821SOL     OW18361   0.261   6.904   2.440
 5821SOL    HW118362   0.203   6.830   2.473
 5821SOL    HW218363   0.231   6.991   2.480
 5822SOL     OW18364   0.596   2.325   2.321
 5822SOL    HW118365   0.642   2.250   2.369
 5822SOL    HW218366   0.534   2.288   2.253
 5823SOL     OW18367   0.682   1.335   5.769
 5823SOL    HW118368   0.702   1.242   5.799
 5823SOL    HW218369   0.692   1.340   5.669
 5824SOL     OW18370   6.416   4.974   2.280
 5824SOL    HW118371   6.453   4.885   2.309
 5824SOL    HW218372   6.338   4.959   2.219
 5825SOL     OW18373   2.454   2.571   5.487
 5825SOL    HW118374   2.522   2.588   5.416
 5825SOL    HW218375   2.471   2.632   5.565
 5826SOL     OW18376   6.774   5.379   5.261
 5826SOL    HW118377   6.867   5.344   5.246
 5826SOL    HW218378   6.766   5.469   5.218
 5827SOL     OW18379   2.324   4.781   4.807
 5827SOL    HW118380   2.370   4.866   4.784
 5827SOL    HW218381   2.261   4.796   4.883
 5828SOL     OW18382   6.789   2.705   1.612
 5828SOL    HW118383   6.852   2.779   1.588
 5828SOL    HW218384   6.803   2.681   1.709
 5829SOL     OW18385   2.369   1.452   3.105
 5829SOL    HW118386   2.376   1.357   3.072
 5829SOL    HW218387   2.369   1.514   3.026
 5830SOL     OW18388   4.567   0.303   5.306
 5830SOL    HW118389   4.559   0.209   5.273
 5830SOL    HW218390   4.660   0.337   5.288
 5831SOL     OW18391   0.142   0.840   4.246
 5831SOL    HW118392   0.128   0.749   4.285
 5831SOL    HW218393   0.227   0.841   4.193
 5832SOL     OW18394   4.081   4.347   6.122
 5832SOL    HW118395   4.102   4.439   6.155
 5832SOL    HW218396   4.066   4.350   6.023
 5833SOL     OW18397   3.988   3.177   4.951
 5833SOL    HW118398   3.937   3.103   4.997
 5833SOL    HW218399   3.923   3.236   4.903
 5834SOL     OW18400   6.558   3.162   0.401
 5834SOL    HW118401   6.598   3.121   0.319
 5834SOL    HW218402   6.501   3.095   0.448
 5835SOL     OW18403   5.070   3.530   3.674
 5835SOL    HW118404   5.163   3.552   3.644
 5835SOL    HW218405   5.056   3.565   3.767
 5836SOL     OW18406   2.637   6.801   2.528
 5836SOL    HW118407   2.555   6.798   2.586
 5836SOL    HW218408   2.650   6.711   2.486
 5837SOL     OW18409   4.288   5.031   5.869
 5837SOL    HW118410   4.329   5.013   5.958
 5837SOL    HW218411   4.335   5.106   5.825
 5838SOL     OW18412   2.707   1.568   5.888
 5838SOL    HW118413   2.775   1.496   5.892
 5838SOL    HW218414   2.619   1.530   5.860
 5839SOL     OW18415   0.350   1.933   2.737
 5839SOL    HW118416   0.255   1.943   2.767
 5839SOL    HW218417   0.407   1.910   2.816
 5840SOL     OW18418   1.236   5.307   6.554
 5840SOL    HW118419   1.296   5.236   6.589
 5840SOL    HW218420   1.149   5.306   6.603
 5841SOL     OW18421   5.219   1.560   2.540
 5841SOL    HW118422   5.255   1.637   2.592
 5841SOL    HW218423   5.250   1.568   2.445
 5842SOL     OW18424   4.975   3.107   1.139
 5842SOL    HW118425   5.031   3.146   1.212
 5842SOL    HW218426   4.949   3.014   1.164
 5843SOL     OW18427   2.158   4.156   2.578
 5843SOL    HW118428   2.089   4.212   2.623
 5843SOL    HW218429   2.231   4.214   2.543
 5844SOL     OW18430   0.767   6.968   5.764
 5844SOL    HW118431   0.783   6.878   5.805
 5844SOL    HW218432   0.805   6.969   5.672
 5845SOL     OW18433   0.885   0.205   2.825
 5845SOL    HW118434   0.786   0.186   2.825
 5845SOL    HW218435   0.904   0.283   2.765
 5846SOL     OW18436   6.583   2.918   3.551
 5846SOL    HW118437   6.584   3.000   3.609
 5846SOL    HW218438   6.649   2.929   3.477
 5847SOL     OW18439   1.801   2.286   1.631
 5847SOL    HW118440   1.749   2.276   1.716
 5847SOL    HW218441   1.897   2.264   1.649
 5848SOL     OW18442   2.659   5.126   2.999
 5848SOL    HW118443   2.623   5.150   2.908
 5848SOL    HW218444   2.757   5.111   2.992
 5849SOL     OW18445   0.236   6.632   6.872
 5849SOL    HW118446   0.174   6.561   6.905
 5849SOL    HW218447   0.199   6.722   6.895
 5850SOL     OW18448   0.340   4.077   2.385
 5850SOL    HW118449   0.428   4.050   2.347
 5850SOL    HW218450   0.291   3.996   2.418
 5851SOL     OW18451   5.404   3.377   2.816
 5851SOL    HW118452   5.343   3.359   2.893
 5851SOL    HW218453   5.356   3.431   2.748
 5852SOL     OW18454   5.212   6.433   3.005
 5852SOL    HW118455   5.129   6.461   2.958
 5852SOL    HW218456   5.203   6.338   3.036
 5853SOL     OW18457   3.224   5.649   4.095
 5853SOL    HW118458   3.237   5.634   4.193
 5853SOL    HW218459   3.159   5.582   4.060
 5854SOL     OW18460   5.872   4.614   5.325
 5854SOL    HW118461   5.826   4.679   5.385
 5854SOL    HW218462   5.927   4.551   5.380
 5855SOL     OW18463   0.390   0.653   5.399
 5855SOL    HW118464   0.384   0.589   5.476
 5855SOL    HW218465   0.470   0.712   5.411
 5856SOL     OW18466   1.726   6.195   4.128
 5856SOL    HW118467   1.718   6.295   4.129
 5856SOL    HW218468   1.811   6.167   4.172
 5857SOL     OW18469   6.133   2.637   5.840
 5857SOL    HW118470   6.122   2.599   5.748
 5857SOL    HW218471   6.082   2.581   5.905
 5858SOL     OW18472   2.684   2.255   2.022
 5858SOL    HW118473   2.632   2.331   2.061
 5858SOL    HW218474   2.781   2.280   2.018
 5859SOL     OW18475   5.423   6.615   1.420
 5859SOL    HW118476   5.475   6.696   1.448
 5859SOL    HW218477   5.438   6.598   1.323
 5860SOL     OW18478   1.612   3.814   1.841
 5860SOL    HW118479   1.526   3.864   1.850
 5860SOL    HW218480   1.593   3.719   1.818
 5861SOL     OW18481   4.718   1.791   4.881
 5861SOL    HW118482   4.700   1.877   4.930
 5861SOL    HW218483   4.675   1.794   4.791
 5862SOL     OW18484   4.815   5.128   3.152
 5862SOL    HW118485   4.858   5.098   3.238
 5862SOL    HW218486   4.884   5.168   3.092
 5863SOL     OW18487   2.868   0.932   4.418
 5863SOL    HW118488   2.872   1.005   4.486
 5863SOL    HW218489   2.932   0.859   4.443
 5864SOL     OW18490   4.184   3.556   1.923
 5864SOL    HW118491   4.228   3.492   1.860
 5864SOL    HW218492   4.138   3.506   1.996
 5865SOL     OW18493   6.109   0.173   5.514
 5865SOL    HW118494   6.186   0.203   5.458
 5865SOL    HW218495   6.121   0.077   5.539
 5866SOL     OW18496   4.689   5.624   0.354
 5866SOL    HW118497   4.774   5.647   0.306
 5866SOL    HW218498   4.619   5.692   0.333
 5867SOL     OW18499   0.231   3.793   0.914
 5867SOL    HW118500   0.247   3.891   0.919
 5867SOL    HW218501   0.278   3.747   0.989
 5868SOL     OW18502   0.226   0.819   5.539
 5868SOL    HW118503   0.276   0.747   5.490
 5868SOL    HW218504   0.252   0.908   5.502
 5869SOL     OW18505   3.165   5.864   3.206
 5869SOL    HW118506   3.107   5.919   3.265
 5869SOL    HW218507   3.121   5.775   3.190
 5870SOL     OW18508   5.218   5.900   4.544
 5870SOL    HW118509   5.271   5.888   4.628
 5870SOL    HW218510   5.263   5.852   4.469
 5871SOL     OW18511   3.785   3.164   0.161
 5871SOL    HW118512   3.748   3.077   0.194
 5871SOL    HW218513   3.852   3.198   0.226
 5872SOL     OW18514   3.767   5.704   0.404
 5872SOL    HW118515   3.718   5.644   0.467
 5872SOL    HW218516   3.865   5.700   0.423
 5873SOL     OW18517   2.200   2.743   1.004
 5873SOL    HW118518   2.101   2.733   0.995
 5873SOL    HW218519   2.226   2.734   1.100
 5874SOL     OW18520   2.901   3.498   0.833
 5874SOL    HW118521   2.930   3.402   0.829
 5874SOL    HW218522   2.844   3.520   0.754
 5875SOL     OW18523   3.718   0.891   0.884
 5875SOL    HW118524   3.704   0.965   0.817
 5875SOL    HW218525   3.677   0.807   0.850
 5876SOL     OW18526   2.602   3.298   0.103
 5876SOL    HW118527   2.507   3.276   0.125
 5876SOL    HW218528   2.662   3.260   0.173
 5877SOL     OW18529   0.560   6.570   1.227
 5877SOL    HW118530   0.605   6.642   1.174
 5877SOL    HW218531   0.494   6.611   1.291
 5878SOL     OW18532   5.009   5.285   3.027
 5878SOL    HW118533   5.084   5.284   3.094
 5878SOL    HW218534   4.988   5.380   3.003
 5879SOL     OW18535   2.611   3.784   6.453
 5879SOL    HW118536   2.518   3.804   6.485
 5879SOL    HW218537   2.637   3.851   6.383
 5880SOL     OW18538   4.823   4.247   6.660
 5880SOL    HW118539   4.771   4.327   6.692
 5880SOL    HW218540   4.848   4.259   6.564
 5881SOL     OW18541   1.329   6.970   2.184
 5881SOL    HW118542   1.395   6.961   2.110
 5881SOL    HW218543   1.369   0.003   2.257
 5882SOL     OW18544   1.390   6.737   6.053
 5882SOL    HW118545   1.369   6.802   6.126
 5882SOL    HW218546   1.452   6.667   6.090
 5883SOL     OW18547   0.826   1.308   0.747
 5883SOL    HW118548   0.904   1.303   0.686
 5883SOL    HW218549   0.799   1.216   0.775
 5884SOL     OW18550   5.715   1.064   4.826
 5884SOL    HW118551   5.706   0.990   4.893
 5884SOL    HW218552   5.624   1.087   4.791
 5885SOL     OW18553   1.035   5.943   1.490
 5885SOL    HW118554   1.086   5.872   1.443
 5885SOL    HW218555   1.014   6.017   1.427
 5886SOL     OW18556   0.816   3.050   3.557
 5886SOL    HW118557   0.766   3.011   3.480
 5886SOL    HW218558   0.831   3.148   3.542
 5887SOL     OW18559   2.845   2.033   1.938
 5887SOL    HW118560   2.916   2.012   1.872
 5887SOL    HW218561   2.852   2.129   1.967
 5888SOL     OW18562   2.334   6.627   1.309
 5888SOL    HW118563   2.266   6.694   1.278
 5888SOL    HW218564   2.357   6.565   1.234
 5889SOL     OW18565   6.757   1.227   0.587
 5889SOL    HW118566   6.828   1.162   0.617
 5889SOL    HW218567   6.782   1.264   0.497
 5890SOL     OW18568   1.533   6.562   2.975
 5890SOL    HW118569   1.434   6.561   2.959
 5890SOL    HW218570   1.575   6.630   2.916
 5891SOL     OW18571   2.037   4.026   0.040
 5891SOL    HW118572   2.124   3.987   0.071
 5891SOL    HW218573   2.010   3.983   6.977
 5892SOL     OW18574   7.012   5.148   1.714
 5892SOL    HW118575   7.015   5.048   1.704
 5892SOL    HW218576   6.934   5.184   1.665
 5893SOL     OW18577   2.269   4.882   2.050
 5893SOL    HW118578   2.191   4.862   1.990
 5893SOL    HW218579   2.353   4.889   1.995
 5894SOL     OW18580   0.637   5.517   5.328
 5894SOL    HW118581   0.633   5.558   5.236
 5894SOL    HW218582   0.551   5.533   5.375
 5895SOL     OW18583   6.006   4.036   3.545
 5895SOL    HW118584   5.991   4.090   3.462
 5895SOL    HW218585   5.947   4.070   3.618
 5896SOL     OW18586   5.234   1.290   1.261
 5896SOL    HW118587   5.242   1.320   1.356
 5896SOL    HW218588   5.251   1.192   1.256
 5897SOL     OW18589   3.548   0.953   1.776
 5897SOL    HW118590   3.616   0.952   1.849
 5897SOL    HW218591   3.587   0.912   1.694
 5898SOL     OW18592   2.639   1.478   5.615
 5898SOL    HW118593   2.672   1.572   5.608
 5898SOL    HW218594   2.592   1.454   5.530
 5899SOL     OW18595   0.147   5.486   6.459
 5899SOL    HW118596   0.182   5.570   6.499
 5899SOL    HW218597   0.047   5.489   6.457
 5900SOL     OW18598   6.751   5.352   2.560
 5900SOL    HW118599   6.838   5.345   2.608
 5900SOL    HW218600   6.685   5.288   2.600
 5901SOL     OW18601   2.838   1.060   0.317
 5901SOL    HW118602   2.805   1.124   0.386
 5901SOL    HW218603   2.911   1.103   0.264
 5902SOL     OW18604   5.770   3.218   5.268
 5902SOL    HW118605   5.672   3.200   5.276
 5902SOL    HW218606   5.797   3.210   5.172
 5903SOL     OW18607   4.833   2.853   6.945
 5903SOL    HW118608   4.815   2.783   6.876
 5903SOL    HW218609   4.921   2.897   6.926
 5904SOL     OW18610   1.180   4.250   0.757
 5904SOL    HW118611   1.128   4.335   0.763
 5904SOL    HW218612   1.131   4.177   0.803
 5905SOL     OW18613   5.807   0.950   3.840
 5905SOL    HW118614   5.838   0.990   3.926
 5905SOL    HW218615   5.852   0.862   3.826
 5906SOL     OW18616   4.988   1.806   5.547
 5906SOL    HW118617   4.916   1.776   5.485
 5906SOL    HW218618   5.052   1.732   5.563
 5907SOL     OW18619   1.541   0.545   0.061
 5907SOL    HW118620   1.513   0.451   0.043
 5907SOL    HW218621   1.488   0.607   0.002
 5908SOL     OW18622   5.794   4.215   0.148
 5908SOL    HW118623   5.809   4.150   0.223
 5908SOL    HW218624   5.882   4.237   0.105
 5909SOL     OW18625   0.668   5.033   6.465
 5909SOL    HW118626   0.631   5.120   6.497
 5909SOL    HW218627   0.602   4.989   6.403
 5910SOL     OW18628   0.907   4.894   0.372
 5910SOL    HW118629   0.902   4.844   0.285
 5910SOL    HW218630   1.002   4.899   0.402
 5911SOL     OW18631   0.363   5.375   5.747
 5911SOL    HW118632   0.296   5.351   5.818
 5911SOL    HW218633   0.429   5.301   5.737
 5912SOL     OW18634   5.935   3.376   6.619
 5912SOL    HW118635   5.874   3.309   6.662
 5912SOL    HW218636   6.027   3.365   6.658
 5913SOL     OW18637   2.173   2.907   5.837
 5913SOL    HW118638   2.124   2.898   5.751
 5913SOL    HW218639   2.146   2.833   5.899
 5914SOL     OW18640   2.965   5.398   6.471
 5914SOL    HW118641   2.902   5.334   6.426
 5914SOL    HW218642   2.970   5.377   6.568
 5915SOL     OW18643   5.925   3.507   1.695
 5915SOL    HW118644   5.966   3.554   1.773
 5915SOL    HW218645   5.826   3.502   1.708
 5916SOL     OW18646   4.287   0.318   5.630
 5916SOL    HW118647   4.369   0.364   5.666
 5916SOL    HW218648   4.298   0.219   5.640
 5917SOL     OW18649   4.125   3.629   3.725
 5917SOL    HW118650   4.061   3.594   3.657
 5917SOL    HW218651   4.217   3.595   3.706
 5918SOL     OW18652   2.222   4.130   4.784
 5918SOL    HW118653   2.147   4.072   4.752
 5918SOL    HW218654   2.276   4.081   4.853
 5919SOL     OW18655   3.140   2.412   6.869
 5919SOL    HW118656   3.068   2.366   6.922
 5919SOL    HW218657   3.219   2.351   6.860
 5920SOL     OW18658   3.642   6.636   7.008
 5920SOL    HW118659   3.659   6.705   6.938
 5920SOL    HW218660   3.557   6.587   6.987
 5921SOL     OW18661   3.442   5.407   5.626
 5921SOL    HW118662   3.504   5.378   5.699
 5921SOL    HW218663   3.484   5.390   5.537
 5922SOL     OW18664   6.113   5.327   3.807
 5922SOL    HW118665   6.087   5.412   3.762
 5922SOL    HW218666   6.185   5.282   3.754
 5923SOL     OW18667   6.166   1.413   2.841
 5923SOL    HW118668   6.096   1.473   2.879
 5923SOL    HW218669   6.211   1.363   2.915
 5924SOL     OW18670   5.834   2.898   4.844
 5924SOL    HW118671   5.872   2.819   4.798
 5924SOL    HW218672   5.828   2.881   4.942
 5925SOL     OW18673   4.332   6.459   3.100
 5925SOL    HW118674   4.396   6.520   3.054
 5925SOL    HW218675   4.251   6.446   3.043
 5926SOL     OW18676   3.745   5.156   2.144
 5926SOL    HW118677   3.741   5.056   2.151
 5926SOL    HW218678   3.653   5.194   2.159
 5927SOL     OW18679   2.342   4.351   2.479
 5927SOL    HW118680   2.320   4.434   2.531
 5927SOL    HW218681   2.309   4.361   2.385
 5928SOL     OW18682   3.263   0.180   2.272
 5928SOL    HW118683   3.234   0.250   2.336
 5928SOL    HW218684   3.339   0.127   2.311
 5929SOL     OW18685   0.649   6.658   5.655
 5929SOL    HW118686   0.708   6.674   5.734
 5929SOL    HW218687   0.688   6.703   5.574
 5930SOL     OW18688   6.357   1.934   3.863
 5930SOL    HW118689   6.433   1.924   3.926
 5930SOL    HW218690   6.315   1.845   3.846
 5931SOL     OW18691   5.902   4.800   2.622
 5931SOL    HW118692   5.924   4.805   2.720
 5931SOL    HW218693   5.987   4.797   2.569
 5932SOL     OW18694   2.721   6.097   0.691
 5932SOL    HW118695   2.628   6.061   0.683
 5932SOL    HW218696   2.744   6.150   0.610
 5933SOL     OW18697   6.919   4.649   2.964
 5933SOL    HW118698   6.925   4.663   2.865
 5933SOL    HW218699   6.908   4.737   3.010
 5934SOL     OW18700   3.587   4.129   3.780
 5934SOL    HW118701   3.520   4.066   3.742
 5934SOL    HW218702   3.652   4.156   3.709
 5935SOL     OW18703   4.128   3.635   4.430
 5935SOL    HW118704   4.048   3.693   4.417
 5935SOL    HW218705   4.196   3.683   4.484
 5936SOL     OW18706   4.785   3.533   6.302
 5936SOL    HW118707   4.703   3.587   6.319
 5936SOL    HW218708   4.863   3.574   6.349
 5937SOL     OW18709   0.565   4.239   1.921
 5937SOL    HW118710   0.523   4.155   1.888
 5937SOL    HW218711   0.512   4.317   1.888
 5938SOL     OW18712   1.242   5.279   3.924
 5938SOL    HW118713   1.279   5.372   3.923
 5938SOL    HW218714   1.285   5.227   3.998
 5939SOL     OW18715   3.021   0.430   3.189
 5939SOL    HW118716   3.086   0.500   3.219
 5939SOL    HW218717   3.071   0.351   3.155
 5940SOL     OW18718   4.498   6.489   2.179
 5940SOL    HW118719   4.562   6.426   2.222
 5940SOL    HW218720   4.422   6.508   2.241
 5941SOL     OW18721   6.373   3.915   2.071
 5941SOL    HW118722   6.327   3.874   2.149
 5941SOL    HW218723   6.453   3.861   2.046
 5942SOL     OW18724   4.989   2.579   0.072
 5942SOL    HW118725   5.021   2.654   0.130
 5942SOL    HW218726   4.889   2.573   0.080
 5943SOL     OW18727   3.733   5.136   0.437
 5943SOL    HW118728   3.815   5.152   0.492
 5943SOL    HW218729   3.660   5.101   0.495
 5944SOL     OW18730   5.246   1.847   1.986
 5944SOL    HW118731   5.281   1.753   1.993
 5944SOL    HW218732   5.188   1.867   2.064
 5945SOL     OW18733   0.310   5.351   5.424
 5945SOL    HW118734   0.224   5.339   5.474
 5945SOL    HW218735   0.341   5.445   5.434
 5946SOL     OW18736   3.294   3.130   5.488
 5946SOL    HW118737   3.362   3.165   5.424
 5946SOL    HW218738   3.327   3.142   5.581
 5947SOL     OW18739   3.860   3.435   1.834
 5947SOL    HW118740   3.800   3.512   1.810
 5947SOL    HW218741   3.878   3.436   1.932
 5948SOL     OW18742   4.310   5.409   3.353
 5948SOL    HW118743   4.246   5.374   3.286
 5948SOL    HW218744   4.268   5.409   3.444
 5949SOL     OW18745   3.842   3.928   0.930
 5949SOL    HW118746   3.800   4.007   0.886
 5949SOL    HW218747   3.901   3.959   1.005
 5950SOL     OW18748   5.191   2.959   5.292
 5950SOL    HW118749   5.116   3.007   5.248
 5950SOL    HW218750   5.184   2.968   5.392
 5951SOL     OW18751   1.025   6.112   5.057
 5951SOL    HW118752   1.103   6.050   5.069
 5951SOL    HW218753   0.958   6.093   5.129
 5952SOL     OW18754   5.934   6.033   3.929
 5952SOL    HW118755   6.017   6.087   3.914
 5952SOL    HW218756   5.904   5.994   3.842
 5953SOL     OW18757   6.847   3.019   5.724
 5953SOL    HW118758   6.792   3.102   5.727
 5953SOL    HW218759   6.912   3.026   5.648
 5954SOL     OW18760   6.732   4.896   5.495
 5954SOL    HW118761   6.737   4.984   5.543
 5954SOL    HW218762   6.824   4.857   5.487
 5955SOL     OW18763   5.907   6.200   2.524
 5955SOL    HW118764   5.979   6.132   2.533
 5955SOL    HW218765   5.877   6.204   2.429
 5956SOL     OW18766   3.292   1.956   0.548
 5956SOL    HW118767   3.272   1.887   0.478
 5956SOL    HW218768   3.236   1.938   0.629
 5957SOL     OW18769   5.180   0.348   5.872
 5957SOL    HW118770   5.230   0.331   5.787
 5957SOL    HW218771   5.141   0.262   5.905
 5958SOL     OW18772   5.751   6.606   2.745
 5958SOL    HW118773   5.838   6.557   2.752
 5958SOL    HW218774   5.749   6.681   2.810
 5959SOL     OW18775   3.519   1.527   5.721
 5959SOL    HW118776   3.569   1.607   5.687
 5959SOL    HW218777   3.505   1.463   5.646
 5960SOL     OW18778   3.606   6.542   4.863
 5960SOL    HW118779   3.531   6.496   4.816
 5960SOL    HW218780   3.572   6.579   4.950
 5961SOL     OW18781   4.591   0.976   4.173
 5961SOL    HW118782   4.633   0.970   4.264
 5961SOL    HW218783   4.638   0.915   4.110
 5962SOL     OW18784   5.109   5.890   1.926
 5962SOL    HW118785   5.142   5.883   1.832
 5962SOL    HW218786   5.131   5.805   1.976
 5963SOL     OW18787   3.387   2.995   4.853
 5963SOL    HW118788   3.311   3.019   4.793
 5963SOL    HW218789   3.447   2.931   4.806
 5964SOL     OW18790   0.313   4.868   6.002
 5964SOL    HW118791   0.222   4.847   6.037
 5964SOL    HW218792   0.306   4.928   5.922
 5965SOL     OW18793   1.558   1.939   5.769
 5965SOL    HW118794   1.492   2.014   5.756
 5965SOL    HW218795   1.650   1.977   5.773
 5966SOL     OW18796   2.983   5.350   5.806
 5966SOL    HW118797   3.044   5.405   5.750
 5966SOL    HW218798   3.021   5.258   5.816
 5967SOL     OW18799   4.203   6.130   1.730
 5967SOL    HW118800   4.262   6.059   1.693
 5967SOL    HW218801   4.199   6.122   1.830
 5968SOL     OW18802   5.512   1.345   3.436
 5968SOL    HW118803   5.463   1.316   3.519
 5968SOL    HW218804   5.474   1.297   3.357
 5969SOL     OW18805   6.706   1.682   5.355
 5969SOL    HW118806   6.773   1.608   5.348
 5969SOL    HW218807   6.616   1.643   5.376
 5970SOL     OW18808   0.440   4.870   2.286
 5970SOL    HW118809   0.438   4.895   2.189
 5970SOL    HW218810   0.419   4.773   2.295
 5971SOL     OW18811   2.118   0.623   3.157
 5971SOL    HW118812   2.186   0.696   3.161
 5971SOL    HW218813   2.118   0.573   3.243
 5972SOL     OW18814   4.423   6.426   0.220
 5972SOL    HW118815   4.507   6.410   0.168
 5972SOL    HW218816   4.441   6.489   0.295
 5973SOL     OW18817   1.629   5.101   2.943
 5973SOL    HW118818   1.702   5.032   2.933
 5973SOL    HW218819   1.547   5.057   2.980
 5974SOL     OW18820   5.758   4.296   6.212
 5974SOL    HW118821   5.753   4.319   6.309
 5974SOL    HW218822   5.744   4.378   6.157
 5975SOL     OW18823   3.533   2.263   0.710
 5975SOL    HW118824   3.616   2.225   0.667
 5975SOL    HW218825   3.464   2.278   0.640
 5976SOL     OW18826   2.851   3.678   5.251
 5976SOL    HW118827   2.798   3.634   5.323
 5976SOL    HW218828   2.848   3.777   5.262
 5977SOL     OW18829   1.841   4.831   1.334
 5977SOL    HW118830   1.854   4.756   1.270
 5977SOL    HW218831   1.744   4.857   1.336
 5978SOL     OW18832   5.354   4.768   3.020
 5978SOL    HW118833   5.334   4.866   3.027
 5978SOL    HW218834   5.426   4.755   2.951
 5979SOL     OW18835   6.365   0.705   2.560
 5979SOL    HW118836   6.299   0.748   2.499
 5979SOL    HW218837   6.328   0.700   2.652
 5980SOL     OW18838   3.909   3.644   6.338
 5980SOL    HW118839   3.972   3.566   6.332
 5980SOL    HW218840   3.875   3.666   6.246
 5981SOL     OW18841   6.375   1.360   2.347
 5981SOL    HW118842   6.397   1.287   2.412
 5981SOL    HW218843   6.342   1.320   2.262
 5982SOL     OW18844   6.357   2.316   7.008
 5982SOL    HW118845   6.423   2.258   6.959
 5982SOL    HW218846   6.379   2.315   0.082
 5983SOL     OW18847   2.458   1.228   4.419
 5983SOL    HW118848   2.493   1.314   4.457
 5983SOL    HW218849   2.510   1.204   4.337
 5984SOL     OW18850   6.792   0.023   5.172
 5984SOL    HW118851   6.777   6.955   5.133
 5984SOL    HW218852   6.813   0.087   5.098
 5985SOL     OW18853   5.681   3.183   4.423
 5985SOL    HW118854   5.644   3.140   4.341
 5985SOL    HW218855   5.641   3.274   4.435
 5986SOL     OW18856   3.006   3.507   4.159
 5986SOL    HW118857   2.964   3.593   4.129
 5986SOL    HW218858   3.105   3.520   4.167
 5987SOL     OW18859   4.295   1.711   4.668
 5987SOL    HW118860   4.213   1.760   4.695
 5987SOL    HW218861   4.332   1.662   4.748
 5988SOL     OW18862   4.504   5.964   4.908
 5988SOL    HW118863   4.526   6.062   4.915
 5988SOL    HW218864   4.486   5.940   4.813
 5989SOL     OW18865   2.905   6.136   6.458
 5989SOL    HW118866   2.872   6.112   6.366
 5989SOL    HW218867   2.830   6.126   6.523
 5990SOL     OW18868   4.358   4.253   0.891
 5990SOL    HW118869   4.356   4.236   0.792
 5990SOL    HW218870   4.272   4.294   0.919
 5991SOL     OW18871   4.386   4.850   5.125
 5991SOL    HW118872   4.425   4.919   5.063
 5991SOL    HW218873   4.298   4.883   5.159
 5992SOL     OW18874   3.616   0.630   4.065
 5992SOL    HW118875   3.659   0.702   4.012
 5992SOL    HW218876   3.660   0.623   4.155
 5993SOL     OW18877   3.592   6.822   6.025
 5993SOL    HW118878   3.618   6.728   6.009
 5993SOL    HW218879   3.516   6.847   5.965
 5994SOL     OW18880   6.249   2.240   2.407
 5994SOL    HW118881   6.223   2.312   2.342
 5994SOL    HW218882   6.302   2.281   2.482
 5995SOL     OW18883   6.404   4.656   2.306
 5995SOL    HW118884   6.395   4.637   2.208
 5995SOL    HW218885   6.322   4.704   2.338
 5996SOL     OW18886   0.829   5.453   0.232
 5996SOL    HW118887   0.899   5.425   0.298
 5996SOL    HW218888   0.752   5.495   0.281
 5997SOL     OW18889   0.754   6.538   2.716
 5997SOL    HW118890   0.717   6.510   2.805
 5997SOL    HW218891   0.766   6.637   2.714
 5998SOL     OW18892   5.352   3.272   1.738
 5998SOL    HW118893   5.427   3.308   1.683
 5998SOL    HW218894   5.329   3.180   1.707
 5999SOL     OW18895   1.056   2.067   2.385
 5999SOL    HW118896   1.071   1.968   2.380
 5999SOL    HW218897   1.078   2.109   2.297
 6000SOL     OW18898   3.995   6.285   1.631
 6000SOL    HW118899   3.966   6.237   1.548
 6000SOL    HW218900   4.075   6.240   1.670
 6001SOL     OW18901   0.506   4.022   5.810
 6001SOL    HW118902   0.604   4.037   5.820
 6001SOL    HW218903   0.481   4.030   5.713
 6002SOL     OW18904   0.608   6.597   1.560
 6002SOL    HW118905   0.627   6.684   1.515
 6002SOL    HW218906   0.545   6.543   1.504
 6003SOL     OW18907   6.282   2.254   4.756
 6003SOL    HW118908   6.357   2.289   4.812
 6003SOL    HW218909   6.284   2.297   4.666
 6004SOL     OW18910   0.325   4.717   2.919
 6004SOL    HW118911   0.420   4.704   2.947
 6004SOL    HW218912   0.317   4.803   2.868
 6005SOL     OW18913   4.150   5.260   4.679
 6005SOL    HW118914   4.094   5.342   4.667
 6005SOL    HW218915   4.197   5.239   4.593
 6006SOL     OW18916   4.087   6.675   6.982
 6006SOL    HW118917   4.085   6.676   0.058
 6006SOL    HW218918   4.121   6.586   6.950
 6007SOL     OW18919   4.867   3.217   3.954
 6007SOL    HW118920   4.835   3.150   4.020
 6007SOL    HW218921   4.909   3.294   4.002
 6008SOL     OW18922   2.550   5.361   6.553
 6008SOL    HW118923   2.578   5.452   6.585
 6008SOL    HW218924   2.572   5.353   6.456
 6009SOL     OW18925   3.062   1.254   4.683
 6009SOL    HW118926   3.050   1.320   4.757
 6009SOL    HW218927   3.155   1.260   4.647
 6010SOL     OW18928   1.936   4.058   2.031
 6010SOL    HW118929   1.939   4.050   1.931
 6010SOL    HW218930   2.026   4.036   2.069
 6011SOL     OW18931   4.904   2.499   2.323
 6011SOL    HW118932   4.901   2.400   2.336
 6011SOL    HW218933   4.936   2.543   2.407
 6012SOL     OW18934   6.392   1.757   0.555
 6012SOL    HW118935   6.309   1.719   0.596
 6012SOL    HW218936   6.468   1.750   0.620
 6013SOL     OW18937   5.155   1.917   3.086
 6013SOL    HW118938   5.219   1.899   3.011
 6013SOL    HW218939   5.061   1.903   3.054
 6014SOL     OW18940   4.545   1.787   0.921
 6014SOL    HW118941   4.542   1.846   0.841
 6014SOL    HW218942   4.634   1.743   0.928
 6015SOL     OW18943   5.623   2.111   5.863
 6015SOL    HW118944   5.608   2.013   5.874
 6015SOL    HW218945   5.635   2.132   5.766
 6016SOL     OW18946   0.330   1.520   6.946
 6016SOL    HW118947   0.251   1.555   6.896
 6016SOL    HW218948   0.413   1.566   6.913
 6017SOL     OW18949   6.508   5.200   2.414
 6017SOL    HW118950   6.476   5.286   2.374
 6017SOL    HW218951   6.479   5.123   2.356
 6018SOL     OW18952   3.462   2.443   0.039
 6018SOL    HW118953   3.524   2.370   0.011
 6018SOL    HW218954   3.397   2.462   6.989
 6019SOL     OW18955   4.952   1.509   4.132
 6019SOL    HW118956   4.974   1.606   4.123
 6019SOL    HW218957   4.962   1.481   4.228
 6020SOL     OW18958   1.707   6.027   2.592
 6020SOL    HW118959   1.756   6.074   2.665
 6020SOL    HW218960   1.642   5.961   2.632
 6021SOL     OW18961   3.955   6.812   2.610
 6021SOL    HW118962   3.945   6.911   2.617
 6021SOL    HW218963   3.899   6.768   2.679
 6022SOL     OW18964   4.179   0.657   4.486
 6022SOL    HW118965   4.133   0.577   4.445
 6022SOL    HW218966   4.165   0.655   4.585
 6023SOL     OW18967   6.081   1.576   3.406
 6023SOL    HW118968   6.002   1.558   3.464
 6023SOL    HW218969   6.058   1.557   3.311
 6024SOL     OW18970   0.723   4.310   2.769
 6024SOL    HW118971   0.642   4.280   2.820
 6024SOL    HW218972   0.805   4.289   2.822
 6025SOL     OW18973   3.968   0.079   2.415
 6025SOL    HW118974   4.007   0.068   2.506
 6025SOL    HW218975   3.986   0.171   2.381
 6026SOL     OW18976   0.096   4.287   4.179
 6026SOL    HW118977   0.173   4.334   4.135
 6026SOL    HW218978   0.124   4.195   4.206
 6027SOL     OW18979   2.107   4.121   5.536
 6027SOL    HW118980   2.149   4.056   5.472
 6027SOL    HW218981   2.076   4.073   5.618
 6028SOL     OW18982   1.058   3.607   0.411
 6028SOL    HW118983   1.113   3.543   0.357
 6028SOL    HW218984   0.975   3.562   0.442
 6029SOL     OW18985   2.104   6.538   6.374
 6029SOL    HW118986   2.175   6.482   6.331
 6029SOL    HW218987   2.127   6.635   6.364
 6030SOL     OW18988   2.227   0.307   2.972
 6030SOL    HW118989   2.131   0.336   2.967
 6030SOL    HW218990   2.264   0.301   2.879
 6031SOL     OW18991   3.882   5.237   4.255
 6031SOL    HW118992   3.949   5.193   4.196
 6031SOL    HW218993   3.804   5.174   4.269
 6032SOL     OW18994   1.814   3.479   2.859
 6032SOL    HW118995   1.886   3.449   2.796
 6032SOL    HW218996   1.807   3.579   2.858
 6033SOL     OW18997   2.381   2.695   2.733
 6033SOL    HW118998   2.317   2.764   2.766
 6033SOL    HW218999   2.331   2.622   2.687
 6034SOL     OW19000   1.749   5.893   4.954
 6034SOL    HW119001   1.836   5.864   4.994
 6034SOL    HW219002   1.674   5.858   5.010
 6035SOL     OW19003   6.062   1.829   3.619
 6035SOL    HW119004   5.991   1.881   3.665
 6035SOL    HW219005   6.041   1.823   3.521
 6036SOL     OW19006   0.253   6.790   4.340
 6036SOL    HW119007   0.210   6.880   4.336
 6036SOL    HW219008   0.352   6.801   4.345
 6037SOL     OW19009   4.551   5.539   6.163
 6037SOL    HW119010   4.619   5.602   6.200
 6037SOL    HW219011   4.466   5.546   6.215
 6038SOL     OW19012   0.922   3.391   6.208
 6038SOL    HW119013   0.948   3.303   6.167
 6038SOL    HW219014   0.861   3.440   6.146
 6039SOL     OW19015   3.307   3.160   3.382
 6039SOL    HW119016   3.209   3.157   3.364
 6039SOL    HW219017   3.336   3.075   3.425
 6040SOL     OW19018   0.304   2.194   6.405
 6040SOL    HW119019   0.305   2.242   6.493
 6040SOL    HW219020   0.227   2.228   6.351
 6041SOL     OW19021   1.748   1.501   5.799
 6041SOL    HW119022   1.815   1.504   5.873
 6041SOL    HW219023   1.729   1.594   5.767
 6042SOL     OW19024   5.529   5.401   2.010
 6042SOL    HW119025   5.484   5.371   2.094
 6042SOL    HW219026   5.614   5.349   1.999
 6043SOL     OW19027   1.047   5.140   4.877
 6043SOL    HW119028   0.968   5.086   4.850
 6043SOL    HW219029   1.065   5.209   4.807
 6044SOL     OW19030   1.426   2.241   1.053
 6044SOL    HW119031   1.372   2.168   1.013
 6044SOL    HW219032   1.498   2.202   1.110
 6045SOL     OW19033   5.904   5.639   1.028
 6045SOL    HW119034   5.890   5.725   1.077
 6045SOL    HW219035   5.816   5.602   0.999
 6046SOL     OW19036   2.572   2.322   0.659
 6046SOL    HW119037   2.653   2.327   0.718
 6046SOL    HW219038   2.539   2.415   0.640
 6047SOL     OW19039   6.574   1.733   2.960
 6047SOL    HW119040   6.495   1.786   2.992
 6047SOL    HW219041   6.645   1.733   3.031
 6048SOL     OW19042   4.917   6.390   3.236
 6048SOL    HW119043   4.932   6.291   3.230
 6048SOL    HW219044   4.851   6.419   3.167
 6049SOL     OW19045   5.300   3.795   6.048
 6049SOL    HW119046   5.354   3.713   6.029
 6049SOL    HW219047   5.219   3.771   6.102
 6050SOL     OW19048   4.027   3.736   5.672
 6050SOL    HW119049   3.927   3.738   5.668
 6050SOL    HW219050   4.063   3.824   5.640
 6051SOL     OW19051   2.974   2.191   3.717
 6051SOL    HW119052   2.982   2.150   3.626
 6051SOL    HW219053   3.044   2.152   3.777
 6052SOL     OW19054   6.668   6.893   6.877
 6052SOL    HW119055   6.713   6.856   6.959
 6052SOL    HW219056   6.619   6.820   6.830
 6053SOL     OW19057   3.811   0.773   6.909
 6053SOL    HW119058   3.874   0.695   6.913
 6053SOL    HW219059   3.850   0.844   6.850
 6054SOL     OW19060   2.232   4.093   0.604
 6054SOL    HW119061   2.177   4.010   0.614
 6054SOL    HW219062   2.286   4.087   0.520
 6055SOL     OW19063   6.001   1.068   6.436
 6055SOL    HW119064   6.025   1.143   6.375
 6055SOL    HW219065   6.038   0.982   6.400
 6056SOL     OW19066   5.499   2.779   4.795
 6056SOL    HW119067   5.585   2.824   4.771
 6056SOL    HW219068   5.481   2.792   4.893
 6057SOL     OW19069   5.181   2.694   4.460
 6057SOL    HW119070   5.102   2.688   4.399
 6057SOL    HW219071   5.220   2.786   4.454
 6058SOL     OW19072   5.180   2.402   2.856
 6058SOL    HW119073   5.149   2.401   2.951
 6058SOL    HW219074   5.268   2.355   2.849
 6059SOL     OW19075   4.405   5.263   5.773
 6059SOL    HW119076   4.476   5.202   5.736
 6059SOL    HW219077   4.449   5.339   5.821
 6060SOL     OW19078   3.420   3.896   5.775
 6060SOL    HW119079   3.412   3.855   5.684
 6060SOL    HW219080   3.329   3.907   5.815
 6061SOL     OW19081   3.877   2.653   0.389
 6061SOL    HW119082   3.843   2.559   0.380
 6061SOL    HW219083   3.809   2.709   0.436
 6062SOL     OW19084   2.377   0.877   4.440
 6062SOL    HW119085   2.313   0.951   4.461
 6062SOL    HW219086   2.463   0.892   4.488
 6063SOL     OW19087   3.983   1.739   6.797
 6063SOL    HW119088   4.020   1.795   6.724
 6063SOL    HW219089   4.028   1.650   6.797
 6064SOL     OW19090   2.554   5.744   2.538
 6064SOL    HW119091   2.505   5.780   2.458
 6064SOL    HW219092   2.624   5.679   2.508
 6065SOL     OW19093   5.385   6.675   1.973
 6065SOL    HW119094   5.371   6.648   2.069
 6065SOL    HW219095   5.298   6.701   1.933
 6066SOL     OW19096   3.931   1.361   0.656
 6066SOL    HW119097   3.981   1.358   0.743
 6066SOL    HW219098   3.926   1.456   0.624
 6067SOL     OW19099   5.624   2.124   6.789
 6067SOL    HW119100   5.628   2.024   6.795
 6067SOL    HW219101   5.671   2.164   6.868
 6068SOL     OW19102   6.619   3.280   4.437
 6068SOL    HW119103   6.675   3.344   4.490
 6068SOL    HW219104   6.522   3.294   4.460
 6069SOL     OW19105   0.624   3.721   5.600
 6069SOL    HW119106   0.621   3.764   5.690
 6069SOL    HW219107   0.568   3.773   5.535
 6070SOL     OW19108   2.722   1.740   5.672
 6070SOL    HW119109   2.819   1.764   5.667
 6070SOL    HW219110   2.705   1.684   5.754
 6071SOL     OW19111   4.834   6.047   5.208
 6071SOL    HW119112   4.777   5.974   5.245
 6071SOL    HW219113   4.799   6.136   5.238
 6072SOL     OW19114   0.915   0.807   1.914
 6072SOL    HW119115   0.860   0.831   1.993
 6072SOL    HW219116   0.919   0.707   1.906
 6073SOL     OW19117   6.853   3.437   0.481
 6073SOL    HW119118   6.796   3.455   0.401
 6073SOL    HW219119   6.944   3.476   0.466
 6074SOL     OW19120   1.068   6.928   4.637
 6074SOL    HW119121   1.135   6.957   4.568
 6074SOL    HW219122   0.994   6.877   4.592
 6075SOL     OW19123   6.824   2.355   6.121
 6075SOL    HW119124   6.782   2.385   6.035
 6075SOL    HW219125   6.825   2.255   6.124
 6076SOL     OW19126   2.327   6.448   5.088
 6076SOL    HW119127   2.336   6.534   5.139
 6076SOL    HW219128   2.296   6.377   5.150
 6077SOL     OW19129   4.838   5.417   2.097
 6077SOL    HW119130   4.909   5.424   2.026
 6077SOL    HW219131   4.874   5.453   2.183
 6078SOL     OW19132   3.944   4.877   2.299
 6078SOL    HW119133   3.953   4.945   2.372
 6078SOL    HW219134   4.001   4.798   2.320
 6079SOL     OW19135   3.103   3.270   6.816
 6079SOL    HW119136   3.060   3.220   6.890
 6079SOL    HW219137   3.064   3.362   6.811
 6080SOL     OW19138   0.605   1.136   2.005
 6080SOL    HW119139   0.506   1.142   2.003
 6080SOL    HW219140   0.639   1.164   2.095
 6081SOL     OW19141   6.313   3.794   4.938
 6081SOL    HW119142   6.318   3.790   4.838
 6081SOL    HW219143   6.232   3.846   4.965
 6082SOL     OW19144   3.735   1.329   3.690
 6082SOL    HW119145   3.779   1.416   3.667
 6082SOL    HW219146   3.658   1.313   3.628
 6083SOL     OW19147   1.132   5.840   6.060
 6083SOL    HW119148   1.063   5.912   6.070
 6083SOL    HW219149   1.223   5.879   6.074
 6084SOL     OW19150   0.065   5.568   4.069
 6084SOL    HW119151   0.142   5.512   4.101
 6084SOL    HW219152   0.016   5.605   4.148
 6085SOL     OW19153   0.111   4.389   0.084
 6085SOL    HW119154   0.172   4.310   0.081
 6085SOL    HW219155   0.021   4.360   0.116
 6086SOL     OW19156   3.378   1.319   5.242
 6086SOL    HW119157   3.365   1.410   5.280
 6086SOL    HW219158   3.343   1.316   5.148
 6087SOL     OW19159   5.419   6.847   0.314
 6087SOL    HW119160   5.411   6.944   0.291
 6087SOL    HW219161   5.501   6.810   0.272
 6088SOL     OW19162   6.991   6.409   4.469
 6088SOL    HW119163   0.008   6.429   4.380
 6088SOL    HW219164   0.006   6.471   4.538
 6089SOL     OW19165   0.184   3.840   1.323
 6089SOL    HW119166   0.234   3.924   1.301
 6089SOL    HW219167   0.094   3.864   1.360
 6090SOL     OW19168   1.416   6.470   6.229
 6090SOL    HW119169   1.409   6.456   6.130
 6090SOL    HW219170   1.510   6.498   6.252
 6091SOL     OW19171   0.780   1.470   2.518
 6091SOL    HW119172   0.786   1.563   2.554
 6091SOL    HW219173   0.862   1.451   2.463
 6092SOL     OW19174   2.491   0.619   3.122
 6092SOL    HW119175   2.577   0.639   3.074
 6092SOL    HW219176   2.464   0.524   3.103
 6093SOL     OW19177   1.522   2.705   2.705
 6093SOL    HW119178   1.615   2.686   2.735
 6093SOL    HW219179   1.466   2.732   2.784
 6094SOL     OW19180   2.978   1.396   0.993
 6094SOL    HW119181   3.019   1.352   0.913
 6094SOL    HW219182   3.000   1.494   0.992
 6095SOL     OW19183   4.721   2.629   0.176
 6095SOL    HW119184   4.729   2.704   0.242
 6095SOL    HW219185   4.648   2.650   0.110
 6096SOL     OW19186   5.620   0.675   4.362
 6096SOL    HW119187   5.667   0.600   4.315
 6096SOL    HW219188   5.591   0.645   4.453
 6097SOL     OW19189   1.738   0.145   2.305
 6097SOL    HW119190   1.646   0.183   2.310
 6097SOL    HW219191   1.804   0.213   2.336
 6098SOL     OW19192   1.212   2.376   5.661
 6098SOL    HW119193   1.119   2.347   5.686
 6098SOL    HW219194   1.268   2.296   5.641
 6099SOL     OW19195   5.807   6.104   5.977
 6099SOL    HW119196   5.773   6.169   6.044
 6099SOL    HW219197   5.901   6.127   5.953
 6100SOL     OW19198   5.759   2.941   6.389
 6100SOL    HW119199   5.726   2.899   6.474
 6100SOL    HW219200   5.836   2.889   6.354
 6101SOL     OW19201   6.207   1.972   5.677
 6101SOL    HW119202   6.181   1.876   5.672
 6101SOL    HW219203   6.237   2.004   5.587
 6102SOL     OW19204   3.922   0.645   4.232
 6102SOL    HW119205   3.958   0.696   4.154
 6102SOL    HW219206   3.864   0.706   4.287
 6103SOL     OW19207   6.992   1.170   3.721
 6103SOL    HW119208   7.014   1.264   3.694
 6103SOL    HW219209   6.989   1.163   3.821
 6104SOL     OW19210   6.608   1.821   6.251
 6104SOL    HW119211   6.640   1.880   6.177
 6104SOL    HW219212   6.533   1.764   6.219
 6105SOL     OW19213   2.979   6.731   5.621
 6105SOL    HW119214   2.953   6.751   5.527
 6105SOL    HW219215   3.021   6.812   5.662
 6106SOL     OW19216   1.899   4.859   5.805
 6106SOL    HW119217   1.918   4.957   5.801
 6106SOL    HW219218   1.891   4.823   5.712
 6107SOL     OW19219   2.870   5.639   4.383
 6107SOL    HW119220   2.882   5.709   4.313
 6107SOL    HW219221   2.801   5.669   4.449
 6108SOL     OW19222   0.824   1.945   3.481
 6108SOL    HW119223   0.847   1.975   3.573
 6108SOL    HW219224   0.811   2.025   3.422
 6109SOL     OW19225   5.140   2.936   6.919
 6109SOL    HW119226   5.082   2.996   6.975
 6109SOL    HW219227   5.236   2.964   6.929
 6110SOL     OW19228   3.384   3.034   7.003
 6110SOL    HW119229   3.455   3.105   6.995
 6110SOL    HW219230   3.358   3.004   6.911
 6111SOL     OW19231   1.848   5.062   2.634
 6111SOL    HW119232   1.758   5.103   2.647
 6111SOL    HW219233   1.857   5.029   2.540
 6112SOL     OW19234   2.699   1.578   3.536
 6112SOL    HW119235   2.740   1.505   3.590
 6112SOL    HW219236   2.661   1.540   3.452
 6113SOL     OW19237   0.091   0.845   6.313
 6113SOL    HW119238   0.039   0.809   6.236
 6113SOL    HW219239   0.181   0.803   6.316
 6114SOL     OW19240   5.092   4.763   1.156
 6114SOL    HW119241   5.122   4.743   1.249
 6114SOL    HW219242   5.113   4.858   1.134
 6115SOL     OW19243   5.150   5.889   2.851
 6115SOL    HW119244   5.079   5.908   2.919
 6115SOL    HW219245   5.232   5.941   2.873
 6116SOL     OW19246   2.627   1.231   1.548
 6116SOL    HW119247   2.632   1.292   1.468
 6116SOL    HW219248   2.690   1.263   1.618
 6117SOL     OW19249   0.030   0.034   5.234
 6117SOL    HW119250   0.012   0.043   5.332
 6117SOL    HW219251   6.967   0.031   5.184
 6118SOL     OW19252   0.049   2.128   1.716
 6118SOL    HW119253   0.112   2.150   1.791
 6118SOL    HW219254   7.000   2.068   1.750
 6119SOL     OW19255   0.053   4.214   3.830
 6119SOL    HW119256   0.093   4.179   3.915
 6119SOL    HW219257   0.078   4.310   3.819
 6120SOL     OW19258   3.273   6.815   3.426
 6120SOL    HW119259   3.194   6.817   3.487
 6120SOL    HW219260   3.243   6.800   3.332
 6121SOL     OW19261   6.623   2.472   4.426
 6121SOL    HW119262   6.552   2.530   4.385
 6121SOL    HW219263   6.687   2.443   4.355
 6122SOL     OW19264   3.310   6.340   1.881
 6122SOL    HW119265   3.341   6.323   1.787
 6122SOL    HW219266   3.342   6.267   1.941
 6123SOL     OW19267   6.626   0.332   1.161
 6123SOL    HW119268   6.628   0.238   1.127
 6123SOL    HW219269   6.583   0.334   1.251
 6124SOL     OW19270   3.079   0.110   5.319
 6124SOL    HW119271   3.103   0.045   5.391
 6124SOL    HW219272   3.069   0.061   5.232
 6125SOL     OW19273   2.671   5.908   0.903
 6125SOL    HW119274   2.679   5.976   0.976
 6125SOL    HW219275   2.683   5.953   0.815
 6126SOL     OW19276   5.517   6.219   3.771
 6126SOL    HW119277   5.532   6.120   3.775
 6126SOL    HW219278   5.496   6.253   3.862
 6127SOL     OW19279   2.064   6.867   1.782
 6127SOL    HW119280   2.068   6.856   1.683
 6127SOL    HW219281   2.144   6.919   1.813
 6128SOL     OW19282   6.634   3.033   0.162
 6128SOL    HW119283   6.616   3.097   0.087
 6128SOL    HW219284   6.717   2.980   0.141
 6129SOL     OW19285   6.353   4.342   3.457
 6129SOL    HW119286   6.317   4.435   3.466
 6129SOL    HW219287   6.317   4.301   3.374
 6130SOL     OW19288   6.342   2.492   4.601
 6130SOL    HW119289   6.332   2.560   4.674
 6130SOL    HW219290   6.347   2.539   4.513
 6131SOL     OW19291   6.928   1.519   5.482
 6131SOL    HW119292   6.868   1.459   5.428
 6131SOL    HW219293   6.990   1.462   5.538
 6132SOL     OW19294   3.942   0.383   1.203
 6132SOL    HW119295   3.971   0.317   1.134
 6132SOL    HW219296   3.992   0.366   1.288
 6133SOL     OW19297   0.427   2.438   2.563
 6133SOL    HW119298   0.492   2.380   2.514
 6133SOL    HW219299   0.353   2.382   2.601
 6134SOL     OW19300   4.257   3.645   6.629
 6134SOL    HW119301   4.353   3.642   6.654
 6134SOL    HW219302   4.227   3.554   6.601
 6135SOL     OW19303   6.257   6.648   2.595
 6135SOL    HW119304   6.324   6.597   2.540
 6135SOL    HW219305   6.304   6.695   2.670
 6136SOL     OW19306   0.509   1.853   2.516
 6136SOL    HW119307   0.566   1.931   2.491
 6136SOL    HW219308   0.445   1.881   2.588
 6137SOL     OW19309   4.003   0.498   5.805
 6137SOL    HW119310   4.092   0.543   5.816
 6137SOL    HW219311   3.951   0.507   5.890
 6138SOL     OW19312   3.660   6.665   2.569
 6138SOL    HW119313   3.721   6.680   2.647
 6138SOL    HW219314   3.578   6.617   2.599
 6139SOL     OW19315   2.260   3.030   4.364
 6139SOL    HW119316   2.196   3.107   4.361
 6139SOL    HW219317   2.288   3.006   4.271
 6140SOL     OW19318   0.913   6.140   1.326
 6140SOL    HW119319   0.968   6.142   1.242
 6140SOL    HW219320   0.839   6.206   1.318
 6141SOL     OW19321   5.798   5.842   5.145
 6141SOL    HW119322   5.815   5.903   5.068
 6141SOL    HW219323   5.885   5.805   5.178
 6142SOL     OW19324   0.048   5.092   0.655
 6142SOL    HW119325   0.097   5.100   0.568
 6142SOL    HW219326   0.113   5.065   0.727
 6143SOL     OW19327   5.881   5.226   6.725
 6143SOL    HW119328   5.951   5.192   6.662
 6143SOL    HW219329   5.915   5.308   6.772
 6144SOL     OW19330   6.642   4.777   2.333
 6144SOL    HW119331   6.718   4.740   2.387
 6144SOL    HW219332   6.564   4.715   2.338
 6145SOL     OW19333   4.823   6.050   3.756
 6145SOL    HW119334   4.858   6.036   3.849
 6145SOL    HW219335   4.763   6.130   3.756
 6146SOL     OW19336   4.036   0.868   3.449
 6146SOL    HW119337   3.951   0.869   3.395
 6146SOL    HW219338   4.033   0.940   3.518
 6147SOL     OW19339   1.809   4.071   3.443
 6147SOL    HW119340   1.845   4.141   3.505
 6147SOL    HW219341   1.799   3.985   3.493
 6148SOL     OW19342   6.866   0.495   4.980
 6148SOL    HW119343   6.828   0.548   5.056
 6148SOL    HW219344   6.838   0.400   4.989
 6149SOL     OW19345   3.682   4.931   3.221
 6149SOL    HW119346   3.767   4.879   3.211
 6149SOL    HW219347   3.690   4.993   3.299
 6150SOL     OW19348   4.398   5.204   6.448
 6150SOL    HW119349   4.316   5.160   6.484
 6150SOL    HW219350   4.409   5.294   6.491
 6151SOL     OW19351   6.669   4.082   4.426
 6151SOL    HW119352   6.657   4.151   4.355
 6151SOL    HW219353   6.695   4.126   4.511
 6152SOL     OW19354   4.888   4.663   5.233
 6152SOL    HW119355   4.952   4.604   5.283
 6152SOL    HW219356   4.932   4.750   5.213
 6153SOL     OW19357   4.707   3.881   1.667
 6153SOL    HW119358   4.703   3.807   1.599
 6153SOL    HW219359   4.616   3.893   1.708
 6154SOL     OW19360   4.883   1.306   2.167
 6154SOL    HW119361   4.925   1.216   2.155
 6154SOL    HW219362   4.853   1.341   2.078
 6155SOL     OW19363   1.758   2.806   3.668
 6155SOL    HW119364   1.778   2.722   3.617
 6155SOL    HW219365   1.764   2.786   3.766
 6156SOL     OW19366   4.712   5.063   2.407
 6156SOL    HW119367   4.801   5.083   2.366
 6156SOL    HW219368   4.710   4.968   2.440
 6157SOL     OW19369   1.066   1.894   4.042
 6157SOL    HW119370   1.117   1.965   3.993
 6157SOL    HW219371   1.093   1.804   4.009
 6158SOL     OW19372   4.646   0.781   6.538
 6158SOL    HW119373   4.620   0.861   6.485
 6158SOL    HW219374   4.707   0.809   6.612
 6159SOL     OW19375   4.662   1.679   0.370
 6159SOL    HW119376   4.683   1.640   0.280
 6159SOL    HW219377   4.688   1.613   0.441
 6160SOL     OW19378   5.791   5.698   0.526
 6160SOL    HW119379   5.872   5.743   0.562
 6160SOL    HW219380   5.715   5.709   0.590
 6161SOL     OW19381   5.945   2.024   6.215
 6161SOL    HW119382   5.901   2.083   6.284
 6161SOL    HW219383   6.015   1.969   6.259
 6162SOL     OW19384   1.009   5.233   4.504
 6162SOL    HW119385   0.917   5.197   4.491
 6162SOL    HW219386   1.040   5.277   4.420
 6163SOL     OW19387   5.501   5.477   1.245
 6163SOL    HW119388   5.589   5.509   1.280
 6163SOL    HW219389   5.427   5.526   1.292
 6164SOL     OW19390   1.717   3.232   1.587
 6164SOL    HW119391   1.790   3.164   1.583
 6164SOL    HW219392   1.630   3.190   1.561
 6165SOL     OW19393   3.296   6.390   0.072
 6165SOL    HW119394   3.216   6.437   0.034
 6165SOL    HW219395   3.325   6.318   0.009
 6166SOL     OW19396   3.830   0.979   5.132
 6166SOL    HW119397   3.807   0.890   5.094
 6166SOL    HW219398   3.762   1.006   5.200
 6167SOL     OW19399   6.997   4.999   2.041
 6167SOL    HW119400   6.922   4.963   2.095
 6167SOL    HW219401   6.977   5.093   2.013
 6168SOL     OW19402   0.193   3.752   0.630
 6168SOL    HW119403   0.211   3.770   0.726
 6168SOL    HW219404   0.275   3.714   0.587
 6169SOL     OW19405   1.095   3.569   2.135
 6169SOL    HW119406   1.000   3.592   2.113
 6169SOL    HW219407   1.107   3.470   2.131
 6170SOL     OW19408   0.159   2.869   5.250
 6170SOL    HW119409   0.211   2.940   5.296
 6170SOL    HW219410   0.199   2.851   5.160
 6171SOL     OW19411   0.539   1.673   0.633
 6171SOL    HW119412   0.479   1.670   0.713
 6171SOL    HW219413   0.485   1.695   0.552
 6172SOL     OW19414   1.126   2.770   2.449
 6172SOL    HW119415   1.037   2.727   2.462
 6172SOL    HW219416   1.115   2.852   2.392
 6173SOL     OW19417   6.527   5.327   2.781
 6173SOL    HW119418   6.584   5.363   2.854
 6173SOL    HW219419   6.443   5.288   2.820
 6174SOL     OW19420   4.538   5.018   3.320
 6174SOL    HW119421   4.519   5.018   3.221
 6174SOL    HW219422   4.473   5.078   3.366
 6175SOL     OW19423   3.581   0.715   4.466
 6175SOL    HW119424   3.654   0.666   4.514
 6175SOL    HW219425   3.593   0.814   4.481
 6176SOL     OW19426   4.474   3.461   5.353
 6176SOL    HW119427   4.546   3.484   5.288
 6176SOL    HW219428   4.431   3.375   5.326
 6177SOL     OW19429   4.617   1.982   2.039
 6177SOL    HW119430   4.710   2.020   2.040
 6177SOL    HW219431   4.559   2.037   1.979
 6178SOL     OW19432   4.814   4.022   1.902
 6178SOL    HW119433   4.778   3.978   1.820
 6178SOL    HW219434   4.775   3.978   1.983
 6179SOL     OW19435   6.600   4.275   1.629
 6179SOL    HW119436   6.588   4.341   1.555
 6179SOL    HW219437   6.587   4.321   1.717
 6180SOL     OW19438   3.349   4.473   0.556
 6180SOL    HW119439   3.331   4.560   0.602
 6180SOL    HW219440   3.278   4.456   0.488
 6181SOL     OW19441   4.700   6.116   6.190
 6181SOL    HW119442   4.647   6.034   6.167
 6181SOL    HW219443   4.742   6.104   6.280
 6182SOL     OW19444   4.640   2.387   6.667
 6182SOL    HW119445   4.729   2.388   6.711
 6182SOL    HW219446   4.602   2.294   6.673
 6183SOL     OW19447   1.838   2.121   1.351
 6183SOL    HW119448   1.933   2.092   1.367
 6183SOL    HW219449   1.796   2.145   1.439
 6184SOL     OW19450   2.909   0.181   6.117
 6184SOL    HW119451   2.943   0.094   6.153
 6184SOL    HW219452   2.975   0.219   6.053
 6185SOL     OW19453   2.569   4.306   5.760
 6185SOL    HW119454   2.636   4.232   5.763
 6185SOL    HW219455   2.480   4.271   5.731
 6186SOL     OW19456   0.084   1.436   1.804
 6186SOL    HW119457   7.018   1.482   1.802
 6186SOL    HW219458   0.124   1.446   1.895
 6187SOL     OW19459   4.643   2.857   5.120
 6187SOL    HW119460   4.610   2.820   5.033
 6187SOL    HW219461   4.742   2.849   5.124
 6188SOL     OW19462   1.521   1.717   5.613
 6188SOL    HW119463   1.446   1.669   5.661
 6188SOL    HW219464   1.559   1.787   5.673
 6189SOL     OW19465   4.051   5.605   2.906
 6189SOL    HW119466   4.042   5.557   2.819
 6189SOL    HW219467   3.961   5.636   2.937
 6190SOL     OW19468   6.330   3.379   5.687
 6190SOL    HW119469   6.398   3.338   5.627
 6190SOL    HW219470   6.333   3.335   5.777
 6191SOL     OW19471   2.376   3.023   5.639
 6191SOL    HW119472   2.358   3.121   5.642
 6191SOL    HW219473   2.307   2.975   5.693
 6192SOL     OW19474   2.450   2.206   6.076
 6192SOL    HW119475   2.489   2.164   5.994
 6192SOL    HW219476   2.524   2.227   6.141
 6193SOL     OW19477   4.934   5.610   0.620
 6193SOL    HW119478   5.008   5.658   0.667
 6193SOL    HW219479   4.947   5.511   0.628
 6194SOL     OW19480   6.641   0.702   6.294
 6194SOL    HW119481   6.542   0.694   6.300
 6194SOL    HW219482   6.670   0.786   6.341
 6195SOL     OW19483   5.650   6.667   4.998
 6195SOL    HW119484   5.566   6.612   5.008
 6195SOL    HW219485   5.718   6.613   4.947
 6196SOL     OW19486   5.153   4.506   2.899
 6196SOL    HW119487   5.142   4.532   2.995
 6196SOL    HW219488   5.108   4.574   2.841
 6197SOL     OW19489   2.484   5.158   2.789
 6197SOL    HW119490   2.495   5.062   2.764
 6197SOL    HW219491   2.527   5.216   2.720
 6198SOL     OW19492   5.513   6.272   6.975
 6198SOL    HW119493   5.490   6.266   6.878
 6198SOL    HW219494   5.555   6.186   7.005
 6199SOL     OW19495   0.585   0.757   0.589
 6199SOL    HW119496   0.678   0.795   0.595
 6199SOL    HW219497   0.582   0.688   0.516
 6200SOL     OW19498   0.947   0.952   2.489
 6200SOL    HW119499   0.854   0.978   2.514
 6200SOL    HW219500   0.945   0.896   2.406
 6201SOL     OW19501   0.651   4.307   4.246
 6201SOL    HW119502   0.701   4.389   4.275
 6201SOL    HW219503   0.708   4.254   4.184
 6202SOL     OW19504   5.721   1.630   3.126
 6202SOL    HW119505   5.816   1.604   3.140
 6202SOL    HW219506   5.714   1.688   3.044
 6203SOL     OW19507   5.940   5.494   1.966
 6203SOL    HW119508   5.932   5.594   1.966
 6203SOL    HW219509   5.980   5.463   1.880
 6204SOL     OW19510   1.376   5.925   4.906
 6204SOL    HW119511   1.368   5.970   4.817
 6204SOL    HW219512   1.430   5.983   4.967
 6205SOL     OW19513   4.740   4.827   1.973
 6205SOL    HW119514   4.689   4.741   1.966
 6205SOL    HW219515   4.809   4.819   2.045
 6206SOL     OW19516   4.690   2.287   3.660
 6206SOL    HW119517   4.686   2.272   3.759
 6206SOL    HW219518   4.597   2.280   3.622
 6207SOL     OW19519   1.880   6.147   4.478
 6207SOL    HW119520   1.900   6.128   4.575
 6207SOL    HW219521   1.792   6.193   4.470
 6208SOL     OW19522   3.241   2.294   5.831
 6208SOL    HW119523   3.287   2.367   5.880
 6208SOL    HW219524   3.265   2.298   5.734
 6209SOL     OW19525   3.358   4.444   1.097
 6209SOL    HW119526   3.282   4.439   1.033
 6209SOL    HW219527   3.365   4.357   1.147
 6210SOL     OW19528   5.284   3.708   2.860
 6210SOL    HW119529   5.267   3.770   2.936
 6210SOL    HW219530   5.306   3.760   2.778
 6211SOL     OW19531   4.186   5.602   6.038
 6211SOL    HW119532   4.186   5.506   6.066
 6211SOL    HW219533   4.122   5.614   5.961
 6212SOL     OW19534   2.509   4.641   4.475
 6212SOL    HW119535   2.587   4.651   4.412
 6212SOL    HW219536   2.542   4.646   4.569
 6213SOL     OW19537   5.004   6.488   0.622
 6213SOL    HW119538   5.027   6.573   0.575
 6213SOL    HW219539   5.042   6.489   0.715
 6214SOL     OW19540   5.329   5.489   6.113
 6214SOL    HW119541   5.275   5.501   6.029
 6214SOL    HW219542   5.409   5.548   6.110
 6215SOL     OW19543   5.131   3.037   6.563
 6215SOL    HW119544   5.048   2.996   6.525
 6215SOL    HW219545   5.211   2.991   6.525
 6216SOL     OW19546   6.276   2.880   3.138
 6216SOL    HW119547   6.315   2.819   3.206
 6216SOL    HW219548   6.310   2.856   3.047
 6217SOL     OW19549   0.415   4.671   2.031
 6217SOL    HW119550   0.349   4.744   2.014
 6217SOL    HW219551   0.412   4.604   1.957
 6218SOL     OW19552   4.758   6.696   0.174
 6218SOL    HW119553   4.747   6.780   0.227
 6218SOL    HW219554   4.683   6.688   0.108
 6219SOL     OW19555   1.824   0.660   5.051
 6219SOL    HW119556   1.730   0.678   5.024
 6219SOL    HW219557   1.862   0.588   4.993
 6220SOL     OW19558   3.460   0.895   0.313
 6220SOL    HW119559   3.521   0.854   0.245
 6220SOL    HW219560   3.412   0.822   0.362
 6221SOL     OW19561   6.198   6.251   0.036
 6221SOL    HW119562   6.156   6.324   0.089
 6221SOL    HW219563   6.279   6.217   0.084
 6222SOL     OW19564   5.589   1.012   2.286
 6222SOL    HW119565   5.667   0.990   2.227
 6222SOL    HW219566   5.506   0.971   2.247
 6223SOL     OW19567   0.809   5.148   4.033
 6223SOL    HW119568   0.800   5.059   3.988
 6223SOL    HW219569   0.859   5.210   3.973
 6224SOL     OW19570   4.323   0.624   6.157
 6224SOL    HW119571   4.287   0.531   6.153
 6224SOL    HW219572   4.351   0.646   6.250
 6225SOL     OW19573   3.848   1.312   6.262
 6225SOL    HW119574   3.833   1.406   6.231
 6225SOL    HW219575   3.901   1.312   6.347
 6226SOL     OW19576   1.454   1.621   3.939
 6226SOL    HW119577   1.361   1.647   3.913
 6226SOL    HW219578   1.453   1.533   3.986
 6227SOL     OW19579   3.093   4.591   5.314
 6227SOL    HW119580   3.013   4.597   5.254
 6227SOL    HW219581   3.169   4.642   5.273
 6228SOL     OW19582   1.077   2.423   3.706
 6228SOL    HW119583   1.014   2.348   3.687
 6228SOL    HW219584   1.144   2.429   3.631
 6229SOL     OW19585   6.973   3.174   5.101
 6229SOL    HW119586   0.009   3.206   5.028
 6229SOL    HW219587   6.918   3.250   5.136
 6230SOL     OW19588   0.643   1.453   3.285
 6230SOL    HW119589   0.656   1.549   3.311
 6230SOL    HW219590   0.732   1.409   3.278
 6231SOL     OW19591   5.546   4.764   0.259
 6231SOL    HW119592   5.479   4.729   0.325
 6231SOL    HW219593   5.634   4.720   0.273
 6232SOL     OW19594   6.360   0.792   0.745
 6232SOL    HW119595   6.386   0.856   0.673
 6232SOL    HW219596   6.383   0.832   0.834
 6233SOL     OW19597   0.295   3.257   2.008
 6233SOL    HW119598   0.294   3.233   1.911
 6233SOL    HW219599   0.389   3.266   2.040
 6234SOL     OW19600   0.233   0.559   4.924
 6234SOL    HW119601   0.184   0.579   5.009
 6234SOL    HW219602   0.191   0.480   4.879
 6235SOL     OW19603   6.877   0.949   2.215
 6235SOL    HW119604   6.899   0.892   2.294
 6235SOL    HW219605   6.816   0.899   2.154
 6236SOL     OW19606   0.365   4.126   0.513
 6236SOL    HW119607   0.321   4.127   0.602
 6236SOL    HW219608   0.425   4.206   0.504
 6237SOL     OW19609   3.446   6.766   0.379
 6237SOL    HW119610   3.394   6.694   0.424
 6237SOL    HW219611   3.466   6.839   0.444
 6238SOL     OW19612   3.540   6.713   3.584
 6238SOL    HW119613   3.471   6.783   3.564
 6238SOL    HW219614   3.535   6.688   3.681
 6239SOL     OW19615   3.487   6.798   1.911
 6239SOL    HW119616   3.454   6.887   1.880
 6239SOL    HW219617   3.587   6.797   1.909
 6240SOL     OW19618   2.993   3.900   5.073
 6240SOL    HW119619   2.908   3.934   5.115
 6240SOL    HW219620   3.039   3.974   5.025
 6241SOL     OW19621   3.807   6.986   3.981
 6241SOL    HW119622   3.763   0.024   3.915
 6241SOL    HW219623   3.888   6.945   3.940
 6242SOL     OW19624   2.230   1.937   2.983
 6242SOL    HW119625   2.158   1.992   2.940
 6242SOL    HW219626   2.252   1.976   3.073
 6243SOL     OW19627   6.667   0.571   5.969
 6243SOL    HW119628   6.698   0.529   6.054
 6243SOL    HW219629   6.644   0.667   5.986
 6244SOL     OW19630   4.930   4.037   2.486
 6244SOL    HW119631   4.937   4.055   2.584
 6244SOL    HW219632   4.986   3.957   2.463
 6245SOL     OW19633   0.975   4.918   2.170
 6245SOL    HW119634   1.042   4.958   2.232
 6245SOL    HW219635   0.884   4.954   2.192
 6246SOL     OW19636   1.470   6.896   4.427
 6246SOL    HW119637   1.506   6.899   4.334
 6246SOL    HW219638   1.380   6.939   4.430
 6247SOL     OW19639   0.563   5.218   3.636
 6247SOL    HW119640   0.638   5.191   3.576
 6247SOL    HW219641   0.593   5.293   3.695
 6248SOL     OW19642   3.931   3.375   6.805
 6248SOL    HW119643   3.926   3.298   6.868
 6248SOL    HW219644   3.869   3.447   6.834
 6249SOL     OW19645   0.144   2.687   1.453
 6249SOL    HW119646   0.076   2.758   1.471
 6249SOL    HW219647   0.100   2.609   1.410
 6250SOL     OW19648   0.259   6.777   0.507
 6250SOL    HW119649   0.201   6.857   0.513
 6250SOL    HW219650   0.262   6.745   0.412
 6251SOL     OW19651   3.409   6.412   4.728
 6251SOL    HW119652   3.471   6.355   4.673
 6251SOL    HW219653   3.338   6.450   4.669
 6252SOL     OW19654   2.757   4.827   0.013
 6252SOL    HW119655   2.678   4.833   6.975
 6252SOL    HW219656   2.841   4.831   6.982
 6253SOL     OW19657   2.743   5.038   4.853
 6253SOL    HW119658   2.693   5.043   4.767
 6253SOL    HW219659   2.805   4.960   4.852
 6254SOL     OW19660   0.770   6.035   0.797
 6254SOL    HW119661   0.749   5.939   0.813
 6254SOL    HW219662   0.705   6.073   0.731
 6255SOL     OW19663   1.959   2.527   1.000
 6255SOL    HW119664   1.988   2.502   1.093
 6255SOL    HW219665   1.920   2.619   1.002
 6256SOL     OW19666   4.738   5.880   2.638
 6256SOL    HW119667   4.683   5.804   2.674
 6256SOL    HW219668   4.734   5.880   2.538
 6257SOL     OW19669   4.325   3.503   0.815
 6257SOL    HW119670   4.233   3.542   0.821
 6257SOL    HW219671   4.354   3.499   0.720
 6258SOL     OW19672   3.767   0.159   5.884
 6258SOL    HW119673   3.701   0.134   5.955
 6258SOL    HW219674   3.722   0.157   5.795
 6259SOL     OW19675   1.238   1.034   5.867
 6259SOL    HW119676   1.317   1.013   5.924
 6259SOL    HW219677   1.202   1.124   5.892
 6260SOL     OW19678   1.948   0.600   0.649
 6260SOL    HW119679   2.044   0.591   0.677
 6260SOL    HW219680   1.939   0.680   0.589
 6261SOL     OW19681   5.492   0.269   1.294
 6261SOL    HW119682   5.565   0.255   1.226
 6261SOL    HW219683   5.501   0.360   1.334
 6262SOL     OW19684   6.675   6.117   2.799
 6262SOL    HW119685   6.722   6.203   2.818
 6262SOL    HW219686   6.712   6.076   2.716
 6263SOL     OW19687   6.878   6.636   4.645
 6263SOL    HW119688   6.800   6.631   4.582
 6263SOL    HW219689   6.882   6.552   4.699
 6264SOL     OW19690   1.218   6.984   1.306
 6264SOL    HW119691   1.223   6.989   1.206
 6264SOL    HW219692   1.124   6.968   1.334
 6265SOL     OW19693   3.908   2.730   0.837
 6265SOL    HW119694   3.893   2.807   0.775
 6265SOL    HW219695   3.894   2.644   0.787
 6266SOL     OW19696   3.465   6.456   3.172
 6266SOL    HW119697   3.376   6.502   3.168
 6266SOL    HW219698   3.508   6.475   3.261
 6267SOL     OW19699   1.378   6.543   5.295
 6267SOL    HW119700   1.438   6.508   5.368
 6267SOL    HW219701   1.308   6.474   5.274
 6268SOL     OW19702   3.869   0.164   2.092
 6268SOL    HW119703   3.928   0.224   2.146
 6268SOL    HW219704   3.774   0.192   2.104
 6269SOL     OW19705   5.743   5.833   1.217
 6269SOL    HW119706   5.668   5.867   1.273
 6269SOL    HW219707   5.807   5.908   1.198
 6270SOL     OW19708   0.873   6.603   0.203
 6270SOL    HW119709   0.966   6.568   0.215
 6270SOL    HW219710   0.810   6.551   0.261
 6271SOL     OW19711   5.604   2.528   6.769
 6271SOL    HW119712   5.554   2.459   6.821
 6271SOL    HW219713   5.627   2.491   6.679
 6272SOL     OW19714   6.690   0.406   6.610
 6272SOL    HW119715   6.783   0.438   6.595
 6272SOL    HW219716   6.681   0.312   6.578
 6273SOL     OW19717   0.189   5.983   2.944
 6273SOL    HW119718   0.239   6.006   3.027
 6273SOL    HW219719   0.239   6.016   2.864
 6274SOL     OW19720   3.303   6.477   4.987
 6274SOL    HW119721   3.225   6.415   5.000
 6274SOL    HW219722   3.354   6.450   4.905
 6275SOL     OW19723   2.389   5.761   0.446
 6275SOL    HW119724   2.401   5.694   0.519
 6275SOL    HW219725   2.476   5.806   0.427
 6276SOL     OW19726   3.571   5.700   3.153
 6276SOL    HW119727   3.555   5.608   3.117
 6276SOL    HW219728   3.640   5.697   3.225
 6277SOL     OW19729   4.938   1.997   1.520
 6277SOL    HW119730   4.881   2.057   1.576
 6277SOL    HW219731   4.966   1.917   1.574
 6278SOL     OW19732   3.199   7.011   5.536
 6278SOL    HW119733   3.160   6.998   5.627
 6278SOL    HW219734   3.234   6.923   5.501
 6279SOL     OW19735   3.276   5.552   0.643
 6279SOL    HW119736   3.262   5.499   0.559
 6279SOL    HW219737   3.190   5.558   0.694
 6280SOL     OW19738   6.331   1.709   0.099
 6280SOL    HW119739   6.416   1.671   0.061
 6280SOL    HW219740   6.253   1.668   0.052
 6281SOL     OW19741   5.884   4.394   4.180
 6281SOL    HW119742   5.978   4.363   4.193
 6281SOL    HW219743   5.857   4.451   4.258
 6282SOL     OW19744   6.599   3.794   5.427
 6282SOL    HW119745   6.644   3.878   5.398
 6282SOL    HW219746   6.578   3.800   5.525
 6283SOL     OW19747   0.773   5.406   4.894
 6283SOL    HW119748   0.847   5.386   4.958
 6283SOL    HW219749   0.724   5.488   4.925
 6284SOL     OW19750   0.930   4.314   6.803
 6284SOL    HW119751   0.928   4.406   6.841
 6284SOL    HW219752   0.898   4.316   6.708
 6285SOL     OW19753   1.852   3.656   3.425
 6285SOL    HW119754   1.839   3.558   3.444
 6285SOL    HW219755   1.945   3.682   3.449
 6286SOL     OW19756   7.012   3.770   4.928
 6286SOL    HW119757   7.021   3.736   4.834
 6286SOL    HW219758   0.079   3.791   4.965
 6287SOL     OW19759   4.222   4.472   5.496
 6287SOL    HW119760   4.237   4.399   5.430
 6287SOL    HW219761   4.192   4.434   5.583
 6288SOL     OW19762   4.164   3.787   6.970
 6288SOL    HW119763   4.257   3.780   7.007
 6288SOL    HW219764   4.144   3.706   6.915
 6289SOL     OW19765   2.536   4.104   6.550
 6289SOL    HW119766   2.633   4.086   6.531
 6289SOL    HW219767   2.500   4.030   6.608
 6290SOL     OW19768   6.101   5.379   6.717
 6290SOL    HW119769   6.133   5.472   6.733
 6290SOL    HW219770   6.142   5.343   6.633
 6291SOL     OW19771   3.133   3.010   3.105
 6291SOL    HW119772   3.126   3.052   3.196
 6291SOL    HW219773   3.228   3.015   3.074
 6292SOL     OW19774   1.831   2.172   4.671
 6292SOL    HW119775   1.756   2.133   4.618
 6292SOL    HW219776   1.875   2.100   4.726
 6293SOL     OW19777   4.739   1.520   0.587
 6293SOL    HW119778   4.796   1.577   0.646
 6293SOL    HW219779   4.677   1.465   0.644
 6294SOL     OW19780   3.330   0.785   3.831
 6294SOL    HW119781   3.324   0.832   3.919
 6294SOL    HW219782   3.413   0.730   3.828
 6295SOL     OW19783   5.139   5.234   4.742
 6295SOL    HW119784   5.064   5.291   4.707
 6295SOL    HW219785   5.223   5.287   4.744
 6296SOL     OW19786   0.640   3.502   6.033
 6296SOL    HW119787   0.714   3.511   5.966
 6296SOL    HW219788   0.594   3.590   6.043
 6297SOL     OW19789   6.007   0.310   4.806
 6297SOL    HW119790   5.917   0.343   4.833
 6297SOL    HW219791   6.018   0.215   4.836
 6298SOL     OW19792   5.812   4.347   6.673
 6298SOL    HW119793   5.818   4.404   6.755
 6298SOL    HW219794   5.848   4.256   6.692
 6299SOL     OW19795   5.372   2.696   2.460
 6299SOL    HW119796   5.422   2.713   2.545
 6299SOL    HW219797   5.348   2.600   2.454
 6300SOL     OW19798   4.387   0.924   6.357
 6300SOL    HW119799   4.290   0.945   6.361
 6300SOL    HW219800   4.402   0.827   6.375
 6301SOL     OW19801   3.150   6.737   6.810
 6301SOL    HW119802   3.153   6.669   6.884
 6301SOL    HW219803   3.096   6.815   6.839
 6302SOL     OW19804   2.044   1.832   5.952
 6302SOL    HW119805   2.078   1.739   5.946
 6302SOL    HW219806   2.114   1.890   5.995
 6303SOL     OW19807   1.075   6.449   5.505
 6303SOL    HW119808   1.023   6.508   5.444
 6303SOL    HW219809   1.143   6.504   5.554
 6304SOL     OW19810   3.923   1.232   3.375
 6304SOL    HW119811   3.919   1.321   3.330
 6304SOL    HW219812   3.921   1.160   3.305
 6305SOL     OW19813   6.448   5.631   5.924
 6305SOL    HW119814   6.444   5.533   5.940
 6305SOL    HW219815   6.357   5.666   5.905
 6306SOL     OW19816   0.647   4.018   3.717
 6306SOL    HW119817   0.597   4.092   3.763
 6306SOL    HW219818   0.643   4.032   3.618
 6307SOL     OW19819   3.922   3.905   3.779
 6307SOL    HW119820   3.909   3.981   3.842
 6307SOL    HW219821   3.995   3.846   3.812
 6308SOL     OW19822   0.234   2.342   5.707
 6308SOL    HW119823   0.323   2.380   5.683
 6308SOL    HW219824   0.177   2.336   5.625
 6309SOL     OW19825   0.535   6.819   4.331
 6309SOL    HW119826   0.586   6.870   4.262
 6309SOL    HW219827   0.568   6.724   4.333
 6310SOL     OW19828   1.555   6.837   3.340
 6310SOL    HW119829   1.532   6.866   3.247
 6310SOL    HW219830   1.654   6.821   3.346
 6311SOL     OW19831   5.048   0.777   6.779
 6311SOL    HW119832   5.075   0.762   6.684
 6311SOL    HW219833   4.989   0.858   6.784
 6312SOL     OW19834   2.791   6.673   6.357
 6312SOL    HW119835   2.777   6.575   6.338
 6312SOL    HW219836   2.769   6.725   6.274
 6313SOL     OW19837   5.519   6.323   3.237
 6313SOL    HW119838   5.552   6.411   3.271
 6313SOL    HW219839   5.481   6.270   3.312
 6314SOL     OW19840   3.230   6.936   1.213
 6314SOL    HW119841   3.177   7.019   1.195
 6314SOL    HW219842   3.260   6.935   1.309
 6315SOL     OW19843   1.887   2.553   4.481
 6315SOL    HW119844   1.921   2.645   4.464
 6315SOL    HW219845   1.927   2.490   4.414
 6316SOL     OW19846   4.659   1.864   5.737
 6316SOL    HW119847   4.741   1.867   5.795
 6316SOL    HW219848   4.617   1.955   5.735
 6317SOL     OW19849   5.333   4.263   2.567
 6317SOL    HW119850   5.234   4.277   2.567
 6317SOL    HW219851   5.379   4.352   2.559
 6318SOL     OW19852   6.387   0.295   6.732
 6318SOL    HW119853   6.478   0.300   6.773
 6318SOL    HW219854   6.388   0.227   6.658
 6319SOL     OW19855   5.782   2.336   4.826
 6319SOL    HW119856   5.693   2.382   4.822
 6319SOL    HW219857   5.839   2.367   4.749
 6320SOL     OW19858   0.293   0.585   3.640
 6320SOL    HW119859   0.376   0.634   3.611
 6320SOL    HW219860   0.291   0.495   3.597
 6321SOL     OW19861   5.014   2.978   0.620
 6321SOL    HW119862   5.011   3.020   0.711
 6321SOL    HW219863   4.921   2.961   0.588
 6322SOL     OW19864   2.423   2.013   0.771
 6322SOL    HW119865   2.330   1.996   0.738
 6322SOL    HW219866   2.482   2.036   0.694
 6323SOL     OW19867   2.627   3.246   1.203
 6323SOL    HW119868   2.674   3.315   1.148
 6323SOL    HW219869   2.667   3.244   1.295
 6324SOL     OW19870   4.551   1.474   1.184
 6324SOL    HW119871   4.463   1.432   1.159
 6324SOL    HW219872   4.546   1.573   1.169
 6325SOL     OW19873   2.032   2.741   2.427
 6325SOL    HW119874   2.119   2.782   2.398
 6325SOL    HW219875   1.975   2.811   2.470
 6326SOL     OW19876   4.520   4.659   5.650
 6326SOL    HW119877   4.575   4.692   5.726
 6326SOL    HW219878   4.545   4.564   5.630
 6327SOL     OW19879   0.187   1.646   3.547
 6327SOL    HW119880   0.113   1.695   3.501
 6327SOL    HW219881   0.200   1.685   3.639
 6328SOL     OW19882   5.336   4.272   6.214
 6328SOL    HW119883   5.306   4.361   6.179
 6328SOL    HW219884   5.389   4.286   6.298
 6329SOL     OW19885   1.106   2.890   4.942
 6329SOL    HW119886   1.172   2.851   4.878
 6329SOL    HW219887   1.155   2.927   5.022
 6330SOL     OW19888   5.888   0.683   3.514
 6330SOL    HW119889   5.820   0.751   3.543
 6330SOL    HW219890   5.889   0.608   3.580
 6331SOL     OW19891   6.295   2.963   5.102
 6331SOL    HW119892   6.249   2.986   5.188
 6331SOL    HW219893   6.271   3.031   5.032
 6332SOL     OW19894   1.872   1.537   1.483
 6332SOL    HW119895   1.944   1.585   1.432
 6332SOL    HW219896   1.799   1.602   1.506
 6333SOL     OW19897   4.848   0.152   0.547
 6333SOL    HW119898   4.797   0.211   0.485
 6333SOL    HW219899   4.945   0.155   0.523
 6334SOL     OW19900   2.618   1.910   1.846
 6334SOL    HW119901   2.705   1.951   1.872
 6334SOL    HW219902   2.568   1.884   1.929
 6335SOL     OW19903   5.421   0.960   1.094
 6335SOL    HW119904   5.392   1.032   1.031
 6335SOL    HW219905   5.401   0.987   1.188
 6336SOL     OW19906   6.984   5.045   6.184
 6336SOL    HW119907   7.011   5.014   6.276
 6336SOL    HW219908   6.894   5.007   6.161
 6337SOL     OW19909   4.081   5.720   4.779
 6337SOL    HW119910   4.060   5.628   4.747
 6337SOL    HW219911   4.151   5.761   4.719
 6338SOL     OW19912   3.092   2.225   4.298
 6338SOL    HW119913   3.186   2.214   4.265
 6338SOL    HW219914   3.029   2.202   4.225
 6339SOL     OW19915   1.000   3.126   2.644
 6339SOL    HW119916   0.909   3.106   2.606
 6339SOL    HW219917   1.039   3.205   2.596
 6340SOL     OW19918   2.726   3.905   1.422
 6340SOL    HW119919   2.636   3.897   1.379
 6340SOL    HW219920   2.777   3.820   1.409
 6341SOL     OW19921   0.992   3.387   3.325
 6341SOL    HW119922   1.073   3.444   3.340
 6341SOL    HW219923   0.936   3.425   3.252
 6342SOL     OW19924   2.470   1.063   1.430
 6342SOL    HW119925   2.411   1.122   1.374
 6342SOL    HW219926   2.537   1.119   1.478
 6343SOL     OW19927   3.480   6.363   0.252
 6343SOL    HW119928   3.423   6.411   0.185
 6343SOL    HW219929   3.465   6.403   0.343
 6344SOL     OW19930   6.097   2.535   3.969
 6344SOL    HW119931   6.041   2.567   4.046
 6344SOL    HW219932   6.161   2.465   4.000
 6345SOL     OW19933   4.983   3.356   1.987
 6345SOL    HW119934   5.081   3.376   1.977
 6345SOL    HW219935   4.930   3.439   1.972
 6346SOL     OW19936   0.096   4.039   5.490
 6346SOL    HW119937   0.031   3.975   5.530
 6346SOL    HW219938   0.046   4.108   5.436
 6347SOL     OW19939   2.807   2.196   2.326
 6347SOL    HW119940   2.784   2.104   2.293
 6347SOL    HW219941   2.808   2.259   2.248
 6348SOL     OW19942   0.158   1.856   5.788
 6348SOL    HW119943   0.085   1.787   5.793
 6348SOL    HW219944   0.217   1.837   5.710
 6349SOL     OW19945   1.576   0.258   0.069
 6349SOL    HW119946   1.500   0.195   0.085
 6349SOL    HW219947   1.637   0.219   7.022
 6350SOL     OW19948   0.865   5.004   2.860
 6350SOL    HW119949   0.903   4.912   2.858
 6350SOL    HW219950   0.787   5.007   2.922
 6351SOL     OW19951   6.384   4.520   3.719
 6351SOL    HW119952   6.348   4.523   3.626
 6351SOL    HW219953   6.355   4.435   3.763
 6352SOL     OW19954   2.648   0.733   4.111
 6352SOL    HW119955   2.559   0.764   4.142
 6352SOL    HW219956   2.715   0.807   4.121
 6353SOL     OW19957   2.488   5.041   0.060
 6353SOL    HW119958   2.431   5.104   0.006
 6353SOL    HW219959   2.440   4.954   0.072
 6354SOL     OW19960   4.992   5.080   2.837
 6354SOL    HW119961   4.987   5.160   2.896
 6354SOL    HW219962   4.920   5.085   2.768
 6355SOL     OW19963   2.968   5.466   0.716
 6355SOL    HW119964   2.953   5.560   0.687
 6355SOL    HW219965   2.904   5.443   0.789
 6356SOL     OW19966   5.055   5.040   7.005
 6356SOL    HW119967   5.014   4.976   6.939
 6356SOL    HW219968   5.146   5.007   0.008
 6357SOL     OW19969   5.685   1.783   1.149
 6357SOL    HW119970   5.603   1.746   1.105
 6357SOL    HW219971   5.664   1.802   1.245
 6358SOL     OW19972   0.462   1.572   6.685
 6358SOL    HW119973   0.509   1.653   6.649
 6358SOL    HW219974   0.365   1.576   6.660
 6359SOL     OW19975   6.316   6.745   0.601
 6359SOL    HW119976   6.286   6.663   0.649
 6359SOL    HW219977   6.398   6.723   0.546
 6360SOL     OW19978   6.959   2.510   3.690
 6360SOL    HW119979   6.882   2.529   3.628
 6360SOL    HW219980   0.008   2.576   3.675
 6361SOL     OW19981   0.475   0.628   0.069
 6361SOL    HW119982   0.468   0.710   0.127
 6361SOL    HW219983   0.385   0.586   0.059
 6362SOL     OW19984   1.116   6.444   6.661
 6362SOL    HW119985   1.028   6.491   6.661
 6362SOL    HW219986   1.101   6.346   6.649
 6363SOL     OW19987   2.594   5.271   3.715
 6363SOL    HW119988   2.640   5.340   3.658
 6363SOL    HW219989   2.500   5.259   3.683
 6364SOL     OW19990   2.165   2.434   4.987
 6364SOL    HW119991   2.077   2.426   5.033
 6364SOL    HW219992   2.227   2.490   5.042
 6365SOL     OW19993   6.186   5.576   4.871
 6365SOL    HW119994   6.237   5.648   4.823
 6365SOL    HW219995   6.088   5.596   4.864
 6366SOL     OW19996   6.128   6.624   4.520
 6366SOL    HW119997   6.130   6.618   4.620
 6366SOL    HW219998   6.148   6.717   4.491
 6367SOL     OW19999   2.825   1.860   2.838
 6367SOL    HW120000   2.739   1.823   2.803
 6367SOL    HW220001   2.836   1.954   2.806
 6368SOL     OW20002   4.724   4.315   3.974
 6368SOL    HW120003   4.668   4.376   4.030
 6368SOL    HW220004   4.681   4.225   3.969
 6369SOL     OW20005   2.529   5.916   5.850
 6369SOL    HW120006   2.492   5.914   5.757
 6369SOL    HW220007   2.471   5.860   5.910
 6370SOL     OW20008   5.194   3.727   3.287
 6370SOL    HW120009   5.231   3.635   3.296
 6370SOL    HW220010   5.114   3.737   3.347
 6371SOL     OW20011   5.537   4.000   2.036
 6371SOL    HW120012   5.527   3.900   2.044
 6371SOL    HW220013   5.551   4.024   1.940
 6372SOL     OW20014   0.319   0.958   3.011
 6372SOL    HW120015   0.250   0.891   3.038
 6372SOL    HW220016   0.405   0.937   3.057
 6373SOL     OW20017   5.493   4.307   1.611
 6373SOL    HW120018   5.547   4.273   1.534
 6373SOL    HW220019   5.418   4.363   1.577
 6374SOL     OW20020   4.635   3.180   0.294
 6374SOL    HW120021   4.689   3.250   0.340
 6374SOL    HW220022   4.677   3.157   0.206
 6375SOL     OW20023   0.705   2.567   2.181
 6375SOL    HW120024   0.772   2.540   2.111
 6375SOL    HW220025   0.684   2.489   2.240
 6376SOL     OW20026   4.295   0.822   5.955
 6376SOL    HW120027   4.345   0.909   5.961
 6376SOL    HW220028   4.290   0.781   6.046
 6377SOL     OW20029   6.812   0.482   6.239
 6377SOL    HW120030   6.762   0.545   6.299
 6377SOL    HW220031   6.886   0.531   6.194
 6378SOL     OW20032   4.928   5.948   3.036
 6378SOL    HW120033   4.860   6.021   3.028
 6378SOL    HW220034   4.953   5.937   3.133
 6379SOL     OW20035   1.696   5.257   5.930
 6379SOL    HW120036   1.792   5.262   5.902
 6379SOL    HW220037   1.691   5.242   6.029
 6380SOL     OW20038   0.746   3.352   4.587
 6380SOL    HW120039   0.821   3.379   4.648
 6380SOL    HW220040   0.683   3.429   4.578
 6381SOL     OW20041   3.913   2.962   0.668
 6381SOL    HW120042   3.911   3.060   0.688
 6381SOL    HW220043   3.967   2.946   0.585
 6382SOL     OW20044   2.729   1.908   1.282
 6382SOL    HW120045   2.761   1.869   1.368
 6382SOL    HW220046   2.787   1.876   1.207
 6383SOL     OW20047   1.920   2.953   2.580
 6383SOL    HW120048   1.833   2.971   2.626
 6383SOL    HW220049   1.975   3.037   2.579
 6384SOL     OW20050   5.718   2.489   2.270
 6384SOL    HW120051   5.657   2.517   2.195
 6384SOL    HW220052   5.796   2.439   2.232
 6385SOL     OW20053   6.896   3.881   1.002
 6385SOL    HW120054   6.878   3.922   0.913
 6385SOL    HW220055   6.991   3.898   1.028
 6386SOL     OW20056   1.844   3.800   0.160
 6386SOL    HW120057   1.944   3.806   0.171
 6386SOL    HW220058   1.811   3.880   0.110
 6387SOL     OW20059   6.177   1.088   0.289
 6387SOL    HW120060   6.116   1.044   0.356
 6387SOL    HW220061   6.133   1.089   0.199
 6388SOL     OW20062   6.584   5.040   2.630
 6388SOL    HW120063   6.543   5.108   2.570
 6388SOL    HW220064   6.671   5.009   2.592
 6389SOL     OW20065   1.515   6.853   0.043
 6389SOL    HW120066   1.570   6.881   0.122
 6389SOL    HW220067   1.549   6.899   6.984
 6390SOL     OW20068   6.535   0.390   0.300
 6390SOL    HW120069   6.496   0.437   0.220
 6390SOL    HW220070   6.622   0.433   0.324
 6391SOL     OW20071   1.008   0.856   5.792
 6391SOL    HW120072   1.091   0.878   5.844
 6391SOL    HW220073   0.991   0.929   5.726
 6392SOL     OW20074   3.632   5.905   3.473
 6392SOL    HW120075   3.693   5.833   3.438
 6392SOL    HW220076   3.639   5.908   3.573
 6393SOL     OW20077   5.638   6.647   1.762
 6393SOL    HW120078   5.559   6.667   1.820
 6393SOL    HW220079   5.704   6.721   1.770
 6394SOL     OW20080   0.974   4.870   0.739
 6394SOL    HW120081   0.906   4.867   0.812
 6394SOL    HW220082   0.928   4.889   0.652
 6395SOL     OW20083   0.126   3.816   3.082
 6395SOL    HW120084   0.097   3.908   3.055
 6395SOL    HW220085   0.073   3.748   3.032
 6396SOL     OW20086   6.758   3.402   6.658
 6396SOL    HW120087   6.787   3.412   6.563
 6396SOL    HW220088   6.794   3.317   6.695
 6397SOL     OW20089   6.268   1.787   2.999
 6397SOL    HW120090   6.302   1.826   2.913
 6397SOL    HW220091   6.182   1.739   2.982
 6398SOL     OW20092   1.538   6.265   1.445
 6398SOL    HW120093   1.544   6.223   1.535
 6398SOL    HW220094   1.454   6.237   1.399
 6399SOL     OW20095   1.926   0.158   6.810
 6399SOL    HW120096   1.965   0.091   6.747
 6399SOL    HW220097   1.861   0.216   6.761
 6400SOL     OW20098   1.659   5.790   3.210
 6400SOL    HW120099   1.663   5.800   3.309
 6400SOL    HW220100   1.696   5.701   3.184
 6401SOL     OW20101   4.418   4.616   3.034
 6401SOL    HW120102   4.455   4.664   2.954
 6401SOL    HW220103   4.463   4.527   3.043
 6402SOL     OW20104   1.227   3.521   3.382
 6402SOL    HW120105   1.201   3.600   3.438
 6402SOL    HW220106   1.324   3.527   3.359
 6403SOL     OW20107   5.498   6.283   4.937
 6403SOL    HW120108   5.522   6.191   4.905
 6403SOL    HW220109   5.551   6.305   5.019
 6404SOL     OW20110   3.469   0.903   2.764
 6404SOL    HW120111   3.483   0.839   2.688
 6404SOL    HW220112   3.386   0.956   2.748
 6405SOL     OW20113   5.018   1.716   3.631
 6405SOL    HW120114   5.048   1.758   3.545
 6405SOL    HW220115   5.056   1.769   3.707
 6406SOL     OW20116   0.872   2.723   2.546
 6406SOL    HW120117   0.869   2.623   2.558
 6406SOL    HW220118   0.934   2.763   2.614
 6407SOL     OW20119   1.962   6.474   3.527
 6407SOL    HW120120   1.943   6.551   3.588
 6407SOL    HW220121   1.914   6.488   3.440
 6408SOL     OW20122   0.225   0.845   1.375
 6408SOL    HW120123   0.258   0.925   1.423
 6408SOL    HW220124   0.226   0.862   1.276
 6409SOL     OW20125   6.306   4.914   3.929
 6409SOL    HW120126   6.303   4.814   3.926
 6409SOL    HW220127   6.263   4.947   4.013
 6410SOL     OW20128   2.462   1.303   5.748
 6410SOL    HW120129   2.517   1.382   5.721
 6410SOL    HW220130   2.521   1.223   5.760
 6411SOL     OW20131   0.262   3.181   1.752
 6411SOL    HW120132   0.215   3.179   1.664
 6411SOL    HW220133   0.352   3.140   1.743
 6412SOL     OW20134   3.293   0.928   6.905
 6412SOL    HW120135   3.336   0.851   6.953
 6412SOL    HW220136   3.205   0.898   6.867
 6413SOL     OW20137   4.326   4.900   4.554
 6413SOL    HW120138   4.278   4.816   4.531
 6413SOL    HW220139   4.306   4.925   4.649
 6414SOL     OW20140   0.675   6.666   6.734
 6414SOL    HW120141   0.634   6.610   6.662
 6414SOL    HW220142   0.613   6.669   6.813
 6415SOL     OW20143   1.151   3.600   2.730
 6415SOL    HW120144   1.109   3.561   2.812
 6415SOL    HW220145   1.220   3.537   2.694
 6416SOL     OW20146   2.996   0.053   6.687
 6416SOL    HW120147   2.974   7.009   6.617
 6416SOL    HW220148   2.977   0.014   6.777
 6417SOL     OW20149   4.800   2.307   0.803
 6417SOL    HW120150   4.819   2.366   0.882
 6417SOL    HW220151   4.886   2.271   0.768
 6418SOL     OW20152   4.669   4.563   1.884
 6418SOL    HW120153   4.569   4.561   1.878
 6418SOL    HW220154   4.704   4.469   1.881
 6419SOL     OW20155   0.944   6.900   6.268
 6419SOL    HW120156   1.001   6.820   6.285
 6419SOL    HW220157   0.970   6.942   6.181
 6420SOL     OW20158   1.677   2.527   3.748
 6420SOL    HW120159   1.776   2.519   3.752
 6420SOL    HW220160   1.644   2.586   3.822
 6421SOL     OW20161   5.578   0.479   1.503
 6421SOL    HW120162   5.609   0.424   1.581
 6421SOL    HW220163   5.654   0.536   1.471
 6422SOL     OW20164   0.098   2.355   5.456
 6422SOL    HW120165   0.046   2.274   5.426
 6422SOL    HW220166   0.038   2.435   5.452
 6423SOL     OW20167   2.764   6.052   4.298
 6423SOL    HW120168   2.836   5.983   4.285
 6423SOL    HW220169   2.806   6.141   4.312
 6424SOL     OW20170   0.339   3.368   4.645
 6424SOL    HW120171   0.303   3.450   4.600
 6424SOL    HW220172   0.399   3.319   4.581
 6425SOL     OW20173   6.921   5.707   2.588
 6425SOL    HW120174   6.856   5.778   2.560
 6425SOL    HW220175   6.902   5.622   2.537
 6426SOL     OW20176   4.750   4.856   4.446
 6426SOL    HW120177   4.814   4.783   4.423
 6426SOL    HW220178   4.717   4.844   4.539
 6427SOL     OW20179   3.005   3.892   2.907
 6427SOL    HW120180   3.060   3.824   2.953
 6427SOL    HW220181   2.941   3.847   2.844
 6428SOL     OW20182   5.013   2.194   0.702
 6428SOL    HW120183   5.017   2.231   0.609
 6428SOL    HW220184   5.073   2.247   0.762
 6429SOL     OW20185   1.991   0.752   5.268
 6429SOL    HW120186   1.919   0.715   5.209
 6429SOL    HW220187   2.077   0.758   5.217
 6430SOL     OW20188   6.952   0.621   5.417
 6430SOL    HW120189   6.967   0.555   5.491
 6430SOL    HW220190   6.893   0.694   5.450
 6431SOL     OW20191   4.649   5.352   3.186
 6431SOL    HW120192   4.558   5.343   3.145
 6431SOL    HW220193   4.703   5.270   3.165
 6432SOL     OW20194   3.463   3.910   6.638
 6432SOL    HW120195   3.430   3.827   6.595
 6432SOL    HW220196   3.553   3.893   6.679
 6433SOL     OW20197   2.924   5.325   6.761
 6433SOL    HW120198   2.913   5.403   6.824
 6433SOL    HW220199   3.017   5.326   6.723
 6434SOL     OW20200   3.121   6.196   6.232
 6434SOL    HW120201   3.087   6.124   6.293
 6434SOL    HW220202   3.088   6.179   6.139
 6435SOL     OW20203   6.000   0.004   0.693
 6435SOL    HW120204   6.061   0.004   0.615
 6435SOL    HW220205   6.028   0.076   0.757
 6436SOL     OW20206   0.571   3.398   3.485
 6436SOL    HW120207   0.665   3.365   3.472
 6436SOL    HW220208   0.552   3.405   3.583
 6437SOL     OW20209   0.604   1.746   5.245
 6437SOL    HW120210   0.623   1.824   5.304
 6437SOL    HW220211   0.677   1.738   5.177
 6438SOL     OW20212   0.863   5.435   6.441
 6438SOL    HW120213   0.822   5.487   6.366
 6438SOL    HW220214   0.814   5.349   6.452
 6439SOL     OW20215   6.616   0.704   3.512
 6439SOL    HW120216   6.606   0.786   3.456
 6439SOL    HW220217   6.686   0.719   3.582
 6440SOL     OW20218   2.214   0.594   6.636
 6440SOL    HW120219   2.273   0.660   6.589
 6440SOL    HW220220   2.170   0.639   6.714
 6441SOL     OW20221   0.094   0.785   3.305
 6441SOL    HW120222   0.008   0.833   3.318
 6441SOL    HW220223   0.170   0.847   3.328
 6442SOL     OW20224   2.512   2.086   4.828
 6442SOL    HW120225   2.424   2.066   4.787
 6442SOL    HW220226   2.505   2.168   4.885
 6443SOL     OW20227   3.844   1.930   0.378
 6443SOL    HW120228   3.921   1.978   0.336
 6443SOL    HW220229   3.801   1.871   0.310
 6444SOL     OW20230   0.236   2.620   5.372
 6444SOL    HW120231   0.201   2.651   5.461
 6444SOL    HW220232   0.191   2.671   5.299
 6445SOL     OW20233   3.413   3.667   3.383
 6445SOL    HW120234   3.494   3.652   3.440
 6445SOL    HW220235   3.367   3.579   3.369
 6446SOL     OW20236   1.625   1.859   6.556
 6446SOL    HW120237   1.549   1.858   6.622
 6446SOL    HW220238   1.613   1.785   6.490
 6447SOL     OW20239   6.818   4.079   1.549
 6447SOL    HW120240   6.754   4.144   1.590
 6447SOL    HW220241   6.911   4.102   1.578
 6448SOL     OW20242   4.800   5.308   1.535
 6448SOL    HW120243   4.722   5.267   1.487
 6448SOL    HW220244   4.766   5.367   1.609
 6449SOL     OW20245   2.267   5.744   1.279
 6449SOL    HW120246   2.178   5.734   1.323
 6449SOL    HW220247   2.286   5.841   1.264
 6450SOL     OW20248   0.274   4.163   0.762
 6450SOL    HW120249   0.357   4.168   0.818
 6450SOL    HW220250   0.197   4.202   0.813
 6451SOL     OW20251   3.478   1.814   6.794
 6451SOL    HW120252   3.556   1.856   6.840
 6451SOL    HW220253   3.471   1.848   6.701
 6452SOL     OW20254   5.314   3.502   2.577
 6452SOL    HW120255   5.403   3.544   2.596
 6452SOL    HW220256   5.315   3.463   2.485
 6453SOL     OW20257   3.525   6.983   0.514
 6453SOL    HW120258   3.432   7.009   0.543
 6453SOL    HW220259   3.583   0.041   0.512
 6454SOL     OW20260   6.836   1.608   2.513
 6454SOL    HW120261   6.789   1.633   2.598
 6454SOL    HW220262   6.880   1.519   2.525
 6455SOL     OW20263   6.400   4.670   2.872
 6455SOL    HW120264   6.357   4.580   2.882
 6455SOL    HW220265   6.495   4.659   2.843
 6456SOL     OW20266   0.880   1.135   2.942
 6456SOL    HW120267   0.862   1.183   2.856
 6456SOL    HW220268   0.802   1.076   2.964
 6457SOL     OW20269   5.250   7.021   1.676
 6457SOL    HW120270   5.267   0.048   1.592
 6457SOL    HW220271   5.318   0.023   1.745
 6458SOL     OW20272   1.230   5.187   4.195
 6458SOL    HW120273   1.249   5.227   4.285
 6458SOL    HW220274   1.238   5.088   4.200
 6459SOL     OW20275   6.398   2.591   2.765
 6459SOL    HW120276   6.482   2.639   2.742
 6459SOL    HW220277   6.414   2.529   2.841
 6460SOL     OW20278   6.495   5.294   4.930
 6460SOL    HW120279   6.536   5.231   4.996
 6460SOL    HW220280   6.466   5.377   4.976
 6461SOL     OW20281   3.541   4.280   0.587
 6461SOL    HW120282   3.629   4.325   0.574
 6461SOL    HW220283   3.467   4.340   0.555
 6462SOL     OW20284   1.800   3.820   4.350
 6462SOL    HW120285   1.754   3.903   4.319
 6462SOL    HW220286   1.888   3.844   4.392
 6463SOL     OW20287   5.564   0.268   0.656
 6463SOL    HW120288   5.590   0.201   0.586
 6463SOL    HW220289   5.645   0.321   0.683
 6464SOL     OW20290   1.335   6.304   4.927
 6464SOL    HW120291   1.321   6.230   4.861
 6464SOL    HW220292   1.351   6.265   5.018
 6465SOL     OW20293   5.557   2.601   2.040
 6465SOL    HW120294   5.559   2.658   1.958
 6465SOL    HW220295   5.466   2.561   2.051
 6466SOL     OW20296   6.640   2.682   6.458
 6466SOL    HW120297   6.690   2.706   6.541
 6466SOL    HW220298   6.676   2.596   6.421
 6467SOL     OW20299   3.530   1.136   0.959
 6467SOL    HW120300   3.504   1.059   1.017
 6467SOL    HW220301   3.586   1.103   0.883
 6468SOL     OW20302   4.196   6.231   0.454
 6468SOL    HW120303   4.104   6.203   0.483
 6468SOL    HW220304   4.194   6.327   0.424
 6469SOL     OW20305   2.948   2.145   4.056
 6469SOL    HW120306   3.013   2.184   3.991
 6469SOL    HW220307   2.860   2.132   4.011
 6470SOL     OW20308   6.442   2.238   0.605
 6470SOL    HW120309   6.423   2.190   0.519
 6470SOL    HW220310   6.450   2.172   0.680
 6471SOL     OW20311   0.680   6.707   4.967
 6471SOL    HW120312   0.659   6.720   5.064
 6471SOL    HW220313   0.769   6.661   4.959
 6472SOL     OW20314   6.622   6.398   2.595
 6472SOL    HW120315   6.622   6.417   2.693
 6472SOL    HW220316   6.697   6.336   2.573
 6473SOL     OW20317   1.948   1.668   4.170
 6473SOL    HW120318   1.864   1.706   4.129
 6473SOL    HW220319   2.015   1.742   4.182
 6474SOL     OW20320   4.102   5.385   5.344
 6474SOL    HW120321   4.030   5.322   5.374
 6474SOL    HW220322   4.140   5.433   5.424
 6475SOL     OW20323   5.475   5.020   3.414
 6475SOL    HW120324   5.560   5.073   3.406
 6475SOL    HW220325   5.436   5.034   3.504
 6476SOL     OW20326   3.583   2.410   6.742
 6476SOL    HW120327   3.594   2.370   6.833
 6476SOL    HW220328   3.499   2.375   6.700
 6477SOL     OW20329   6.796   5.529   0.947
 6477SOL    HW120330   6.849   5.453   0.910
 6477SOL    HW220331   6.699   5.506   0.944
 6478SOL     OW20332   2.581   6.095   1.722
 6478SOL    HW120333   2.539   6.004   1.719
 6478SOL    HW220334   2.679   6.087   1.705
 6479SOL     OW20335   3.236   5.663   4.404
 6479SOL    HW120336   3.139   5.685   4.415
 6479SOL    HW220337   3.289   5.748   4.402
 6480SOL     OW20338   2.156   1.038   0.280
 6480SOL    HW120339   2.180   0.954   0.330
 6480SOL    HW220340   2.059   1.058   0.294
 6481SOL     OW20341   3.059   2.373   1.657
 6481SOL    HW120342   3.120   2.449   1.639
 6481SOL    HW220343   3.070   2.343   1.752
 6482SOL     OW20344   6.981   2.407   5.868
 6482SOL    HW120345   6.955   2.501   5.847
 6482SOL    HW220346   7.004   2.400   5.965
 6483SOL     OW20347   1.127   5.666   4.166
 6483SOL    HW120348   1.030   5.677   4.187
 6483SOL    HW220349   1.137   5.621   4.077
 6484SOL     OW20350   2.908   1.357   2.714
 6484SOL    HW120351   2.998   1.372   2.756
 6484SOL    HW220352   2.866   1.444   2.691
 6485SOL     OW20353   2.062   6.287   4.870
 6485SOL    HW120354   2.003   6.332   4.937
 6485SOL    HW220355   2.134   6.349   4.841
 6486SOL     OW20356   0.645   4.790   2.698
 6486SOL    HW120357   0.591   4.861   2.653
 6486SOL    HW220358   0.731   4.830   2.732
 6487SOL     OW20359   1.311   5.316   4.429
 6487SOL    HW120360   1.257   5.400   4.437
 6487SOL    HW220361   1.333   5.282   4.520
 6488SOL     OW20362   4.683   5.812   5.053
 6488SOL    HW120363   4.722   5.735   5.001
 6488SOL    HW220364   4.620   5.863   4.995
 6489SOL     OW20365   3.532   2.952   5.953
 6489SOL    HW120366   3.615   2.925   6.003
 6489SOL    HW220367   3.528   2.902   5.866
 6490SOL     OW20368   2.284   1.906   6.678
 6490SOL    HW120369   2.367   1.890   6.624
 6490SOL    HW220370   2.238   1.818   6.695
 6491SOL     OW20371   2.227   0.087   1.245
 6491SOL    HW120372   2.324   0.096   1.268
 6491SOL    HW220373   2.175   0.155   1.297
 6492SOL     OW20374   3.481   4.112   4.264
 6492SOL    HW120375   3.543   4.090   4.188
 6492SOL    HW220376   3.528   4.172   4.329
 6493SOL     OW20377   1.255   4.653   6.218
 6493SOL    HW120378   1.202   4.568   6.221
 6493SOL    HW220379   1.342   4.639   6.264
 6494SOL     OW20380   5.956   6.499   2.512
 6494SOL    HW120381   5.881   6.433   2.515
 6494SOL    HW220382   5.978   6.528   2.605
 6495SOL     OW20383   6.385   0.017   4.938
 6495SOL    HW120384   6.385   0.061   4.848
 6495SOL    HW220385   6.382   0.087   5.009
 6496SOL     OW20386   4.952   6.823   1.557
 6496SOL    HW120387   4.891   6.745   1.572
 6496SOL    HW220388   4.947   6.884   1.636
 6497SOL     OW20389   0.741   1.626   1.049
 6497SOL    HW120390   0.734   1.587   0.957
 6497SOL    HW220391   0.657   1.607   1.100
 6498SOL     OW20392   0.862   4.154   4.111
 6498SOL    HW120393   0.950   4.135   4.155
 6498SOL    HW220394   0.836   4.076   4.054
 6499SOL     OW20395   5.504   3.863   4.240
 6499SOL    HW120396   5.527   3.767   4.260
 6499SOL    HW220397   5.457   3.868   4.152
 6500SOL     OW20398   0.755   3.542   2.221
 6500SOL    HW120399   0.670   3.489   2.223
 6500SOL    HW220400   0.823   3.499   2.281
 6501SOL     OW20401   0.452   1.696   1.072
 6501SOL    HW120402   0.372   1.756   1.079
 6501SOL    HW220403   0.456   1.657   0.980
 6502SOL     OW20404   6.369   3.543   1.446
 6502SOL    HW120405   6.278   3.503   1.453
 6502SOL    HW220406   6.403   3.534   1.352
 6503SOL     OW20407   6.660   2.147   5.430
 6503SOL    HW120408   6.738   2.086   5.448
 6503SOL    HW220409   6.588   2.095   5.384
 6504SOL     OW20410   4.760   6.514   6.620
 6504SOL    HW120411   4.834   6.502   6.553
 6504SOL    HW220412   4.728   6.609   6.616
 6505SOL     OW20413   5.492   6.966   0.023
 6505SOL    HW120414   5.484   7.021   0.105
 6505SOL    HW220415   5.404   6.922   0.003
 6506SOL     OW20416   0.056   3.577   3.480
 6506SOL    HW120417   6.998   3.568   3.538
 6506SOL    HW220418   0.066   3.495   3.423
 6507SOL     OW20419   3.413   5.394   6.254
 6507SOL    HW120420   3.429   5.479   6.204
 6507SOL    HW220421   3.319   5.391   6.286
 6508SOL     OW20422   1.744   6.472   2.425
 6508SOL    HW120423   1.704   6.382   2.442
 6508SOL    HW220424   1.674   6.534   2.390
 6509SOL     OW20425   3.994   1.254   5.076
 6509SOL    HW120426   3.973   1.320   5.004
 6509SOL    HW220427   4.092   1.234   5.075
 6510SOL     OW20428   4.678   6.407   6.300
 6510SOL    HW120429   4.598   6.430   6.355
 6510SOL    HW220430   4.672   6.311   6.272
 6511SOL     OW20431   3.797   0.848   5.875
 6511SOL    HW120432   3.776   0.760   5.916
 6511SOL    HW220433   3.895   0.863   5.874
 6512SOL     OW20434   2.933   6.847   2.301
 6512SOL    HW120435   2.947   6.870   2.397
 6512SOL    HW220436   3.016   6.866   2.250
 6513SOL     OW20437   2.621   5.747   4.482
 6513SOL    HW120438   2.552   5.685   4.520
 6513SOL    HW220439   2.575   5.817   4.427
 6514SOL     OW20440   5.936   0.405   5.093
 6514SOL    HW120441   5.837   0.409   5.082
 6514SOL    HW220442   5.967   0.482   5.148
 6515SOL     OW20443   2.084   4.583   2.315
 6515SOL    HW120444   2.159   4.530   2.276
 6515SOL    HW220445   2.113   4.677   2.330
 6516SOL     OW20446   6.845   3.243   1.862
 6516SOL    HW120447   6.890   3.296   1.934
 6516SOL    HW220448   6.912   3.218   1.792
 6517SOL     OW20449   6.941   1.872   1.078
 6517SOL    HW120450   6.989   1.956   1.054
 6517SOL    HW220451   6.842   1.886   1.068
 6518SOL     OW20452   6.820   1.198   2.317
 6518SOL    HW120453   6.790   1.254   2.240
 6518SOL    HW220454   6.834   1.103   2.286
 6519SOL     OW20455   0.671   0.536   2.766
 6519SOL    HW120456   0.631   0.491   2.846
 6519SOL    HW220457   0.598   0.566   2.704
 6520SOL     OW20458   0.228   5.713   0.015
 6520SOL    HW120459   0.261   5.764   6.960
 6520SOL    HW220460   0.158   5.648   7.009
 6521SOL     OW20461   1.701   2.840   2.986
 6521SOL    HW120462   1.641   2.878   3.056
 6521SOL    HW220463   1.658   2.848   2.897
 6522SOL     OW20464   2.771   4.457   5.488
 6522SOL    HW120465   2.728   4.433   5.401
 6522SOL    HW220466   2.713   4.427   5.564
 6523SOL     OW20467   5.256   6.861   0.083
 6523SOL    HW120468   5.246   6.870   0.182
 6523SOL    HW220469   5.192   6.923   0.037
 6524SOL     OW20470   2.724   2.543   1.723
 6524SOL    HW120471   2.783   2.551   1.804
 6524SOL    HW220472   2.706   2.634   1.687
 6525SOL     OW20473   2.136   5.380   3.258
 6525SOL    HW120474   2.122   5.453   3.192
 6525SOL    HW220475   2.210   5.405   3.321
 6526SOL     OW20476   0.594   0.032   1.264
 6526SOL    HW120477   0.625   0.125   1.244
 6526SOL    HW220478   0.495   0.027   1.251
 6527SOL     OW20479   0.543   2.221   0.427
 6527SOL    HW120480   0.500   2.183   0.509
 6527SOL    HW220481   0.566   2.317   0.443
 6528SOL     OW20482   6.859   1.530   6.303
 6528SOL    HW120483   6.927   1.596   6.334
 6528SOL    HW220484   6.895   1.437   6.315
 6529SOL     OW20485   0.252   0.762   2.656
 6529SOL    HW120486   0.233   0.748   2.754
 6529SOL    HW220487   0.200   0.694   2.603
 6530SOL     OW20488   0.765   1.866   2.053
 6530SOL    HW120489   0.851   1.906   2.021
 6530SOL    HW220490   0.748   1.781   2.003
 6531SOL     OW20491   4.158   3.259   5.679
 6531SOL    HW120492   4.227   3.327   5.655
 6531SOL    HW220493   4.146   3.196   5.602
 6532SOL     OW20494   1.700   1.284   0.278
 6532SOL    HW120495   1.606   1.297   0.308
 6532SOL    HW220496   1.751   1.369   0.289
 6533SOL     OW20497   4.534   5.842   0.366
 6533SOL    HW120498   4.580   5.917   0.414
 6533SOL    HW220499   4.436   5.848   0.382
 6534SOL     OW20500   5.003   4.985   1.991
 6534SOL    HW120501   5.077   5.047   2.018
 6534SOL    HW220502   5.019   4.895   2.030
 6535SOL     OW20503   5.840   3.866   4.280
 6535SOL    HW120504   5.765   3.799   4.282
 6535SOL    HW220505   5.805   3.955   4.308
 6536SOL     OW20506   0.378   2.200   5.142
 6536SOL    HW120507   0.292   2.233   5.102
 6536SOL    HW220508   0.393   2.105   5.115
 6537SOL     OW20509   6.762   4.722   4.698
 6537SOL    HW120510   6.706   4.803   4.679
 6537SOL    HW220511   6.709   4.658   4.754
 6538SOL     OW20512   2.002   3.417   5.498
 6538SOL    HW120513   1.997   3.508   5.539
 6538SOL    HW220514   2.071   3.416   5.426
 6539SOL     OW20515   5.109   0.607   6.997
 6539SOL    HW120516   5.078   0.518   6.964
 6539SOL    HW220517   5.085   0.677   6.930
 6540SOL     OW20518   2.010   3.153   6.113
 6540SOL    HW120519   1.987   3.162   6.016
 6540SOL    HW220520   2.022   3.057   6.136
 6541SOL     OW20521   5.122   2.426   5.754
 6541SOL    HW120522   5.066   2.343   5.743
 6541SOL    HW220523   5.194   2.409   5.820
 6542SOL     OW20524   1.084   3.605   4.594
 6542SOL    HW120525   0.997   3.632   4.635
 6542SOL    HW220526   1.129   3.537   4.651
 6543SOL     OW20527   3.744   2.283   5.289
 6543SOL    HW120528   3.795   2.202   5.260
 6543SOL    HW220529   3.647   2.262   5.293
 6544SOL     OW20530   0.576   6.320   2.234
 6544SOL    HW120531   0.656   6.307   2.292
 6544SOL    HW220532   0.601   6.373   2.153
 6545SOL     OW20533   3.946   6.903   0.813
 6545SOL    HW120534   3.973   6.939   0.902
 6545SOL    HW220535   3.847   6.891   0.811
 6546SOL     OW20536   3.990   4.655   6.764
 6546SOL    HW120537   3.905   4.649   6.817
 6546SOL    HW220538   4.066   4.623   6.820
 6547SOL     OW20539   4.886   0.199   5.672
 6547SOL    HW120540   4.946   0.142   5.729
 6547SOL    HW220541   4.810   0.143   5.637
 6548SOL     OW20542   1.243   3.057   6.218
 6548SOL    HW120543   1.148   3.067   6.245
 6548SOL    HW220544   1.300   3.121   6.270
 6549SOL     OW20545   4.784   0.036   1.995
 6549SOL    HW120546   4.796   0.033   2.094
 6549SOL    HW220547   4.686   0.032   1.974
 6550SOL     OW20548   6.985   0.407   3.818
 6550SOL    HW120549   6.905   0.353   3.844
 6550SOL    HW220550   7.010   0.467   3.894
 6551SOL     OW20551   2.724   3.246   1.465
 6551SOL    HW120552   2.744   3.249   1.563
 6551SOL    HW220553   2.807   3.221   1.415
 6552SOL     OW20554   1.909   6.922   0.502
 6552SOL    HW120555   1.950   6.836   0.471
 6552SOL    HW220556   1.852   6.904   0.582
 6553SOL     OW20557   0.518   1.323   2.911
 6553SOL    HW120558   0.550   1.275   2.993
 6553SOL    HW220559   0.505   1.256   2.837
 6554SOL     OW20560   2.813   1.153   5.526
 6554SOL    HW120561   2.771   1.149   5.616
 6554SOL    HW220562   2.752   1.114   5.458
 6555SOL     OW20563   5.863   1.839   4.056
 6555SOL    HW120564   5.818   1.751   4.070
 6555SOL    HW220565   5.958   1.833   4.088
 6556SOL     OW20566   6.346   3.042   2.370
 6556SOL    HW120567   6.246   3.051   2.374
 6556SOL    HW220568   6.382   3.108   2.303
 6557SOL     OW20569   2.045   0.647   2.088
 6557SOL    HW120570   2.103   0.717   2.048
 6557SOL    HW220571   2.093   0.603   2.163
 6558SOL     OW20572   5.732   5.223   0.158
 6558SOL    HW120573   5.685   5.311   0.164
 6558SOL    HW220574   5.708   5.177   0.072
 6559SOL     OW20575   6.877   3.755   6.361
 6559SOL    HW120576   6.832   3.797   6.282
 6559SOL    HW220577   6.894   3.824   6.430
 6560SOL     OW20578   3.692   4.908   0.676
 6560SOL    HW120579   3.726   4.881   0.586
 6560SOL    HW220580   3.608   4.858   0.696
 6561SOL     OW20581   4.073   4.911   1.005
 6561SOL    HW120582   4.128   4.970   0.945
 6561SOL    HW220583   4.002   4.866   0.951
 6562SOL     OW20584   5.226   2.598   1.154
 6562SOL    HW120585   5.287   2.520   1.142
 6562SOL    HW220586   5.224   2.625   1.250
 6563SOL     OW20587   5.177   0.579   6.021
 6563SOL    HW120588   5.146   0.572   6.116
 6563SOL    HW220589   5.174   0.489   5.978
 6564SOL     OW20590   6.585   3.773   1.936
 6564SOL    HW120591   6.619   3.689   1.893
 6564SOL    HW220592   6.570   3.843   1.865
 6565SOL     OW20593   6.196   6.365   3.215
 6565SOL    HW120594   6.275   6.369   3.275
 6565SOL    HW220595   6.112   6.372   3.269
 6566SOL     OW20596   3.096   5.328   2.352
 6566SOL    HW120597   3.153   5.396   2.397
 6566SOL    HW220598   3.154   5.262   2.304
 6567SOL     OW20599   4.151   0.601   1.727
 6567SOL    HW120600   4.124   0.512   1.764
 6567SOL    HW220601   4.249   0.616   1.744
 6568SOL     OW20602   4.183   1.800   2.625
 6568SOL    HW120603   4.280   1.777   2.616
 6568SOL    HW220604   4.132   1.720   2.654
 6569SOL     OW20605   0.727   3.151   6.033
 6569SOL    HW120606   0.712   3.230   6.093
 6569SOL    HW220607   0.763   3.183   5.945
 6570SOL     OW20608   4.154   1.130   2.740
 6570SOL    HW120609   4.116   1.174   2.659
 6570SOL    HW220610   4.149   1.031   2.730
 6571SOL     OW20611   2.455   4.937   3.090
 6571SOL    HW120612   2.396   4.999   3.142
 6571SOL    HW220613   2.542   4.982   3.069
 6572SOL     OW20614   0.808   3.740   4.262
 6572SOL    HW120615   0.867   3.810   4.301
 6572SOL    HW220616   0.852   3.650   4.272
 6573SOL     OW20617   0.930   1.413   3.759
 6573SOL    HW120618   0.915   1.331   3.704
 6573SOL    HW220619   0.879   1.490   3.720
 6574SOL     OW20620   2.612   6.830   3.380
 6574SOL    HW120621   2.700   6.860   3.343
 6574SOL    HW220622   2.553   6.910   3.392
 6575SOL     OW20623   0.470   6.876   3.138
 6575SOL    HW120624   0.433   6.861   3.229
 6575SOL    HW220625   0.449   6.797   3.080
 6576SOL     OW20626   3.382   4.998   0.538
 6576SOL    HW120627   3.412   5.091   0.560
 6576SOL    HW220628   3.311   5.002   0.468
 6577SOL     OW20629   1.894   2.089   3.322
 6577SOL    HW120630   1.824   2.161   3.327
 6577SOL    HW220631   1.981   2.127   3.353
 6578SOL     OW20632   0.626   5.911   1.819
 6578SOL    HW120633   0.716   5.885   1.785
 6578SOL    HW220634   0.591   5.988   1.766
 6579SOL     OW20635   0.083   2.071   4.237
 6579SOL    HW120636   0.076   1.991   4.297
 6579SOL    HW220637   0.076   2.042   4.141
 6580SOL     OW20638   1.137   1.236   0.814
 6580SOL    HW120639   1.204   1.197   0.876
 6580SOL    HW220640   1.147   1.195   0.723
 6581SOL     OW20641   1.445   1.296   0.429
 6581SOL    HW120642   1.423   1.205   0.464
 6581SOL    HW220643   1.508   1.342   0.491
 6582SOL     OW20644   6.495   0.327   2.727
 6582SOL    HW120645   6.429   0.348   2.655
 6582SOL    HW220646   6.585   0.361   2.701
 6583SOL     OW20647   5.280   6.289   5.211
 6583SOL    HW120648   5.316   6.368   5.162
 6583SOL    HW220649   5.352   6.220   5.221
 6584SOL     OW20650   3.605   2.582   0.896
 6584SOL    HW120651   3.682   2.546   0.843
 6584SOL    HW220652   3.524   2.585   0.838
 6585SOL     OW20653   0.056   6.455   6.938
 6585SOL    HW120654   6.984   6.444   6.967
 6585SOL    HW220655   0.074   6.398   6.859
 6586SOL     OW20656   6.356   1.943   6.095
 6586SOL    HW120657   6.411   1.872   6.050
 6586SOL    HW220658   6.331   1.912   6.187
 6587SOL     OW20659   1.021   4.812   6.176
 6587SOL    HW120660   1.058   4.905   6.182
 6587SOL    HW220661   1.095   4.749   6.151
 6588SOL     OW20662   0.589   3.021   0.837
 6588SOL    HW120663   0.641   2.987   0.915
 6588SOL    HW220664   0.645   3.084   0.784
 6589SOL     OW20665   5.172   1.037   2.276
 6589SOL    HW120666   5.157   0.993   2.365
 6589SOL    HW220667   5.093   1.020   2.217
 6590SOL     OW20668   0.532   0.297   5.283
 6590SOL    HW120669   0.470   0.372   5.261
 6590SOL    HW220670   0.495   0.212   5.247
 6591SOL     OW20671   5.265   5.774   3.388
 6591SOL    HW120672   5.261   5.841   3.463
 6591SOL    HW220673   5.212   5.693   3.413
 6592SOL     OW20674   5.361   0.451   3.301
 6592SOL    HW120675   5.398   0.360   3.280
 6592SOL    HW220676   5.437   0.516   3.311
 6593SOL     OW20677   3.084   2.121   2.201
 6593SOL    HW120678   3.003   2.065   2.218
 6593SOL    HW220679   3.061   2.192   2.134
 6594SOL     OW20680   3.682   1.695   5.579
 6594SOL    HW120681   3.747   1.632   5.537
 6594SOL    HW220682   3.716   1.789   5.571
 6595SOL     OW20683   1.380   2.960   5.071
 6595SOL    HW120684   1.381   2.862   5.052
 6595SOL    HW220685   1.410   3.010   4.990
 6596SOL     OW20686   4.155   6.360   3.419
 6596SOL    HW120687   4.227   6.427   3.436
 6596SOL    HW220688   4.073   6.407   3.385
 6597SOL     OW20689   1.360   5.106   1.907
 6597SOL    HW120690   1.306   5.022   1.907
 6597SOL    HW220691   1.407   5.115   1.819
 6598SOL     OW20692   1.875   4.339   3.566
 6598SOL    HW120693   1.945   4.307   3.502
 6598SOL    HW220694   1.920   4.377   3.648
 6599SOL     OW20695   5.112   6.102   0.213
 6599SOL    HW120696   5.094   6.077   0.308
 6599SOL    HW220697   5.208   6.123   0.202
 6600SOL     OW20698   4.044   6.695   4.228
 6600SOL    HW120699   4.043   6.696   4.128
 6600SOL    HW220700   3.958   6.732   4.262
 6601SOL     OW20701   0.582   2.476   3.020
 6601SOL    HW120702   0.654   2.542   3.045
 6601SOL    HW220703   0.607   2.432   2.934
 6602SOL     OW20704   2.549   0.199   1.224
 6602SOL    HW120705   2.616   0.127   1.241
 6602SOL    HW220706   2.549   0.222   1.127
 6603SOL     OW20707   0.723   3.099   3.801
 6603SOL    HW120708   0.749   3.089   3.704
 6603SOL    HW220709   0.797   3.062   3.858
 6604SOL     OW20710   1.944   0.324   1.203
 6604SOL    HW120711   1.952   0.260   1.126
 6604SOL    HW220712   1.932   0.417   1.167
 6605SOL     OW20713   5.883   5.792   1.952
 6605SOL    HW120714   5.880   5.766   1.855
 6605SOL    HW220715   5.839   5.880   1.965
 6606SOL     OW20716   6.789   4.165   2.872
 6606SOL    HW120717   6.876   4.203   2.842
 6606SOL    HW220718   6.720   4.238   2.875
 6607SOL     OW20719   6.577   5.145   3.614
 6607SOL    HW120720   6.653   5.210   3.609
 6607SOL    HW220721   6.614   5.052   3.625
 6608SOL     OW20722   6.818   0.323   0.903
 6608SOL    HW120723   6.898   0.353   0.954
 6608SOL    HW220724   6.767   0.255   0.957
 6609SOL     OW20725   4.993   1.558   6.252
 6609SOL    HW120726   4.911   1.539   6.198
 6609SOL    HW220727   4.968   1.607   6.336
 6610SOL     OW20728   2.905   6.069   0.094
 6610SOL    HW120729   2.951   6.147   0.053
 6610SOL    HW220730   2.806   6.078   0.082
 6611SOL     OW20731   5.136   2.868   3.413
 6611SOL    HW120732   5.052   2.914   3.441
 6611SOL    HW220733   5.131   2.771   3.436
 6612SOL     OW20734   6.495   2.251   6.046
 6612SOL    HW120735   6.400   2.271   6.020
 6612SOL    HW220736   6.555   2.322   6.009
 6613SOL     OW20737   5.779   0.330   6.121
 6613SOL    HW120738   5.807   0.237   6.097
 6613SOL    HW220739   5.860   0.388   6.128
 6614SOL     OW20740   4.587   6.906   0.829
 6614SOL    HW120741   4.668   6.855   0.858
 6614SOL    HW220742   4.565   6.976   0.897
 6615SOL     OW20743   2.267   5.357   0.507
 6615SOL    HW120744   2.180   5.392   0.471
 6615SOL    HW220745   2.316   5.431   0.554
 6616SOL     OW20746   4.732   6.941   5.732
 6616SOL    HW120747   4.670   6.897   5.797
 6616SOL    HW220748   4.697   6.927   5.639
 6617SOL     OW20749   3.931   6.622   3.235
 6617SOL    HW120750   3.882   6.668   3.309
 6617SOL    HW220751   4.030   6.633   3.249
 6618SOL     OW20752   0.590   1.046   3.370
 6618SOL    HW120753   0.558   1.104   3.295
 6618SOL    HW220754   0.661   1.093   3.422
 6619SOL     OW20755   4.680   6.988   3.693
 6619SOL    HW120756   4.693   0.023   3.612
 6619SOL    HW220757   4.585   6.995   3.724
 6620SOL     OW20758   2.020   3.227   3.957
 6620SOL    HW120759   2.075   3.217   3.874
 6620SOL    HW220760   2.070   3.282   4.024
 6621SOL     OW20761   3.830   2.915   4.938
 6621SOL    HW120762   3.886   2.884   4.861
 6621SOL    HW220763   3.770   2.989   4.908
 6622SOL     OW20764   5.909   5.867   1.533
 6622SOL    HW120765   5.908   5.942   1.468
 6622SOL    HW220766   5.983   5.803   1.510
 6623SOL     OW20767   3.679   4.305   5.275
 6623SOL    HW120768   3.704   4.400   5.294
 6623SOL    HW220769   3.669   4.293   5.176
 6624SOL     OW20770   0.699   3.470   5.689
 6624SOL    HW120771   0.673   3.396   5.627
 6624SOL    HW220772   0.643   3.550   5.670
 6625SOL     OW20773   5.879   1.978   5.287
 6625SOL    HW120774   5.857   1.985   5.190
 6625SOL    HW220775   5.878   1.882   5.316
 6626SOL     OW20776   3.330   6.747   5.605
 6626SOL    HW120777   3.340   6.655   5.641
 6626SOL    HW220778   3.357   6.813   5.675
 6627SOL     OW20779   1.791   6.455   4.155
 6627SOL    HW120780   1.878   6.478   4.111
 6627SOL    HW220781   1.792   6.488   4.249
 6628SOL     OW20782   5.179   5.106   3.915
 6628SOL    HW120783   5.130   5.135   3.832
 6628SOL    HW220784   5.203   5.186   3.969
 6629SOL     OW20785   4.421   5.426   6.581
 6629SOL    HW120786   4.327   5.427   6.616
 6629SOL    HW220787   4.479   5.483   6.640
 6630SOL     OW20788   3.502   1.361   1.558
 6630SOL    HW120789   3.519   1.276   1.608
 6630SOL    HW220790   3.498   1.342   1.460
 6631SOL     OW20791   2.160   5.179   4.289
 6631SOL    HW120792   2.235   5.197   4.352
 6631SOL    HW220793   2.075   5.167   4.342
 6632SOL     OW20794   1.635   1.217   1.082
 6632SOL    HW120795   1.601   1.126   1.056
 6632SOL    HW220796   1.559   1.282   1.077
 6633SOL     OW20797   2.825   4.540   6.223
 6633SOL    HW120798   2.849   4.603   6.297
 6633SOL    HW220799   2.733   4.560   6.191
 6634SOL     OW20800   4.847   2.052   5.143
 6634SOL    HW120801   4.875   1.968   5.189
 6634SOL    HW220802   4.757   2.038   5.101
 6635SOL     OW20803   4.929   3.853   3.027
 6635SOL    HW120804   4.951   3.756   3.023
 6635SOL    HW220805   4.956   3.898   2.943
 6636SOL     OW20806   3.200   1.597   1.345
 6636SOL    HW120807   3.232   1.542   1.422
 6636SOL    HW220808   3.248   1.570   1.262
 6637SOL     OW20809   2.740   0.312   6.915
 6637SOL    HW120810   2.664   0.377   6.912
 6637SOL    HW220811   2.717   0.231   6.861
 6638SOL     OW20812   3.225   3.448   3.112
 6638SOL    HW120813   3.241   3.454   3.210
 6638SOL    HW220814   3.268   3.365   3.075
 6639SOL     OW20815   3.711   3.262   6.492
 6639SOL    HW120816   3.643   3.330   6.467
 6639SOL    HW220817   3.670   3.197   6.556
 6640SOL     OW20818   6.845   2.648   5.605
 6640SOL    HW120819   6.809   2.560   5.574
 6640SOL    HW220820   6.931   2.667   5.557
 6641SOL     OW20821   3.705   1.825   0.146
 6641SOL    HW120822   3.725   1.861   0.055
 6641SOL    HW220823   3.664   1.897   0.203
 6642SOL     OW20824   2.457   5.077   6.081
 6642SOL    HW120825   2.527   5.059   6.012
 6642SOL    HW220826   2.453   5.000   6.145
 6643SOL     OW20827   6.710   6.836   0.721
 6643SOL    HW120828   6.798   6.803   0.685
 6643SOL    HW220829   6.648   6.855   0.645
 6644SOL     OW20830   1.774   5.956   3.731
 6644SOL    HW120831   1.757   6.052   3.710
 6644SOL    HW220832   1.862   5.946   3.778
 6645SOL     OW20833   6.013   3.281   0.524
 6645SOL    HW120834   6.033   3.250   0.431
 6645SOL    HW220835   6.073   3.233   0.589
 6646SOL     OW20836   4.688   0.474   6.181
 6646SOL    HW120837   4.607   0.444   6.132
 6646SOL    HW220838   4.762   0.492   6.117
 6647SOL     OW20839   4.572   6.531   1.160
 6647SOL    HW120840   4.523   6.618   1.148
 6647SOL    HW220841   4.638   6.520   1.085
 6648SOL     OW20842   3.441   5.873   4.535
 6648SOL    HW120843   3.496   5.828   4.605
 6648SOL    HW220844   3.502   5.916   4.467
 6649SOL     OW20845   6.067   2.870   6.523
 6649SOL    HW120846   6.153   2.846   6.568
 6649SOL    HW220847   6.081   2.873   6.424
 6650SOL     OW20848   3.968   1.387   4.845
 6650SOL    HW120849   3.908   1.340   4.781
 6650SOL    HW220850   4.063   1.376   4.816
 6651SOL     OW20851   1.550   2.052   6.796
 6651SOL    HW120852   1.452   2.032   6.805
 6651SOL    HW220853   1.562   2.127   6.731
 6652SOL     OW20854   0.845   4.567   6.930
 6652SOL    HW120855   0.773   4.601   6.991
 6652SOL    HW220856   0.884   4.643   6.878
 6653SOL     OW20857   5.039   3.111   0.862
 6653SOL    HW120858   5.094   3.195   0.859
 6653SOL    HW220859   4.994   3.103   0.951
 6654SOL     OW20860   0.470   5.254   2.504
 6654SOL    HW120861   0.399   5.296   2.447
 6654SOL    HW220862   0.496   5.317   2.577
 6655SOL     OW20863   0.220   6.099   1.893
 6655SOL    HW120864   0.235   6.070   1.798
 6655SOL    HW220865   0.289   6.057   1.952
 6656SOL     OW20866   5.099   2.177   3.197
 6656SOL    HW120867   5.114   2.107   3.127
 6656SOL    HW220868   5.084   2.266   3.153
 6657SOL     OW20869   5.958   2.906   4.507
 6657SOL    HW120870   5.881   2.857   4.465
 6657SOL    HW220871   6.000   2.847   4.576
 6658SOL     OW20872   6.376   6.785   5.708
 6658SOL    HW120873   6.444   6.719   5.741
 6658SOL    HW220874   6.348   6.761   5.615
 6659SOL     OW20875   1.197   3.865   1.573
 6659SOL    HW120876   1.271   3.798   1.574
 6659SOL    HW220877   1.223   3.944   1.629
 6660SOL     OW20878   1.837   5.129   1.682
 6660SOL    HW120879   1.804   5.222   1.700
 6660SOL    HW220880   1.826   5.073   1.765
 6661SOL     OW20881   2.949   0.754   4.693
 6661SOL    HW120882   2.914   0.796   4.776
 6661SOL    HW220883   3.001   0.821   4.640
 6662SOL     OW20884   2.181   0.482   0.780
 6662SOL    HW120885   2.102   0.421   0.786
 6662SOL    HW220886   2.214   0.504   0.872
 6663SOL     OW20887   0.697   6.526   5.178
 6663SOL    HW120888   0.769   6.466   5.142
 6663SOL    HW220889   0.621   6.471   5.211
 6664SOL     OW20890   2.160   0.584   1.035
 6664SOL    HW120891   2.060   0.572   1.038
 6664SOL    HW220892   2.192   0.610   1.126
 6665SOL     OW20893   1.749   6.449   5.527
 6665SOL    HW120894   1.823   6.382   5.520
 6665SOL    HW220895   1.709   6.445   5.619
 6666SOL     OW20896   6.331   5.621   5.150
 6666SOL    HW120897   6.284   5.590   5.068
 6666SOL    HW220898   6.293   5.574   5.230
 6667SOL     OW20899   6.435   6.297   6.012
 6667SOL    HW120900   6.385   6.353   5.946
 6667SOL    HW220901   6.521   6.342   6.035
 6668SOL     OW20902   6.899   5.976   1.303
 6668SOL    HW120903   6.850   6.006   1.221
 6668SOL    HW220904   6.958   5.898   1.281
 6669SOL     OW20905   3.679   2.027   1.440
 6669SOL    HW120906   3.700   2.079   1.523
 6669SOL    HW220907   3.643   2.090   1.371
 6670SOL     OW20908   3.253   0.877   6.405
 6670SOL    HW120909   3.180   0.903   6.341
 6670SOL    HW220910   3.223   0.895   6.498
 6671SOL     OW20911   5.801   6.580   0.804
 6671SOL    HW120912   5.805   6.522   0.722
 6671SOL    HW220913   5.891   6.586   0.845
 6672SOL     OW20914   1.306   2.468   0.211
 6672SOL    HW120915   1.379   2.417   0.255
 6672SOL    HW220916   1.266   2.412   0.138
 6673SOL     OW20917   4.875   4.072   3.583
 6673SOL    HW120918   4.806   4.140   3.607
 6673SOL    HW220919   4.840   4.014   3.510
 6674SOL     OW20920   0.164   3.207   6.777
 6674SOL    HW120921   0.224   3.142   6.824
 6674SOL    HW220922   0.202   3.228   6.687
 6675SOL     OW20923   5.360   2.281   0.527
 6675SOL    HW120924   5.458   2.263   0.522
 6675SOL    HW220925   5.324   2.249   0.615
 6676SOL     OW20926   0.971   3.489   2.940
 6676SOL    HW120927   0.954   3.391   2.927
 6676SOL    HW220928   1.060   3.501   2.984
 6677SOL     OW20929   0.755   1.121   6.866
 6677SOL    HW120930   0.722   1.208   6.830
 6677SOL    HW220931   0.757   1.053   6.793
 6678SOL     OW20932   2.041   4.347   0.865
 6678SOL    HW120933   2.057   4.330   0.768
 6678SOL    HW220934   1.948   4.319   0.889
 6679SOL     OW20935   4.050   0.801   4.014
 6679SOL    HW120936   3.963   0.805   3.965
 6679SOL    HW220937   4.125   0.806   3.949
 6680SOL     OW20938   4.630   6.104   6.686
 6680SOL    HW120939   4.713   6.156   6.705
 6680SOL    HW220940   4.570   6.108   6.766
 6681SOL     OW20941   4.758   5.316   1.092
 6681SOL    HW120942   4.684   5.248   1.101
 6681SOL    HW220943   4.741   5.392   1.155
 6682SOL     OW20944   2.041   4.545   6.840
 6682SOL    HW120945   2.069   4.641   6.831
 6682SOL    HW220946   2.054   4.499   6.752
 6683SOL     OW20947   6.057   3.345   6.058
 6683SOL    HW120948   6.071   3.288   6.139
 6683SOL    HW220949   6.004   3.426   6.083
 6684SOL     OW20950   3.869   6.887   2.113
 6684SOL    HW120951   3.853   6.985   2.113
 6684SOL    HW220952   3.812   6.844   2.042
 6685SOL     OW20953   5.018   2.299   6.289
 6685SOL    HW120954   5.118   2.298   6.288
 6685SOL    HW220955   4.985   2.340   6.373
 6686SOL     OW20956   5.846   6.063   3.651
 6686SOL    HW120957   5.920   6.075   3.584
 6686SOL    HW220958   5.761   6.041   3.603
 6687SOL     OW20959   0.487   2.728   2.226
 6687SOL    HW120960   0.493   2.816   2.179
 6687SOL    HW220961   0.571   2.676   2.211
 6688SOL     OW20962   4.031   4.675   0.599
 6688SOL    HW120963   4.127   4.700   0.586
 6688SOL    HW220964   3.992   4.646   0.512
 6689SOL     OW20965   4.293   3.491   5.865
 6689SOL    HW120966   4.207   3.534   5.894
 6689SOL    HW220967   4.293   3.482   5.765
 6690SOL     OW20968   1.170   6.607   0.158
 6690SOL    HW120969   1.175   6.619   0.257
 6690SOL    HW220970   1.170   6.509   0.137
 6691SOL     OW20971   1.963   0.349   2.436
 6691SOL    HW120972   1.944   0.447   2.435
 6691SOL    HW220973   1.943   0.313   2.527
 6692SOL     OW20974   4.102   3.802   2.056
 6692SOL    HW120975   4.130   3.707   2.042
 6692SOL    HW220976   4.166   3.863   2.010
 6693SOL     OW20977   4.623   1.992   5.014
 6693SOL    HW120978   4.542   2.043   4.985
 6693SOL    HW220979   4.601   1.939   5.096
 6694SOL     OW20980   4.739   6.406   1.332
 6694SOL    HW120981   4.798   6.359   1.266
 6694SOL    HW220982   4.663   6.449   1.284
 6695SOL     OW20983   2.953   1.905   6.886
 6695SOL    HW120984   3.052   1.894   6.893
 6695SOL    HW220985   2.925   1.892   6.791
 6696SOL     OW20986   4.036   3.521   3.239
 6696SOL    HW120987   4.031   3.457   3.316
 6696SOL    HW220988   4.038   3.615   3.274
 6697SOL     OW20989   4.842   2.442   3.518
 6697SOL    HW120990   4.802   2.533   3.511
 6697SOL    HW220991   4.777   2.379   3.561
 6698SOL     OW20992   3.320   3.356   1.181
 6698SOL    HW120993   3.334   3.344   1.280
 6698SOL    HW220994   3.248   3.295   1.150
 6699SOL     OW20995   2.309   6.845   5.533
 6699SOL    HW120996   2.378   6.916   5.549
 6699SOL    HW220997   2.354   6.757   5.519
 6700SOL     OW20998   5.865   1.236   0.952
 6700SOL    HW120999   5.807   1.170   0.998
 6700SOL    HW221000   5.812   1.318   0.930
 6701SOL     OW21001   5.622   6.244   1.567
 6701SOL    HW121002   5.674   6.304   1.505
 6701SOL    HW221003   5.528   6.237   1.535
 6702SOL     OW21004   1.930   2.647   1.789
 6702SOL    HW121005   2.015   2.654   1.841
 6702SOL    HW221006   1.853   2.675   1.847
 6703SOL     OW21007   0.958   1.214   0.433
 6703SOL    HW121008   0.916   1.131   0.471
 6703SOL    HW221009   1.048   1.192   0.396
 6704SOL     OW21010   4.467   2.482   4.675
 6704SOL    HW121011   4.545   2.543   4.661
 6704SOL    HW221012   4.447   2.477   4.773
 6705SOL     OW21013   5.935   2.680   0.639
 6705SOL    HW121014   5.882   2.751   0.594
 6705SOL    HW221015   5.947   2.703   0.736
 6706SOL     OW21016   1.992   6.167   0.601
 6706SOL    HW121017   1.976   6.069   0.585
 6706SOL    HW221018   2.083   6.191   0.569
 6707SOL     OW21019   5.395   6.820   3.130
 6707SOL    HW121020   5.427   6.886   3.063
 6707SOL    HW221021   5.392   6.729   3.088
 6708SOL     OW21022   5.749   5.361   0.916
 6708SOL    HW121023   5.765   5.315   1.003
 6708SOL    HW221024   5.665   5.414   0.921
 6709SOL     OW21025   0.403   5.172   3.133
 6709SOL    HW121026   0.343   5.124   3.197
 6709SOL    HW221027   0.450   5.106   3.075
 6710SOL     OW21028   4.181   1.429   0.799
 6710SOL    HW121029   4.242   1.498   0.839
 6710SOL    HW221030   4.236   1.356   0.758
 6711SOL     OW21031   5.242   6.889   5.990
 6711SOL    HW121032   5.256   6.829   5.911
 6711SOL    HW221033   5.143   6.902   6.004
 6712SOL     OW21034   6.038   3.162   1.296
 6712SOL    HW121035   6.078   3.152   1.206
 6712SOL    HW221036   6.102   3.130   1.366
 6713SOL     OW21037   1.077   0.928   3.222
 6713SOL    HW121038   1.004   0.938   3.291
 6713SOL    HW221039   1.117   0.836   3.230
 6714SOL     OW21040   5.764   1.175   0.616
 6714SOL    HW121041   5.853   1.137   0.640
 6714SOL    HW221042   5.768   1.275   0.620
 6715SOL     OW21043   1.614   0.464   1.448
 6715SOL    HW121044   1.604   0.523   1.368
 6715SOL    HW221045   1.572   0.508   1.528
 6716SOL     OW21046   6.930   5.906   2.088
 6716SOL    HW121047   6.902   5.841   2.018
 6716SOL    HW221048   6.968   5.856   2.166
 6717SOL     OW21049   2.394   2.420   6.349
 6717SOL    HW121050   2.439   2.347   6.297
 6717SOL    HW221051   2.459   2.493   6.367
 6718SOL     OW21052   3.808   0.629   1.160
 6718SOL    HW121053   3.856   0.550   1.199
 6718SOL    HW221054   3.853   0.713   1.191
 6719SOL     OW21055   2.026   6.961   0.208
 6719SOL    HW121056   2.020   0.021   0.153
 6719SOL    HW221057   1.938   6.945   0.253
 6720SOL     OW21058   2.247   1.122   4.502
 6720SOL    HW121059   2.330   1.163   4.466
 6720SOL    HW221060   2.168   1.180   4.480
 6721SOL     OW21061   6.839   6.663   0.442
 6721SOL    HW121062   6.879   6.698   0.527
 6721SOL    HW221063   6.790   6.579   0.460
 6722SOL     OW21064   0.005   2.767   6.935
 6722SOL    HW121065   6.954   2.746   6.872
 6722SOL    HW221066   7.023   2.864   6.962
 6723SOL     OW21067   1.539   6.761   5.607
 6723SOL    HW121068   1.493   6.839   5.649
 6723SOL    HW221069   1.508   6.751   5.513
 6724SOL     OW21070   2.185   2.587   6.259
 6724SOL    HW121071   2.272   2.540   6.275
 6724SOL    HW221072   2.109   2.530   6.291
 6725SOL     OW21073   6.746   2.412   2.096
 6725SOL    HW121074   6.717   2.357   2.174
 6725SOL    HW221075   6.670   2.470   2.066
 6726SOL     OW21076   0.244   2.147   4.027
 6726SOL    HW121077   0.172   2.179   3.965
 6726SOL    HW221078   0.219   2.171   4.121
 6727SOL     OW21079   0.222   4.432   5.629
 6727SOL    HW121080   0.292   4.477   5.683
 6727SOL    HW221081   0.252   4.339   5.605
 6728SOL     OW21082   3.597   1.972   2.959
 6728SOL    HW121083   3.657   2.046   2.927
 6728SOL    HW221084   3.643   1.921   3.032
 6729SOL     OW21085   0.038   1.646   1.020
 6729SOL    HW121086   0.131   1.684   1.015
 6729SOL    HW221087   6.999   1.715   1.055
 6730SOL     OW21088   1.973   0.096   1.025
 6730SOL    HW121089   1.902   0.027   1.037
 6730SOL    HW221090   2.058   0.063   1.065
 6731SOL     OW21091   1.506   6.687   0.876
 6731SOL    HW121092   1.428   6.633   0.844
 6731SOL    HW221093   1.477   6.750   0.947
 6732SOL     OW21094   5.268   4.148   4.534
 6732SOL    HW121095   5.278   4.195   4.622
 6732SOL    HW221096   5.185   4.180   4.489
 6733SOL     OW21097   3.964   5.713   6.196
 6733SOL    HW121098   4.052   5.706   6.149
 6733SOL    HW221099   3.969   5.786   6.265
 6734SOL     OW21100   5.364   2.169   6.087
 6734SOL    HW121101   5.424   2.128   6.155
 6734SOL    HW221102   5.331   2.098   6.024
 6735SOL     OW21103   5.811   3.440   4.008
 6735SOL    HW121104   5.827   3.503   3.932
 6735SOL    HW221105   5.840   3.348   3.981
 6736SOL     OW21106   3.314   3.753   6.229
 6736SOL    HW121107   3.340   3.683   6.163
 6736SOL    HW221108   3.348   3.728   6.320
 6737SOL     OW21109   1.244   3.370   1.108
 6737SOL    HW121110   1.185   3.388   1.029
 6737SOL    HW221111   1.228   3.276   1.140
 6738SOL     OW21112   1.851   5.382   4.014
 6738SOL    HW121113   1.847   5.283   4.031
 6738SOL    HW221114   1.916   5.424   4.077
 6739SOL     OW21115   6.191   5.724   3.801
 6739SOL    HW121116   6.119   5.786   3.832
 6739SOL    HW221117   6.150   5.653   3.743
 6740SOL     OW21118   6.509   0.599   5.315
 6740SOL    HW121119   6.449   0.637   5.386
 6740SOL    HW221120   6.474   0.623   5.225
 6741SOL     OW21121   3.364   1.748   5.526
 6741SOL    HW121122   3.453   1.714   5.494
 6741SOL    HW221123   3.299   1.672   5.531
 6742SOL     OW21124   5.572   5.504   3.340
 6742SOL    HW121125   5.519   5.521   3.423
 6742SOL    HW221126   5.526   5.546   3.262
 6743SOL     OW21127   3.713   3.995   6.435
 6743SOL    HW121128   3.658   4.078   6.437
 6743SOL    HW221129   3.685   3.935   6.511
 6744SOL     OW21130   0.036   6.776   5.489
 6744SOL    HW121131   7.008   6.696   5.517
 6744SOL    HW221132   0.117   6.786   5.548
 6745SOL     OW21133   6.612   6.098   3.793
 6745SOL    HW121134   6.630   6.185   3.839
 6745SOL    HW221135   6.670   6.027   3.833
 6746SOL     OW21136   1.029   0.488   3.845
 6746SOL    HW121137   1.066   0.414   3.788
 6746SOL    HW221138   1.102   0.525   3.902
 6747SOL     OW21139   5.991   0.244   0.128
 6747SOL    HW121140   5.927   0.198   0.067
 6747SOL    HW221141   5.975   0.343   0.124
 6748SOL     OW21142   3.231   1.752   3.314
 6748SOL    HW121143   3.329   1.770   3.307
 6748SOL    HW221144   3.180   1.830   3.279
 6749SOL     OW21145   4.099   4.378   0.892
 6749SOL    HW121146   4.069   4.372   0.797
 6749SOL    HW221147   4.030   4.428   0.945
 6750SOL     OW21148   3.142   1.926   4.382
 6750SOL    HW121149   3.180   2.016   4.360
 6750SOL    HW221150   3.214   1.869   4.423
 6751SOL     OW21151   4.709   0.808   3.283
 6751SOL    HW121152   4.649   0.728   3.275
 6751SOL    HW221153   4.788   0.785   3.339
 6752SOL     OW21154   2.047   0.171   2.707
 6752SOL    HW121155   2.132   0.221   2.691
 6752SOL    HW221156   1.991   0.222   2.773
 6753SOL     OW21157   3.481   1.421   6.306
 6753SOL    HW121158   3.465   1.415   6.208
 6753SOL    HW221159   3.457   1.512   6.339
 6754SOL     OW21160   6.742   1.367   0.845
 6754SOL    HW121161   6.655   1.416   0.848
 6754SOL    HW221162   6.746   1.310   0.764
 6755SOL     OW21163   4.267   4.033   1.277
 6755SOL    HW121164   4.248   4.131   1.279
 6755SOL    HW221165   4.335   4.011   1.346
 6756SOL     OW21166   3.732   6.955   5.518
 6756SOL    HW121167   3.820   6.995   5.542
 6756SOL    HW221168   3.723   6.865   5.561
 6757SOL     OW21169   3.830   2.458   0.780
 6757SOL    HW121170   3.841   2.418   0.689
 6757SOL    HW221171   3.865   2.394   0.848
 6758SOL     OW21172   6.366   2.808   1.411
 6758SOL    HW121173   6.393   2.770   1.323
 6758SOL    HW221174   6.272   2.781   1.433
 6759SOL     OW21175   0.425   3.206   2.429
 6759SOL    HW121176   0.458   3.178   2.519
 6759SOL    HW221177   0.340   3.158   2.408
 6760SOL     OW21178   6.465   3.757   2.392
 6760SOL    HW121179   6.555   3.746   2.349
 6760SOL    HW221180   6.463   3.704   2.477
 6761SOL     OW21181   5.725   3.229   4.988
 6761SOL    HW121182   5.648   3.273   4.942
 6761SOL    HW221183   5.808   3.282   4.971
 6762SOL     OW21184   0.736   5.212   4.309
 6762SOL    HW121185   0.766   5.199   4.214
 6762SOL    HW221186   0.650   5.262   4.309
 6763SOL     OW21187   5.574   5.608   3.997
 6763SOL    HW121188   5.594   5.512   4.013
 6763SOL    HW221189   5.625   5.639   3.917
 6764SOL     OW21190   2.546   5.260   1.648
 6764SOL    HW121191   2.635   5.277   1.606
 6764SOL    HW221192   2.481   5.329   1.616
 6765SOL     OW21193   5.795   5.134   2.993
 6765SOL    HW121194   5.707   5.087   3.002
 6765SOL    HW221195   5.857   5.101   3.064
 6766SOL     OW21196   5.199   6.421   5.759
 6766SOL    HW121197   5.289   6.465   5.762
 6766SOL    HW221198   5.174   6.402   5.664
 6767SOL     OW21199   3.165   0.534   1.220
 6767SOL    HW121200   3.112   0.599   1.165
 6767SOL    HW221201   3.189   0.455   1.164
 6768SOL     OW21202   1.840   0.933   5.416
 6768SOL    HW121203   1.882   1.017   5.382
 6768SOL    HW221204   1.868   0.856   5.359
 6769SOL     OW21205   3.236   1.746   0.342
 6769SOL    HW121206   3.158   1.688   0.365
 6769SOL    HW221207   3.320   1.692   0.340
 6770SOL     OW21208   0.092   1.117   2.133
 6770SOL    HW121209   0.126   1.023   2.138
 6770SOL    HW221210   0.098   1.160   2.223
 6771SOL     OW21211   5.029   2.531   3.746
 6771SOL    HW121212   4.979   2.501   3.664
 6771SOL    HW221213   5.116   2.572   3.720
 6772SOL     OW21214   3.442   2.128   3.170
 6772SOL    HW121215   3.532   2.100   3.137
 6772SOL    HW221216   3.390   2.168   3.095
 6773SOL     OW21217   6.586   5.338   2.074
 6773SOL    HW121218   6.565   5.241   2.089
 6773SOL    HW221219   6.667   5.363   2.126
 6774SOL     OW21220   0.465   2.131   5.581
 6774SOL    HW121221   0.430   2.203   5.522
 6774SOL    HW221222   0.540   2.083   5.535
 6775SOL     OW21223   2.435   2.963   1.686
 6775SOL    HW121224   2.380   3.039   1.650
 6775SOL    HW221225   2.503   2.936   1.618
 6776SOL     OW21226   4.235   4.969   0.451
 6776SOL    HW121227   4.161   5.008   0.397
 6776SOL    HW221228   4.306   5.039   0.466
 6777SOL     OW21229   4.357   4.125   6.973
 6777SOL    HW121230   4.284   4.098   6.909
 6777SOL    HW221231   4.439   4.071   6.954
 6778SOL     OW21232   5.883   4.771   2.102
 6778SOL    HW121233   5.792   4.730   2.095
 6778SOL    HW221234   5.881   4.864   2.066
 6779SOL     OW21235   6.438   5.439   6.452
 6779SOL    HW121236   6.520   5.463   6.399
 6779SOL    HW221237   6.427   5.503   6.527
 6780SOL     OW21238   1.542   2.977   2.048
 6780SOL    HW121239   1.624   3.033   2.045
 6780SOL    HW221240   1.565   2.885   2.082
 6781SOL     OW21241   6.523   0.545   4.792
 6781SOL    HW121242   6.515   0.447   4.809
 6781SOL    HW221243   6.432   0.587   4.789
 6782SOL     OW21244   6.902   0.412   3.534
 6782SOL    HW121245   6.944   0.414   3.625
 6782SOL    HW221246   6.966   0.447   3.466
 6783SOL     OW21247   6.144   1.169   5.762
 6783SOL    HW121248   6.101   1.150   5.673
 6783SOL    HW221249   6.244   1.161   5.752
 6784SOL     OW21250   2.653   4.189   1.090
 6784SOL    HW121251   2.593   4.168   1.168
 6784SOL    HW221252   2.711   4.110   1.070
 6785SOL     OW21253   5.382   5.052   3.665
 6785SOL    HW121254   5.472   5.035   3.705
 6785SOL    HW221255   5.313   5.054   3.737
 6786SOL     OW21256   2.040   2.229   6.981
 6786SOL    HW121257   1.960   2.212   0.016
 6786SOL    HW221258   2.099   2.148   6.983
 6787SOL     OW21259   2.130   2.422   1.260
 6787SOL    HW121260   2.037   2.394   1.233
 6787SOL    HW221261   2.125   2.478   1.342
 6788SOL     OW21262   2.313   3.687   1.539
 6788SOL    HW121263   2.355   3.731   1.459
 6788SOL    HW221264   2.383   3.637   1.590
 6789SOL     OW21265   6.777   5.580   3.220
 6789SOL    HW121266   6.730   5.668   3.218
 6789SOL    HW221267   6.845   5.577   3.146
 6790SOL     OW21268   0.748   3.880   1.254
 6790SOL    HW121269   0.687   3.859   1.330
 6790SOL    HW221270   0.742   3.977   1.231
 6791SOL     OW21271   4.055   2.295   1.533
 6791SOL    HW121272   3.981   2.282   1.600
 6791SOL    HW221273   4.109   2.212   1.527
 6792SOL     OW21274   6.201   5.524   5.368
 6792SOL    HW121275   6.245   5.525   5.458
 6792SOL    HW221276   6.155   5.436   5.354
 6793SOL     OW21277   0.970   2.066   0.961
 6793SOL    HW121278   0.966   2.059   1.061
 6793SOL    HW221279   1.060   2.099   0.934
 6794SOL     OW21280   5.065   1.671   6.646
 6794SOL    HW121281   5.024   1.671   6.737
 6794SOL    HW221282   4.998   1.705   6.580
 6795SOL     OW21283   2.601   6.789   1.317
 6795SOL    HW121284   2.524   6.728   1.338
 6795SOL    HW221285   2.683   6.734   1.301
 6796SOL     OW21286   6.361   1.017   1.946
 6796SOL    HW121287   6.311   0.933   1.925
 6796SOL    HW221288   6.460   0.998   1.947
 6797SOL     OW21289   5.316   2.862   1.891
 6797SOL    HW121290   5.285   2.778   1.936
 6797SOL    HW221291   5.267   2.941   1.931
 6798SOL     OW21292   4.937   6.863   1.881
 6798SOL    HW121293   4.889   6.930   1.937
 6798SOL    HW221294   4.874   6.789   1.856
 6799SOL     OW21295   6.724   6.651   1.214
 6799SOL    HW121296   6.651   6.706   1.173
 6799SOL    HW221297   6.775   6.604   1.142
 6800SOL     OW21298   2.095   3.919   1.065
 6800SOL    HW121299   1.996   3.936   1.061
 6800SOL    HW221300   2.142   3.977   0.999
 6801SOL     OW21301   0.610   0.148   2.821
 6801SOL    HW121302   0.580   0.056   2.846
 6801SOL    HW221303   0.592   0.164   2.724
 6802SOL     OW21304   3.297   5.795   0.722
 6802SOL    HW121305   3.296   5.704   0.682
 6802SOL    HW221306   3.382   5.809   0.772
 6803SOL     OW21307   5.086   3.061   5.951
 6803SOL    HW121308   5.148   3.137   5.969
 6803SOL    HW221309   4.997   3.098   5.922
 6804SOL     OW21310   3.440   5.236   4.077
 6804SOL    HW121311   3.503   5.220   4.001
 6804SOL    HW221312   3.365   5.294   4.045
 6805SOL     OW21313   6.295   4.807   6.356
 6805SOL    HW121314   6.211   4.837   6.402
 6805SOL    HW221315   6.343   4.743   6.416
 6806SOL     OW21316   6.185   0.247   3.968
 6806SOL    HW121317   6.271   0.196   3.959
 6806SOL    HW221318   6.139   0.252   3.880
 6807SOL     OW21319   3.227   3.193   0.175
 6807SOL    HW121320   3.277   3.143   0.104
 6807SOL    HW221321   3.140   3.148   0.192
 6808SOL     OW21322   0.328   1.957   5.049
 6808SOL    HW121323   0.340   1.863   5.079
 6808SOL    HW221324   0.231   1.976   5.036
 6809SOL     OW21325   1.197   3.103   1.158
 6809SOL    HW121326   1.099   3.107   1.174
 6809SOL    HW221327   1.218   3.028   1.096
 6810SOL     OW21328   1.930   0.162   1.673
 6810SOL    HW121329   1.955   0.189   1.766
 6810SOL    HW221330   1.900   0.242   1.621
 6811SOL     OW21331   5.393   3.881   0.868
 6811SOL    HW121332   5.465   3.821   0.833
 6811SOL    HW221333   5.304   3.846   0.839
 6812SOL     OW21334   3.261   3.447   3.406
 6812SOL    HW121335   3.308   3.360   3.394
 6812SOL    HW221336   3.234   3.457   3.502
 6813SOL     OW21337   5.062   2.442   3.087
 6813SOL    HW121338   5.115   2.519   3.122
 6813SOL    HW221339   4.970   2.473   3.063
 6814SOL     OW21340   3.235   1.885   6.226
 6814SOL    HW121341   3.312   1.940   6.193
 6814SOL    HW221342   3.158   1.946   6.244
 6815SOL     OW21343   3.331   0.029   1.704
 6815SOL    HW121344   3.241   0.047   1.744
 6815SOL    HW221345   3.401   0.075   1.758
 6816SOL     OW21346   0.585   0.176   0.026
 6816SOL    HW121347   0.525   0.113   7.000
 6816SOL    HW221348   0.677   0.171   7.010
 6817SOL     OW21349   1.420   2.484   3.637
 6817SOL    HW121350   1.519   2.496   3.641
 6817SOL    HW221351   1.399   2.400   3.587
 6818SOL     OW21352   2.936   5.163   1.828
 6818SOL    HW121353   2.931   5.095   1.755
 6818SOL    HW221354   2.892   5.126   1.910
 6819SOL     OW21355   5.008   0.776   4.583
 6819SOL    HW121356   4.971   0.761   4.675
 6819SOL    HW221357   5.085   0.715   4.567
 6820SOL     OW21358   1.662   5.908   2.928
 6820SOL    HW121359   1.606   5.904   3.010
 6820SOL    HW221360   1.674   5.816   2.890
 6821SOL     OW21361   3.304   1.081   4.432
 6821SOL    HW121362   3.393   1.036   4.436
 6821SOL    HW221363   3.307   1.165   4.487
 6822SOL     OW21364   5.485   2.487   0.043
 6822SOL    HW121365   5.460   2.464   0.137
 6822SOL    HW221366   5.410   2.465   7.004
 6823SOL     OW21367   3.855   3.331   4.725
 6823SOL    HW121368   3.899   3.357   4.639
 6823SOL    HW221369   3.778   3.393   4.743
 6824SOL     OW21370   0.886   2.546   6.625
 6824SOL    HW121371   0.966   2.499   6.587
 6824SOL    HW221372   0.862   2.504   6.713
 6825SOL     OW21373   5.084   6.866   2.146
 6825SOL    HW121374   5.126   6.956   2.156
 6825SOL    HW221375   5.047   6.856   2.054
 6826SOL     OW21376   2.077   4.218   2.286
 6826SOL    HW121377   2.134   4.136   2.276
 6826SOL    HW221378   2.125   4.297   2.248
 6827SOL     OW21379   4.762   5.720   6.171
 6827SOL    HW121380   4.718   5.798   6.125
 6827SOL    HW221381   4.861   5.732   6.170
 6828SOL     OW21382   2.947   2.136   1.560
 6828SOL    HW121383   2.973   2.223   1.603
 6828SOL    HW221384   2.848   2.127   1.561
 6829SOL     OW21385   4.525   6.285   4.114
 6829SOL    HW121386   4.514   6.188   4.095
 6829SOL    HW221387   4.556   6.297   4.208
 6830SOL     OW21388   5.123   1.307   4.014
 6830SOL    HW121389   5.071   1.221   4.019
 6830SOL    HW221390   5.061   1.384   4.031
 6831SOL     OW21391   1.276   0.550   6.723
 6831SOL    HW121392   1.291   0.607   6.643
 6831SOL    HW221393   1.222   0.469   6.698
 6832SOL     OW21394   2.213   4.126   0.900
 6832SOL    HW121395   2.175   4.217   0.916
 6832SOL    HW221396   2.188   4.095   0.808
 6833SOL     OW21397   3.849   3.722   6.096
 6833SOL    HW121398   3.793   3.797   6.061
 6833SOL    HW221399   3.887   3.670   6.020
 6834SOL     OW21400   5.128   6.359   0.881
 6834SOL    HW121401   5.185   6.287   0.921
 6834SOL    HW221402   5.180   6.445   0.878
 6835SOL     OW21403   3.618   6.948   4.391
 6835SOL    HW121404   3.610   7.022   4.458
 6835SOL    HW221405   3.549   6.878   4.411
 6836SOL     OW21406   2.994   5.497   6.974
 6836SOL    HW121407   3.088   5.473   6.999
 6836SOL    HW221408   2.930   5.446   0.008
 6837SOL     OW21409   0.704   1.692   2.643
 6837SOL    HW121410   0.789   1.744   2.647
 6837SOL    HW221411   0.639   1.740   2.584
 6838SOL     OW21412   2.796   6.181   0.428
 6838SOL    HW121413   2.854   6.099   0.419
 6838SOL    HW221414   2.840   6.258   0.382
 6839SOL     OW21415   5.400   0.641   0.027
 6839SOL    HW121416   5.303   0.663   0.019
 6839SOL    HW221417   5.438   0.687   0.107
 6840SOL     OW21418   2.832   0.982   4.900
 6840SOL    HW121419   2.741   1.005   4.868
 6840SOL    HW221420   2.869   1.058   4.953
 6841SOL     OW21421   4.950   4.373   6.378
 6841SOL    HW121422   5.043   4.357   6.411
 6841SOL    HW221423   4.946   4.458   6.327
 6842SOL     OW21424   2.888   4.124   1.387
 6842SOL    HW121425   2.937   4.118   1.300
 6842SOL    HW221426   2.846   4.035   1.408
 6843SOL     OW21427   6.070   6.383   0.899
 6843SOL    HW121428   6.025   6.456   0.950
 6843SOL    HW221429   6.019   6.298   0.909
 6844SOL     OW21430   5.798   0.957   4.593
 6844SOL    HW121431   5.779   0.986   4.687
 6844SOL    HW221432   5.714   0.964   4.538
 6845SOL     OW21433   5.936   3.658   3.236
 6845SOL    HW121434   5.909   3.577   3.183
 6845SOL    HW221435   5.933   3.739   3.177
 6846SOL     OW21436   3.905   3.141   6.939
 6846SOL    HW121437   3.999   3.117   6.962
 6846SOL    HW221438   3.845   3.121   7.017
 6847SOL     OW21439   0.014   3.411   4.895
 6847SOL    HW121440   6.956   3.457   4.932
 6847SOL    HW221441   0.057   3.471   4.828
 6848SOL     OW21442   5.389   4.517   3.420
 6848SOL    HW121443   5.324   4.443   3.404
 6848SOL    HW221444   5.432   4.542   3.334
 6849SOL     OW21445   4.447   3.756   5.362
 6849SOL    HW121446   4.425   3.721   5.453
 6849SOL    HW221447   4.461   3.679   5.300
 6850SOL     OW21448   5.382   2.988   2.973
 6850SOL    HW121449   5.462   2.943   2.934
 6850SOL    HW221450   5.306   2.985   2.907
 6851SOL     OW21451   0.572   2.151   3.076
 6851SOL    HW121452   0.665   2.187   3.085
 6851SOL    HW221453   0.508   2.213   3.121
 6852SOL     OW21454   2.767   4.438   1.103
 6852SOL    HW121455   2.714   4.515   1.139
 6852SOL    HW221456   2.708   4.359   1.091
 6853SOL     OW21457   5.675   4.416   6.462
 6853SOL    HW121458   5.725   4.421   6.549
 6853SOL    HW221459   5.679   4.504   6.416
 6854SOL     OW21460   5.472   0.607   5.896
 6854SOL    HW121461   5.473   0.513   5.862
 6854SOL    HW221462   5.395   0.619   5.959
 6855SOL     OW21463   4.511   5.918   3.734
 6855SOL    HW121464   4.451   5.988   3.695
 6855SOL    HW221465   4.575   5.886   3.665
 6856SOL     OW21466   0.141   2.325   5.068
 6856SOL    HW121467   0.107   2.283   4.984
 6856SOL    HW221468   0.063   2.358   5.122
 6857SOL     OW21469   1.412   2.912   6.416
 6857SOL    HW121470   1.356   2.973   6.360
 6857SOL    HW221471   1.399   2.933   6.513
 6858SOL     OW21472   4.044   3.956   1.705
 6858SOL    HW121473   4.073   4.037   1.654
 6858SOL    HW221474   4.124   3.898   1.724
 6859SOL     OW21475   1.014   1.263   1.333
 6859SOL    HW121476   0.995   1.299   1.424
 6859SOL    HW221477   0.980   1.327   1.264
 6860SOL     OW21478   0.091   4.916   1.316
 6860SOL    HW121479   0.169   4.975   1.335
 6860SOL    HW221480   0.122   4.821   1.315
 6861SOL     OW21481   5.144   3.908   6.478
 6861SOL    HW121482   5.066   3.943   6.531
 6861SOL    HW221483   5.147   3.954   6.389
 6862SOL     OW21484   0.308   6.059   5.572
 6862SOL    HW121485   0.340   6.142   5.526
 6862SOL    HW221486   0.245   6.084   5.646
 6863SOL     OW21487   6.530   6.617   5.841
 6863SOL    HW121488   6.465   6.586   5.910
 6863SOL    HW221489   6.564   6.538   5.790
 6864SOL     OW21490   2.539   4.394   5.217
 6864SOL    HW121491   2.553   4.466   5.149
 6864SOL    HW221492   2.503   4.434   5.301
 6865SOL     OW21493   0.685   6.889   4.741
 6865SOL    HW121494   0.694   6.837   4.826
 6865SOL    HW221495   0.641   6.977   4.760
 6866SOL     OW21496   5.720   5.388   2.877
 6866SOL    HW121497   5.775   5.321   2.926
 6866SOL    HW221498   5.634   5.346   2.846
 6867SOL     OW21499   2.268   3.349   1.639
 6867SOL    HW121500   2.325   3.410   1.695
 6867SOL    HW221501   2.181   3.394   1.618
 6868SOL     OW21502   2.031   6.851   5.563
 6868SOL    HW121503   2.114   6.802   5.535
 6868SOL    HW221504   1.952   6.811   5.516
 6869SOL     OW21505   5.346   1.035   6.056
 6869SOL    HW121506   5.329   1.011   6.152
 6869SOL    HW221507   5.359   0.952   6.002
 6870SOL     OW21508   0.563   4.299   0.925
 6870SOL    HW121509   0.573   4.385   0.876
 6870SOL    HW221510   0.635   4.236   0.896
 6871SOL     OW21511   5.936   4.273   3.368
 6871SOL    HW121512   5.890   4.330   3.437
 6871SOL    HW221513   5.984   4.332   3.303
 6872SOL     OW21514   0.534   2.656   1.776
 6872SOL    HW121515   0.531   2.705   1.864
 6872SOL    HW221516   0.491   2.712   1.705
 6873SOL     OW21517   0.805   3.232   4.248
 6873SOL    HW121518   0.773   3.294   4.319
 6873SOL    HW221519   0.757   3.251   4.162
 6874SOL     OW21520   6.841   5.448   3.835
 6874SOL    HW121521   6.821   5.388   3.758
 6874SOL    HW221522   6.937   5.440   3.860
 6875SOL     OW21523   2.264   1.576   2.453
 6875SOL    HW121524   2.260   1.559   2.355
 6875SOL    HW221525   2.178   1.618   2.484
 6876SOL     OW21526   4.041   6.956   3.630
 6876SOL    HW121527   3.947   6.980   3.607
 6876SOL    HW221528   4.051   6.950   3.729
 6877SOL     OW21529   3.111   4.446   1.523
 6877SOL    HW121530   3.061   4.434   1.438
 6877SOL    HW221531   3.079   4.381   1.591
 6878SOL     OW21532   2.873   1.872   3.771
 6878SOL    HW121533   2.959   1.897   3.728
 6878SOL    HW221534   2.814   1.952   3.775
 6879SOL     OW21535   2.531   2.767   6.953
 6879SOL    HW121536   2.525   2.805   0.022
 6879SOL    HW221537   2.440   2.745   6.920
 6880SOL     OW21538   0.793   6.157   5.810
 6880SOL    HW121539   0.694   6.166   5.813
 6880SOL    HW221540   0.832   6.185   5.898
 6881SOL     OW21541   1.021   3.459   1.457
 6881SOL    HW121542   1.003   3.386   1.523
 6881SOL    HW221543   1.117   3.458   1.431
 6882SOL     OW21544   2.598   0.394   0.374
 6882SOL    HW121545   2.676   0.384   0.312
 6882SOL    HW221546   2.525   0.331   0.347
 6883SOL     OW21547   5.056   1.437   0.205
 6883SOL    HW121548   5.024   1.519   0.251
 6883SOL    HW221549   5.146   1.412   0.240
 6884SOL     OW21550   0.943   4.230   2.908
 6884SOL    HW121551   1.016   4.251   2.843
 6884SOL    HW221552   0.950   4.135   2.936
 6885SOL     OW21553   4.573   4.962   3.060
 6885SOL    HW121554   4.598   4.875   3.018
 6885SOL    HW221555   4.655   5.008   3.093
 6886SOL     OW21556   0.102   1.226   4.576
 6886SOL    HW121557   0.107   1.151   4.641
 6886SOL    HW221558   0.179   1.221   4.512
 6887SOL     OW21559   4.758   5.648   6.438
 6887SOL    HW121560   4.722   5.728   6.486
 6887SOL    HW221561   4.769   5.668   6.341
 6888SOL     OW21562   5.146   5.122   6.662
 6888SOL    HW121563   5.079   5.122   6.736
 6888SOL    HW221564   5.118   5.058   6.591
 6889SOL     OW21565   1.793   2.734   5.958
 6889SOL    HW121566   1.787   2.664   5.887
 6889SOL    HW221567   1.722   2.718   6.027
 6890SOL     OW21568   4.189   6.081   1.995
 6890SOL    HW121569   4.277   6.126   2.008
 6890SOL    HW221570   4.130   6.098   2.074
 6891SOL     OW21571   2.085   3.635   1.128
 6891SOL    HW121572   1.992   3.617   1.159
 6891SOL    HW221573   2.096   3.733   1.110
 6892SOL     OW21574   3.779   1.568   4.165
 6892SOL    HW121575   3.701   1.546   4.223
 6892SOL    HW221576   3.795   1.493   4.101
 6893SOL     OW21577   4.921   3.911   6.900
 6893SOL    HW121578   4.863   3.948   6.973
 6893SOL    HW221579   5.015   3.942   6.915
 6894SOL     OW21580   6.317   4.782   1.203
 6894SOL    HW121581   6.294   4.769   1.299
 6894SOL    HW221582   6.233   4.781   1.148
 6895SOL     OW21583   1.982   5.029   1.460
 6895SOL    HW121584   1.914   5.057   1.529
 6895SOL    HW221585   1.950   4.949   1.411
 6896SOL     OW21586   3.074   1.903   3.561
 6896SOL    HW121587   3.055   1.806   3.543
 6896SOL    HW221588   3.172   1.919   3.554
 6897SOL     OW21589   4.790   3.383   5.298
 6897SOL    HW121590   4.756   3.460   5.244
 6897SOL    HW221591   4.810   3.306   5.237
 6898SOL     OW21592   3.732   1.791   1.313
 6898SOL    HW121593   3.729   1.881   1.357
 6898SOL    HW221594   3.663   1.732   1.355
 6899SOL     OW21595   4.648   5.794   2.378
 6899SOL    HW121596   4.599   5.711   2.404
 6899SOL    HW221597   4.602   5.838   2.301
 6900SOL     OW21598   6.577   4.951   4.731
 6900SOL    HW121599   6.588   4.975   4.827
 6900SOL    HW221600   6.540   5.030   4.681
 6901SOL     OW21601   5.820   6.223   6.584
 6901SOL    HW121602   5.771   6.303   6.620
 6901SOL    HW221603   5.918   6.237   6.596
 6902SOL     OW21604   6.626   5.540   5.702
 6902SOL    HW121605   6.685   5.620   5.688
 6902SOL    HW221606   6.569   5.554   5.783
 6903SOL     OW21607   3.209   4.928   5.104
 6903SOL    HW121608   3.263   4.942   5.187
 6903SOL    HW221609   3.126   4.877   5.127
 6904SOL     OW21610   6.305   0.366   6.099
 6904SOL    HW121611   6.369   0.395   6.170
 6904SOL    HW221612   6.355   0.328   6.022
 6905SOL     OW21613   5.340   5.445   6.438
 6905SOL    HW121614   5.265   5.492   6.392
 6905SOL    HW221615   5.309   5.354   6.467
 6906SOL     OW21616   4.019   1.120   4.028
 6906SOL    HW121617   4.107   1.138   3.983
 6906SOL    HW221618   4.022   1.031   4.074
 6907SOL     OW21619   5.937   1.976   1.223
 6907SOL    HW121620   5.873   1.958   1.148
 6907SOL    HW221621   5.915   1.918   1.301
 6908SOL     OW21622   2.257   5.240   6.376
 6908SOL    HW121623   2.204   5.166   6.419
 6908SOL    HW221624   2.216   5.328   6.401
 6909SOL     OW21625   5.253   3.760   0.615
 6909SOL    HW121626   5.200   3.786   0.535
 6909SOL    HW221627   5.305   3.676   0.596
 6910SOL     OW21628   1.583   3.178   2.882
 6910SOL    HW121629   1.597   3.201   2.978
 6910SOL    HW221630   1.594   3.261   2.826
 6911SOL     OW21631   4.223   0.060   4.178
 6911SOL    HW121632   4.125   0.037   4.173
 6911SOL    HW221633   4.253   0.093   4.089
 6912SOL     OW21634   2.871   3.303   6.050
 6912SOL    HW121635   2.864   3.294   6.150
 6912SOL    HW221636   2.836   3.392   6.022
 6913SOL     OW21637   5.406   6.171   4.677
 6913SOL    HW121638   5.351   6.165   4.594
 6913SOL    HW221639   5.349   6.147   4.756
 6914SOL     OW21640   5.682   4.667   4.055
 6914SOL    HW121641   5.660   4.588   4.114
 6914SOL    HW221642   5.759   4.643   3.996
 6915SOL     OW21643   6.902   2.638   1.878
 6915SOL    HW121644   6.860   2.728   1.885
 6915SOL    HW221645   6.934   2.609   1.969
 6916SOL     OW21646   5.752   0.819   0.718
 6916SOL    HW121647   5.695   0.900   0.734
 6916SOL    HW221648   5.835   0.825   0.775
 6917SOL     OW21649   4.367   6.357   1.668
 6917SOL    HW121650   4.409   6.379   1.756
 6917SOL    HW221651   4.294   6.290   1.682
 6918SOL     OW21652   6.847   2.326   4.010
 6918SOL    HW121653   6.780   2.389   3.972
 6918SOL    HW221654   6.839   2.324   4.110
 6919SOL     OW21655   6.446   5.718   3.944
 6919SOL    HW121656   6.348   5.713   3.921
 6919SOL    HW221657   6.456   5.744   4.040
 6920SOL     OW21658   4.808   6.515   4.996
 6920SOL    HW121659   4.777   6.603   5.032
 6920SOL    HW221660   4.884   6.481   5.052
 6921SOL     OW21661   4.532   6.499   3.281
 6921SOL    HW121662   4.482   6.529   3.363
 6921SOL    HW221663   4.467   6.462   3.215
 6922SOL     OW21664   1.704   6.139   5.825
 6922SOL    HW121665   1.717   6.062   5.888
 6922SOL    HW221666   1.792   6.178   5.801
 6923SOL     OW21667   5.232   5.912   2.560
 6923SOL    HW121668   5.206   5.864   2.643
 6923SOL    HW221669   5.329   5.897   2.541
 6924SOL     OW21670   2.062   4.172   6.791
 6924SOL    HW121671   2.043   4.075   6.774
 6924SOL    HW221672   2.159   4.190   6.777
 6925SOL     OW21673   5.279   5.511   4.506
 6925SOL    HW121674   5.354   5.560   4.549
 6925SOL    HW221675   5.205   5.496   4.572
 6926SOL     OW21676   2.503   1.767   0.306
 6926SOL    HW121677   2.564   1.841   0.334
 6926SOL    HW221678   2.555   1.698   0.256
 6927SOL     OW21679   3.820   2.198   5.803
 6927SOL    HW121680   3.851   2.180   5.709
 6927SOL    HW221681   3.792   2.294   5.811
 6928SOL     OW21682   5.568   5.739   0.677
 6928SOL    HW121683   5.520   5.652   0.683
 6928SOL    HW221684   5.594   5.769   0.768
 6929SOL     OW21685   5.149   5.954   2.288
 6929SOL    HW121686   5.178   5.957   2.384
 6929SOL    HW221687   5.057   5.914   2.283
 6930SOL     OW21688   1.507   0.862   1.548
 6930SOL    HW121689   1.410   0.886   1.537
 6930SOL    HW221690   1.541   0.900   1.634
 6931SOL     OW21691   1.642   1.580   2.678
 6931SOL    HW121692   1.628   1.558   2.775
 6931SOL    HW221693   1.738   1.566   2.655
 6932SOL     OW21694   4.851   6.713   0.794
 6932SOL    HW121695   4.812   6.685   0.707
 6932SOL    HW221696   4.943   6.750   0.780
 6933SOL     OW21697   3.413   6.153   5.438
 6933SOL    HW121698   3.473   6.149   5.518
 6933SOL    HW221699   3.438   6.231   5.381
 6934SOL     OW21700   4.607   3.314   6.019
 6934SOL    HW121701   4.555   3.400   6.024
 6934SOL    HW221702   4.635   3.297   5.925
 6935SOL     OW21703   4.369   5.748   2.560
 6935SOL    HW121704   4.327   5.706   2.640
 6935SOL    HW221705   4.418   5.831   2.588
 6936SOL     OW21706   6.399   2.834   4.034
 6936SOL    HW121707   6.444   2.923   4.045
 6936SOL    HW221708   6.306   2.848   4.001
 6937SOL     OW21709   6.352   6.268   1.083
 6937SOL    HW121710   6.423   6.242   1.018
 6937SOL    HW221711   6.267   6.287   1.033
 6938SOL     OW21712   6.805   2.429   4.637
 6938SOL    HW121713   6.848   2.339   4.629
 6938SOL    HW221714   6.748   2.446   4.557
 6939SOL     OW21715   0.050   5.157   2.475
 6939SOL    HW121716   0.134   5.131   2.522
 6939SOL    HW221717   0.066   5.159   2.376
 6940SOL     OW21718   4.095   0.320   6.923
 6940SOL    HW121719   4.107   0.418   6.940
 6940SOL    HW221720   4.175   0.271   6.957
 6941SOL     OW21721   3.059   3.638   2.010
 6941SOL    HW121722   3.031   3.635   2.106
 6941SOL    HW221723   3.137   3.700   2.000
 6942SOL     OW21724   5.488   6.541   2.223
 6942SOL    HW121725   5.464   6.468   2.288
 6942SOL    HW221726   5.587   6.552   2.221
 6943SOL     OW21727   3.889   5.693   0.938
 6943SOL    HW121728   3.927   5.716   1.028
 6943SOL    HW221729   3.846   5.774   0.899
 6944SOL     OW21730   1.227   5.264   5.883
 6944SOL    HW121731   1.190   5.311   5.963
 6944SOL    HW221732   1.156   5.208   5.841
 6945SOL     OW21733   6.742   1.583   1.658
 6945SOL    HW121734   6.748   1.680   1.634
 6945SOL    HW221735   6.780   1.569   1.749
 6946SOL     OW21736   4.346   6.551   1.457
 6946SOL    HW121737   4.430   6.606   1.461
 6946SOL    HW221738   4.342   6.491   1.536
 6947SOL     OW21739   3.951   5.492   6.462
 6947SOL    HW121740   3.892   5.565   6.430
 6947SOL    HW221741   4.028   5.481   6.399
 6948SOL     OW21742   1.153   6.141   1.139
 6948SOL    HW121743   1.171   6.046   1.112
 6948SOL    HW221744   1.134   6.196   1.057
 6949SOL     OW21745   2.741   0.959   3.039
 6949SOL    HW121746   2.663   0.979   2.979
 6949SOL    HW221747   2.712   0.895   3.111
 6950SOL     OW21748   1.566   0.850   4.824
 6950SOL    HW121749   1.489   0.831   4.885
 6950SOL    HW221750   1.534   0.902   4.746
 6951SOL     OW21751   0.545   6.120   6.223
 6951SOL    HW121752   0.459   6.070   6.233
 6951SOL    HW221753   0.527   6.211   6.186
 6952SOL     OW21754   1.212   5.150   3.393
 6952SOL    HW121755   1.245   5.225   3.449
 6952SOL    HW221756   1.278   5.074   3.397
 6953SOL     OW21757   5.247   6.591   0.809
 6953SOL    HW121758   5.271   6.574   0.713
 6953SOL    HW221759   5.279   6.682   0.835
 6954SOL     OW21760   0.937   4.502   1.402
 6954SOL    HW121761   0.942   4.436   1.476
 6954SOL    HW221762   0.859   4.563   1.417
 6955SOL     OW21763   4.886   0.550   2.666
 6955SOL    HW121764   4.946   0.498   2.726
 6955SOL    HW221765   4.894   0.648   2.687
 6956SOL     OW21766   4.722   5.885   3.238
 6956SOL    HW121767   4.761   5.964   3.191
 6956SOL    HW221768   4.628   5.871   3.208
 6957SOL     OW21769   5.780   5.679   0.047
 6957SOL    HW121770   5.805   5.750   7.004
 6957SOL    HW221771   5.752   5.722   0.132
 6958SOL     OW21772   4.113   3.546   4.736
 6958SOL    HW121773   4.148   3.534   4.829
 6958SOL    HW221774   4.113   3.458   4.689
 6959SOL     OW21775   1.856   3.755   3.106
 6959SOL    HW121776   1.849   3.808   3.191
 6959SOL    HW221777   1.910   3.806   3.040
 6960SOL     OW21778   1.678   4.227   0.627
 6960SOL    HW121779   1.732   4.255   0.548
 6960SOL    HW221780   1.623   4.147   0.603
 6961SOL     OW21781   6.122   1.198   4.969
 6961SOL    HW121782   6.034   1.210   4.924
 6961SOL    HW221783   6.184   1.150   4.907
 6962SOL     OW21784   4.421   5.713   1.115
 6962SOL    HW121785   4.492   5.657   1.072
 6962SOL    HW221786   4.462   5.796   1.153
 6963SOL     OW21787   5.537   5.503   0.976
 6963SOL    HW121788   5.508   5.476   1.068
 6963SOL    HW221789   5.457   5.530   0.922
 6964SOL     OW21790   3.746   0.815   6.394
 6964SOL    HW121791   3.790   0.904   6.409
 6964SOL    HW221792   3.756   0.758   6.475
 6965SOL     OW21793   1.974   1.752   6.586
 6965SOL    HW121794   1.932   1.767   6.675
 6965SOL    HW221795   1.991   1.839   6.541
 6966SOL     OW21796   0.122   0.750   3.046
 6966SOL    HW121797   0.101   0.732   3.143
 6966SOL    HW221798   0.057   0.701   2.988
 6967SOL     OW21799   3.221   1.201   5.501
 6967SOL    HW121800   3.296   1.201   5.433
 6967SOL    HW221801   3.134   1.185   5.454
 6968SOL     OW21802   2.645   1.112   3.876
 6968SOL    HW121803   2.607   1.096   3.784
 6968SOL    HW221804   2.623   1.205   3.905
 6969SOL     OW21805   3.188   2.131   1.410
 6969SOL    HW121806   3.213   2.036   1.396
 6969SOL    HW221807   3.095   2.136   1.445
 6970SOL     OW21808   4.208   3.557   5.301
 6970SOL    HW121809   4.135   3.538   5.367
 6970SOL    HW221810   4.284   3.494   5.316
 6971SOL     OW21811   6.220   4.453   1.253
 6971SOL    HW121812   6.250   4.360   1.273
 6971SOL    HW221813   6.300   4.512   1.241
 6972SOL     OW21814   5.373   4.008   2.696
 6972SOL    HW121815   5.371   4.089   2.639
 6972SOL    HW221816   5.438   4.022   2.771
 6973SOL     OW21817   0.733   2.459   3.615
 6973SOL    HW121818   0.720   2.555   3.641
 6973SOL    HW221819   0.644   2.416   3.600
 6974SOL     OW21820   3.185   4.002   2.740
 6974SOL    HW121821   3.259   4.060   2.773
 6974SOL    HW221822   3.119   3.987   2.813
 6975SOL     OW21823   1.607   6.795   4.634
 6975SOL    HW121824   1.543   6.795   4.711
 6975SOL    HW221825   1.556   6.791   4.549
 6976SOL     OW21826   6.397   4.752   6.106
 6976SOL    HW121827   6.371   4.782   6.198
 6976SOL    HW221828   6.336   4.678   6.078
 6977SOL     OW21829   3.826   3.461   1.111
 6977SOL    HW121830   3.884   3.395   1.158
 6977SOL    HW221831   3.734   3.459   1.152
 6978SOL     OW21832   5.308   2.521   1.787
 6978SOL    HW121833   5.240   2.538   1.716
 6978SOL    HW221834   5.272   2.551   1.875
 6979SOL     OW21835   0.729   3.647   1.089
 6979SOL    HW121836   0.754   3.715   1.158
 6979SOL    HW221837   0.699   3.563   1.135
 6980SOL     OW21838   2.008   0.905   3.565
 6980SOL    HW121839   1.970   0.995   3.543
 6980SOL    HW221840   1.940   0.835   3.548
 6981SOL     OW21841   3.718   3.301   5.663
 6981SOL    HW121842   3.651   3.373   5.644
 6981SOL    HW221843   3.787   3.337   5.726
 6982SOL     OW21844   0.872   0.852   4.332
 6982SOL    HW121845   0.873   0.759   4.369
 6982SOL    HW221846   0.777   0.882   4.321
 6983SOL     OW21847   4.741   1.548   5.011
 6983SOL    HW121848   4.799   1.561   5.092
 6983SOL    HW221849   4.744   1.630   4.954
 6984SOL     OW21850   2.140   1.679   2.859
 6984SOL    HW121851   2.237   1.658   2.873
 6984SOL    HW221852   2.122   1.773   2.888
 6985SOL     OW21853   6.214   5.106   0.654
 6985SOL    HW121854   6.226   5.022   0.601
 6985SOL    HW221855   6.126   5.103   0.700
 6986SOL     OW21856   3.306   6.767   6.598
 6986SOL    HW121857   3.243   6.744   6.672
 6986SOL    HW221858   3.333   6.863   6.607
 6987SOL     OW21859   6.589   1.191   6.377
 6987SOL    HW121860   6.582   1.282   6.337
 6987SOL    HW221861   6.498   1.161   6.407
 6988SOL     OW21862   1.158   6.989   5.764
 6988SOL    HW121863   1.249   7.021   5.789
 6988SOL    HW221864   1.158   6.889   5.763
 6989SOL     OW21865   0.269   4.731   3.184
 6989SOL    HW121866   0.175   4.738   3.217
 6989SOL    HW221867   0.268   4.717   3.085
 6990SOL     OW21868   3.914   2.939   1.279
 6990SOL    HW121869   3.995   2.994   1.297
 6990SOL    HW221870   3.936   2.866   1.214
 6991SOL     OW21871   4.812   3.913   3.382
 6991SOL    HW121872   4.794   3.978   3.308
 6991SOL    HW221873   4.829   3.823   3.343
 6992SOL     OW21874   6.078   6.598   6.688
 6992SOL    HW121875   6.111   6.686   6.722
 6992SOL    HW221876   5.979   6.601   6.676
 6993SOL     OW21877   6.038   0.569   1.985
 6993SOL    HW121878   5.996   0.630   2.052
 6993SOL    HW221879   5.993   0.580   1.896
 6994SOL     OW21880   0.863   2.014   4.205
 6994SOL    HW121881   0.788   2.026   4.141
 6994SOL    HW221882   0.939   1.967   4.160
 6995SOL     OW21883   0.107   3.787   6.660
 6995SOL    HW121884   0.189   3.766   6.608
 6995SOL    HW221885   0.072   3.703   6.702
 6996SOL     OW21886   1.832   0.735   0.208
 6996SOL    HW121887   1.795   0.776   0.125
 6996SOL    HW221888   1.832   0.635   0.199
 6997SOL     OW21889   0.542   4.657   5.036
 6997SOL    HW121890   0.539   4.696   5.128
 6997SOL    HW221891   0.453   4.671   4.991
 6998SOL     OW21892   1.796   1.821   1.276
 6998SOL    HW121893   1.878   1.808   1.332
 6998SOL    HW221894   1.818   1.877   1.196
 6999SOL     OW21895   1.731   2.184   6.006
 6999SOL    HW121896   1.633   2.201   5.997
 6999SOL    HW221897   1.777   2.269   6.033
 7000SOL     OW21898   5.839   0.515   2.869
 7000SOL    HW121899   5.938   0.506   2.858
 7000SOL    HW221900   5.812   0.480   2.958
 7001SOL     OW21901   0.978   2.631   5.136
 7001SOL    HW121902   0.958   2.545   5.183
 7001SOL    HW221903   0.958   2.621   5.039
 7002SOL     OW21904   2.382   5.027   3.992
 7002SOL    HW121905   2.296   5.043   3.943
 7002SOL    HW221906   2.382   4.934   4.029
 7003SOL     OW21907   4.778   6.038   1.433
 7003SOL    HW121908   4.788   6.001   1.341
 7003SOL    HW221909   4.689   6.082   1.442
 7004SOL     OW21910   0.677   6.448   0.937
 7004SOL    HW121911   0.597   6.392   0.954
 7004SOL    HW221912   0.716   6.425   0.848
 7005SOL     OW21913   1.201   1.076   0.610
 7005SOL    HW121914   1.167   1.069   0.516
 7005SOL    HW221915   1.267   1.002   0.627
 7006SOL     OW21916   5.703   6.030   3.398
 7006SOL    HW121917   5.620   5.973   3.397
 7006SOL    HW221918   5.783   5.972   3.386
 7007SOL     OW21919   4.194   0.426   4.762
 7007SOL    HW121920   4.158   0.369   4.836
 7007SOL    HW221921   4.133   0.504   4.749
 7008SOL     OW21922   0.452   4.293   4.473
 7008SOL    HW121923   0.509   4.301   4.391
 7008SOL    HW221924   0.404   4.205   4.471
 7009SOL     OW21925   3.899   6.493   2.456
 7009SOL    HW121926   3.875   6.549   2.536
 7009SOL    HW221927   3.932   6.551   2.383
 7010SOL     OW21928   5.331   4.222   3.616
 7010SOL    HW121929   5.334   4.126   3.590
 7010SOL    HW221930   5.414   4.268   3.585
 7011SOL     OW21931   3.728   6.824   0.290
 7011SOL    HW121932   3.709   6.784   0.201
 7011SOL    HW221933   3.646   6.820   0.347
 7012SOL     OW21934   0.682   1.886   1.148
 7012SOL    HW121935   0.768   1.919   1.186
 7012SOL    HW221936   0.695   1.795   1.110
 7013SOL     OW21937   1.130   6.870   6.583
 7013SOL    HW121938   1.174   6.830   6.503
 7013SOL    HW221939   1.184   6.848   6.665
 7014SOL     OW21940   5.499   2.748   0.491
 7014SOL    HW121941   5.463   2.811   0.559
 7014SOL    HW221942   5.430   2.732   0.420
 7015SOL     OW21943   5.786   4.471   1.654
 7015SOL    HW121944   5.714   4.432   1.712
 7015SOL    HW221945   5.753   4.480   1.561
 7016SOL     OW21946   4.058   4.801   1.412
 7016SOL    HW121947   4.050   4.891   1.368
 7016SOL    HW221948   4.155   4.776   1.417
 7017SOL     OW21949   3.439   5.104   3.113
 7017SOL    HW121950   3.419   5.053   3.029
 7017SOL    HW221951   3.531   5.082   3.144
 7018SOL     OW21952   5.273   3.896   4.640
 7018SOL    HW121953   5.234   3.974   4.591
 7018SOL    HW221954   5.222   3.882   4.725
 7019SOL     OW21955   4.001   4.004   1.127
 7019SOL    HW121956   4.058   3.967   1.200
 7019SOL    HW221957   3.980   4.100   1.146
 7020SOL     OW21958   7.003   4.134   5.852
 7020SOL    HW121959   0.072   4.173   5.857
 7020SOL    HW221960   7.005   4.040   5.885
 7021SOL     OW21961   1.921   2.977   3.963
 7021SOL    HW121962   1.977   3.059   3.976
 7021SOL    HW221963   1.912   2.929   4.050
 7022SOL     OW21964   5.143   0.143   0.183
 7022SOL    HW121965   5.205   0.208   0.139
 7022SOL    HW221966   5.049   0.165   0.158
 7023SOL     OW21967   0.712   3.020   1.924
 7023SOL    HW121968   0.633   3.049   1.870
 7023SOL    HW221969   0.688   3.018   2.021
 7024SOL     OW21970   3.899   3.785   4.422
 7024SOL    HW121971   3.886   3.874   4.467
 7024SOL    HW221972   3.812   3.736   4.421
 7025SOL     OW21973   3.820   0.995   1.387
 7025SOL    HW121974   3.873   0.911   1.403
 7025SOL    HW221975   3.877   1.074   1.409
 7026SOL     OW21976   3.537   2.083   2.229
 7026SOL    HW121977   3.562   2.160   2.169
 7026SOL    HW221978   3.621   2.036   2.258
 7027SOL     OW21979   2.433   5.600   3.769
 7027SOL    HW121980   2.413   5.683   3.820
 7027SOL    HW221981   2.390   5.522   3.813
 7028SOL     OW21982   3.751   0.377   3.892
 7028SOL    HW121983   3.817   0.399   3.964
 7028SOL    HW221984   3.747   0.278   3.880
 7029SOL     OW21985   4.629   3.465   5.722
 7029SOL    HW121986   4.545   3.512   5.751
 7029SOL    HW221987   4.661   3.503   5.636
 7030SOL     OW21988   0.452   1.266   4.707
 7030SOL    HW121989   0.405   1.234   4.790
 7030SOL    HW221990   0.480   1.361   4.720
 7031SOL     OW21991   3.872   6.064   0.207
 7031SOL    HW121992   3.928   6.057   0.125
 7031SOL    HW221993   3.832   6.156   0.212
 7032SOL     OW21994   4.204   1.295   3.488
 7032SOL    HW121995   4.170   1.217   3.436
 7032SOL    HW221996   4.233   1.367   3.424
 7033SOL     OW21997   1.172   2.780   3.212
 7033SOL    HW121998   1.117   2.698   3.228
 7033SOL    HW221999   1.215   2.809   3.297
 7034SOL     OW22000   6.948   1.963   3.050
 7034SOL    HW122001   6.946   2.008   3.140
 7034SOL    HW222002   6.909   1.872   3.058
 7035SOL     OW22003   1.804   0.312   0.642
 7035SOL    HW122004   1.863   0.371   0.587
 7035SOL    HW222005   1.738   0.267   0.581
 7036SOL     OW22006   6.537   1.826   2.107
 7036SOL    HW122007   6.457   1.881   2.084
 7036SOL    HW222008   6.515   1.764   2.182
 7037SOL     OW22009   0.497   1.306   6.472
 7037SOL    HW122010   0.422   1.249   6.504
 7037SOL    HW222011   0.566   1.314   6.544
 7038SOL     OW22012   2.622   4.805   5.052
 7038SOL    HW122013   2.634   4.903   5.034
 7038SOL    HW222014   2.695   4.754   5.007
 7039SOL     OW22015   0.347   6.279   3.492
 7039SOL    HW122016   0.285   6.218   3.540
 7039SOL    HW222017   0.426   6.227   3.457
 7040SOL     OW22018   4.655   2.590   5.979
 7040SOL    HW122019   4.695   2.661   5.922
 7040SOL    HW222020   4.728   2.545   6.032
 7041SOL     OW22021   0.117   1.670   2.966
 7041SOL    HW122022   0.178   1.749   2.967
 7041SOL    HW222023   0.028   1.696   3.005
 7042SOL     OW22024   4.197   6.123   4.381
 7042SOL    HW122025   4.283   6.076   4.399
 7042SOL    HW222026   4.136   6.111   4.460
 7043SOL     OW22027   2.780   5.176   3.261
 7043SOL    HW122028   2.851   5.246   3.272
 7043SOL    HW222029   2.814   5.104   3.200
 7044SOL     OW22030   5.258   5.920   5.351
 7044SOL    HW122031   5.204   5.950   5.272
 7044SOL    HW222032   5.244   5.984   5.427
 7045SOL     OW22033   5.393   5.833   1.991
 7045SOL    HW122034   5.492   5.821   1.985
 7045SOL    HW222035   5.350   5.746   2.017
 7046SOL     OW22036   3.287   1.342   3.886
 7046SOL    HW122037   3.247   1.340   3.977
 7046SOL    HW222038   3.242   1.274   3.828
 7047SOL     OW22039   0.038   1.022   1.663
 7047SOL    HW122040   7.009   0.996   1.582
 7047SOL    HW222041   6.999   1.054   1.734
 7048SOL     OW22042   5.650   6.296   4.601
 7048SOL    HW122043   5.559   6.265   4.626
 7048SOL    HW222044   5.691   6.232   4.536
 7049SOL     OW22045   3.430   1.728   2.034
 7049SOL    HW122046   3.522   1.688   2.043
 7049SOL    HW222047   3.436   1.827   2.041
 7050SOL     OW22048   3.879   3.841   1.389
 7050SOL    HW122049   3.945   3.771   1.413
 7050SOL    HW222050   3.863   3.839   1.290
 7051SOL     OW22051   6.876   6.722   1.419
 7051SOL    HW122052   6.896   6.627   1.444
 7051SOL    HW222053   6.829   6.724   1.330
 7052SOL     OW22054   5.958   0.757   4.142
 7052SOL    HW122055   5.881   0.818   4.159
 7052SOL    HW222056   5.978   0.704   4.224
 7053SOL     OW22057   1.741   4.056   4.236
 7053SOL    HW122058   1.644   4.078   4.247
 7053SOL    HW222059   1.768   4.072   4.142
 7054SOL     OW22060   0.309   6.688   1.659
 7054SOL    HW122061   0.297   6.782   1.690
 7054SOL    HW222062   0.318   6.628   1.739
 7055SOL     OW22063   2.906   0.140   0.165
 7055SOL    HW122064   2.901   0.140   0.065
 7055SOL    HW222065   2.870   0.227   0.199
 7056SOL     OW22066   0.068   5.676   1.265
 7056SOL    HW122067   0.118   5.677   1.352
 7056SOL    HW222068   0.131   5.652   1.191
 7057SOL     OW22069   2.902   5.612   3.674
 7057SOL    HW122070   2.932   5.628   3.768
 7057SOL    HW222071   2.982   5.591   3.617
 7058SOL     OW22072   5.229   2.016   6.683
 7058SOL    HW122073   5.247   1.944   6.617
 7058SOL    HW222074   5.251   2.105   6.643
 7059SOL     OW22075   1.610   1.033   4.131
 7059SOL    HW122076   1.659   1.077   4.056
 7059SOL    HW222077   1.521   1.002   4.099
 7060SOL     OW22078   3.906   6.803   1.140
 7060SOL    HW122079   3.881   6.724   1.084
 7060SOL    HW222080   3.825   6.839   1.186
 7061SOL     OW22081   0.494   2.815   3.032
 7061SOL    HW122082   0.547   2.812   2.947
 7061SOL    HW222083   0.453   2.725   3.048
 7062SOL     OW22084   3.928   2.123   5.152
 7062SOL    HW122085   3.919   2.029   5.186
 7062SOL    HW222086   3.857   2.140   5.083
 7063SOL     OW22087   1.525   0.156   1.819
 7063SOL    HW122088   1.510   0.099   1.738
 7063SOL    HW222089   1.439   0.166   1.869
 7064SOL     OW22090   4.284   1.701   6.476
 7064SOL    HW122091   4.340   1.769   6.428
 7064SOL    HW222092   4.222   1.748   6.539
 7065SOL     OW22093   3.490   4.073   5.212
 7065SOL    HW122094   3.495   4.093   5.114
 7065SOL    HW222095   3.542   4.141   5.263
 7066SOL     OW22096   4.300   0.016   5.735
 7066SOL    HW122097   4.201   0.030   5.734
 7066SOL    HW222098   4.323   6.960   5.680
 7067SOL     OW22099   1.267   3.518   6.068
 7067SOL    HW122100   1.184   3.539   6.017
 7067SOL    HW222101   1.253   3.537   6.165
 7068SOL     OW22102   5.581   4.315   4.393
 7068SOL    HW122103   5.671   4.333   4.433
 7068SOL    HW222104   5.563   4.217   4.394
 7069SOL     OW22105   5.571   2.026   5.280
 7069SOL    HW122106   5.659   1.983   5.257
 7069SOL    HW222107   5.517   2.038   5.197
 7070SOL     OW22108   1.045   6.346   4.613
 7070SOL    HW122109   1.000   6.436   4.611
 7070SOL    HW222110   0.977   6.274   4.598
 7071SOL     OW22111   4.719   5.873   6.599
 7071SOL    HW122112   4.758   5.814   6.670
 7071SOL    HW222113   4.676   5.952   6.641
 7072SOL     OW22114   2.272   4.728   0.116
 7072SOL    HW122115   2.175   4.747   0.130
 7072SOL    HW222116   2.323   4.750   0.199
 7073SOL     OW22117   3.430   0.174   3.009
 7073SOL    HW122118   3.384   0.214   3.088
 7073SOL    HW222119   3.526   0.202   3.008
 7074SOL     OW22120   6.364   3.362   3.291
 7074SOL    HW122121   6.299   3.428   3.254
 7074SOL    HW222122   6.437   3.410   3.339
 7075SOL     OW22123   2.775   5.296   4.656
 7075SOL    HW122124   2.676   5.281   4.657
 7075SOL    HW222125   2.797   5.372   4.717
 7076SOL     OW22126   5.548   2.525   0.633
 7076SOL    HW122127   5.597   2.469   0.566
 7076SOL    HW222128   5.528   2.615   0.594
 7077SOL     OW22129   2.350   4.361   3.155
 7077SOL    HW122130   2.419   4.416   3.203
 7077SOL    HW222131   2.344   4.391   3.060
 7078SOL     OW22132   6.167   6.263   1.317
 7078SOL    HW122133   6.143   6.360   1.310
 7078SOL    HW222134   6.222   6.236   1.238
 7079SOL     OW22135   1.143   6.557   3.880
 7079SOL    HW122136   1.044   6.544   3.886
 7079SOL    HW222137   1.178   6.512   3.798
 7080SOL     OW22138   4.082   1.969   4.095
 7080SOL    HW122139   4.064   1.883   4.144
 7080SOL    HW222140   4.084   1.951   3.997
 7081SOL     OW22141   0.903   5.893   0.484
 7081SOL    HW122142   0.844   5.921   0.408
 7081SOL    HW222143   0.988   5.945   0.481
 7082SOL     OW22144   6.888   4.461   0.416
 7082SOL    HW122145   6.887   4.398   0.339
 7082SOL    HW222146   6.799   4.506   0.424
 7083SOL     OW22147   0.216   1.551   2.298
 7083SOL    HW122148   0.199   1.491   2.377
 7083SOL    HW222149   0.291   1.614   2.320
 7084SOL     OW22150   0.864   5.403   5.461
 7084SOL    HW122151   0.783   5.447   5.423
 7084SOL    HW222152   0.945   5.456   5.437
 7085SOL     OW22153   6.715   2.309   2.577
 7085SOL    HW122154   6.683   2.399   2.549
 7085SOL    HW222155   6.804   2.317   2.622
 7086SOL     OW22156   5.618   0.734   6.516
 7086SOL    HW122157   5.563   0.786   6.582
 7086SOL    HW222158   5.703   0.705   6.560
 7087SOL     OW22159   5.190   3.700   1.961
 7087SOL    HW122160   5.097   3.664   1.949
 7087SOL    HW222161   5.211   3.707   2.058
 7088SOL     OW22162   4.951   2.317   5.487
 7088SOL    HW122163   4.916   2.224   5.501
 7088SOL    HW222164   4.905   2.380   5.549
 7089SOL     OW22165   2.426   4.548   2.873
 7089SOL    HW122166   2.512   4.581   2.833
 7089SOL    HW222167   2.384   4.621   2.927
 7090SOL     OW22168   2.711   1.494   0.366
 7090SOL    HW122169   2.675   1.553   0.293
 7090SOL    HW222170   2.709   1.543   0.453
 7091SOL     OW22171   0.758   0.555   1.594
 7091SOL    HW122172   0.800   0.521   1.510
 7091SOL    HW222173   0.707   0.639   1.575
 7092SOL     OW22174   4.001   2.947   5.914
 7092SOL    HW122175   3.995   2.859   5.865
 7092SOL    HW222176   4.097   2.973   5.924
 7093SOL     OW22177   3.354   3.576   1.849
 7093SOL    HW122178   3.295   3.656   1.845
 7093SOL    HW222179   3.323   3.507   1.784
 7094SOL     OW22180   1.322   0.166   5.395
 7094SOL    HW122181   1.260   0.092   5.371
 7094SOL    HW222182   1.273   0.234   5.451
 7095SOL     OW22183   3.753   4.832   6.182
 7095SOL    HW122184   3.755   4.736   6.209
 7095SOL    HW222185   3.680   4.848   6.116
 7096SOL     OW22186   6.456   0.754   2.221
 7096SOL    HW122187   6.464   0.849   2.190
 7096SOL    HW222188   6.379   0.746   2.284
 7097SOL     OW22189   4.738   0.472   1.828
 7097SOL    HW122190   4.729   0.529   1.747
 7097SOL    HW222191   4.835   0.459   1.850
 7098SOL     OW22192   1.406   6.092   5.521
 7098SOL    HW122193   1.429   6.002   5.485
 7098SOL    HW222194   1.319   6.122   5.481
 7099SOL     OW22195   3.780   2.057   4.427
 7099SOL    HW122196   3.838   2.129   4.388
 7099SOL    HW222197   3.834   1.973   4.439
 7100SOL     OW22198   6.466   2.942   0.549
 7100SOL    HW122199   6.490   2.881   0.473
 7100SOL    HW222200   6.369   2.929   0.573
 7101SOL     OW22201   2.631   0.622   5.710
 7101SOL    HW122202   2.727   0.621   5.739
 7101SOL    HW222203   2.585   0.540   5.743
 7102SOL     OW22204   5.988   0.304   1.332
 7102SOL    HW122205   6.040   0.336   1.254
 7102SOL    HW222206   5.960   0.209   1.317
 7103SOL     OW22207   5.026   5.477   1.910
 7103SOL    HW122208   5.121   5.464   1.937
 7103SOL    HW222209   5.021   5.548   1.839
 7104SOL     OW22210   5.531   3.607   2.361
 7104SOL    HW122211   5.510   3.662   2.442
 7104SOL    HW222212   5.630   3.589   2.357
 7105SOL     OW22213   3.937   4.018   4.592
 7105SOL    HW122214   3.878   4.076   4.648
 7105SOL    HW222215   4.024   4.064   4.575
 7106SOL     OW22216   3.201   2.892   1.290
 7106SOL    HW122217   3.127   2.837   1.250
 7106SOL    HW222218   3.288   2.866   1.247
 7107SOL     OW22219   3.778   0.393   0.428
 7107SOL    HW122220   3.811   0.299   0.434
 7107SOL    HW222221   3.708   0.409   0.498
 7108SOL     OW22222   2.746   6.223   2.443
 7108SOL    HW122223   2.683   6.165   2.495
 7108SOL    HW222224   2.741   6.199   2.346
 7109SOL     OW22225   1.466   1.242   6.690
 7109SOL    HW122226   1.427   1.168   6.636
 7109SOL    HW222227   1.549   1.209   6.736
 7110SOL     OW22228   3.502   6.034   4.113
 7110SOL    HW122229   3.463   5.945   4.090
 7110SOL    HW222230   3.462   6.105   4.055
 7111SOL     OW22231   1.547   1.965   3.888
 7111SOL    HW122232   1.576   2.056   3.919
 7111SOL    HW222233   1.522   1.910   3.968
 7112SOL     OW22234   2.242   4.169   4.432
 7112SOL    HW122235   2.220   4.189   4.527
 7112SOL    HW222236   2.287   4.248   4.390
 7113SOL     OW22237   3.344   4.742   5.271
 7113SOL    HW122238   3.360   4.683   5.350
 7113SOL    HW222239   3.431   4.778   5.238
 7114SOL     OW22240   4.538   5.312   1.399
 7114SOL    HW122241   4.469   5.339   1.465
 7114SOL    HW222242   4.499   5.248   1.333
 7115SOL     OW22243   5.414   3.594   0.157
 7115SOL    HW122244   5.420   3.495   0.145
 7115SOL    HW222245   5.464   3.620   0.240
 7116SOL     OW22246   5.578   4.191   3.253
 7116SOL    HW122247   5.491   4.194   3.302
 7116SOL    HW222248   5.590   4.275   3.200
 7117SOL     OW22249   0.083   0.084   4.609
 7117SOL    HW122250   0.135   0.110   4.690
 7117SOL    HW222251   0.065   7.009   4.610
 7118SOL     OW22252   3.778   4.476   5.806
 7118SOL    HW122253   3.713   4.436   5.740
 7118SOL    HW222254   3.728   4.505   5.888
 7119SOL     OW22255   4.951   0.907   5.191
 7119SOL    HW122256   4.887   0.835   5.218
 7119SOL    HW222257   5.037   0.865   5.159
 7120SOL     OW22258   4.249   1.713   1.776
 7120SOL    HW122259   4.235   1.811   1.788
 7120SOL    HW222260   4.321   1.682   1.838
 7121SOL     OW22261   0.137   6.482   2.843
 7121SOL    HW122262   0.231   6.507   2.822
 7121SOL    HW222263   0.078   6.562   2.833
 7122SOL     OW22264   1.587   0.376   5.794
 7122SOL    HW122265   1.614   0.429   5.714
 7122SOL    HW222266   1.587   0.434   5.875
 7123SOL     OW22267   0.046   5.018   4.021
 7123SOL    HW122268   0.090   4.972   4.098
 7123SOL    HW222269   7.022   5.100   4.053
 7124SOL     OW22270   1.101   2.171   1.633
 7124SOL    HW122271   1.036   2.101   1.663
 7124SOL    HW222272   1.117   2.236   1.708
 7125SOL     OW22273   1.564   1.319   1.609
 7125SOL    HW122274   1.594   1.306   1.514
 7125SOL    HW222275   1.635   1.368   1.660
 7126SOL     OW22276   4.329   5.825   0.590
 7126SOL    HW122277   4.333   5.903   0.653
 7126SOL    HW222278   4.373   5.746   0.632
 7127SOL     OW22279   2.825   6.229   5.721
 7127SOL    HW122280   2.922   6.225   5.747
 7127SOL    HW222281   2.813   6.187   5.631
 7128SOL     OW22282   3.696   3.629   6.522
 7128SOL    HW122283   3.776   3.649   6.465
 7128SOL    HW222284   3.637   3.563   6.475
 7129SOL     OW22285   1.401   1.169   1.321
 7129SOL    HW122286   1.500   1.157   1.312
 7129SOL    HW222287   1.381   1.259   1.360
 7130SOL     OW22288   3.671   6.341   4.244
 7130SOL    HW122289   3.605   6.338   4.169
 7130SOL    HW222290   3.660   6.427   4.294
 7131SOL     OW22291   3.388   1.274   1.309
 7131SOL    HW122292   3.379   1.286   1.210
 7131SOL    HW222293   3.463   1.209   1.327
 7132SOL     OW22294   5.126   4.215   0.147
 7132SOL    HW122295   5.213   4.167   0.158
 7132SOL    HW222296   5.144   4.311   0.125
 7133SOL     OW22297   4.333   4.688   4.113
 7133SOL    HW122298   4.311   4.700   4.016
 7133SOL    HW222299   4.409   4.749   4.137
 7134SOL     OW22300   5.381   6.413   1.841
 7134SOL    HW122301   5.375   6.430   1.742
 7134SOL    HW222302   5.400   6.499   1.888
 7135SOL     OW22303   2.104   3.448   2.269
 7135SOL    HW122304   2.152   3.480   2.188
 7135SOL    HW222305   2.105   3.520   2.339
 7136SOL     OW22306   2.869   1.614   1.328
 7136SOL    HW122307   2.908   1.662   1.249
 7136SOL    HW222308   2.893   1.662   1.412
 7137SOL     OW22309   2.977   1.622   0.377
 7137SOL    HW122310   2.933   1.535   0.355
 7137SOL    HW222311   2.907   1.693   0.387
 7138SOL     OW22312   1.886   1.147   1.015
 7138SOL    HW122313   1.794   1.184   1.030
 7138SOL    HW222314   1.911   1.160   0.919
 7139SOL     OW22315   5.362   4.684   2.094
 7139SOL    HW122316   5.303   4.606   2.072
 7139SOL    HW222317   5.447   4.651   2.135
 7140SOL     OW22318   6.041   4.329   1.075
 7140SOL    HW122319   6.051   4.357   0.979
 7140SOL    HW222320   6.093   4.392   1.133
 7141SOL     OW22321   4.289   6.940   0.946
 7141SOL    HW122322   4.339   6.893   1.019
 7141SOL    HW222323   4.236   6.873   0.893
 7142SOL     OW22324   3.171   6.991   3.927
 7142SOL    HW122325   3.214   6.906   3.895
 7142SOL    HW222326   3.075   6.972   3.950
 7143SOL     OW22327   1.250   4.014   6.657
 7143SOL    HW122328   1.251   3.914   6.658
 7143SOL    HW222329   1.278   4.049   6.746
 7144SOL     OW22330   0.370   1.062   3.843
 7144SOL    HW122331   0.304   1.026   3.777
 7144SOL    HW222332   0.341   1.039   3.936
 7145SOL     OW22333   4.380   0.809   6.723
 7145SOL    HW122334   4.477   0.802   6.700
 7145SOL    HW222335   4.336   0.720   6.709
 7146SOL     OW22336   1.550   1.759   6.156
 7146SOL    HW122337   1.564   1.705   6.238
 7146SOL    HW222338   1.637   1.800   6.127
 7147SOL     OW22339   6.164   6.061   3.290
 7147SOL    HW122340   6.182   6.052   3.192
 7147SOL    HW222341   6.094   6.131   3.305
 7148SOL     OW22342   6.150   5.680   1.536
 7148SOL    HW122343   6.203   5.732   1.469
 7148SOL    HW222344   6.211   5.622   1.590
 7149SOL     OW22345   0.058   5.131   3.764
 7149SOL    HW122346   0.085   5.083   3.848
 7149SOL    HW222347   0.080   5.228   3.773
 7150SOL     OW22348   3.977   3.217   0.354
 7150SOL    HW122349   4.017   3.288   0.297
 7150SOL    HW222350   3.931   3.260   0.432
 7151SOL     OW22351   3.444   6.443   0.781
 7151SOL    HW122352   3.351   6.438   0.745
 7151SOL    HW222353   3.442   6.474   0.876
 7152SOL     OW22354   6.159   0.994   6.664
 7152SOL    HW122355   6.072   1.005   6.616
 7152SOL    HW222356   6.142   0.950   6.753
 7153SOL     OW22357   3.913   5.311   2.452
 7153SOL    HW122358   3.900   5.374   2.375
 7153SOL    HW222359   3.824   5.288   2.491
 7154SOL     OW22360   3.891   0.875   2.805
 7154SOL    HW122361   3.835   0.895   2.725
 7154SOL    HW222362   3.987   0.875   2.779
 7155SOL     OW22363   2.955   2.563   1.024
 7155SOL    HW122364   2.961   2.621   1.105
 7155SOL    HW222365   2.878   2.592   0.968
 7156SOL     OW22366   4.905   3.476   2.649
 7156SOL    HW122367   4.906   3.569   2.687
 7156SOL    HW222368   4.965   3.417   2.703
 7157SOL     OW22369   6.551   4.416   1.387
 7157SOL    HW122370   6.513   4.342   1.332
 7157SOL    HW222371   6.561   4.498   1.330
 7158SOL     OW22372   6.514   0.461   3.465
 7158SOL    HW122373   6.590   0.411   3.424
 7158SOL    HW222374   6.545   0.554   3.488
 7159SOL     OW22375   0.686   4.622   4.297
 7159SOL    HW122376   0.611   4.623   4.363
 7159SOL    HW222377   0.650   4.638   4.205
 7160SOL     OW22378   6.015   6.551   2.775
 7160SOL    HW122379   6.046   6.502   2.856
 7160SOL    HW222380   6.093   6.586   2.724
 7161SOL     OW22381   3.697   4.089   3.084
 7161SOL    HW122382   3.598   4.101   3.082
 7161SOL    HW222383   3.732   4.083   2.991
 7162SOL     OW22384   0.394   4.969   0.074
 7162SOL    HW122385   0.320   4.907   0.048
 7162SOL    HW222386   0.397   4.975   0.174
 7163SOL     OW22387   2.097   0.579   2.760
 7163SOL    HW122388   2.069   0.634   2.682
 7163SOL    HW222389   2.047   0.608   2.841
 7164SOL     OW22390   1.862   1.016   4.762
 7164SOL    HW122391   1.825   0.952   4.829
 7164SOL    HW222392   1.907   0.965   4.689
 7165SOL     OW22393   6.168   6.192   1.766
 7165SOL    HW122394   6.101   6.166   1.836
 7165SOL    HW222395   6.260   6.175   1.802
 7166SOL     OW22396   5.902   0.690   6.620
 7166SOL    HW122397   5.892   0.774   6.673
 7166SOL    HW222398   5.958   0.708   6.539
 7167SOL     OW22399   5.223   2.250   5.394
 7167SOL    HW122400   5.198   2.175   5.333
 7167SOL    HW222401   5.142   2.281   5.444
 7168SOL     OW22402   2.910   1.661   2.641
 7168SOL    HW122403   3.010   1.659   2.650
 7168SOL    HW222404   2.873   1.740   2.691
 7169SOL     OW22405   0.790   4.226   4.620
 7169SOL    HW122406   0.726   4.302   4.609
 7169SOL    HW222407   0.741   4.140   4.605
 7170SOL     OW22408   4.297   6.570   2.368
 7170SOL    HW122409   4.280   6.569   2.467
 7170SOL    HW222410   4.210   6.565   2.319
 7171SOL     OW22411   6.106   4.052   0.957
 7171SOL    HW122412   6.021   4.025   0.912
 7171SOL    HW222413   6.093   4.139   1.004
 7172SOL     OW22414   2.210   1.748   5.102
 7172SOL    HW122415   2.184   1.746   5.005
 7172SOL    HW222416   2.153   1.684   5.153
 7173SOL     OW22417   6.495   5.418   6.880
 7173SOL    HW122418   6.580   5.368   6.861
 7173SOL    HW222419   6.457   5.386   6.967
 7174SOL     OW22420   6.629   4.577   0.969
 7174SOL    HW122421   6.616   4.484   0.935
 7174SOL    HW222422   6.638   4.640   0.891
 7175SOL     OW22423   6.478   3.893   5.148
 7175SOL    HW122424   6.473   3.817   5.213
 7175SOL    HW222425   6.424   3.870   5.066
 7176SOL     OW22426   0.639   1.250   4.111
 7176SOL    HW122427   0.648   1.323   4.044
 7176SOL    HW222428   0.569   1.274   4.178
 7177SOL     OW22429   1.988   5.647   5.560
 7177SOL    HW122430   1.924   5.667   5.634
 7177SOL    HW222431   1.994   5.547   5.548
 7178SOL     OW22432   1.010   1.064   6.470
 7178SOL    HW122433   1.056   1.110   6.546
 7178SOL    HW222434   1.042   1.103   6.383
 7179SOL     OW22435   1.973   4.432   4.655
 7179SOL    HW122436   1.973   4.358   4.722
 7179SOL    HW222437   2.064   4.475   4.653
 7180SOL     OW22438   2.419   3.849   1.326
 7180SOL    HW122439   2.338   3.906   1.330
 7180SOL    HW222440   2.439   3.826   1.230
 7181SOL     OW22441   2.197   1.240   6.039
 7181SOL    HW122442   2.182   1.291   5.954
 7181SOL    HW222443   2.136   1.162   6.042
 7182SOL     OW22444   0.846   3.713   3.379
 7182SOL    HW122445   0.847   3.742   3.474
 7182SOL    HW222446   0.807   3.786   3.322
 7183SOL     OW22447   2.039   5.679   2.051
 7183SOL    HW122448   2.002   5.692   2.143
 7183SOL    HW222449   2.126   5.728   2.043
 7184SOL     OW22450   5.663   1.177   3.694
 7184SOL    HW122451   5.569   1.186   3.727
 7184SOL    HW222452   5.704   1.095   3.733
 7185SOL     OW22453   5.562   0.926   5.662
 7185SOL    HW122454   5.585   0.829   5.668
 7185SOL    HW222455   5.590   0.972   5.745
 7186SOL     OW22456   0.605   0.965   1.083
 7186SOL    HW122457   0.541   0.893   1.055
 7186SOL    HW222458   0.642   1.010   1.001
 7187SOL     OW22459   3.118   3.605   5.112
 7187SOL    HW122460   3.134   3.590   5.014
 7187SOL    HW222461   3.021   3.595   5.131
 7188SOL     OW22462   4.652   4.331   6.982
 7188SOL    HW122463   4.710   4.284   0.025
 7188SOL    HW222464   4.637   4.271   6.903
 7189SOL     OW22465   6.178   3.354   5.171
 7189SOL    HW122466   6.085   3.386   5.154
 7189SOL    HW222467   6.204   3.287   5.102
 7190SOL     OW22468   5.928   6.175   1.421
 7190SOL    HW122469   5.863   6.251   1.427
 7190SOL    HW222470   6.018   6.211   1.395
 7191SOL     OW22471   0.241   4.075   3.370
 7191SOL    HW122472   0.322   4.020   3.351
 7191SOL    HW222473   0.167   4.048   3.309
 7192SOL     OW22474   1.272   4.348   6.012
 7192SOL    HW122475   1.251   4.310   6.102
 7192SOL    HW222476   1.368   4.376   6.009
 7193SOL     OW22477   2.796   1.715   3.076
 7193SOL    HW122478   2.813   1.782   3.004
 7193SOL    HW222479   2.713   1.739   3.126
 7194SOL     OW22480   2.394   2.576   0.158
 7194SOL    HW122481   2.450   2.510   0.108
 7194SOL    HW222482   2.419   2.669   0.129
 7195SOL     OW22483   6.035   4.294   6.422
 7195SOL    HW122484   6.055   4.258   6.513
 7195SOL    HW222485   6.002   4.220   6.363
 7196SOL     OW22486   3.404   3.889   2.139
 7196SOL    HW122487   3.400   3.988   2.147
 7196SOL    HW222488   3.500   3.859   2.141
 7197SOL     OW22489   1.100   4.197   5.414
 7197SOL    HW122490   1.085   4.260   5.338
 7197SOL    HW222491   1.155   4.242   5.484
 7198SOL     OW22492   0.172   0.786   0.146
 7198SOL    HW122493   0.076   0.800   0.124
 7198SOL    HW222494   0.218   0.875   0.157
 7199SOL     OW22495   0.937   0.216   2.483
 7199SOL    HW122496   0.928   0.260   2.572
 7199SOL    HW222497   0.983   0.278   2.419
 7200SOL     OW22498   1.718   3.435   0.609
 7200SOL    HW122499   1.744   3.345   0.573
 7200SOL    HW222500   1.790   3.469   0.670
 7201SOL     OW22501   0.229   5.625   4.298
 7201SOL    HW122502   0.138   5.618   4.339
 7201SOL    HW222503   0.289   5.556   4.337
 7202SOL     OW22504   5.335   0.105   5.869
 7202SOL    HW122505   5.312   0.054   5.952
 7202SOL    HW222506   5.403   0.054   5.816
 7203SOL     OW22507   1.111   1.121   2.056
 7203SOL    HW122508   1.118   1.080   1.965
 7203SOL    HW222509   1.031   1.181   2.059
 7204SOL     OW22510   6.494   1.198   6.745
 7204SOL    HW122511   6.433   1.216   6.668
 7204SOL    HW222512   6.442   1.158   6.820
 7205SOL     OW22513   1.260   3.432   4.687
 7205SOL    HW122514   1.257   3.339   4.724
 7205SOL    HW222515   1.338   3.441   4.625
 7206SOL     OW22516   1.441   1.589   1.557
 7206SOL    HW122517   1.515   1.654   1.572
 7206SOL    HW222518   1.474   1.496   1.571
 7207SOL     OW22519   2.623   1.383   3.901
 7207SOL    HW122520   2.596   1.476   3.926
 7207SOL    HW222521   2.676   1.386   3.816
 7208SOL     OW22522   4.817   0.001   4.522
 7208SOL    HW122523   4.833   0.023   4.426
 7208SOL    HW222524   4.839   6.928   4.538
 7209SOL     OW22525   2.270   2.832   2.312
 7209SOL    HW122526   2.285   2.881   2.225
 7209SOL    HW222527   2.353   2.837   2.367
 7210SOL     OW22528   3.820   1.872   3.895
 7210SOL    HW122529   3.808   1.801   3.826
 7210SOL    HW222530   3.754   1.859   3.969
 7211SOL     OW22531   3.136   6.182   5.486
 7211SOL    HW122532   3.235   6.186   5.472
 7211SOL    HW222533   3.099   6.104   5.435
 7212SOL     OW22534   6.860   6.417   6.463
 7212SOL    HW122535   6.876   6.495   6.523
 7212SOL    HW222536   6.878   6.443   6.368
 7213SOL     OW22537   3.747   6.591   6.327
 7213SOL    HW122538   3.668   6.623   6.380
 7213SOL    HW222539   3.723   6.588   6.230
 7214SOL     OW22540   6.919   1.209   5.749
 7214SOL    HW122541   6.950   1.237   5.658
 7214SOL    HW222542   6.958   1.271   5.817
 7215SOL     OW22543   6.082   2.522   4.328
 7215SOL    HW122544   6.173   2.560   4.312
 7215SOL    HW222545   6.031   2.584   4.387
 7216SOL     OW22546   3.061   5.890   2.394
 7216SOL    HW122547   3.068   5.980   2.436
 7216SOL    HW222548   3.066   5.900   2.294
 7217SOL     OW22549   1.532   3.555   3.343
 7217SOL    HW122550   1.608   3.492   3.362
 7217SOL    HW222551   1.500   3.595   3.428
 7218SOL     OW22552   0.030   3.130   3.865
 7218SOL    HW122553   0.091   3.146   3.943
 7218SOL    HW222554   0.066   3.054   3.810
 7219SOL     OW22555   3.198   6.710   1.923
 7219SOL    HW122556   3.292   6.745   1.920
 7219SOL    HW222557   3.154   6.728   1.835
 7220SOL     OW22558   6.583   4.879   3.843
 7220SOL    HW122559   6.653   4.936   3.887
 7220SOL    HW222560   6.493   4.907   3.875
 7221SOL     OW22561   3.209   6.028   4.516
 7221SOL    HW122562   3.295   5.977   4.522
 7221SOL    HW222563   3.216   6.098   4.444
 7222SOL     OW22564   5.696   0.237   3.339
 7222SOL    HW122565   5.758   0.177   3.390
 7222SOL    HW222566   5.606   0.194   3.331
 7223SOL     OW22567   2.944   0.844   0.625
 7223SOL    HW122568   2.914   0.838   0.720
 7223SOL    HW222569   2.879   0.797   0.565
 7224SOL     OW22570   4.762   2.472   4.745
 7224SOL    HW122571   4.846   2.494   4.795
 7224SOL    HW222572   4.736   2.378   4.764
 7225SOL     OW22573   2.098   6.816   0.957
 7225SOL    HW122574   2.100   6.887   0.887
 7225SOL    HW222575   2.037   6.742   0.928
 7226SOL     OW22576   6.076   0.179   1.697
 7226SOL    HW122577   5.988   0.212   1.665
 7226SOL    HW222578   6.069   0.154   1.794
 7227SOL     OW22579   2.989   1.731   1.948
 7227SOL    HW122580   2.975   1.820   1.904
 7227SOL    HW222581   2.985   1.659   1.880
 7228SOL     OW22582   1.175   1.450   3.578
 7228SOL    HW122583   1.236   1.374   3.555
 7228SOL    HW222584   1.108   1.421   3.647
 7229SOL     OW22585   0.253   6.943   4.885
 7229SOL    HW122586   0.305   6.948   4.799
 7229SOL    HW222587   0.221   0.012   4.909
 7230SOL     OW22588   2.955   5.386   3.347
 7230SOL    HW122589   3.048   5.361   3.319
 7230SOL    HW222590   2.931   5.474   3.305
 7231SOL     OW22591   4.268   0.961   0.739
 7231SOL    HW122592   4.239   0.942   0.833
 7231SOL    HW222593   4.187   0.982   0.684
 7232SOL     OW22594   4.906   6.275   2.949
 7232SOL    HW122595   4.929   6.371   2.932
 7232SOL    HW222596   4.991   6.223   2.964
 7233SOL     OW22597   1.142   1.203   4.951
 7233SOL    HW122598   1.085   1.196   4.869
 7233SOL    HW222599   1.092   1.163   5.029
 7234SOL     OW22600   5.570   3.353   2.599
 7234SOL    HW122601   5.510   3.328   2.675
 7234SOL    HW222602   5.520   3.344   2.513
 7235SOL     OW22603   6.341   4.599   2.032
 7235SOL    HW122604   6.252   4.554   2.043
 7235SOL    HW222605   6.401   4.540   1.978
 7236SOL     OW22606   2.216   2.498   2.653
 7236SOL    HW122607   2.194   2.472   2.559
 7236SOL    HW222608   2.246   2.417   2.703
 7237SOL     OW22609   3.764   7.003   6.438
 7237SOL    HW122610   3.681   6.967   6.396
 7237SOL    HW222611   3.842   6.987   6.377
 7238SOL     OW22612   4.567   2.388   6.354
 7238SOL    HW122613   4.592   2.300   6.314
 7238SOL    HW222614   4.497   2.373   6.424
 7239SOL     OW22615   1.179   3.316   1.997
 7239SOL    HW122616   1.275   3.299   1.973
 7239SOL    HW222617   1.124   3.239   1.968
 7240SOL     OW22618   6.695   1.352   6.854
 7240SOL    HW122619   6.617   1.293   6.836
 7240SOL    HW222620   6.712   1.410   6.774
 7241SOL     OW22621   2.620   0.012   0.467
 7241SOL    HW122622   2.620   0.090   0.530
 7241SOL    HW222623   2.540   6.978   0.485
 7242SOL     OW22624   0.013   5.679   5.821
 7242SOL    HW122625   0.068   5.600   5.796
 7242SOL    HW222626   6.971   5.699   5.748
 7243SOL     OW22627   6.990   4.400   6.248
 7243SOL    HW122628   6.932   4.477   6.222
 7243SOL    HW222629   6.933   4.320   6.267
 7244SOL     OW22630   0.445   0.273   1.338
 7244SOL    HW122631   0.459   0.311   1.429
 7244SOL    HW222632   0.349   0.250   1.325
 7245SOL     OW22633   1.246   2.764   5.243
 7245SOL    HW122634   1.313   2.726   5.179
 7245SOL    HW222635   1.154   2.740   5.212
 7246SOL     OW22636   1.702   0.289   3.996
 7246SOL    HW122637   1.703   0.313   4.093
 7246SOL    HW222638   1.724   0.370   3.942
 7247SOL     OW22639   2.983   2.190   5.503
 7247SOL    HW122640   3.018   2.251   5.432
 7247SOL    HW222641   3.055   2.127   5.532
 7248SOL     OW22642   3.145   0.775   2.651
 7248SOL    HW122643   3.185   0.865   2.635
 7248SOL    HW222644   3.180   0.710   2.584
 7249SOL     OW22645   4.897   5.231   1.769
 7249SOL    HW122646   4.963   5.299   1.801
 7249SOL    HW222647   4.878   5.247   1.672
 7250SOL     OW22648   5.282   5.146   5.925
 7250SOL    HW122649   5.223   5.171   6.002
 7250SOL    HW222650   5.338   5.225   5.899
 7251SOL     OW22651   0.934   0.127   4.727
 7251SOL    HW122652   0.947   0.137   4.825
 7251SOL    HW222653   0.984   0.046   4.695
 7252SOL     OW22654   2.918   3.418   1.799
 7252SOL    HW122655   3.006   3.412   1.846
 7252SOL    HW222656   2.895   3.514   1.783
 7253SOL     OW22657   2.118   5.985   6.745
 7253SOL    HW122658   2.210   5.954   6.767
 7253SOL    HW222659   2.068   5.911   6.700
 7254SOL     OW22660   5.146   4.934   4.721
 7254SOL    HW122661   5.242   4.907   4.727
 7254SOL    HW222662   5.139   5.034   4.724
 7255SOL     OW22663   4.641   3.882   6.973
 7255SOL    HW122664   4.665   3.789   6.945
 7255SOL    HW222665   4.633   3.940   6.892
 7256SOL     OW22666   3.266   5.880   5.620
 7256SOL    HW122667   3.320   5.952   5.576
 7256SOL    HW222668   3.294   5.791   5.585
 7257SOL     OW22669   0.203   1.956   3.599
 7257SOL    HW122670   0.173   1.918   3.511
 7257SOL    HW222671   0.303   1.953   3.604
 7258SOL     OW22672   4.921   1.919   2.974
 7258SOL    HW122673   4.909   1.837   2.918
 7258SOL    HW222674   4.843   1.980   2.960
 7259SOL     OW22675   1.535   3.561   1.764
 7259SOL    HW122676   1.474   3.541   1.840
 7259SOL    HW222677   1.600   3.485   1.754
 7260SOL     OW22678   5.838   1.520   2.084
 7260SOL    HW122679   5.889   1.571   2.152
 7260SOL    HW222680   5.886   1.525   1.996
 7261SOL     OW22681   0.930   4.830   1.558
 7261SOL    HW122682   0.928   4.930   1.561
 7261SOL    HW222683   0.972   4.795   1.641
 7262SOL     OW22684   5.366   2.089   6.901
 7262SOL    HW122685   5.458   2.086   6.864
 7262SOL    HW222686   5.302   2.049   6.835
 7263SOL     OW22687   0.471   6.300   0.247
 7263SOL    HW122688   0.501   6.228   0.184
 7263SOL    HW222689   0.371   6.302   0.249
 7264SOL     OW22690   5.350   1.104   0.862
 7264SOL    HW122691   5.432   1.062   0.824
 7264SOL    HW222692   5.320   1.178   0.802
 7265SOL     OW22693   5.602   4.555   5.638
 7265SOL    HW122694   5.700   4.576   5.639
 7265SOL    HW222695   5.588   4.458   5.656
 7266SOL     OW22696   5.877   1.309   3.452
 7266SOL    HW122697   5.834   1.390   3.491
 7266SOL    HW222698   5.889   1.240   3.524
 7267SOL     OW22699   6.420   6.554   4.893
 7267SOL    HW122700   6.448   6.475   4.947
 7267SOL    HW222701   6.351   6.607   4.943
 7268SOL     OW22702   0.016   6.155   4.594
 7268SOL    HW122703   7.018   6.249   4.567
 7268SOL    HW222704   0.115   6.141   4.588
 7269SOL     OW22705   1.950   6.229   5.961
 7269SOL    HW122706   1.899   6.267   6.038
 7269SOL    HW222707   2.036   6.278   5.950
 7270SOL     OW22708   0.446   2.903   4.617
 7270SOL    HW122709   0.489   2.992   4.636
 7270SOL    HW222710   0.348   2.915   4.605
 7271SOL     OW22711   1.545   4.920   4.263
 7271SOL    HW122712   1.464   4.866   4.286
 7271SOL    HW222713   1.536   5.012   4.302
 7272SOL     OW22714   6.059   5.977   2.397
 7272SOL    HW122715   6.141   5.958   2.344
 7272SOL    HW222716   6.016   5.890   2.425
 7273SOL     OW22717   6.096   3.932   0.519
 7273SOL    HW122718   6.074   3.854   0.579
 7273SOL    HW222719   6.195   3.938   0.507
 7274SOL     OW22720   0.669   4.879   6.713
 7274SOL    HW122721   0.573   4.890   6.690
 7274SOL    HW222722   0.726   4.931   6.649
 7275SOL     OW22723   6.582   5.410   3.087
 7275SOL    HW122724   6.621   5.499   3.112
 7275SOL    HW222725   6.649   5.338   3.103
 7276SOL     OW22726   4.923   0.744   3.498
 7276SOL    HW122727   4.860   0.743   3.576
 7276SOL    HW222728   5.017   0.732   3.531
 7277SOL     OW22729   5.078   0.504   4.509
 7277SOL    HW122730   4.993   0.533   4.554
 7277SOL    HW222731   5.120   0.430   4.562
 7278SOL     OW22732   3.683   3.015   1.426
 7278SOL    HW122733   3.630   2.942   1.471
 7278SOL    HW222734   3.773   2.980   1.401
 7279SOL     OW22735   4.427   4.932   6.231
 7279SOL    HW122736   4.437   4.866   6.157
 7279SOL    HW222737   4.472   4.898   6.313
 7280SOL     OW22738   0.236   1.256   3.442
 7280SOL    HW122739   0.162   1.231   3.379
 7280SOL    HW222740   0.324   1.246   3.395
 7281SOL     OW22741   2.958   1.763   6.385
 7281SOL    HW122742   3.020   1.684   6.385
 7281SOL    HW222743   2.955   1.802   6.294
 7282SOL     OW22744   5.442   5.598   3.141
 7282SOL    HW122745   5.497   5.643   3.070
 7282SOL    HW222746   5.358   5.651   3.156
 7283SOL     OW22747   4.124   1.559   2.722
 7283SOL    HW122748   4.188   1.487   2.698
 7283SOL    HW222749   4.112   1.561   2.821
 7284SOL     OW22750   0.389   3.177   6.138
 7284SOL    HW122751   0.309   3.139   6.185
 7284SOL    HW222752   0.394   3.140   6.045
 7285SOL     OW22753   5.107   3.271   2.655
 7285SOL    HW122754   5.163   3.353   2.644
 7285SOL    HW222755   5.035   3.269   2.586
 7286SOL     OW22756   2.922   0.646   0.265
 7286SOL    HW122757   2.956   0.732   0.227
 7286SOL    HW222758   2.849   0.666   0.331
 7287SOL     OW22759   6.999   2.633   6.144
 7287SOL    HW122760   0.034   2.652   6.223
 7287SOL    HW222761   6.949   2.547   6.159
 7288SOL     OW22762   3.128   0.549   0.457
 7288SOL    HW122763   3.063   0.571   0.383
 7288SOL    HW222764   3.221   0.564   0.425
 7289SOL     OW22765   5.065   2.400   4.597
 7289SOL    HW122766   4.976   2.356   4.591
 7289SOL    HW222767   5.082   2.452   4.514
 7290SOL     OW22768   3.491   0.361   5.488
 7290SOL    HW122769   3.500   0.450   5.533
 7290SOL    HW222770   3.428   0.370   5.411
 7291SOL     OW22771   1.876   6.638   0.907
 7291SOL    HW122772   1.826   6.569   0.854
 7291SOL    HW222773   1.857   6.624   1.004
 7292SOL     OW22774   3.592   0.645   3.214
 7292SOL    HW122775   3.606   0.635   3.116
 7292SOL    HW222776   3.495   0.662   3.233
 7293SOL     OW22777   1.298   2.181   5.106
 7293SOL    HW122778   1.223   2.132   5.150
 7293SOL    HW222779   1.374   2.118   5.089
 7294SOL     OW22780   2.390   4.612   6.866
 7294SOL    HW122781   2.339   4.658   6.939
 7294SOL    HW222782   2.427   4.526   6.902
 7295SOL     OW22783   0.797   2.566   0.727
 7295SOL    HW122784   0.803   2.547   0.825
 7295SOL    HW222785   0.838   2.655   0.707
 7296SOL     OW22786   3.050   5.404   1.594
 7296SOL    HW122787   3.073   5.316   1.553
 7296SOL    HW222788   2.970   5.443   1.548
 7297SOL     OW22789   3.727   6.173   1.685
 7297SOL    HW122790   3.804   6.216   1.639
 7297SOL    HW222791   3.650   6.166   1.621
 7298SOL     OW22792   4.627   4.654   4.991
 7298SOL    HW122793   4.565   4.621   4.919
 7298SOL    HW222794   4.722   4.637   4.963
 7299SOL     OW22795   0.827   1.862   0.672
 7299SOL    HW122796   0.835   1.961   0.683
 7299SOL    HW222797   0.871   1.817   0.750
 7300SOL     OW22798   6.269   5.579   3.101
 7300SOL    HW122799   6.239   5.591   3.006
 7300SOL    HW222800   6.351   5.522   3.103
 7301SOL     OW22801   5.857   1.272   4.935
 7301SOL    HW122802   5.770   1.232   4.907
 7301SOL    HW222803   5.842   1.336   5.010
 7302SOL     OW22804   0.987   2.051   5.632
 7302SOL    HW122805   0.942   1.974   5.677
 7302SOL    HW222806   1.053   2.016   5.565
 7303SOL     OW22807   4.026   0.546   0.198
 7303SOL    HW122808   3.927   0.555   0.192
 7303SOL    HW222809   4.052   0.519   0.291
 7304SOL     OW22810   3.869   4.712   0.821
 7304SOL    HW122811   3.936   4.705   0.747
 7304SOL    HW222812   3.789   4.763   0.789
 7305SOL     OW22813   4.855   1.116   0.644
 7305SOL    HW122814   4.903   1.183   0.700
 7305SOL    HW222815   4.908   1.031   0.641
 7306SOL     OW22816   4.953   2.343   1.983
 7306SOL    HW122817   4.863   2.377   2.011
 7306SOL    HW222818   5.006   2.418   1.943
 7307SOL     OW22819   2.145   6.937   2.261
 7307SOL    HW122820   2.149   7.023   2.312
 7307SOL    HW222821   2.068   6.882   2.293
 7308SOL     OW22822   6.941   3.409   5.928
 7308SOL    HW122823   0.012   3.387   5.906
 7308SOL    HW222824   6.915   3.363   6.013
 7309SOL     OW22825   4.961   5.721   1.339
 7309SOL    HW122826   4.978   5.623   1.345
 7309SOL    HW222827   4.989   5.766   1.423
 7310SOL     OW22828   2.338   4.076   1.568
 7310SOL    HW122829   2.359   4.123   1.654
 7310SOL    HW222830   2.239   4.067   1.558
 7311SOL     OW22831   3.438   2.080   1.753
 7311SOL    HW122832   3.400   2.065   1.845
 7311SOL    HW222833   3.417   2.173   1.723
 7312SOL     OW22834   0.471   3.510   4.858
 7312SOL    HW122835   0.442   3.435   4.798
 7312SOL    HW222836   0.436   3.494   4.951
 7313SOL     OW22837   2.551   1.358   6.164
 7313SOL    HW122838   2.475   1.402   6.116
 7313SOL    HW222839   2.600   1.425   6.219
 7314SOL     OW22840   0.027   5.612   6.130
 7314SOL    HW122841   6.984   5.657   6.190
 7314SOL    HW222842   7.022   5.624   6.035
 7315SOL     OW22843   6.319   0.428   2.525
 7315SOL    HW122844   6.221   0.406   2.528
 7315SOL    HW222845   6.333   0.522   2.557
 7316SOL     OW22846   3.096   3.585   6.527
 7316SOL    HW122847   3.103   3.515   6.456
 7316SOL    HW222848   3.027   3.653   6.500
 7317SOL     OW22849   5.141   1.088   2.750
 7317SOL    HW122850   5.077   1.115   2.822
 7317SOL    HW222851   5.201   1.165   2.728
 7318SOL     OW22852   1.647   0.632   1.226
 7318SOL    HW122853   1.589   0.654   1.147
 7318SOL    HW222854   1.685   0.717   1.263
 7319SOL     OW22855   6.697   4.662   6.403
 7319SOL    HW122856   6.734   4.583   6.453
 7319SOL    HW222857   6.741   4.668   6.313
 7320SOL     OW22858   6.467   3.517   2.144
 7320SOL    HW122859   6.525   3.598   2.157
 7320SOL    HW222860   6.502   3.442   2.200
 7321SOL     OW22861   2.323   0.555   5.448
 7321SOL    HW122862   2.287   0.566   5.540
 7321SOL    HW222863   2.395   0.622   5.431
 7322SOL     OW22864   6.790   2.804   3.065
 7322SOL    HW122865   6.698   2.843   3.068
 7322SOL    HW222866   6.833   2.826   2.977
 7323SOL     OW22867   1.937   2.153   1.987
 7323SOL    HW122868   1.873   2.077   1.996
 7323SOL    HW222869   1.887   2.236   1.962
 7324SOL     OW22870   4.593   6.242   2.288
 7324SOL    HW122871   4.557   6.245   2.381
 7324SOL    HW222872   4.688   6.273   2.289
 7325SOL     OW22873   3.283   6.555   0.477
 7325SOL    HW122874   3.223   6.518   0.407
 7325SOL    HW222875   3.258   6.516   0.566
 7326SOL     OW22876   2.991   5.793   5.624
 7326SOL    HW122877   3.064   5.861   5.637
 7326SOL    HW222878   2.902   5.836   5.640
 7327SOL     OW22879   6.161   1.902   6.345
 7327SOL    HW122880   6.255   1.932   6.365
 7327SOL    HW222881   6.117   1.873   6.430
 7328SOL     OW22882   3.517   0.560   6.589
 7328SOL    HW122883   3.514   0.622   6.668
 7328SOL    HW222884   3.529   0.466   6.621
 7329SOL     OW22885   5.693   4.128   1.425
 7329SOL    HW122886   5.719   4.203   1.366
 7329SOL    HW222887   5.760   4.117   1.499
 7330SOL     OW22888   2.519   2.056   6.976
 7330SOL    HW122889   2.444   2.005   7.018
 7330SOL    HW222890   2.482   2.122   6.911
 7331SOL     OW22891   5.587   6.890   2.081
 7331SOL    HW122892   5.512   6.929   2.134
 7331SOL    HW222893   5.574   6.791   2.072
 7332SOL     OW22894   2.213   6.232   0.460
 7332SOL    HW122895   2.168   6.260   0.375
 7332SOL    HW222896   2.312   6.226   0.446
 7333SOL     OW22897   0.462   2.134   2.559
 7333SOL    HW122898   0.443   2.138   2.658
 7333SOL    HW222899   0.558   2.111   2.545
 7334SOL     OW22900   3.170   5.863   6.356
 7334SOL    HW122901   3.092   5.811   6.319
 7334SOL    HW222902   3.245   5.861   6.290
 7335SOL     OW22903   1.576   2.544   3.022
 7335SOL    HW122904   1.667   2.508   3.001
 7335SOL    HW222905   1.580   2.644   3.029
 7336SOL     OW22906   1.120   0.029   3.293
 7336SOL    HW122907   1.187   7.009   3.354
 7336SOL    HW222908   1.081   0.109   3.338
 7337SOL     OW22909   0.037   3.351   2.014
 7337SOL    HW122910   0.042   3.442   1.971
 7337SOL    HW222911   0.125   3.304   2.002
 7338SOL     OW22912   6.560   2.117   1.271
 7338SOL    HW122913   6.510   2.192   1.314
 7338SOL    HW222914   6.563   2.039   1.334
 7339SOL     OW22915   6.080   6.884   3.617
 7339SOL    HW122916   6.146   6.930   3.676
 7339SOL    HW222917   6.006   6.847   3.673
 7340SOL     OW22918   2.455   0.915   1.047
 7340SOL    HW122919   2.517   0.917   1.125
 7340SOL    HW222920   2.382   0.983   1.061
 7341SOL     OW22921   6.776   3.026   6.732
 7341SOL    HW122922   6.860   3.047   6.683
 7341SOL    HW222923   6.767   3.085   6.812
 7342SOL     OW22924   0.351   1.452   1.455
 7342SOL    HW122925   0.286   1.376   1.457
 7342SOL    HW222926   0.321   1.522   1.520
 7343SOL     OW22927   5.458   3.894   0.360
 7343SOL    HW122928   5.540   3.900   0.418
 7343SOL    HW222929   5.397   3.824   0.397
 7344SOL     OW22930   0.602   1.361   6.763
 7344SOL    HW122931   0.567   1.445   6.722
 7344SOL    HW222932   0.527   1.311   6.807
 7345SOL     OW22933   4.567   3.963   5.785
 7345SOL    HW122934   4.648   4.000   5.829
 7345SOL    HW222935   4.589   3.876   5.740
 7346SOL     OW22936   4.096   5.697   2.432
 7346SOL    HW122937   4.115   5.769   2.498
 7346SOL    HW222938   4.001   5.667   2.441
 7347SOL     OW22939   0.851   2.122   0.693
 7347SOL    HW122940   0.932   2.129   0.752
 7347SOL    HW222941   0.836   2.209   0.647
 7348SOL     OW22942   1.205   3.956   3.406
 7348SOL    HW122943   1.210   3.857   3.392
 7348SOL    HW222944   1.218   4.003   3.318
 7349SOL     OW22945   4.175   0.366   1.858
 7349SOL    HW122946   4.137   0.273   1.859
 7349SOL    HW222947   4.270   0.363   1.827
 7350SOL     OW22948   2.784   2.490   5.555
 7350SOL    HW122949   2.787   2.583   5.593
 7350SOL    HW222950   2.837   2.488   5.470
 7351SOL     OW22951   5.872   5.545   3.938
 7351SOL    HW122952   5.843   5.454   3.969
 7351SOL    HW222953   5.941   5.581   4.000
 7352SOL     OW22954   1.892   1.671   2.696
 7352SOL    HW122955   1.841   1.734   2.755
 7352SOL    HW222956   1.984   1.659   2.731
 7353SOL     OW22957   7.023   0.412   6.559
 7353SOL    HW122958   0.089   0.456   6.553
 7353SOL    HW222959   7.010   0.353   6.480
 7354SOL     OW22960   1.083   2.081   4.701
 7354SOL    HW122961   1.052   2.142   4.773
 7354SOL    HW222962   1.134   2.005   4.741
 7355SOL     OW22963   1.394   0.893   0.625
 7355SOL    HW122964   1.362   0.819   0.686
 7355SOL    HW222965   1.474   0.937   0.666
 7356SOL     OW22966   4.135   3.480   6.334
 7356SOL    HW122967   4.174   3.473   6.426
 7356SOL    HW222968   4.136   3.391   6.290
 7357SOL     OW22969   3.154   6.167   2.252
 7357SOL    HW122970   3.124   6.262   2.243
 7357SOL    HW222971   3.178   6.149   2.347
 7358SOL     OW22972   6.598   3.263   2.277
 7358SOL    HW122973   6.574   3.285   2.372
 7358SOL    HW222974   6.697   3.253   2.269
 7359SOL     OW22975   4.585   2.130   5.480
 7359SOL    HW122976   4.662   2.126   5.544
 7359SOL    HW222977   4.527   2.050   5.495
 7360SOL     OW22978   3.010   3.202   5.555
 7360SOL    HW122979   2.960   3.288   5.567
 7360SOL    HW222980   3.108   3.219   5.565
 7361SOL     OW22981   5.200   0.729   2.950
 7361SOL    HW122982   5.217   0.825   2.970
 7361SOL    HW222983   5.201   0.676   3.034
 7362SOL     OW22984   1.382   5.880   6.200
 7362SOL    HW122985   1.436   5.853   6.120
 7362SOL    HW222986   1.389   5.809   6.270
 7363SOL     OW22987   4.506   1.740   1.198
 7363SOL    HW122988   4.550   1.814   1.248
 7363SOL    HW222989   4.507   1.760   1.100
 7364SOL     OW22990   4.042   0.881   2.123
 7364SOL    HW122991   4.058   0.977   2.146
 7364SOL    HW222992   4.128   0.838   2.096
 7365SOL     OW22993   0.734   6.490   1.973
 7365SOL    HW122994   0.655   6.484   1.913
 7365SOL    HW222995   0.770   6.583   1.973
 7366SOL     OW22996   2.078   6.822   5.844
 7366SOL    HW122997   2.142   6.896   5.825
 7366SOL    HW222998   2.022   6.805   5.763
 7367SOL     OW22999   4.651   2.840   0.895
 7367SOL    HW123000   4.579   2.796   0.949
 7367SOL    HW223001   4.615   2.926   0.857
 7368SOL     OW23002   3.830   2.965   2.577
 7368SOL    HW123003   3.833   2.996   2.482
 7368SOL    HW223004   3.899   3.014   2.630
 7369SOL     OW23005   2.967   1.776   1.121
 7369SOL    HW123006   2.916   1.812   1.043
 7369SOL    HW223007   3.041   1.717   1.088
 7370SOL     OW23008   2.102   1.576   5.903
 7370SOL    HW123009   2.029   1.559   5.969
 7370SOL    HW223010   2.104   1.502   5.836
 7371SOL     OW23011   2.582   6.662   3.104
 7371SOL    HW123012   2.678   6.688   3.099
 7371SOL    HW223013   2.534   6.723   3.168
 7372SOL     OW23014   4.265   6.643   4.374
 7372SOL    HW123015   4.296   6.729   4.413
 7372SOL    HW223016   4.190   6.661   4.309
 7373SOL     OW23017   6.290   1.589   4.416
 7373SOL    HW123018   6.349   1.516   4.451
 7373SOL    HW223019   6.262   1.648   4.492
 7374SOL     OW23020   2.586   2.103   5.135
 7374SOL    HW123021   2.505   2.043   5.138
 7374SOL    HW223022   2.565   2.184   5.080
 7375SOL     OW23023   2.158   2.710   1.933
 7375SOL    HW123024   2.190   2.801   1.905
 7375SOL    HW223025   2.140   2.710   2.032
 7376SOL     OW23026   1.514   1.867   1.256
 7376SOL    HW123027   1.608   1.834   1.261
 7376SOL    HW223028   1.463   1.812   1.190
 7377SOL     OW23029   5.081   4.912   0.415
 7377SOL    HW123030   5.170   4.938   0.377
 7377SOL    HW223031   5.017   4.894   0.341
 7378SOL     OW23032   1.191   0.669   4.793
 7378SOL    HW123033   1.152   0.751   4.752
 7378SOL    HW223034   1.237   0.615   4.723
 7379SOL     OW23035   3.673   1.136   2.232
 7379SOL    HW123036   3.709   1.186   2.153
 7379SOL    HW223037   3.660   1.199   2.308
 7380SOL     OW23038   0.629   4.696   4.039
 7380SOL    HW123039   0.583   4.781   4.017
 7380SOL    HW223040   0.652   4.648   3.954
 7381SOL     OW23041   4.323   3.020   0.672
 7381SOL    HW123042   4.259   3.083   0.716
 7381SOL    HW223043   4.324   3.037   0.574
 7382SOL     OW23044   6.836   1.289   4.885
 7382SOL    HW123045   6.842   1.194   4.856
 7382SOL    HW223046   6.928   1.326   4.900
 7383SOL     OW23047   2.799   6.092   1.326
 7383SOL    HW123048   2.888   6.059   1.294
 7383SOL    HW223049   2.753   6.019   1.376
 7384SOL     OW23050   6.992   6.560   3.097
 7384SOL    HW123051   6.940   6.495   3.152
 7384SOL    HW223052   6.932   6.602   3.029
 7385SOL     OW23053   2.829   5.426   2.474
 7385SOL    HW123054   2.843   5.525   2.476
 7385SOL    HW223055   2.909   5.380   2.511
 7386SOL     OW23056   6.800   2.756   6.679
 7386SOL    HW123057   6.728   2.711   6.733
 7386SOL    HW223058   6.792   2.855   6.690
 7387SOL     OW23059   6.591   5.198   5.189
 7387SOL    HW123060   6.662   5.267   5.200
 7387SOL    HW223061   6.556   5.170   5.278
 7388SOL     OW23062   1.292   4.791   2.331
 7388SOL    HW123063   1.241   4.875   2.346
 7388SOL    HW223064   1.279   4.761   2.236
 7389SOL     OW23065   6.690   3.943   6.273
 7389SOL    HW123066   6.664   4.018   6.334
 7389SOL    HW223067   6.630   3.944   6.193
 7390SOL     OW23068   2.376   2.119   2.084
 7390SOL    HW123069   2.466   2.139   2.046
 7390SOL    HW223070   2.387   2.067   2.169
 7391SOL     OW23071   3.817   3.440   3.108
 7391SOL    HW123072   3.812   3.341   3.110
 7391SOL    HW223073   3.893   3.471   3.165
 7392SOL     OW23074   3.221   6.146   6.962
 7392SOL    HW123075   3.237   6.066   7.021
 7392SOL    HW223076   3.149   6.203   7.002
 7393SOL     OW23077   6.068   4.732   3.252
 7393SOL    HW123078   6.152   4.785   3.265
 7393SOL    HW223079   6.011   4.738   3.334
 7394SOL     OW23080   1.333   3.135   5.604
 7394SOL    HW123081   1.376   3.076   5.536
 7394SOL    HW223082   1.371   3.114   5.695
 7395SOL     OW23083   1.821   3.673   1.185
 7395SOL    HW123084   1.770   3.642   1.105
 7395SOL    HW223085   1.800   3.769   1.203
 7396SOL     OW23086   2.065   6.454   1.268
 7396SOL    HW123087   1.979   6.450   1.216
 7396SOL    HW223088   2.141   6.433   1.207
 7397SOL     OW23089   4.843   5.357   4.450
 7397SOL    HW123090   4.745   5.354   4.433
 7397SOL    HW223091   4.886   5.273   4.416
 7398SOL     OW23092   1.042   5.059   3.187
 7398SOL    HW123093   1.105   5.100   3.253
 7398SOL    HW223094   0.948   5.082   3.211
 7399SOL     OW23095   0.120   2.774   4.045
 7399SOL    HW123096   0.061   2.799   4.122
 7399SOL    HW223097   0.154   2.681   4.059
 7400SOL     OW23098   4.272   2.640   6.058
 7400SOL    HW123099   4.367   2.644   6.089
 7400SOL    HW223100   4.240   2.733   6.039
 7401SOL     OW23101   1.227   3.506   3.046
 7401SOL    HW123102   1.229   3.571   3.122
 7401SOL    HW223103   1.285   3.428   3.067
 7402SOL     OW23104   3.363   4.081   6.216
 7402SOL    HW123105   3.375   4.105   6.312
 7402SOL    HW223106   3.267   4.058   6.199
 7403SOL     OW23107   1.621   4.161   2.317
 7403SOL    HW123108   1.594   4.091   2.383
 7403SOL    HW223109   1.643   4.246   2.366
 7404SOL     OW23110   2.792   4.872   1.857
 7404SOL    HW123111   2.784   4.911   1.949
 7404SOL    HW223112   2.833   4.781   1.862
 7405SOL     OW23113   3.697   4.996   4.319
 7405SOL    HW123114   3.703   4.946   4.233
 7405SOL    HW223115   3.602   5.021   4.337
 7406SOL     OW23116   1.015   1.611   4.574
 7406SOL    HW123117   1.041   1.533   4.632
 7406SOL    HW223118   1.098   1.657   4.542
 7407SOL     OW23119   1.425   6.811   5.361
 7407SOL    HW123120   1.440   6.858   5.274
 7407SOL    HW223121   1.399   6.716   5.344
 7408SOL     OW23122   3.816   4.035   5.986
 7408SOL    HW123123   3.788   4.044   5.890
 7408SOL    HW223124   3.739   4.003   6.041
 7409SOL     OW23125   5.553   3.610   0.387
 7409SOL    HW123126   5.641   3.562   0.391
 7409SOL    HW223127   5.498   3.586   0.467
 7410SOL     OW23128   0.838   0.975   0.358
 7410SOL    HW123129   0.776   1.032   0.304
 7410SOL    HW223130   0.865   0.896   0.303
 7411SOL     OW23131   2.054   1.014   6.879
 7411SOL    HW123132   1.978   1.054   6.930
 7411SOL    HW223133   2.140   1.041   6.921
 7412SOL     OW23134   4.499   6.813   1.125
 7412SOL    HW123135   4.594   6.839   1.107
 7412SOL    HW223136   4.488   6.789   1.221
 7413SOL     OW23137   4.345   4.986   3.727
 7413SOL    HW123138   4.437   4.952   3.708
 7413SOL    HW223139   4.282   4.910   3.734
 7414SOL     OW23140   1.967   0.889   3.200
 7414SOL    HW123141   2.004   0.935   3.281
 7414SOL    HW223142   2.025   0.811   3.176
 7415SOL     OW23143   1.972   4.624   5.043
 7415SOL    HW123144   1.887   4.613   5.094
 7415SOL    HW223145   2.049   4.593   5.099
 7416SOL     OW23146   2.124   0.305   2.215
 7416SOL    HW123147   2.059   0.316   2.290
 7416SOL    HW223148   2.201   0.249   2.245
 7417SOL     OW23149   2.255   2.030   1.857
 7417SOL    HW123150   2.297   2.036   1.947
 7417SOL    HW223151   2.201   2.112   1.840
 7418SOL     OW23152   1.774   5.429   6.784
 7418SOL    HW123153   1.831   5.349   6.798
 7418SOL    HW223154   1.780   5.458   6.688
 7419SOL     OW23155   6.638   4.238   4.197
 7419SOL    HW123156   6.725   4.286   4.206
 7419SOL    HW223157   6.625   4.209   4.101
 7420SOL     OW23158   0.277   6.230   1.108
 7420SOL    HW123159   0.303   6.259   1.201
 7420SOL    HW223160   0.204   6.289   1.075
 7421SOL     OW23161   4.144   3.636   1.184
 7421SOL    HW123162   4.227   3.684   1.156
 7421SOL    HW223163   4.068   3.700   1.188
 7422SOL     OW23164   0.024   4.415   2.108
 7422SOL    HW123165   7.004   4.356   2.039
 7422SOL    HW223166   0.004   4.510   2.088
 7423SOL     OW23167   6.333   2.620   5.474
 7423SOL    HW123168   6.398   2.589   5.543
 7423SOL    HW223169   6.240   2.597   5.502
 7424SOL     OW23170   6.791   1.695   5.640
 7424SOL    HW123171   6.838   1.641   5.570
 7424SOL    HW223172   6.797   1.792   5.616
 7425SOL     OW23173   5.134   0.069   0.454
 7425SOL    HW123174   5.133   0.105   0.361
 7425SOL    HW223175   5.227   0.040   0.478
 7426SOL     OW23176   3.226   1.491   5.458
 7426SOL    HW123177   3.140   1.445   5.478
 7426SOL    HW223178   3.302   1.428   5.473
 7427SOL     OW23179   4.810   0.868   4.422
 7427SOL    HW123180   4.878   0.841   4.491
 7427SOL    HW223181   4.851   0.932   4.358
 7428SOL     OW23182   4.102   0.373   5.431
 7428SOL    HW123183   4.157   0.360   5.513
 7428SOL    HW223184   4.118   0.298   5.368
 7429SOL     OW23185   0.690   6.464   3.532
 7429SOL    HW123186   0.770   6.490   3.478
 7429SOL    HW223187   0.653   6.378   3.498
 7430SOL     OW23188   0.092   3.023   0.919
 7430SOL    HW123189   0.186   3.034   0.888
 7430SOL    HW223190   0.038   3.103   0.893
 7431SOL     OW23191   0.646   2.398   2.757
 7431SOL    HW123192   0.559   2.433   2.724
 7431SOL    HW223193   0.639   2.299   2.770
 7432SOL     OW23194   1.879   0.466   3.403
 7432SOL    HW123195   1.882   0.378   3.451
 7432SOL    HW223196   1.829   0.455   3.317
 7433SOL     OW23197   4.173   6.252   6.412
 7433SOL    HW123198   4.228   6.232   6.493
 7433SOL    HW223199   4.097   6.311   6.437
 7434SOL     OW23200   5.498   5.314   5.560
 7434SOL    HW123201   5.566   5.383   5.586
 7434SOL    HW223202   5.531   5.223   5.584
 7435SOL     OW23203   4.733   0.076   1.339
 7435SOL    HW123204   4.831   0.060   1.332
 7435SOL    HW223205   4.716   0.171   1.364
 7436SOL     OW23206   4.744   4.170   6.351
 7436SOL    HW123207   4.769   4.073   6.349
 7436SOL    HW223208   4.812   4.223   6.301
 7437SOL     OW23209   3.100   5.670   0.341
 7437SOL    HW123210   3.086   5.703   0.248
 7437SOL    HW223211   3.086   5.571   0.344
 7438SOL     OW23212   1.366   0.086   0.119
 7438SOL    HW123213   1.378   7.023   0.069
 7438SOL    HW223214   1.390   0.072   0.215
 7439SOL     OW23215   1.947   6.245   5.523
 7439SOL    HW123216   1.945   6.163   5.581
 7439SOL    HW223217   2.013   6.310   5.559
 7440SOL     OW23218   6.849   2.868   4.184
 7440SOL    HW123219   6.811   2.862   4.092
 7440SOL    HW223220   6.806   2.943   4.234
 7441SOL     OW23221   5.445   0.227   4.522
 7441SOL    HW123222   5.526   0.258   4.472
 7441SOL    HW223223   5.458   0.241   4.620
 7442SOL     OW23224   6.014   1.291   0.504
 7442SOL    HW123225   6.047   1.217   0.562
 7442SOL    HW223226   5.944   1.343   0.552
 7443SOL     OW23227   5.837   5.016   1.909
 7443SOL    HW123228   5.779   4.990   1.832
 7443SOL    HW223229   5.793   5.091   1.959
 7444SOL     OW23230   5.440   1.091   0.015
 7444SOL    HW123231   5.401   1.021   6.978
 7444SOL    HW223232   5.372   1.117   0.084
 7445SOL     OW23233   2.907   0.878   1.349
 7445SOL    HW123234   2.904   0.795   1.405
 7445SOL    HW223235   2.987   0.933   1.374
 7446SOL     OW23236   5.221   2.048   0.394
 7446SOL    HW123237   5.243   2.142   0.421
 7446SOL    HW223238   5.250   2.033   0.300
 7447SOL     OW23239   6.612   5.215   6.514
 7447SOL    HW123240   6.568   5.306   6.514
 7447SOL    HW223241   6.552   5.150   6.468
 7448SOL     OW23242   5.833   6.716   4.468
 7448SOL    HW123243   5.855   6.812   4.480
 7448SOL    HW223244   5.918   6.663   4.460
 7449SOL     OW23245   0.710   5.770   0.829
 7449SOL    HW123246   0.745   5.723   0.909
 7449SOL    HW223247   0.616   5.741   0.811
 7450SOL     OW23248   5.518   2.694   5.081
 7450SOL    HW123249   5.517   2.594   5.078
 7450SOL    HW223250   5.610   2.727   5.061
 7451SOL     OW23251   6.241   5.972   2.213
 7451SOL    HW123252   6.316   5.907   2.205
 7451SOL    HW223253   6.277   6.061   2.240
 7452SOL     OW23254   5.758   5.633   4.281
 7452SOL    HW123255   5.721   5.723   4.257
 7452SOL    HW223256   5.701   5.591   4.351
 7453SOL     OW23257   4.502   5.027   4.903
 7453SOL    HW123258   4.412   5.006   4.865
 7453SOL    HW223259   4.564   5.053   4.830
 7454SOL     OW23260   2.806   1.779   0.910
 7454SOL    HW123261   2.746   1.857   0.931
 7454SOL    HW223262   2.832   1.782   0.813
 7455SOL     OW23263   6.888   2.980   1.974
 7455SOL    HW123264   6.827   2.908   2.009
 7455SOL    HW223265   6.834   3.061   1.950
 7456SOL     OW23266   2.123   1.449   4.800
 7456SOL    HW123267   2.214   1.461   4.761
 7456SOL    HW223268   2.088   1.359   4.776
 7457SOL     OW23269   3.218   0.226   4.724
 7457SOL    HW123270   3.294   0.280   4.688
 7457SOL    HW223271   3.132   0.262   4.687
 7458SOL     OW23272   1.565   0.401   6.223
 7458SOL    HW123273   1.605   0.463   6.156
 7458SOL    HW223274   1.566   0.308   6.187
 7459SOL     OW23275   6.022   1.665   2.938
 7459SOL    HW123276   5.964   1.610   2.877
 7459SOL    HW223277   6.031   1.757   2.901
 7460SOL     OW23278   0.976   5.733   0.106
 7460SOL    HW123279   1.040   5.688   0.167
 7460SOL    HW223280   0.934   5.811   0.152
 7461SOL     OW23281   6.227   6.531   6.278
 7461SOL    HW123282   6.137   6.527   6.321
 7461SOL    HW223283   6.278   6.447   6.299
 7462SOL     OW23284   1.885   4.514   1.973
 7462SOL    HW123285   1.869   4.553   2.063
 7462SOL    HW223286   1.966   4.456   1.976
 7463SOL     OW23287   2.860   4.091   0.239
 7463SOL    HW123288   2.865   4.009   0.183
 7463SOL    HW223289   2.861   4.172   0.181
 7464SOL     OW23290   5.496   6.667   5.536
 7464SOL    HW123291   5.477   6.740   5.470
 7464SOL    HW223292   5.520   6.584   5.487
 7465SOL     OW23293   2.397   4.999   6.801
 7465SOL    HW123294   2.462   5.040   6.736
 7465SOL    HW223295   2.383   5.062   6.877
 7466SOL     OW23296   0.007   0.814   5.695
 7466SOL    HW123297   0.019   0.857   5.785
 7466SOL    HW223298   0.089   0.830   5.640
 7467SOL     OW23299   0.380   2.686   5.795
 7467SOL    HW123300   0.394   2.606   5.737
 7467SOL    HW223301   0.282   2.697   5.814
 7468SOL     OW23302   5.345   3.178   4.587
 7468SOL    HW123303   5.365   3.275   4.575
 7468SOL    HW223304   5.313   3.162   4.680
 7469SOL     OW23305   6.528   1.322   0.125
 7469SOL    HW123306   6.542   1.225   0.105
 7469SOL    HW223307   6.471   1.331   0.207
 7470SOL     OW23308   5.368   3.980   3.466
 7470SOL    HW123309   5.287   3.991   3.408
 7470SOL    HW223310   5.426   3.907   3.429
 7471SOL     OW23311   5.367   6.417   6.252
 7471SOL    HW123312   5.329   6.508   6.240
 7471SOL    HW223313   5.420   6.392   6.172
 7472SOL     OW23314   6.699   1.184   5.519
 7472SOL    HW123315   6.763   1.110   5.538
 7472SOL    HW223316   6.606   1.153   5.538
 7473SOL     OW23317   5.135   5.786   3.762
 7473SOL    HW123318   5.080   5.760   3.841
 7473SOL    HW223319   5.076   5.817   3.688
 7474SOL     OW23320   6.414   1.721   6.667
 7474SOL    HW123321   6.470   1.665   6.606
 7474SOL    HW223322   6.434   1.818   6.651
 7475SOL     OW23323   4.503   2.517   1.960
 7475SOL    HW123324   4.512   2.542   1.863
 7475SOL    HW223325   4.452   2.588   2.008
 7476SOL     OW23326   2.513   1.490   3.332
 7476SOL    HW123327   2.462   1.464   3.414
 7476SOL    HW223328   2.454   1.482   3.252
 7477SOL     OW23329   6.933   2.566   4.851
 7477SOL    HW123330   6.888   2.505   4.784
 7477SOL    HW223331   0.006   2.542   4.856
 7478SOL     OW23332   6.167   3.830   5.347
 7478SOL    HW123333   6.117   3.794   5.269
 7478SOL    HW223334   6.208   3.754   5.398
 7479SOL     OW23335   5.020   2.679   2.148
 7479SOL    HW123336   4.972   2.622   2.215
 7479SOL    HW223337   4.959   2.695   2.069
 7480SOL     OW23338   1.604   4.530   2.393
 7480SOL    HW123339   1.603   4.567   2.300
 7480SOL    HW223340   1.693   4.487   2.410
 7481SOL     OW23341   6.408   5.048   0.359
 7481SOL    HW123342   6.436   4.957   0.331
 7481SOL    HW223343   6.350   5.088   0.289
 7482SOL     OW23344   4.573   2.540   2.649
 7482SOL    HW123345   4.644   2.508   2.711
 7482SOL    HW223346   4.609   2.616   2.594
 7483SOL     OW23347   5.218   3.258   4.844
 7483SOL    HW123348   5.191   3.352   4.820
 7483SOL    HW223349   5.137   3.199   4.843
 7484SOL     OW23350   2.189   5.479   4.410
 7484SOL    HW123351   2.148   5.487   4.320
 7484SOL    HW223352   2.221   5.568   4.441
 7485SOL     OW23353   2.690   0.372   4.609
 7485SOL    HW123354   2.674   0.460   4.655
 7485SOL    HW223355   2.673   0.298   4.673
 7486SOL     OW23356   1.241   6.095   6.947
 7486SOL    HW123357   1.163   6.051   6.901
 7486SOL    HW223358   1.220   6.191   6.963
 7487SOL     OW23359   2.922   0.393   3.524
 7487SOL    HW123360   2.874   0.473   3.489
 7487SOL    HW223361   2.999   0.423   3.581
 7488SOL     OW23362   1.940   5.989   4.729
 7488SOL    HW123363   1.891   5.903   4.716
 7488SOL    HW223364   1.907   6.034   4.812
 7489SOL     OW23365   6.113   3.135   6.898
 7489SOL    HW123366   6.072   3.053   6.858
 7489SOL    HW223367   6.132   3.202   6.826
 7490SOL     OW23368   1.499   0.450   3.705
 7490SOL    HW123369   1.586   0.457   3.754
 7490SOL    HW223370   1.505   0.502   3.619
 7491SOL     OW23371   4.438   2.733   6.782
 7491SOL    HW123372   4.355   2.678   6.787
 7491SOL    HW223373   4.508   2.684   6.730
 7492SOL     OW23374   2.209   0.645   4.227
 7492SOL    HW123375   2.193   0.730   4.277
 7492SOL    HW223376   2.243   0.666   4.135
 7493SOL     OW23377   6.319   2.847   5.814
 7493SOL    HW123378   6.248   2.778   5.807
 7493SOL    HW223379   6.403   2.813   5.772
 7494SOL     OW23380   5.554   2.096   3.874
 7494SOL    HW123381   5.475   2.055   3.830
 7494SOL    HW223382   5.621   2.122   3.804
 7495SOL     OW23383   0.973   3.144   5.650
 7495SOL    HW123384   1.042   3.149   5.578
 7495SOL    HW223385   0.952   3.048   5.669
 7496SOL     OW23386   5.895   3.574   4.258
 7496SOL    HW123387   5.869   3.498   4.198
 7496SOL    HW223388   5.925   3.651   4.203
 7497SOL     OW23389   1.500   5.026   1.149
 7497SOL    HW123390   1.426   5.093   1.152
 7497SOL    HW223391   1.581   5.063   1.196
 7498SOL     OW23392   3.145   1.069   4.204
 7498SOL    HW123393   3.160   1.062   4.303
 7498SOL    HW223394   3.118   1.163   4.181
 7499SOL     OW23395   4.104   2.249   3.430
 7499SOL    HW123396   4.199   2.221   3.444
 7499SOL    HW223397   4.080   2.239   3.334
 7500SOL     OW23398   3.484   6.047   2.831
 7500SOL    HW123399   3.441   6.100   2.758
 7500SOL    HW223400   3.417   5.983   2.869
 7501SOL     OW23401   5.272   4.555   3.687
 7501SOL    HW123402   5.321   4.602   3.761
 7501SOL    HW223403   5.318   4.573   3.600
 7502SOL     OW23404   2.809   6.963   4.446
 7502SOL    HW123405   2.876   6.938   4.515
 7502SOL    HW223406   2.827   6.913   4.361
 7503SOL     OW23407   2.756   6.436   1.196
 7503SOL    HW123408   2.818   6.392   1.132
 7503SOL    HW223409   2.809   6.484   1.266
 7504SOL     OW23410   0.256   6.291   3.029
 7504SOL    HW123411   0.206   6.352   2.967
 7504SOL    HW223412   0.215   6.296   3.120
 7505SOL     OW23413   1.431   2.229   6.056
 7505SOL    HW123414   1.463   2.151   6.110
 7505SOL    HW223415   1.381   2.292   6.115
 7506SOL     OW23416   4.723   2.554   3.999
 7506SOL    HW123417   4.679   2.582   4.084
 7506SOL    HW223418   4.681   2.469   3.966
 7507SOL     OW23419   6.028   2.589   2.952
 7507SOL    HW123420   6.100   2.532   2.992
 7507SOL    HW223421   5.993   2.544   2.869
 7508SOL     OW23422   2.369   4.850   0.341
 7508SOL    HW123423   2.338   4.939   0.374
 7508SOL    HW223424   2.441   4.815   0.402
 7509SOL     OW23425   6.133   3.541   0.468
 7509SOL    HW123426   6.134   3.597   0.385
 7509SOL    HW223427   6.115   3.446   0.444
 7510SOL     OW23428   3.901   3.736   4.718
 7510SOL    HW123429   3.923   3.791   4.637
 7510SOL    HW223430   3.961   3.656   4.721
 7511SOL     OW23431   2.798   6.103   3.027
 7511SOL    HW123432   2.805   6.133   3.122
 7511SOL    HW223433   2.884   6.121   2.979
 7512SOL     OW23434   2.465   1.039   6.958
 7512SOL    HW123435   2.538   1.030   0.003
 7512SOL    HW223436   2.388   1.089   6.997
 7513SOL     OW23437   1.512   1.720   2.483
 7513SOL    HW123438   1.580   1.674   2.540
 7513SOL    HW223439   1.522   1.819   2.493
 7514SOL     OW23440   2.440   5.401   2.970
 7514SOL    HW123441   2.431   5.310   2.930
 7514SOL    HW223442   2.385   5.467   2.918
 7515SOL     OW23443   0.076   4.988   4.899
 7515SOL    HW123444   0.122   5.033   4.823
 7515SOL    HW223445   0.144   4.938   4.954
 7516SOL     OW23446   0.664   5.134   6.047
 7516SOL    HW123447   0.607   5.053   6.031
 7516SOL    HW223448   0.711   5.125   6.135
 7517SOL     OW23449   0.712   2.105   0.010
 7517SOL    HW123450   0.705   2.198   6.998
 7517SOL    HW223451   0.640   2.089   0.078
 7518SOL     OW23452   5.338   3.614   3.677
 7518SOL    HW123453   5.408   3.578   3.615
 7518SOL    HW223454   5.349   3.573   3.767
 7519SOL     OW23455   6.560   6.742   4.550
 7519SOL    HW123456   6.540   6.747   4.648
 7519SOL    HW223457   6.615   6.821   4.523
 7520SOL     OW23458   1.828   0.616   2.448
 7520SOL    HW123459   1.759   0.553   2.413
 7520SOL    HW223460   1.790   0.708   2.453
 7521SOL     OW23461   5.658   2.978   4.629
 7521SOL    HW123462   5.738   2.973   4.690
 7521SOL    HW223463   5.654   3.069   4.588
 7522SOL     OW23464   1.442   0.418   5.487
 7522SOL    HW123465   1.378   0.475   5.540
 7522SOL    HW223466   1.490   0.356   5.549
 7523SOL     OW23467   5.115   0.740   6.499
 7523SOL    HW123468   5.133   0.770   6.405
 7523SOL    HW223469   5.132   0.642   6.506
 7524SOL     OW23470   0.174   2.945   4.593
 7524SOL    HW123471   0.086   2.899   4.602
 7524SOL    HW223472   0.170   3.034   4.638
 7525SOL     OW23473   4.526   6.846   6.809
 7525SOL    HW123474   4.452   6.822   6.746
 7525SOL    HW223475   4.488   6.892   6.889
 7526SOL     OW23476   2.741   2.582   1.289
 7526SOL    HW123477   2.641   2.591   1.291
 7526SOL    HW223478   2.771   2.523   1.364
 7527SOL     OW23479   3.367   5.907   3.746
 7527SOL    HW123480   3.328   5.943   3.661
 7527SOL    HW223481   3.360   5.808   3.747
 7528SOL     OW23482   6.083   2.349   0.011
 7528SOL    HW123483   6.182   2.350   0.021
 7528SOL    HW223484   6.059   2.372   6.939
 7529SOL     OW23485   5.356   1.831   4.454
 7529SOL    HW123486   5.441   1.862   4.496
 7529SOL    HW223487   5.299   1.910   4.432
 7530SOL     OW23488   5.937   2.367   2.161
 7530SOL    HW123489   6.004   2.401   2.227
 7530SOL    HW223490   5.982   2.353   2.072
 7531SOL     OW23491   5.315   3.233   3.733
 7531SOL    HW123492   5.238   3.173   3.754
 7531SOL    HW223493   5.307   3.317   3.786
 7532SOL     OW23494   4.680   6.395   0.142
 7532SOL    HW123495   4.669   6.477   0.086
 7532SOL    HW223496   4.769   6.354   0.125
 7533SOL     OW23497   3.677   1.967   1.918
 7533SOL    HW123498   3.706   2.056   1.953
 7533SOL    HW223499   3.585   1.976   1.879
 7534SOL     OW23500   4.890   5.515   4.177
 7534SOL    HW123501   4.984   5.519   4.210
 7534SOL    HW223502   4.854   5.422   4.190
 7535SOL     OW23503   1.703   6.755   5.053
 7535SOL    HW123504   1.624   6.695   5.043
 7535SOL    HW223505   1.767   6.715   5.119
 7536SOL     OW23506   4.974   5.792   3.531
 7536SOL    HW123507   4.961   5.756   3.438
 7536SOL    HW223508   4.941   5.887   3.534
 7537SOL     OW23509   1.956   4.699   2.533
 7537SOL    HW123510   2.000   4.650   2.458
 7537SOL    HW223511   1.928   4.790   2.502
 7538SOL     OW23512   2.217   2.739   1.281
 7538SOL    HW123513   2.165   2.822   1.300
 7538SOL    HW223514   2.169   2.660   1.320
 7539SOL     OW23515   1.300   4.390   3.215
 7539SOL    HW123516   1.210   4.409   3.175
 7539SOL    HW223517   1.295   4.400   3.315
 7540SOL     OW23518   4.278   6.491   4.713
 7540SOL    HW123519   4.219   6.571   4.700
 7540SOL    HW223520   4.307   6.457   4.623
 7541SOL     OW23521   0.822   4.262   5.844
 7541SOL    HW123522   0.861   4.171   5.838
 7541SOL    HW223523   0.743   4.261   5.906
 7542SOL     OW23524   6.446   5.891   6.740
 7542SOL    HW123525   6.407   5.831   6.809
 7542SOL    HW223526   6.495   5.966   6.785
 7543SOL     OW23527   3.260   0.813   5.131
 7543SOL    HW123528   3.174   0.829   5.082
 7543SOL    HW223529   3.245   0.822   5.230
 7544SOL     OW23530   7.002   2.711   4.338
 7544SOL    HW123531   6.954   2.777   4.281
 7544SOL    HW223532   6.995   2.738   4.434
 7545SOL     OW23533   0.671   6.618   6.085
 7545SOL    HW123534   0.575   6.619   6.055
 7545SOL    HW223535   0.675   6.599   6.183
 7546SOL     OW23536   4.742   2.351   1.631
 7546SOL    HW123537   4.818   2.389   1.578
 7546SOL    HW223538   4.757   2.254   1.648
 7547SOL     OW23539   4.869   0.779   1.069
 7547SOL    HW123540   4.848   0.798   1.165
 7547SOL    HW223541   4.957   0.820   1.046
 7548SOL     OW23542   4.600   2.634   6.551
 7548SOL    HW123543   4.575   2.659   6.457
 7548SOL    HW223544   4.585   2.536   6.564
 7549SOL     OW23545   3.842   3.097   6.312
 7549SOL    HW123546   3.833   3.001   6.339
 7549SOL    HW223547   3.786   3.154   6.373
 7550SOL     OW23548   1.905   4.717   3.241
 7550SOL    HW123549   1.893   4.675   3.331
 7550SOL    HW223550   1.987   4.681   3.197
 7551SOL     OW23551   5.780   3.104   5.610
 7551SOL    HW123552   5.845   3.027   5.610
 7551SOL    HW223553   5.762   3.133   5.704
 7552SOL     OW23554   1.644   5.939   4.276
 7552SOL    HW123555   1.576   5.880   4.233
 7552SOL    HW223556   1.655   6.022   4.221
 7553SOL     OW23557   5.327   6.712   5.775
 7553SOL    HW123558   5.399   6.674   5.716
 7553SOL    HW223559   5.243   6.660   5.763
 7554SOL     OW23560   4.836   0.772   0.016
 7554SOL    HW123561   4.811   0.679   0.043
 7554SOL    HW223562   4.935   0.784   0.023
 7555SOL     OW23563   3.447   6.092   6.465
 7555SOL    HW123564   3.352   6.116   6.445
 7555SOL    HW223565   3.450   6.036   6.548
 7556SOL     OW23566   2.323   1.467   0.117
 7556SOL    HW123567   2.327   1.392   0.183
 7556SOL    HW223568   2.402   1.461   0.056
 7557SOL     OW23569   4.828   0.265   6.575
 7557SOL    HW123570   4.844   0.347   6.521
 7557SOL    HW223571   4.848   0.184   6.519
 7558SOL     OW23572   2.127   3.142   3.717
 7558SOL    HW123573   2.037   3.116   3.681
 7558SOL    HW223574   2.181   3.059   3.732
 7559SOL     OW23575   4.328   2.259   5.830
 7559SOL    HW123576   4.266   2.251   5.752
 7559SOL    HW223577   4.355   2.354   5.842
 7560SOL     OW23578   6.064   0.010   0.270
 7560SOL    HW123579   6.000   0.086   0.264
 7560SOL    HW223580   6.123   0.023   0.350
 7561SOL     OW23581   6.316   3.317   5.954
 7561SOL    HW123582   6.369   3.401   5.965
 7561SOL    HW223583   6.229   3.327   6.001
 7562SOL     OW23584   0.841   4.931   5.285
 7562SOL    HW123585   0.838   4.842   5.238
 7562SOL    HW223586   0.811   4.920   5.379
 7563SOL     OW23587   2.571   5.951   2.003
 7563SOL    HW123588   2.615   6.033   2.041
 7563SOL    HW223589   2.636   5.875   2.004
 7564SOL     OW23590   3.830   0.174   4.421
 7564SOL    HW123591   3.887   0.256   4.412
 7564SOL    HW223592   3.808   0.138   4.330
 7565SOL     OW23593   5.453   3.927   5.602
 7565SOL    HW123594   5.479   3.961   5.693
 7565SOL    HW223595   5.396   3.996   5.557
 7566SOL     OW23596   5.658   5.452   2.388
 7566SOL    HW123597   5.688   5.505   2.467
 7566SOL    HW223598   5.671   5.507   2.305
 7567SOL     OW23599   0.836   1.002   5.996
 7567SOL    HW123600   0.885   1.083   5.963
 7567SOL    HW223601   0.796   0.954   5.919
 7568SOL     OW23602   5.496   4.950   2.048
 7568SOL    HW123603   5.513   4.983   1.955
 7568SOL    HW223604   5.439   4.868   2.043
 7569SOL     OW23605   3.849   4.292   6.242
 7569SOL    HW123606   3.869   4.194   6.251
 7569SOL    HW223607   3.932   4.341   6.218
 7570SOL     OW23608   6.077   4.057   3.932
 7570SOL    HW123609   6.143   4.036   3.861
 7570SOL    HW223610   6.125   4.082   4.016
 7571SOL     OW23611   5.331   3.459   3.247
 7571SOL    HW123612   5.391   3.410   3.311
 7571SOL    HW223613   5.302   3.397   3.174
 7572SOL     OW23614   5.529   0.683   3.305
 7572SOL    HW123615   5.613   0.696   3.252
 7572SOL    HW223616   5.457   0.741   3.268
 7573SOL     OW23617   6.577   0.376   5.596
 7573SOL    HW123618   6.601   0.466   5.631
 7573SOL    HW223619   6.650   0.343   5.536
 7574SOL     OW23620   5.851   1.197   4.282
 7574SOL    HW123621   5.814   1.249   4.359
 7574SOL    HW223622   5.840   1.249   4.197
 7575SOL     OW23623   6.012   6.742   0.180
 7575SOL    HW123624   6.051   6.818   0.231
 7575SOL    HW223625   6.075   6.714   0.108
 7576SOL     OW23626   4.971   2.158   0.275
 7576SOL    HW123627   4.943   2.066   0.303
 7576SOL    HW223628   4.964   2.220   0.353
 7577SOL     OW23629   0.526   6.061   0.583
 7577SOL    HW123630   0.483   6.041   0.495
 7577SOL    HW223631   0.493   5.996   0.652
 7578SOL     OW23632   1.556   5.405   2.593
 7578SOL    HW123633   1.604   5.475   2.541
 7578SOL    HW223634   1.517   5.337   2.531
 7579SOL     OW23635   7.010   1.608   1.475
 7579SOL    HW123636   6.931   1.597   1.536
 7579SOL    HW223637   0.052   1.670   1.517
 7580SOL     OW23638   1.107   4.544   3.100
 7580SOL    HW123639   1.015   4.511   3.122
 7580SOL    HW223640   1.108   4.644   3.101
 7581SOL     OW23641   0.598   1.233   1.504
 7581SOL    HW123642   0.522   1.296   1.521
 7581SOL    HW223643   0.648   1.263   1.423
 7582SOL     OW23644   4.047   1.678   4.178
 7582SOL    HW123645   3.954   1.642   4.180
 7582SOL    HW223646   4.106   1.617   4.125
 7583SOL     OW23647   5.426   3.249   2.395
 7583SOL    HW123648   5.337   3.209   2.374
 7583SOL    HW223649   5.486   3.179   2.434
 7584SOL     OW23650   1.428   0.378   3.040
 7584SOL    HW123651   1.357   0.341   2.981
 7584SOL    HW223652   1.479   0.448   2.990
 7585SOL     OW23653   1.417   1.995   6.206
 7585SOL    HW123654   1.433   1.897   6.192
 7585SOL    HW223655   1.350   2.007   6.280
 7586SOL     OW23656   1.832   6.752   3.274
 7586SOL    HW123657   1.767   6.679   3.293
 7586SOL    HW223658   1.885   6.729   3.193
 7587SOL     OW23659   2.757   1.548   6.634
 7587SOL    HW123660   2.821   1.503   6.571
 7587SOL    HW223661   2.690   1.482   6.667
 7588SOL     OW23662   1.945   2.624   3.852
 7588SOL    HW123663   1.943   2.556   3.926
 7588SOL    HW223664   1.964   2.577   3.765
 7589SOL     OW23665   6.964   1.053   2.630
 7589SOL    HW123666   6.939   1.150   2.631
 7589SOL    HW223667   6.947   1.013   2.720
 7590SOL     OW23668   5.566   0.720   0.510
 7590SOL    HW123669   5.527   0.635   0.546
 7590SOL    HW223670   5.604   0.773   0.585
 7591SOL     OW23671   5.524   3.978   6.571
 7591SOL    HW123672   5.456   3.934   6.630
 7591SOL    HW223673   5.612   3.979   6.618
 7592SOL     OW23674   6.066   5.110   4.659
 7592SOL    HW123675   6.147   5.067   4.697
 7592SOL    HW223676   6.094   5.182   4.595
 7593SOL     OW23677   6.996   3.039   7.005
 7593SOL    HW123678   6.959   3.114   6.951
 7593SOL    HW223679   0.056   3.069   0.028
 7594SOL     OW23680   1.336   4.782   1.306
 7594SOL    HW123681   1.329   4.794   1.207
 7594SOL    HW223682   1.400   4.707   1.326
 7595SOL     OW23683   6.280   2.953   6.258
 7595SOL    HW123684   6.318   2.993   6.175
 7595SOL    HW223685   6.332   2.871   6.283
 7596SOL     OW23686   3.290   6.573   5.264
 7596SOL    HW123687   3.212   6.632   5.282
 7596SOL    HW223688   3.293   6.551   5.166
 7597SOL     OW23689   1.896   6.752   3.007
 7597SOL    HW123690   1.939   6.688   2.943
 7597SOL    HW223691   1.903   6.845   2.971
 7598SOL     OW23692   6.324   0.824   3.151
 7598SOL    HW123693   6.357   0.870   3.233
 7598SOL    HW223694   6.372   0.736   3.140
 7599SOL     OW23695   5.590   3.275   1.324
 7599SOL    HW123696   5.638   3.194   1.357
 7599SOL    HW223697   5.558   3.329   1.402
 7600SOL     OW23698   0.781   0.952   3.641
 7600SOL    HW123699   0.708   1.003   3.687
 7600SOL    HW223700   0.822   0.888   3.706
 7601SOL     OW23701   3.161   5.218   2.025
 7601SOL    HW123702   3.110   5.197   1.941
 7601SOL    HW223703   3.188   5.133   2.070
 7602SOL     OW23704   1.386   3.047   6.676
 7602SOL    HW123705   1.413   3.141   6.697
 7602SOL    HW223706   1.463   2.986   6.693
 7603SOL     OW23707   1.762   6.477   5.814
 7603SOL    HW123708   1.846   6.516   5.851
 7603SOL    HW223709   1.723   6.412   5.879
 7604SOL     OW23710   1.096   2.074   5.271
 7604SOL    HW123711   1.134   2.024   5.348
 7604SOL    HW223712   1.066   2.165   5.301
 7605SOL     OW23713   1.480   0.585   0.556
 7605SOL    HW123714   1.486   0.622   0.463
 7605SOL    HW223715   1.564   0.605   0.606
 7606SOL     OW23716   5.784   2.838   5.119
 7606SOL    HW123717   5.705   2.899   5.115
 7606SOL    HW223718   5.850   2.872   5.185
 7607SOL     OW23719   4.178   5.355   0.262
 7607SOL    HW123720   4.224   5.426   0.315
 7607SOL    HW223721   4.150   5.281   0.323
 7608SOL     OW23722   5.109   2.603   0.421
 7608SOL    HW123723   5.107   2.606   0.521
 7608SOL    HW223724   5.199   2.573   0.390
 7609SOL     OW23725   1.237   3.334   3.609
 7609SOL    HW123726   1.235   3.390   3.692
 7609SOL    HW223727   1.231   3.393   3.529
 7610SOL     OW23728   3.941   4.541   5.590
 7610SOL    HW123729   4.001   4.621   5.598
 7610SOL    HW223730   3.909   4.514   5.681
 7611SOL     OW23731   5.462   3.396   1.099
 7611SOL    HW123732   5.518   3.369   1.177
 7611SOL    HW223733   5.500   3.478   1.056
 7612SOL     OW23734   4.706   2.707   2.915
 7612SOL    HW123735   4.624   2.661   2.882
 7612SOL    HW223736   4.763   2.642   2.966
 7613SOL     OW23737   0.719   1.583   2.090
 7613SOL    HW123738   0.724   1.642   2.171
 7613SOL    HW223739   0.811   1.562   2.059
 7614SOL     OW23740   5.250   3.504   1.248
 7614SOL    HW123741   5.311   3.441   1.201
 7614SOL    HW223742   5.261   3.596   1.211
 7615SOL     OW23743   4.988   4.150   6.121
 7615SOL    HW123744   5.061   4.104   6.171
 7615SOL    HW223745   4.920   4.084   6.091
 7616SOL     OW23746   6.953   0.037   4.092
 7616SOL    HW123747   6.940   0.014   3.995
 7616SOL    HW223748   7.002   0.124   4.099
 7617SOL     OW23749   5.616   6.287   3.512
 7617SOL    HW123750   5.636   6.204   3.460
 7617SOL    HW223751   5.572   6.262   3.599
 7618SOL     OW23752   1.082   2.693   6.778
 7618SOL    HW123753   1.176   2.669   6.802
 7618SOL    HW223754   1.040   2.617   6.728
 7619SOL     OW23755   6.810   2.297   4.289
 7619SOL    HW123756   6.905   2.271   4.306
 7619SOL    HW223757   6.749   2.228   4.327
 7620SOL     OW23758   4.001   5.376   1.116
 7620SOL    HW123759   4.044   5.294   1.154
 7620SOL    HW223760   4.061   5.417   1.048
 7621SOL     OW23761   0.443   0.453   1.137
 7621SOL    HW123762   0.349   0.441   1.170
 7621SOL    HW223763   0.508   0.432   1.210
 7622SOL     OW23764   4.752   4.844   6.389
 7622SOL    HW123765   4.664   4.814   6.426
 7622SOL    HW223766   4.754   4.944   6.383
 7623SOL     OW23767   4.502   4.502   0.907
 7623SOL    HW123768   4.474   4.409   0.887
 7623SOL    HW223769   4.552   4.504   0.994
 7624SOL     OW23770   6.585   3.636   3.667
 7624SOL    HW123771   6.562   3.722   3.621
 7624SOL    HW223772   6.501   3.586   3.688
 7625SOL     OW23773   6.780   1.562   0.371
 7625SOL    HW123774   6.827   1.566   0.283
 7625SOL    HW223775   6.681   1.561   0.355
 7626SOL     OW23776   6.653   1.084   5.821
 7626SOL    HW123777   6.645   1.010   5.887
 7626SOL    HW223778   6.747   1.118   5.819
 7627SOL     OW23779   3.118   2.005   0.278
 7627SOL    HW123780   3.107   2.024   0.376
 7627SOL    HW223781   3.189   1.936   0.265
 7628SOL     OW23782   3.847   2.751   1.713
 7628SOL    HW123783   3.931   2.716   1.755
 7628SOL    HW223784   3.780   2.677   1.705
 7629SOL     OW23785   6.591   4.401   3.328
 7629SOL    HW123786   6.491   4.400   3.336
 7629SOL    HW223787   6.632   4.375   3.415
 7630SOL     OW23788   0.619   0.796   6.488
 7630SOL    HW123789   0.681   0.717   6.485
 7630SOL    HW223790   0.665   0.872   6.534
 7631SOL     OW23791   1.226   1.574   5.457
 7631SOL    HW123792   1.286   1.590   5.379
 7631SOL    HW223793   1.263   1.621   5.537
 7632SOL     OW23794   4.400   5.121   0.638
 7632SOL    HW123795   4.489   5.081   0.658
 7632SOL    HW223796   4.404   5.170   0.551
 7633SOL     OW23797   5.212   0.518   1.987
 7633SOL    HW123798   5.131   0.552   1.938
 7633SOL    HW223799   5.250   0.591   2.044
 7634SOL     OW23800   2.320   1.272   1.335
 7634SOL    HW123801   2.267   1.239   1.257
 7634SOL    HW223802   2.358   1.362   1.315
 7635SOL     OW23803   3.308   5.279   4.505
 7635SOL    HW123804   3.370   5.217   4.552
 7635SOL    HW223805   3.302   5.365   4.554
 7636SOL     OW23806   1.461   4.105   4.267
 7636SOL    HW123807   1.430   4.011   4.251
 7636SOL    HW223808   1.416   4.166   4.202
 7637SOL     OW23809   1.834   6.213   3.229
 7637SOL    HW123810   1.863   6.136   3.172
 7637SOL    HW223811   1.741   6.197   3.262
 7638SOL     OW23812   1.036   5.267   2.434
 7638SOL    HW123813   0.978   5.317   2.370
 7638SOL    HW223814   0.979   5.219   2.501
 7639SOL     OW23815   0.653   1.399   0.485
 7639SOL    HW123816   0.672   1.463   0.559
 7639SOL    HW223817   0.736   1.383   0.432
 7640SOL     OW23818   2.929   2.199   6.888
 7640SOL    HW123819   2.929   2.103   6.917
 7640SOL    HW223820   2.881   2.255   6.955
 7641SOL     OW23821   6.675   3.815   2.646
 7641SOL    HW123822   6.710   3.829   2.739
 7641SOL    HW223823   6.592   3.760   2.649
 7642SOL     OW23824   5.830   1.466   2.799
 7642SOL    HW123825   5.833   1.366   2.799
 7642SOL    HW223826   5.735   1.497   2.795
 7643SOL     OW23827   5.301   1.305   2.689
 7643SOL    HW123828   5.309   1.350   2.778
 7643SOL    HW223829   5.238   1.357   2.630
 7644SOL     OW23830   4.927   3.162   2.456
 7644SOL    HW123831   4.882   3.099   2.520
 7644SOL    HW223832   4.892   3.146   2.364
 7645SOL     OW23833   4.326   3.463   5.599
 7645SOL    HW123834   4.385   3.426   5.527
 7645SOL    HW223835   4.335   3.562   5.603
 7646SOL     OW23836   0.594   2.675   3.929
 7646SOL    HW123837   0.558   2.761   3.894
 7646SOL    HW223838   0.519   2.616   3.959
 7647SOL     OW23839   0.486   3.155   4.412
 7647SOL    HW123840   0.506   3.242   4.367
 7647SOL    HW223841   0.546   3.143   4.491
 7648SOL     OW23842   2.344   1.349   2.562
 7648SOL    HW123843   2.270   1.315   2.620
 7648SOL    HW223844   2.319   1.438   2.524
 7649SOL     OW23845   1.517   1.273   4.437
 7649SOL    HW123846   1.440   1.219   4.405
 7649SOL    HW223847   1.595   1.213   4.456
 7650SOL     OW23848   6.191   0.364   1.148
 7650SOL    HW123849   6.229   0.278   1.183
 7650SOL    HW223850   6.235   0.387   1.061
 7651SOL     OW23851   2.548   6.233   4.341
 7651SOL    HW123852   2.476   6.186   4.391
 7651SOL    HW223853   2.627   6.173   4.331
 7652SOL     OW23854   5.466   2.800   5.346
 7652SOL    HW123855   5.473   2.761   5.254
 7652SOL    HW223856   5.371   2.825   5.364
 7653SOL     OW23857   1.409   1.669   0.239
 7653SOL    HW123858   1.332   1.611   0.213
 7653SOL    HW223859   1.491   1.640   0.189
 7654SOL     OW23860   5.733   3.536   4.742
 7654SOL    HW123861   5.800   3.510   4.811
 7654SOL    HW223862   5.776   3.593   4.673
 7655SOL     OW23863   3.839   0.776   3.859
 7655SOL    HW123864   3.846   0.707   3.787
 7655SOL    HW223865   3.764   0.839   3.837
 7656SOL     OW23866   5.091   2.619   6.389
 7656SOL    HW123867   5.102   2.673   6.306
 7656SOL    HW223868   5.179   2.582   6.418
 7657SOL     OW23869   1.941   2.467   4.081
 7657SOL    HW123870   1.986   2.386   4.042
 7657SOL    HW223871   2.011   2.534   4.107
 7658SOL     OW23872   3.232   0.440   0.765
 7658SOL    HW123873   3.149   0.482   0.802
 7658SOL    HW223874   3.207   0.363   0.706
 7659SOL     OW23875   5.005   4.269   6.868
 7659SOL    HW123876   4.957   4.223   6.794
 7659SOL    HW223877   5.081   4.323   6.831
 7660SOL     OW23878   6.411   5.375   4.320
 7660SOL    HW123879   6.402   5.392   4.222
 7660SOL    HW223880   6.455   5.453   4.363
 7661SOL     OW23881   4.916   1.828   5.830
 7661SOL    HW123882   4.951   1.841   5.737
 7661SOL    HW223883   4.988   1.851   5.895
 7662SOL     OW23884   0.952   2.451   3.062
 7662SOL    HW123885   1.027   2.498   3.015
 7662SOL    HW223886   0.876   2.514   3.075
 7663SOL     OW23887   4.860   5.397   6.413
 7663SOL    HW123888   4.816   5.484   6.435
 7663SOL    HW223889   4.914   5.366   6.491
 7664SOL     OW23890   3.720   1.332   2.487
 7664SOL    HW123891   3.682   1.260   2.545
 7664SOL    HW223892   3.695   1.422   2.524
 7665SOL     OW23893   5.391   1.708   4.149
 7665SOL    HW123894   5.333   1.678   4.224
 7665SOL    HW223895   5.410   1.806   4.160
 7666SOL     OW23896   0.237   4.816   3.898
 7666SOL    HW123897   0.235   4.739   3.961
 7666SOL    HW223898   0.143   4.851   3.887
 7667SOL     OW23899   4.186   0.541   3.134
 7667SOL    HW123900   4.129   0.458   3.129
 7667SOL    HW223901   4.273   0.523   3.089
 7668SOL     OW23902   2.440   4.876   0.809
 7668SOL    HW123903   2.519   4.917   0.765
 7668SOL    HW223904   2.413   4.793   0.760
 7669SOL     OW23905   4.506   0.783   5.098
 7669SOL    HW123906   4.417   0.793   5.142
 7669SOL    HW223907   4.498   0.722   5.020
 7670SOL     OW23908   1.029   6.099   0.722
 7670SOL    HW123909   1.041   6.072   0.627
 7670SOL    HW223910   0.938   6.070   0.754
 7671SOL     OW23911   4.510   0.184   2.178
 7671SOL    HW123912   4.465   0.100   2.209
 7671SOL    HW223913   4.441   0.256   2.169
 7672SOL     OW23914   6.740   4.916   3.363
 7672SOL    HW123915   6.805   4.982   3.400
 7672SOL    HW223916   6.651   4.960   3.352
 7673SOL     OW23917   1.677   5.575   2.401
 7673SOL    HW123918   1.645   5.555   2.308
 7673SOL    HW223919   1.772   5.604   2.398
 7674SOL     OW23920   4.524   0.228   4.108
 7674SOL    HW123921   4.563   0.146   4.065
 7674SOL    HW223922   4.534   0.220   4.207
 7675SOL     OW23923   4.708   6.312   3.689
 7675SOL    HW123924   4.708   6.366   3.774
 7675SOL    HW223925   4.774   6.352   3.625
 7676SOL     OW23926   3.054   2.274   6.079
 7676SOL    HW123927   3.114   2.341   6.123
 7676SOL    HW223928   3.054   2.289   5.980
 7677SOL     OW23929   0.263   4.549   0.855
 7677SOL    HW123930   0.190   4.551   0.787
 7677SOL    HW223931   0.351   4.535   0.809
 7678SOL     OW23932   1.669   2.713   5.259
 7678SOL    HW123933   1.640   2.627   5.219
 7678SOL    HW223934   1.698   2.776   5.187
 7679SOL     OW23935   1.954   5.374   5.462
 7679SOL    HW123936   1.877   5.311   5.457
 7679SOL    HW223937   1.982   5.399   5.369
 7680SOL     OW23938   1.331   0.514   6.383
 7680SOL    HW123939   1.400   0.508   6.311
 7680SOL    HW223940   1.283   0.426   6.390
 7681SOL     OW23941   2.915   1.062   7.012
 7681SOL    HW123942   2.873   1.094   6.928
 7681SOL    HW223943   2.931   1.139   0.050
 7682SOL     OW23944   4.653   0.981   2.121
 7682SOL    HW123945   4.704   0.974   2.207
 7682SOL    HW223946   4.580   1.048   2.130
 7683SOL     OW23947   0.292   1.303   5.176
 7683SOL    HW123948   0.388   1.297   5.149
 7683SOL    HW223949   0.279   1.382   5.236
 7684SOL     OW23950   3.731   2.357   1.417
 7684SOL    HW123951   3.660   2.312   1.362
 7684SOL    HW223952   3.798   2.400   1.357
 7685SOL     OW23953   3.392   1.684   6.354
 7685SOL    HW123954   3.335   1.736   6.290
 7685SOL    HW223955   3.415   1.742   6.433
 7686SOL     OW23956   6.069   6.835   4.334
 7686SOL    HW123957   6.052   6.753   4.279
 7686SOL    HW223958   6.101   6.909   4.274
 7687SOL     OW23959   4.784   5.389   4.733
 7687SOL    HW123960   4.827   5.386   4.642
 7687SOL    HW223961   4.795   5.301   4.778
 7688SOL     OW23962   0.135   6.196   6.390
 7688SOL    HW123963   0.185   6.136   6.328
 7688SOL    HW223964   0.156   6.291   6.367
 7689SOL     OW23965   5.328   6.914   2.698
 7689SOL    HW123966   5.329   6.815   2.685
 7689SOL    HW223967   5.408   6.941   2.750
 7690SOL     OW23968   5.636   5.261   0.703
 7690SOL    HW123969   5.674   5.310   0.781
 7690SOL    HW223970   5.629   5.164   0.724
 7691SOL     OW23971   5.082   4.397   1.840
 7691SOL    HW123972   5.140   4.315   1.845
 7691SOL    HW223973   4.986   4.370   1.833
 7692SOL     OW23974   0.899   6.243   1.608
 7692SOL    HW123975   0.862   6.169   1.552
 7692SOL    HW223976   0.922   6.208   1.699
 7693SOL     OW23977   3.200   0.190   1.325
 7693SOL    HW123978   3.262   0.203   1.403
 7693SOL    HW223979   3.109   0.224   1.348
 7694SOL     OW23980   5.941   3.164   4.543
 7694SOL    HW123981   5.851   3.188   4.507
 7694SOL    HW223982   5.965   3.071   4.516
 7695SOL     OW23983   6.115   0.773   1.547
 7695SOL    HW123984   6.057   0.853   1.528
 7695SOL    HW223985   6.113   0.711   1.469
 7696SOL     OW23986   6.823   1.223   6.135
 7696SOL    HW123987   6.745   1.268   6.178
 7696SOL    HW223988   6.833   1.131   6.173
 7697SOL     OW23989   2.909   0.947   2.509
 7697SOL    HW123990   2.984   0.900   2.557
 7697SOL    HW223991   2.932   1.043   2.498
 7698SOL     OW23992   6.761   1.374   5.336
 7698SOL    HW123993   6.737   1.322   5.418
 7698SOL    HW223994   6.718   1.331   5.256
 7699SOL     OW23995   2.597   5.100   6.635
 7699SOL    HW123996   2.582   5.198   6.625
 7699SOL    HW223997   2.668   5.084   6.704
 7700SOL     OW23998   4.054   6.107   3.517
 7700SOL    HW123999   4.097   6.181   3.464
 7700SOL    HW224000   3.977   6.144   3.569
 7701SOL     OW24001   0.313   2.393   6.641
 7701SOL    HW124002   0.351   2.479   6.610
 7701SOL    HW224003   0.370   2.356   6.715
 7702SOL     OW24004   4.521   6.045   5.224
 7702SOL    HW124005   4.440   6.082   5.269
 7702SOL    HW224006   4.493   5.981   5.153
 7703SOL     OW24007   6.059   6.571   5.704
 7703SOL    HW124008   5.990   6.587   5.634
 7703SOL    HW224009   6.019   6.523   5.781
 7704SOL     OW24010   6.006   2.232   3.294
 7704SOL    HW124011   6.019   2.226   3.393
 7704SOL    HW224012   6.052   2.154   3.251
 7705SOL     OW24013   2.545   4.912   1.077
 7705SOL    HW124014   2.484   4.962   1.138
 7705SOL    HW224015   2.500   4.896   0.989
 7706SOL     OW24016   3.737   3.364   3.540
 7706SOL    HW124017   3.827   3.326   3.515
 7706SOL    HW224018   3.668   3.291   3.536
 7707SOL     OW24019   0.442   4.584   6.451
 7707SOL    HW124020   0.420   4.601   6.548
 7707SOL    HW224021   0.505   4.507   6.444
 7708SOL     OW24022   1.300   6.658   4.600
 7708SOL    HW124023   1.346   6.730   4.548
 7708SOL    HW224024   1.284   6.579   4.540
 7709SOL     OW24025   6.377   5.247   1.756
 7709SOL    HW124026   6.367   5.152   1.785
 7709SOL    HW224027   6.343   5.258   1.663
 7710SOL     OW24028   2.015   2.516   0.419
 7710SOL    HW124029   2.114   2.524   0.406
 7710SOL    HW224030   1.992   2.537   0.514
 7711SOL     OW24031   5.599   5.601   6.081
 7711SOL    HW124032   5.637   5.693   6.074
 7711SOL    HW224033   5.659   5.544   6.138
 7712SOL     OW24034   6.263   4.773   0.113
 7712SOL    HW124035   6.281   4.679   0.085
 7712SOL    HW224036   6.346   4.812   0.153
 7713SOL     OW24037   2.035   3.907   0.619
 7713SOL    HW124038   2.002   3.844   0.549
 7713SOL    HW224039   1.960   3.934   0.679
 7714SOL     OW24040   0.449   6.432   5.235
 7714SOL    HW124041   0.400   6.361   5.186
 7714SOL    HW224042   0.429   6.521   5.193
 7715SOL     OW24043   2.615   2.115   6.487
 7715SOL    HW124044   2.553   2.044   6.520
 7715SOL    HW224045   2.695   2.120   6.546
 7716SOL     OW24046   6.918   5.202   0.403
 7716SOL    HW124047   6.927   5.108   0.435
 7716SOL    HW224048   7.004   5.233   0.362
 7717SOL     OW24049   1.411   1.932   5.341
 7717SOL    HW124050   1.420   1.834   5.325
 7717SOL    HW224051   1.462   1.982   5.271
 7718SOL     OW24052   6.866   4.495   3.224
 7718SOL    HW124053   6.882   4.537   3.135
 7718SOL    HW224054   6.773   4.458   3.228
 7719SOL     OW24055   1.011   4.371   4.558
 7719SOL    HW124056   0.929   4.319   4.585
 7719SOL    HW224057   1.056   4.324   4.483
 7720SOL     OW24058   6.047   1.670   5.929
 7720SOL    HW124059   5.951   1.682   5.902
 7720SOL    HW224060   6.106   1.696   5.852
 7721SOL     OW24061   0.425   6.787   2.670
 7721SOL    HW124062   0.460   6.841   2.593
 7721SOL    HW224063   0.330   6.761   2.650
 7722SOL     OW24064   2.143   5.087   3.869
 7722SOL    HW124065   2.124   5.162   3.806
 7722SOL    HW224066   2.108   5.001   3.830
 7723SOL     OW24067   5.002   3.673   6.409
 7723SOL    HW124068   5.059   3.747   6.446
 7723SOL    HW224069   5.047   3.632   6.329
 7724SOL     OW24070   3.065   4.126   0.430
 7724SOL    HW124071   2.994   4.166   0.372
 7724SOL    HW224072   3.146   4.184   0.430
 7725SOL     OW24073   6.087   2.405   2.704
 7725SOL    HW124074   6.006   2.347   2.702
 7725SOL    HW224075   6.169   2.348   2.710
 7726SOL     OW24076   1.022   3.187   6.016
 7726SOL    HW124077   1.004   3.102   5.967
 7726SOL    HW224078   1.082   3.245   5.962
 7727SOL     OW24079   5.945   2.593   1.418
 7727SOL    HW124080   5.888   2.639   1.486
 7727SOL    HW224081   5.962   2.655   1.341
 7728SOL     OW24082   2.313   2.574   5.168
 7728SOL    HW124083   2.292   2.666   5.199
 7728SOL    HW224084   2.388   2.577   5.102
 7729SOL     OW24085   5.402   1.620   2.202
 7729SOL    HW124086   5.416   1.629   2.103
 7729SOL    HW224087   5.313   1.660   2.227
 7730SOL     OW24088   6.736   4.921   6.146
 7730SOL    HW124089   6.690   4.935   6.058
 7730SOL    HW224090   6.676   4.950   6.220
 7731SOL     OW24091   6.561   6.855   0.501
 7731SOL    HW124092   6.553   6.847   0.402
 7731SOL    HW224093   6.511   6.935   0.533
 7732SOL     OW24094   4.144   0.532   0.428
 7732SOL    HW124095   4.122   0.456   0.489
 7732SOL    HW224096   4.237   0.520   0.391
 7733SOL     OW24097   6.256   5.346   2.333
 7733SOL    HW124098   6.212   5.258   2.352
 7733SOL    HW224099   6.300   5.342   2.243
 7734SOL     OW24100   2.317   4.837   4.480
 7734SOL    HW124101   2.373   4.754   4.481
 7734SOL    HW224102   2.303   4.865   4.385
 7735SOL     OW24103   6.446   5.822   0.369
 7735SOL    HW124104   6.398   5.741   0.335
 7735SOL    HW224105   6.417   5.841   0.462
 7736SOL     OW24106   2.241   3.293   0.466
 7736SOL    HW124107   2.341   3.286   0.462
 7736SOL    HW224108   2.210   3.276   0.559
 7737SOL     OW24109   3.292   5.721   1.973
 7737SOL    HW124110   3.233   5.645   1.945
 7737SOL    HW224111   3.250   5.807   1.946
 7738SOL     OW24112   2.493   5.607   0.188
 7738SOL    HW124113   2.529   5.561   0.269
 7738SOL    HW224114   2.427   5.676   0.216
 7739SOL     OW24115   2.015   1.872   1.796
 7739SOL    HW124116   2.082   1.946   1.805
 7739SOL    HW224117   2.061   1.789   1.765
 7740SOL     OW24118   1.812   1.059   2.635
 7740SOL    HW124119   1.885   1.008   2.682
 7740SOL    HW224120   1.821   1.156   2.654
 7741SOL     OW24121   0.521   4.038   5.182
 7741SOL    HW124122   0.442   4.095   5.207
 7741SOL    HW224123   0.531   4.037   5.083
 7742SOL     OW24124   4.115   1.486   3.968
 7742SOL    HW124125   4.045   1.477   3.896
 7742SOL    HW224126   4.182   1.554   3.940
 7743SOL     OW24127   4.866   1.044   0.029
 7743SOL    HW124128   4.788   0.983   0.016
 7743SOL    HW224129   4.833   1.134   0.058
 7744SOL     OW24130   0.902   6.170   3.399
 7744SOL    HW124131   0.944   6.222   3.473
 7744SOL    HW224132   0.919   6.215   3.312
 7745SOL     OW24133   2.547   6.877   6.771
 7745SOL    HW124134   2.573   6.792   6.726
 7745SOL    HW224135   2.482   6.859   6.844
 7746SOL     OW24136   1.558   7.010   0.820
 7746SOL    HW124137   1.645   7.007   0.869
 7746SOL    HW224138   1.483   7.011   0.886
 7747SOL     OW24139   0.623   6.166   1.493
 7747SOL    HW124140   0.611   6.203   1.585
 7747SOL    HW224141   0.626   6.241   1.426
 7748SOL     OW24142   3.148   4.070   4.476
 7748SOL    HW124143   3.073   4.004   4.488
 7748SOL    HW224144   3.195   4.051   4.390
 7749SOL     OW24145   3.382   3.614   3.762
 7749SOL    HW124146   3.380   3.680   3.837
 7749SOL    HW224147   3.460   3.633   3.702
 7750SOL     OW24148   5.961   5.836   6.354
 7750SOL    HW124149   6.008   5.897   6.419
 7750SOL    HW224150   5.937   5.751   6.400
 7751SOL     OW24151   0.946   2.103   2.673
 7751SOL    HW124152   0.928   2.148   2.761
 7751SOL    HW224153   1.041   2.119   2.646
 7752SOL     OW24154   5.733   5.858   6.061
 7752SOL    HW124155   5.780   5.853   6.149
 7752SOL    HW224156   5.743   5.950   6.023
 7753SOL     OW24157   2.853   0.896   4.155
 7753SOL    HW124158   2.883   0.913   4.249
 7753SOL    HW224159   2.891   0.809   4.123
 7754SOL     OW24160   5.778   0.348   1.672
 7754SOL    HW124161   5.730   0.290   1.606
 7754SOL    HW224162   5.774   0.305   1.763
 7755SOL     OW24163   1.141   1.253   5.963
 7755SOL    HW124164   1.137   1.255   6.063
 7755SOL    HW224165   1.194   1.331   5.930
 7756SOL     OW24166   2.940   5.674   2.544
 7756SOL    HW124167   2.972   5.689   2.637
 7756SOL    HW224168   2.996   5.728   2.481
 7757SOL     OW24169   5.137   6.233   3.935
 7757SOL    HW124170   5.134   6.291   3.853
 7757SOL    HW224171   5.058   6.253   3.992
 7758SOL     OW24172   1.776   2.085   6.583
 7758SOL    HW124173   1.725   2.018   6.530
 7758SOL    HW224174   1.873   2.061   6.582
 7759SOL     OW24175   2.093   1.462   5.066
 7759SOL    HW124176   2.112   1.451   4.969
 7759SOL    HW224177   2.061   1.375   5.104
 7760SOL     OW24178   5.917   3.234   2.223
 7760SOL    HW124179   5.856   3.299   2.178
 7760SOL    HW224180   5.934   3.156   2.163
 7761SOL     OW24181   1.844   0.051   5.880
 7761SOL    HW124182   1.914   7.008   5.854
 7761SOL    HW224183   1.813   0.100   5.798
 7762SOL     OW24184   4.283   0.839   5.259
 7762SOL    HW124185   4.286   0.791   5.347
 7762SOL    HW224186   4.221   0.917   5.266
 7763SOL     OW24187   1.369   1.439   1.341
 7763SOL    HW124188   1.404   1.496   1.415
 7763SOL    HW224189   1.276   1.468   1.319
 7764SOL     OW24190   3.553   3.206   2.912
 7764SOL    HW124191   3.569   3.107   2.909
 7764SOL    HW224192   3.612   3.250   2.845
 7765SOL     OW24193   6.691   3.054   4.306
 7765SOL    HW124194   6.660   3.133   4.360
 7765SOL    HW224195   6.651   3.059   4.214
 7766SOL     OW24196   5.091   1.679   0.428
 7766SOL    HW124197   5.041   1.644   0.507
 7766SOL    HW224198   5.167   1.735   0.459
 7767SOL     OW24199   3.636   6.615   3.890
 7767SOL    HW124200   3.566   6.545   3.904
 7767SOL    HW224201   3.714   6.596   3.950
 7768SOL     OW24202   4.234   5.476   2.413
 7768SOL    HW124203   4.193   5.567   2.406
 7768SOL    HW224204   4.254   5.455   2.509
 7769SOL     OW24205   4.928   1.760   1.670
 7769SOL    HW124206   4.830   1.754   1.688
 7769SOL    HW224207   4.971   1.671   1.688
 7770SOL     OW24208   1.368   4.380   2.486
 7770SOL    HW124209   1.271   4.406   2.481
 7770SOL    HW224210   1.424   4.456   2.454
 7771SOL     OW24211   2.488   2.922   5.418
 7771SOL    HW124212   2.446   2.957   5.502
 7771SOL    HW224213   2.484   2.992   5.347
 7772SOL     OW24214   4.998   0.609   3.908
 7772SOL    HW124215   5.011   0.514   3.937
 7772SOL    HW224216   4.997   0.614   3.809
 7773SOL     OW24217   2.824   5.159   5.526
 7773SOL    HW124218   2.860   5.252   5.515
 7773SOL    HW224219   2.900   5.094   5.529
 7774SOL     OW24220   6.165   2.255   6.497
 7774SOL    HW124221   6.258   2.284   6.474
 7774SOL    HW224222   6.169   2.182   6.566
 7775SOL     OW24223   3.413   6.923   2.895
 7775SOL    HW124224   3.403   7.019   2.920
 7775SOL    HW224225   3.451   6.872   2.973
 7776SOL     OW24226   3.293   3.662   0.105
 7776SOL    HW124227   3.289   3.692   0.010
 7776SOL    HW224228   3.316   3.740   0.163
 7777SOL     OW24229   2.557   1.649   5.005
 7777SOL    HW124230   2.519   1.664   5.096
 7777SOL    HW224231   2.484   1.620   4.943
 7778SOL     OW24232   4.922   6.902   0.317
 7778SOL    HW124233   5.004   6.957   0.335
 7778SOL    HW224234   4.844   6.942   0.364
 7779SOL     OW24235   3.444   2.874   0.686
 7779SOL    HW124236   3.372   2.906   0.623
 7779SOL    HW224237   3.427   2.910   0.777
 7780SOL     OW24238   1.697   5.335   4.911
 7780SOL    HW124239   1.778   5.393   4.908
 7780SOL    HW224240   1.724   5.239   4.922
 7781SOL     OW24241   1.444   4.199   6.551
 7781SOL    HW124242   1.390   4.116   6.564
 7781SOL    HW224243   1.412   4.269   6.616
 7782SOL     OW24244   1.389   4.016   5.503
 7782SOL    HW124245   1.351   3.926   5.482
 7782SOL    HW224246   1.395   4.070   5.419
 7783SOL     OW24247   2.021   5.870   6.010
 7783SOL    HW124248   2.117   5.842   6.008
 7783SOL    HW224249   2.010   5.945   6.075
 7784SOL     OW24250   2.271   2.591   0.399
 7784SOL    HW124251   2.322   2.614   0.316
 7784SOL    HW224252   2.335   2.566   0.472
 7785SOL     OW24253   1.420   6.938   4.074
 7785SOL    HW124254   1.472   6.887   4.005
 7785SOL    HW224255   1.332   6.892   4.090
 7786SOL     OW24256   3.635   6.213   6.267
 7786SOL    HW124257   3.567   6.213   6.193
 7786SOL    HW224258   3.589   6.226   6.355
 7787SOL     OW24259   2.180   3.498   5.246
 7787SOL    HW124260   2.222   3.407   5.245
 7787SOL    HW224261   2.163   3.528   5.152
 7788SOL     OW24262   1.377   6.877   1.671
 7788SOL    HW124263   1.459   6.927   1.644
 7788SOL    HW224264   1.347   6.820   1.595
 7789SOL     OW24265   3.380   6.754   0.096
 7789SOL    HW124266   3.469   6.740   0.052
 7789SOL    HW224267   3.391   6.746   0.196
 7790SOL     OW24268   5.817   5.249   2.312
 7790SOL    HW124269   5.752   5.323   2.331
 7790SOL    HW224270   5.767   5.163   2.299
 7791SOL     OW24271   2.900   6.579   3.683
 7791SOL    HW124272   2.801   6.567   3.688
 7791SOL    HW224273   2.941   6.499   3.639
 7792SOL     OW24274   0.983   5.740   5.830
 7792SOL    HW124275   1.038   5.753   5.748
 7792SOL    HW224276   1.033   5.773   5.910
 7793SOL     OW24277   1.885   0.809   6.081
 7793SOL    HW124278   1.898   0.904   6.051
 7793SOL    HW224279   1.896   0.748   6.003
 7794SOL     OW24280   4.900   5.316   3.465
 7794SOL    HW124281   4.843   5.318   3.384
 7794SOL    HW224282   4.872   5.389   3.527
 7795SOL     OW24283   2.158   3.550   4.969
 7795SOL    HW124284   2.193   3.609   4.897
 7795SOL    HW224285   2.157   3.455   4.936
 7796SOL     OW24286   2.884   3.725   3.962
 7796SOL    HW124287   2.899   3.651   3.897
 7796SOL    HW224288   2.859   3.808   3.913
 7797SOL     OW24289   0.924   5.982   2.971
 7797SOL    HW124290   0.923   6.066   3.026
 7797SOL    HW224291   0.891   6.001   2.879
 7798SOL     OW24292   1.292   4.930   6.343
 7798SOL    HW124293   1.317   4.834   6.357
 7798SOL    HW224294   1.291   4.950   6.245
 7799SOL     OW24295   6.915   6.467   1.497
 7799SOL    HW124296   6.865   6.383   1.474
 7799SOL    HW224297   6.921   6.475   1.597
 7800SOL     OW24298   1.648   5.236   0.572
 7800SOL    HW124299   1.715   5.172   0.535
 7800SOL    HW224300   1.591   5.188   0.639
 7801SOL     OW24301   2.680   2.081   1.534
 7801SOL    HW124302   2.606   2.016   1.517
 7801SOL    HW224303   2.651   2.147   1.604
 7802SOL     OW24304   5.352   1.961   1.421
 7802SOL    HW124305   5.293   2.040   1.408
 7802SOL    HW224306   5.355   1.936   1.517
 7803SOL     OW24307   4.652   2.990   6.016
 7803SOL    HW124308   4.644   3.082   5.980
 7803SOL    HW224309   4.595   2.980   6.097
 7804SOL     OW24310   6.051   1.320   3.919
 7804SOL    HW124311   5.957   1.331   3.889
 7804SOL    HW224312   6.092   1.410   3.934
 7805SOL     OW24313   5.542   1.172   1.479
 7805SOL    HW124314   5.530   1.238   1.554
 7805SOL    HW224315   5.629   1.190   1.432
 7806SOL     OW24316   5.606   2.341   6.035
 7806SOL    HW124317   5.517   2.383   6.022
 7806SOL    HW224318   5.600   2.243   6.013
 7807SOL     OW24319   0.139   4.702   6.181
 7807SOL    HW124320   0.235   4.677   6.171
 7807SOL    HW224321   0.108   4.680   6.274
 7808SOL     OW24322   0.397   2.814   4.184
 7808SOL    HW124323   0.474   2.843   4.127
 7808SOL    HW224324   0.352   2.894   4.223
 7809SOL     OW24325   2.561   6.090   4.691
 7809SOL    HW124326   2.543   6.186   4.710
 7809SOL    HW224327   2.500   6.058   4.618
 7810SOL     OW24328   3.709   6.838   5.251
 7810SOL    HW124329   3.713   6.909   5.322
 7810SOL    HW224330   3.802   6.818   5.220
 7811SOL     OW24331   0.376   4.842   3.656
 7811SOL    HW124332   0.359   4.941   3.656
 7811SOL    HW224333   0.339   4.802   3.741
 7812SOL     OW24334   1.317   1.990   3.716
 7812SOL    HW124335   1.379   1.968   3.791
 7812SOL    HW224336   1.368   2.033   3.641
 7813SOL     OW24337   4.274   2.352   6.422
 7813SOL    HW124338   4.281   2.325   6.326
 7813SOL    HW224339   4.197   2.416   6.433
 7814SOL     OW24340   6.840   3.650   3.671
 7814SOL    HW124341   6.740   3.645   3.665
 7814SOL    HW224342   6.868   3.746   3.680
 7815SOL     OW24343   4.687   0.603   6.859
 7815SOL    HW124344   4.711   0.684   6.913
 7815SOL    HW224345   4.771   0.557   6.830
 7816SOL     OW24346   1.083   2.698   6.298
 7816SOL    HW124347   1.048   2.668   6.209
 7816SOL    HW224348   1.035   2.782   6.326
 7817SOL     OW24349   5.843   4.448   3.806
 7817SOL    HW124350   5.768   4.402   3.853
 7817SOL    HW224351   5.926   4.441   3.861
 7818SOL     OW24352   4.433   0.871   3.040
 7818SOL    HW124353   4.532   0.856   3.030
 7818SOL    HW224354   4.402   0.831   3.126
 7819SOL     OW24355   6.625   3.122   1.699
 7819SOL    HW124356   6.691   3.161   1.763
 7819SOL    HW224357   6.592   3.194   1.637
 7820SOL     OW24358   1.116   2.438   4.402
 7820SOL    HW124359   1.082   2.485   4.320
 7820SOL    HW224360   1.194   2.487   4.439
 7821SOL     OW24361   4.896   6.291   0.965
 7821SOL    HW124362   4.861   6.229   0.896
 7821SOL    HW224363   4.989   6.318   0.942
 7822SOL     OW24364   0.361   0.301   5.568
 7822SOL    HW124365   0.432   0.369   5.586
 7822SOL    HW224366   0.369   0.270   5.473
 7823SOL     OW24367   2.484   3.806   5.392
 7823SOL    HW124368   2.394   3.767   5.410
 7823SOL    HW224369   2.479   3.864   5.310
 7824SOL     OW24370   5.846   1.760   4.971
 7824SOL    HW124371   5.882   1.853   4.985
 7824SOL    HW224372   5.888   1.721   4.889
 7825SOL     OW24373   1.563   3.198   0.363
 7825SOL    HW124374   1.478   3.249   0.346
 7825SOL    HW224375   1.567   3.119   0.302
 7826SOL     OW24376   6.022   1.320   1.568
 7826SOL    HW124377   6.082   1.323   1.648
 7826SOL    HW224378   5.957   1.396   1.572
 7827SOL     OW24379   2.100   5.927   1.031
 7827SOL    HW124380   2.034   5.852   1.032
 7827SOL    HW224381   2.192   5.890   1.018
 7828SOL     OW24382   6.473   4.799   0.311
 7828SOL    HW124383   6.542   4.772   0.244
 7828SOL    HW224384   6.412   4.722   0.329
 7829SOL     OW24385   2.623   3.564   1.199
 7829SOL    HW124386   2.565   3.637   1.162
 7829SOL    HW224387   2.573   3.516   1.272
 7830SOL     OW24388   3.558   4.978   5.518
 7830SOL    HW124389   3.637   5.037   5.535
 7830SOL    HW224390   3.491   5.027   5.462
 7831SOL     OW24391   1.587   0.032   1.574
 7831SOL    HW124392   1.574   0.102   1.503
 7831SOL    HW224393   1.684   0.005   1.577
 7832SOL     OW24394   6.223   0.460   4.954
 7832SOL    HW124395   6.154   0.416   4.897
 7832SOL    HW224396   6.181   0.533   5.008
 7833SOL     OW24397   1.140   0.915   4.678
 7833SOL    HW124398   1.075   0.991   4.671
 7833SOL    HW224399   1.230   0.951   4.706
 7834SOL     OW24400   6.676   1.677   3.789
 7834SOL    HW124401   6.708   1.735   3.715
 7834SOL    HW224402   6.753   1.630   3.831
 7835SOL     OW24403   3.869   1.896   5.286
 7835SOL    HW124404   3.826   1.816   5.244
 7835SOL    HW224405   3.836   1.906   5.380
 7836SOL     OW24406   3.168   3.967   5.344
 7836SOL    HW124407   3.227   4.034   5.300
 7836SOL    HW224408   3.079   3.964   5.298
 7837SOL     OW24409   4.846   5.752   6.806
 7837SOL    HW124410   4.853   5.657   6.837
 7837SOL    HW224411   4.873   5.813   6.881
 7838SOL     OW24412   4.212   6.556   1.222
 7838SOL    HW124413   4.275   6.530   1.295
 7838SOL    HW224414   4.182   6.651   1.236
 7839SOL     OW24415   6.207   4.082   4.502
 7839SOL    HW124416   6.263   4.057   4.581
 7839SOL    HW224417   6.256   4.060   4.418
 7840SOL     OW24418   0.273   3.424   4.057
 7840SOL    HW124419   0.342   3.496   4.046
 7840SOL    HW224420   0.184   3.465   4.076
 7841SOL     OW24421   4.161   1.898   6.634
 7841SOL    HW124422   4.127   1.977   6.583
 7841SOL    HW224423   4.233   1.928   6.697
 7842SOL     OW24424   2.028   1.212   2.467
 7842SOL    HW124425   1.975   1.267   2.403
 7842SOL    HW224426   2.080   1.142   2.417
 7843SOL     OW24427   0.298   6.539   3.544
 7843SOL    HW124428   0.320   6.442   3.535
 7843SOL    HW224429   0.382   6.592   3.551
 7844SOL     OW24430   2.750   0.670   2.335
 7844SOL    HW124431   2.763   0.759   2.379
 7844SOL    HW224432   2.792   0.599   2.392
 7845SOL     OW24433   4.919   1.558   2.569
 7845SOL    HW124434   4.864   1.489   2.522
 7845SOL    HW224435   5.014   1.550   2.540
 7846SOL     OW24436   1.437   2.546   1.421
 7846SOL    HW124437   1.482   2.545   1.511
 7846SOL    HW224438   1.378   2.466   1.413
 7847SOL     OW24439   6.611   1.658   3.366
 7847SOL    HW124440   6.534   1.692   3.311
 7847SOL    HW224441   6.576   1.596   3.436
 7848SOL     OW24442   3.456   5.213   1.233
 7848SOL    HW124443   3.412   5.186   1.147
 7848SOL    HW224444   3.406   5.173   1.310
 7849SOL     OW24445   6.309   4.096   4.755
 7849SOL    HW124446   6.364   4.076   4.836
 7849SOL    HW224447   6.230   4.152   4.781
 7850SOL     OW24448   0.332   1.348   3.791
 7850SOL    HW124449   0.250   1.373   3.739
 7850SOL    HW224450   0.341   1.249   3.795
 7851SOL     OW24451   0.226   2.263   1.537
 7851SOL    HW124452   0.146   2.230   1.587
 7851SOL    HW224453   0.265   2.342   1.585
 7852SOL     OW24454   3.133   0.983   0.396
 7852SOL    HW124455   3.101   0.970   0.303
 7852SOL    HW224456   3.170   0.897   0.431
 7853SOL     OW24457   4.629   2.723   1.293
 7853SOL    HW124458   4.563   2.797   1.281
 7853SOL    HW224459   4.717   2.751   1.254
 7854SOL     OW24460   3.335   2.641   5.845
 7854SOL    HW124461   3.298   2.709   5.907
 7854SOL    HW224462   3.276   2.634   5.764
 7855SOL     OW24463   4.511   6.027   4.641
 7855SOL    HW124464   4.434   6.085   4.667
 7855SOL    HW224465   4.596   6.068   4.675
 7856SOL     OW24466   0.459   5.352   4.923
 7856SOL    HW124467   0.534   5.318   4.866
 7856SOL    HW224468   0.403   5.276   4.954
 7857SOL     OW24469   4.682   3.355   0.724
 7857SOL    HW124470   4.630   3.270   0.715
 7857SOL    HW224471   4.741   3.349   0.805
 7858SOL     OW24472   6.530   6.805   4.842
 7858SOL    HW124473   6.474   6.874   4.888
 7858SOL    HW224474   6.502   6.714   4.872
 7859SOL     OW24475   4.452   3.486   0.155
 7859SOL    HW124476   4.551   3.473   0.149
 7859SOL    HW224477   4.429   3.580   0.133
 7860SOL     OW24478   4.419   1.141   4.302
 7860SOL    HW124479   4.340   1.083   4.323
 7860SOL    HW224480   4.474   1.097   4.231
 7861SOL     OW24481   2.971   4.947   1.658
 7861SOL    HW124482   3.032   4.881   1.616
 7861SOL    HW224483   2.905   4.900   1.716
 7862SOL     OW24484   2.097   5.499   2.692
 7862SOL    HW124485   2.149   5.414   2.682
 7862SOL    HW224486   2.124   5.563   2.620
 7863SOL     OW24487   0.468   4.309   3.872
 7863SOL    HW124488   0.435   4.331   3.780
 7863SOL    HW224489   0.543   4.371   3.896
 7864SOL     OW24490   1.143   5.428   5.623
 7864SOL    HW124491   1.222   5.372   5.645
 7864SOL    HW224492   1.071   5.413   5.691
 7865SOL     OW24493   6.592   5.621   4.390
 7865SOL    HW124494   6.661   5.567   4.342
 7865SOL    HW224495   6.545   5.681   4.325
 7866SOL     OW24496   1.068   0.369   5.660
 7866SOL    HW124497   0.997   0.424   5.704
 7866SOL    HW224498   1.029   0.281   5.630
 7867SOL     OW24499   5.913   6.405   3.048
 7867SOL    HW124500   5.877   6.344   3.119
 7867SOL    HW224501   6.002   6.371   3.017
 7868SOL     OW24502   4.537   5.926   1.253
 7868SOL    HW124503   4.636   5.914   1.250
 7868SOL    HW224504   4.515   6.000   1.316
 7869SOL     OW24505   5.384   4.345   5.900
 7869SOL    HW124506   5.374   4.442   5.880
 7869SOL    HW224507   5.293   4.302   5.900
 7870SOL     OW24508   4.737   6.400   4.603
 7870SOL    HW124509   4.734   6.314   4.654
 7870SOL    HW224510   4.832   6.424   4.586
 7871SOL     OW24511   4.720   2.436   2.072
 7871SOL    HW124512   4.634   2.472   2.035
 7871SOL    HW224513   4.747   2.490   2.151
 7872SOL     OW24514   1.701   3.783   2.766
 7872SOL    HW124515   1.698   3.827   2.676
 7872SOL    HW224516   1.615   3.799   2.814
 7873SOL     OW24517   6.506   0.124   0.253
 7873SOL    HW124518   6.538   0.111   0.159
 7873SOL    HW224519   6.513   0.221   0.278
 7874SOL     OW24520   4.499   2.492   1.349
 7874SOL    HW124521   4.560   2.568   1.327
 7874SOL    HW224522   4.411   2.505   1.304
 7875SOL     OW24523   3.651   2.899   0.239
 7875SOL    HW124524   3.663   2.884   0.337
 7875SOL    HW224525   3.598   2.824   0.200
 7876SOL     OW24526   1.294   6.214   3.576
 7876SOL    HW124527   1.250   6.137   3.528
 7876SOL    HW224528   1.366   6.178   3.636
 7877SOL     OW24529   0.114   1.128   2.976
 7877SOL    HW124530   0.129   1.224   3.000
 7877SOL    HW224531   0.202   1.083   2.963
 7878SOL     OW24532   4.694   4.268   3.541
 7878SOL    HW124533   4.611   4.292   3.491
 7878SOL    HW224534   4.725   4.346   3.594
 7879SOL     OW24535   3.943   5.221   2.788
 7879SOL    HW124536   3.858   5.245   2.834
 7879SOL    HW224537   3.935   5.129   2.749
 7880SOL     OW24538   2.136   4.017   1.351
 7880SOL    HW124539   2.136   3.948   1.423
 7880SOL    HW224540   2.110   3.974   1.264
 7881SOL     OW24541   4.912   4.046   4.493
 7881SOL    HW124542   4.900   4.063   4.591
 7881SOL    HW224543   4.965   4.121   4.453
 7882SOL     OW24544   2.052   3.531   1.542
 7882SOL    HW124545   2.148   3.548   1.522
 7882SOL    HW224546   2.027   3.576   1.628
 7883SOL     OW24547   0.884   0.819   6.242
 7883SOL    HW124548   0.864   0.889   6.174
 7883SOL    HW224549   0.857   0.851   6.333
 7884SOL     OW24550   1.340   3.737   4.527
 7884SOL    HW124551   1.261   3.688   4.491
 7884SOL    HW224552   1.381   3.684   4.601
 7885SOL     OW24553   6.903   5.748   1.081
 7885SOL    HW124554   6.883   5.671   1.020
 7885SOL    HW224555   6.984   5.728   1.135
 7886SOL     OW24556   4.077   6.067   7.005
 7886SOL    HW124557   4.166   6.027   0.005
 7886SOL    HW224558   4.062   6.059   6.906
 7887SOL     OW24559   3.700   2.300   6.347
 7887SOL    HW124560   3.740   2.359   6.277
 7887SOL    HW224561   3.610   2.337   6.374
 7888SOL     OW24562   6.307   0.196   5.136
 7888SOL    HW124563   6.216   0.178   5.098
 7888SOL    HW224564   6.337   0.287   5.109
 7889SOL     OW24565   2.073   4.778   1.857
 7889SOL    HW124566   2.025   4.720   1.790
 7889SOL    HW224567   2.029   4.867   1.861
 7890SOL     OW24568   1.380   3.961   2.476
 7890SOL    HW124569   1.368   3.882   2.417
 7890SOL    HW224570   1.309   4.029   2.457
 7891SOL     OW24571   1.547   3.910   2.948
 7891SOL    HW124572   1.557   3.861   3.035
 7891SOL    HW224573   1.480   3.984   2.959
 7892SOL     OW24574   2.151   2.642   4.169
 7892SOL    HW124575   2.081   2.711   4.186
 7892SOL    HW224576   2.227   2.683   4.119
 7893SOL     OW24577   6.338   7.023   2.727
 7893SOL    HW124578   6.396   0.069   2.769
 7893SOL    HW224579   6.294   0.037   2.646
 7894SOL     OW24580   2.621   6.324   1.563
 7894SOL    HW124581   2.546   6.389   1.552
 7894SOL    HW224582   2.592   6.249   1.623
 7895SOL     OW24583   6.430   1.287   5.784
 7895SOL    HW124584   6.466   1.224   5.716
 7895SOL    HW224585   6.447   1.251   5.876
 7896SOL     OW24586   5.197   4.380   6.478
 7896SOL    HW124587   5.201   4.395   6.577
 7896SOL    HW224588   5.265   4.311   6.452
 7897SOL     OW24589   2.712   3.911   6.228
 7897SOL    HW124590   2.691   3.975   6.154
 7897SOL    HW224591   2.765   3.834   6.191
 7898SOL     OW24592   5.335   2.067   3.675
 7898SOL    HW124593   5.359   1.986   3.622
 7898SOL    HW224594   5.236   2.069   3.691
 7899SOL     OW24595   6.511   1.428   1.798
 7899SOL    HW124596   6.550   1.337   1.779
 7899SOL    HW224597   6.563   1.497   1.749
 7900SOL     OW24598   1.298   5.183   1.196
 7900SOL    HW124599   1.230   5.174   1.123
 7900SOL    HW224600   1.274   5.122   1.271
 7901SOL     OW24601   4.815   0.508   6.424
 7901SOL    HW124602   4.769   0.508   6.335
 7901SOL    HW224603   4.791   0.592   6.473
 7902SOL     OW24604   5.646   4.708   1.975
 7902SOL    HW124605   5.607   4.625   1.935
 7902SOL    HW224606   5.646   4.782   1.907
 7903SOL     OW24607   6.025   2.296   0.887
 7903SOL    HW124608   6.052   2.288   0.982
 7903SOL    HW224609   5.989   2.208   0.855
 7904SOL     OW24610   5.996   0.577   3.274
 7904SOL    HW124611   6.089   0.558   3.304
 7904SOL    HW224612   5.947   0.627   3.346
 7905SOL     OW24613   4.136   1.765   0.496
 7905SOL    HW124614   4.145   1.841   0.559
 7905SOL    HW224615   4.204   1.774   0.423
 7906SOL     OW24616   0.688   5.615   0.014
 7906SOL    HW124617   0.636   5.573   0.088
 7906SOL    HW224618   0.785   5.617   0.038
 7907SOL     OW24619   6.200   2.172   4.275
 7907SOL    HW124620   6.238   2.240   4.211
 7907SOL    HW224621   6.274   2.122   4.319
 7908SOL     OW24622   1.606   1.680   4.361
 7908SOL    HW124623   1.665   1.757   4.385
 7908SOL    HW224624   1.652   1.595   4.383
 7909SOL     OW24625   5.249   3.677   5.047
 7909SOL    HW124626   5.321   3.614   5.074
 7909SOL    HW224627   5.160   3.634   5.064
 7910SOL     OW24628   3.205   2.890   5.672
 7910SOL    HW124629   3.186   2.808   5.620
 7910SOL    HW224630   3.245   2.959   5.612
 7911SOL     OW24631   0.805   3.465   6.481
 7911SOL    HW124632   0.845   3.420   6.402
 7911SOL    HW224633   0.877   3.483   6.549
 7912SOL     OW24634   0.600   4.964   0.330
 7912SOL    HW124635   0.615   4.890   0.264
 7912SOL    HW224636   0.655   5.044   0.305
 7913SOL     OW24637   1.142   4.880   0.483
 7913SOL    HW124638   1.143   4.826   0.567
 7913SOL    HW224639   1.225   4.936   0.477
 7914SOL     OW24640   0.212   5.035   6.699
 7914SOL    HW124641   0.304   5.005   6.721
 7914SOL    HW224642   0.207   5.135   6.705
 7915SOL     OW24643   4.727   2.781   2.505
 7915SOL    HW124644   4.764   2.803   2.415
 7915SOL    HW224645   4.752   2.853   2.570
 7916SOL     OW24646   6.135   4.111   5.297
 7916SOL    HW124647   6.130   4.013   5.317
 7916SOL    HW224648   6.153   4.125   5.200
 7917SOL     OW24649   3.731   2.881   3.986
 7917SOL    HW124650   3.799   2.950   3.960
 7917SOL    HW224651   3.777   2.793   4.000
 7918SOL     OW24652   0.180   1.379   0.922
 7918SOL    HW124653   0.132   1.329   0.850
 7918SOL    HW224654   0.145   1.350   1.011
 7919SOL     OW24655   7.002   4.259   3.488
 7919SOL    HW124656   0.005   4.317   3.411
 7919SOL    HW224657   0.042   4.183   3.497
 7920SOL     OW24658   0.267   4.727   1.584
 7920SOL    HW124659   0.207   4.802   1.615
 7920SOL    HW224660   0.263   4.721   1.484
 7921SOL     OW24661   3.720   5.366   0.282
 7921SOL    HW124662   3.652   5.416   0.335
 7921SOL    HW224663   3.731   5.274   0.320
 7922SOL     OW24664   6.702   5.856   0.262
 7922SOL    HW124665   6.749   5.943   0.277
 7922SOL    HW224666   6.619   5.854   0.317
 7923SOL     OW24667   2.418   0.451   2.470
 7923SOL    HW124668   2.465   0.385   2.412
 7923SOL    HW224669   2.373   0.519   2.413
 7924SOL     OW24670   3.756   6.417   3.273
 7924SOL    HW124671   3.743   6.383   3.180
 7924SOL    HW224672   3.832   6.483   3.274
 7925SOL     OW24673   0.199   1.851   6.415
 7925SOL    HW124674   0.272   1.782   6.418
 7925SOL    HW224675   0.125   1.823   6.476
 7926SOL     OW24676   4.342   1.406   4.393
 7926SOL    HW124677   4.402   1.481   4.366
 7926SOL    HW224678   4.369   1.322   4.346
 7927SOL     OW24679   3.877   5.690   5.010
 7927SOL    HW124680   3.907   5.632   5.085
 7927SOL    HW224681   3.933   5.773   5.007
 7928SOL     OW24682   0.951   3.388   3.792
 7928SOL    HW124683   1.043   3.426   3.796
 7928SOL    HW224684   0.940   3.319   3.864
 7929SOL     OW24685   4.070   4.048   5.341
 7929SOL    HW124686   4.128   3.999   5.276
 7929SOL    HW224687   4.085   4.146   5.332
 7930SOL     OW24688   4.932   5.685   3.938
 7930SOL    HW124689   4.883   5.619   3.880
 7930SOL    HW224690   4.922   5.658   4.034
 7931SOL     OW24691   1.680   2.110   6.279
 7931SOL    HW124692   1.691   2.084   6.183
 7931SOL    HW224693   1.593   2.076   6.313
 7932SOL     OW24694   2.295   6.538   0.271
 7932SOL    HW124695   2.249   6.610   0.325
 7932SOL    HW224696   2.364   6.580   0.212
 7933SOL     OW24697   6.828   0.030   0.108
 7933SOL    HW124698   6.756   0.047   0.040
 7933SOL    HW224699   6.848   6.956   0.113
 7934SOL     OW24700   2.326   4.255   6.688
 7934SOL    HW124701   2.415   4.222   6.656
 7934SOL    HW224702   2.319   4.354   6.671
 7935SOL     OW24703   5.131   5.280   0.300
 7935SOL    HW124704   5.186   5.197   0.290
 7935SOL    HW224705   5.044   5.270   0.252
 7936SOL     OW24706   3.443   5.288   2.407
 7936SOL    HW124707   3.419   5.278   2.311
 7936SOL    HW224708   3.371   5.248   2.464
 7937SOL     OW24709   5.311   6.953   3.816
 7937SOL    HW124710   5.352   6.904   3.739
 7937SOL    HW224711   5.299   0.026   3.792
 7938SOL     OW24712   5.243   4.871   4.999
 7938SOL    HW124713   5.316   4.922   5.044
 7938SOL    HW224714   5.278   4.830   4.915
 7939SOL     OW24715   0.522   2.146   5.867
 7939SOL    HW124716   0.484   2.108   5.783
 7939SOL    HW224717   0.576   2.076   5.914
 7940SOL     OW24718   2.299   4.596   2.585
 7940SOL    HW124719   2.314   4.627   2.679
 7940SOL    HW224720   2.210   4.629   2.553
 7941SOL     OW24721   0.022   7.005   1.095
 7941SOL    HW124722   6.994   0.028   1.167
 7941SOL    HW224723   6.986   6.938   1.050
 7942SOL     OW24724   6.733   6.391   3.145
 7942SOL    HW124725   6.669   6.469   3.148
 7942SOL    HW224726   6.682   6.306   3.148
 7943SOL     OW24727   5.452   1.685   1.047
 7943SOL    HW124728   5.353   1.699   1.052
 7943SOL    HW224729   5.486   1.720   0.959
 7944SOL     OW24730   0.234   2.822   0.299
 7944SOL    HW124731   0.220   2.912   0.256
 7944SOL    HW224732   0.170   2.756   0.260
 7945SOL     OW24733   5.399   0.090   2.494
 7945SOL    HW124734   5.360   0.046   2.574
 7945SOL    HW224735   5.452   0.022   2.442
 7946SOL     OW24736   2.004   2.840   5.461
 7946SOL    HW124737   1.961   2.836   5.551
 7946SOL    HW224738   2.063   2.761   5.448
 7947SOL     OW24739   4.058   2.953   6.706
 7947SOL    HW124740   4.093   2.931   6.615
 7947SOL    HW224741   3.983   3.019   6.699
 7948SOL     OW24742   0.380   6.654   1.392
 7948SOL    HW124743   0.304   6.683   1.335
 7948SOL    HW224744   0.355   6.665   1.489
 7949SOL     OW24745   4.606   4.624   3.560
 7949SOL    HW124746   4.600   4.723   3.553
 7949SOL    HW224747   4.690   4.599   3.608
 7950SOL     OW24748   5.144   5.521   3.392
 7950SOL    HW124749   5.149   5.453   3.319
 7950SOL    HW224750   5.056   5.515   3.438
 7951SOL     OW24751   2.535   3.807   1.074
 7951SOL    HW124752   2.488   3.849   0.996
 7951SOL    HW224753   2.621   3.855   1.091
 7952SOL     OW24754   6.925   3.283   6.894
 7952SOL    HW124755   6.886   3.368   6.931
 7952SOL    HW224756   7.004   3.305   6.837
 7953SOL     OW24757   2.206   2.922   2.795
 7953SOL    HW124758   2.137   2.853   2.774
 7953SOL    HW224759   2.164   2.999   2.843
 7954SOL     OW24760   4.857   5.100   5.582
 7954SOL    HW124761   4.939   5.094   5.640
 7954SOL    HW224762   4.873   5.049   5.497
 7955SOL     OW24763   1.029   6.497   6.171
 7955SOL    HW124764   0.930   6.500   6.185
 7955SOL    HW224765   1.048   6.479   6.074
 7956SOL     OW24766   1.409   5.837   3.027
 7956SOL    HW124767   1.313   5.818   3.049
 7956SOL    HW224768   1.468   5.775   3.078
 7957SOL     OW24769   2.210   1.422   0.949
 7957SOL    HW124770   2.167   1.352   1.005
 7957SOL    HW224771   2.250   1.380   0.867
 7958SOL     OW24772   3.448   5.778   4.086
 7958SOL    HW124773   3.363   5.725   4.077
 7958SOL    HW224774   3.499   5.745   4.166
 7959SOL     OW24775   4.060   5.275   0.842
 7959SOL    HW124776   4.012   5.290   0.928
 7959SOL    HW224777   4.075   5.363   0.797
 7960SOL     OW24778   3.438   1.570   0.493
 7960SOL    HW124779   3.451   1.586   0.591
 7960SOL    HW224780   3.527   1.569   0.447
 7961SOL     OW24781   1.462   5.994   6.834
 7961SOL    HW124782   1.447   5.988   6.736
 7961SOL    HW224783   1.386   6.043   6.877
 7962SOL     OW24784   2.057   0.448   0.056
 7962SOL    HW124785   2.076   0.524   0.118
 7962SOL    HW224786   2.143   0.418   0.013
 7963SOL     OW24787   6.208   1.154   4.387
 7963SOL    HW124788   6.173   1.130   4.297
 7963SOL    HW224789   6.141   1.126   4.457
 7964SOL     OW24790   6.203   5.201   3.454
 7964SOL    HW124791   6.267   5.266   3.496
 7964SOL    HW224792   6.241   5.168   3.368
 7965SOL     OW24793   3.515   2.700   6.474
 7965SOL    HW124794   3.598   2.672   6.522
 7965SOL    HW224795   3.523   2.795   6.444
 7966SOL     OW24796   0.728   3.553   4.904
 7966SOL    HW124797   0.632   3.548   4.876
 7966SOL    HW224798   0.737   3.613   4.983
 7967SOL     OW24799   2.801   6.308   3.903
 7967SOL    HW124800   2.762   6.388   3.856
 7967SOL    HW224801   2.890   6.333   3.942
 7968SOL     OW24802   2.160   3.010   3.119
 7968SOL    HW124803   2.223   2.965   3.183
 7968SOL    HW224804   2.101   2.941   3.077
 7969SOL     OW24805   4.771   0.314   2.312
 7969SOL    HW124806   4.842   0.363   2.262
 7969SOL    HW224807   4.703   0.278   2.247
 7970SOL     OW24808   6.979   3.677   2.923
 7970SOL    HW124809   6.913   3.750   2.905
 7970SOL    HW224810   6.935   3.603   2.974
 7971SOL     OW24811   3.364   1.583   1.125
 7971SOL    HW124812   3.419   1.667   1.116
 7971SOL    HW224813   3.422   1.504   1.108
 7972SOL     OW24814   0.440   4.391   1.155
 7972SOL    HW124815   0.346   4.406   1.122
 7972SOL    HW224816   0.497   4.358   1.080
 7973SOL     OW24817   5.045   3.370   3.088
 7973SOL    HW124818   5.006   3.299   3.029
 7973SOL    HW224819   5.057   3.454   3.035
 7974SOL     OW24820   5.460   0.294   4.801
 7974SOL    HW124821   5.374   0.254   4.834
 7974SOL    HW224822   5.518   0.317   4.879
 7975SOL     OW24823   5.756   0.165   3.798
 7975SOL    HW124824   5.854   0.147   3.794
 7975SOL    HW224825   5.732   0.236   3.732
 7976SOL     OW24826   0.599   0.446   5.921
 7976SOL    HW124827   0.565   0.362   5.963
 7976SOL    HW224828   0.681   0.426   5.868
 7977SOL     OW24829   4.517   5.550   2.394
 7977SOL    HW124830   4.471   5.533   2.307
 7977SOL    HW224831   4.448   5.576   2.463
 7978SOL     OW24832   5.968   3.736   5.975
 7978SOL    HW124833   5.905   3.692   5.912
 7978SOL    HW224834   6.060   3.698   5.963
 7979SOL     OW24835   2.586   0.648   5.433
 7979SOL    HW124836   2.592   0.631   5.532
 7979SOL    HW224837   2.635   0.732   5.411
 7980SOL     OW24838   3.271   5.968   0.149
 7980SOL    HW124839   3.241   6.055   0.188
 7980SOL    HW224840   3.198   5.900   0.157
 7981SOL     OW24841   0.769   5.641   2.386
 7981SOL    HW124842   0.685   5.696   2.388
 7981SOL    HW224843   0.780   5.593   2.473
 7982SOL     OW24844   6.684   1.963   1.051
 7982SOL    HW124845   6.631   2.039   1.088
 7982SOL    HW224846   6.726   1.991   0.964
 7983SOL     OW24847   5.325   1.829   2.894
 7983SOL    HW124848   5.408   1.876   2.865
 7983SOL    HW224849   5.350   1.748   2.948
 7984SOL     OW24850   1.689   1.715   1.552
 7984SOL    HW124851   1.709   1.794   1.609
 7984SOL    HW224852   1.687   1.742   1.456
 7985SOL     OW24853   1.988   6.856   3.461
 7985SOL    HW124854   1.924   6.820   3.393
 7985SOL    HW224855   2.042   6.930   3.421
 7986SOL     OW24856   3.466   1.000   6.688
 7986SOL    HW124857   3.405   1.020   6.612
 7986SOL    HW224858   3.412   0.979   6.770
 7987SOL     OW24859   6.998   4.061   6.405
 7987SOL    HW124860   6.942   4.113   6.340
 7987SOL    HW224861   6.949   4.052   6.492
 7988SOL     OW24862   2.095   2.232   4.584
 7988SOL    HW124863   2.086   2.282   4.498
 7988SOL    HW224864   2.004   2.212   4.621
 7989SOL     OW24865   3.462   2.337   5.309
 7989SOL    HW124866   3.490   2.425   5.347
 7989SOL    HW224867   3.380   2.349   5.253
 7990SOL     OW24868   6.880   3.923   3.646
 7990SOL    HW124869   6.849   4.006   3.694
 7990SOL    HW224870   6.979   3.926   3.635
 7991SOL     OW24871   6.443   1.628   5.427
 7991SOL    HW124872   6.396   1.582   5.502
 7991SOL    HW224873   6.382   1.633   5.348
 7992SOL     OW24874   1.536   6.313   0.706
 7992SOL    HW124875   1.588   6.245   0.758
 7992SOL    HW224876   1.579   6.328   0.617
 7993SOL     OW24877   1.660   5.784   6.543
 7993SOL    HW124878   1.581   5.845   6.539
 7993SOL    HW224879   1.648   5.709   6.478
 7994SOL     OW24880   4.580   0.359   3.301
 7994SOL    HW124881   4.573   0.291   3.373
 7994SOL    HW224882   4.667   0.349   3.253
 7995SOL     OW24883   4.020   5.621   3.343
 7995SOL    HW124884   4.009   5.642   3.440
 7995SOL    HW224885   4.031   5.522   3.331
 7996SOL     OW24886   2.681   6.468   4.249
 7996SOL    HW124887   2.637   6.537   4.308
 7996SOL    HW224888   2.644   6.378   4.272
 7997SOL     OW24889   0.128   1.137   1.114
 7997SOL    HW124890   0.201   1.129   1.182
 7997SOL    HW224891   0.067   1.212   1.139
 7998SOL     OW24892   4.130   5.528   0.945
 7998SOL    HW124893   4.050   5.588   0.951
 7998SOL    HW224894   4.161   5.524   0.850
 7999SOL     OW24895   0.895   0.603   6.066
 7999SOL    HW124896   0.891   0.699   6.095
 7999SOL    HW224897   0.891   0.544   6.146
 8000SOL     OW24898   5.996   0.479   6.791
 8000SOL    HW124899   6.093   0.503   6.786
 8000SOL    HW224900   5.942   0.546   6.741
 8001SOL     OW24901   3.311   5.996   1.510
 8001SOL    HW124902   3.339   6.083   1.468
 8001SOL    HW224903   3.241   5.953   1.454
 8002SOL     OW24904   0.137   3.089   6.218
 8002SOL    HW124905   0.068   3.157   6.242
 8002SOL    HW224906   0.098   3.024   6.153
 8003SOL     OW24907   2.283   4.436   2.226
 8003SOL    HW124908   2.313   4.352   2.180
 8003SOL    HW224909   2.344   4.511   2.201
 8004SOL     OW24910   1.549   4.384   2.973
 8004SOL    HW124911   1.566   4.314   3.042
 8004SOL    HW224912   1.453   4.412   2.977
 8005SOL     OW24913   3.300   1.427   2.274
 8005SOL    HW124914   3.221   1.483   2.298
 8005SOL    HW224915   3.383   1.482   2.283
 8006SOL     OW24916   2.411   6.452   0.542
 8006SOL    HW124917   2.333   6.500   0.502
 8006SOL    HW224918   2.402   6.452   0.642
 8007SOL     OW24919   0.930   6.648   4.132
 8007SOL    HW124920   0.925   6.591   4.214
 8007SOL    HW224921   1.026   6.670   4.112
 8008SOL     OW24922   4.970   6.929   6.071
 8008SOL    HW124923   4.963   7.006   6.135
 8008SOL    HW224924   4.882   6.881   6.067
 8009SOL     OW24925   6.311   0.210   3.567
 8009SOL    HW124926   6.404   0.188   3.594
 8009SOL    HW224927   6.297   0.187   3.471
 8010SOL     OW24928   1.602   1.401   6.877
 8010SOL    HW124929   1.649   1.485   6.852
 8010SOL    HW224930   1.540   1.374   6.804
 8011SOL     OW24931   2.455   2.622   1.397
 8011SOL    HW124932   2.381   2.679   1.362
 8011SOL    HW224933   2.418   2.534   1.427
 8012SOL     OW24934   2.026   5.440   1.351
 8012SOL    HW124935   2.052   5.478   1.262
 8012SOL    HW224936   1.959   5.499   1.395
 8013SOL     OW24937   0.629   5.239   4.759
 8013SOL    HW124938   0.708   5.287   4.798
 8013SOL    HW224939   0.645   5.140   4.764
 8014SOL     OW24940   0.938   6.373   5.138
 8014SOL    HW124941   1.033   6.390   5.164
 8014SOL    HW224942   0.931   6.284   5.093
 8015SOL     OW24943   2.853   1.282   0.150
 8015SOL    HW124944   2.911   1.324   0.220
 8015SOL    HW224945   2.759   1.278   0.184
 8016SOL     OW24946   4.338   0.309   6.209
 8016SOL    HW124947   4.399   0.306   6.130
 8016SOL    HW224948   4.392   0.307   6.293
 8017SOL     OW24949   6.448   5.036   6.311
 8017SOL    HW124950   6.385   4.958   6.320
 8017SOL    HW224951   6.400   5.112   6.267
 8018SOL     OW24952   4.322   2.350   6.133
 8018SOL    HW124953   4.278   2.440   6.126
 8018SOL    HW224954   4.260   2.281   6.095
 8019SOL     OW24955   1.740   3.956   6.905
 8019SOL    HW124956   1.824   3.931   6.856
 8019SOL    HW224957   1.680   3.876   6.910
 8020SOL     OW24958   6.411   6.178   0.810
 8020SOL    HW124959   6.417   6.170   0.711
 8020SOL    HW224960   6.385   6.089   0.849
 8021SOL     OW24961   1.496   2.165   2.253
 8021SOL    HW124962   1.468   2.259   2.274
 8021SOL    HW224963   1.444   2.101   2.310
 8022SOL     OW24964   4.188   0.747   2.956
 8022SOL    HW124965   4.253   0.802   3.008
 8022SOL    HW224966   4.179   0.657   2.998
 8023SOL     OW24967   5.966   5.893   3.393
 8023SOL    HW124968   5.982   5.803   3.352
 8023SOL    HW224969   6.044   5.953   3.373
 8024SOL     OW24970   2.706   4.693   0.264
 8024SOL    HW124971   2.703   4.751   0.183
 8024SOL    HW224972   2.724   4.599   0.238
 8025SOL     OW24973   3.097   6.249   5.781
 8025SOL    HW124974   3.139   6.242   5.691
 8025SOL    HW224975   3.073   6.345   5.799
 8026SOL     OW24976   0.771   4.034   6.867
 8026SOL    HW124977   0.848   4.065   6.811
 8026SOL    HW224978   0.741   3.944   6.835
 8027SOL     OW24979   4.576   2.117   5.770
 8027SOL    HW124980   4.648   2.152   5.830
 8027SOL    HW224981   4.488   2.155   5.798
 8028SOL     OW24982   4.131   4.934   6.264
 8028SOL    HW124983   4.094   4.954   6.355
 8028SOL    HW224984   4.228   4.957   6.262
 8029SOL     OW24985   5.618   3.933   6.824
 8029SOL    HW124986   5.650   3.918   6.918
 8029SOL    HW224987   5.608   3.845   6.778
 8030SOL     OW24988   5.975   4.136   6.216
 8030SOL    HW124989   5.957   4.038   6.209
 8030SOL    HW224990   5.894   4.187   6.187
 8031SOL     OW24991   4.574   5.740   2.794
 8031SOL    HW124992   4.595   5.658   2.848
 8031SOL    HW224993   4.475   5.754   2.793
 8032SOL     OW24994   5.672   4.531   5.140
 8032SOL    HW124995   5.748   4.540   5.205
 8032SOL    HW224996   5.677   4.441   5.096
 8033SOL     OW24997   4.795   3.531   0.119
 8033SOL    HW124998   4.782   3.582   0.034
 8033SOL    HW224999   4.784   3.433   0.101
 8034SOL     OW25000   6.025   1.099   5.478
 8034SOL    HW125001   5.941   1.123   5.528
 8034SOL    HW225002   6.009   1.111   5.380
 8035SOL     OW25003   4.744   6.984   5.270
 8035SOL    HW125004   4.811   6.912   5.290
 8035SOL    HW225005   4.788   0.033   5.218
 8036SOL     OW25006   0.737   3.870   1.851
 8036SOL    HW125007   0.741   3.838   1.945
 8036SOL    HW225008   0.819   3.924   1.831
 8037SOL     OW25009   1.751   3.682   1.465
 8037SOL    HW125010   1.775   3.646   1.375
 8037SOL    HW225011   1.799   3.629   1.536
 8038SOL     OW25012   4.803   1.350   2.429
 8038SOL    HW125013   4.842   1.283   2.492
 8038SOL    HW225014   4.809   1.316   2.335
 8039SOL     OW25015   1.134   6.661   3.428
 8039SOL    HW125016   1.128   6.614   3.516
 8039SOL    HW225017   1.182   6.603   3.362
 8040SOL     OW25018   1.418   5.764   1.268
 8040SOL    HW125019   1.429   5.825   1.346
 8040SOL    HW225020   1.483   5.688   1.275
 8041SOL     OW25021   3.370   2.020   2.023
 8041SOL    HW125022   3.413   2.060   2.104
 8041SOL    HW225023   3.294   2.078   1.994
 8042SOL     OW25024   3.640   2.940   2.809
 8042SOL    HW125025   3.690   2.945   2.723
 8042SOL    HW225026   3.541   2.940   2.791
 8043SOL     OW25027   3.776   6.254   0.700
 8043SOL    HW125028   3.810   6.337   0.656
 8043SOL    HW225029   3.678   6.246   0.685
 8044SOL     OW25030   2.911   3.701   1.023
 8044SOL    HW125031   2.827   3.661   1.060
 8044SOL    HW225032   2.956   3.635   0.963
 8045SOL     OW25033   5.277   0.756   2.156
 8045SOL    HW125034   5.261   0.855   2.154
 8045SOL    HW225035   5.207   0.713   2.214
 8046SOL     OW25036   6.010   4.845   6.493
 8046SOL    HW125037   5.967   4.764   6.533
 8046SOL    HW225038   6.058   4.896   6.565
 8047SOL     OW25039   3.626   5.066   5.090
 8047SOL    HW125040   3.719   5.031   5.092
 8047SOL    HW225041   3.579   5.042   5.175
 8048SOL     OW25042   5.100   0.963   5.512
 8048SOL    HW125043   5.181   0.988   5.459
 8048SOL    HW225044   5.070   1.041   5.566
 8049SOL     OW25045   0.962   6.992   1.803
 8049SOL    HW125046   0.991   6.963   1.894
 8049SOL    HW225047   1.043   7.013   1.748
 8050SOL     OW25048   0.395   4.072   1.659
 8050SOL    HW125049   0.433   4.035   1.744
 8050SOL    HW225050   0.467   4.117   1.607
 8051SOL     OW25051   5.091   6.786   2.813
 8051SOL    HW125052   5.116   6.870   2.862
 8051SOL    HW225053   5.171   6.752   2.763
 8052SOL     OW25054   3.517   1.433   1.904
 8052SOL    HW125055   3.426   1.473   1.901
 8052SOL    HW225056   3.513   1.339   1.868
 8053SOL     OW25057   3.425   3.581   2.806
 8053SOL    HW125058   3.386   3.599   2.716
 8053SOL    HW225059   3.399   3.489   2.836
 8054SOL     OW25060   5.482   6.317   4.016
 8054SOL    HW125061   5.521   6.350   4.102
 8054SOL    HW225062   5.394   6.274   4.033
 8055SOL     OW25063   0.625   0.422   6.229
 8055SOL    HW125064   0.655   0.444   6.136
 8055SOL    HW225065   0.526   0.437   6.236
 8056SOL     OW25066   4.029   1.081   3.609
 8056SOL    HW125067   4.107   1.093   3.671
 8056SOL    HW225068   4.017   1.165   3.555
 8057SOL     OW25069   2.051   1.282   2.144
 8057SOL    HW125070   2.140   1.250   2.112
 8057SOL    HW225071   1.981   1.214   2.123
 8058SOL     OW25072   3.242   0.224   2.837
 8058SOL    HW125073   3.313   0.195   2.900
 8058SOL    HW225074   3.158   0.172   2.855
 8059SOL     OW25075   4.125   2.209   4.975
 8059SOL    HW125076   4.048   2.168   5.025
 8059SOL    HW225077   4.145   2.299   5.014
 8060SOL     OW25078   0.362   1.193   4.466
 8060SOL    HW125079   0.393   1.227   4.555
 8060SOL    HW225080   0.383   1.096   4.458
 8061SOL     OW25081   6.736   6.938   2.251
 8061SOL    HW125082   6.691   0.003   2.246
 8061SOL    HW225083   6.670   6.866   2.228
 8062SOL     OW25084   2.242   4.114   3.861
 8062SOL    HW125085   2.271   4.122   3.956
 8062SOL    HW225086   2.182   4.035   3.851
 8063SOL     OW25087   1.877   3.683   0.505
 8063SOL    HW125088   1.935   3.608   0.473
 8063SOL    HW225089   1.801   3.645   0.558
 8064SOL     OW25090   0.328   4.763   1.036
 8064SOL    HW125091   0.350   4.701   0.961
 8064SOL    HW225092   0.389   4.843   1.033
 8065SOL     OW25093   4.350   6.514   3.547
 8065SOL    HW125094   4.352   6.477   3.639
 8065SOL    HW225095   4.286   6.591   3.543
 8066SOL     OW25096   1.340   1.816   6.673
 8066SOL    HW125097   1.344   1.718   6.690
 8066SOL    HW225098   1.276   1.859   6.737
 8067SOL     OW25099   4.837   2.993   1.469
 8067SOL    HW125100   4.760   2.934   1.493
 8067SOL    HW225101   4.877   3.032   1.552
 8068SOL     OW25102   7.013   5.340   6.277
 8068SOL    HW125103   0.068   5.402   6.282
 8068SOL    HW225104   7.020   5.282   6.196
 8069SOL     OW25105   2.296   5.962   1.591
 8069SOL    HW125106   2.264   5.968   1.497
 8069SOL    HW225107   2.232   5.907   1.645
 8070SOL     OW25108   3.073   4.102   0.701
 8070SOL    HW125109   3.156   4.148   0.733
 8070SOL    HW225110   3.072   4.102   0.601
 8071SOL     OW25111   3.237   6.166   4.803
 8071SOL    HW125112   3.170   6.113   4.856
 8071SOL    HW225113   3.197   6.190   4.715
 8072SOL     OW25114   3.383   1.238   0.748
 8072SOL    HW125115   3.463   1.285   0.711
 8072SOL    HW225116   3.408   1.192   0.834
 8073SOL     OW25117   4.960   6.847   6.723
 8073SOL    HW125118   4.939   6.829   6.819
 8073SOL    HW225119   4.895   6.797   6.665
 8074SOL     OW25120   3.265   2.736   6.611
 8074SOL    HW125121   3.204   2.657   6.606
 8074SOL    HW225122   3.354   2.713   6.571
 8075SOL     OW25123   6.635   1.213   1.716
 8075SOL    HW125124   6.636   1.135   1.778
 8075SOL    HW225125   6.641   1.181   1.622
 8076SOL     OW25126   4.346   2.986   5.428
 8076SOL    HW125127   4.291   2.909   5.396
 8076SOL    HW225128   4.285   3.059   5.459
 8077SOL     OW25129   1.041   6.632   1.784
 8077SOL    HW125130   1.073   6.717   1.826
 8077SOL    HW225131   0.945   6.617   1.808
 8078SOL     OW25132   6.232   1.663   0.782
 8078SOL    HW125133   6.273   1.572   0.787
 8078SOL    HW225134   6.175   1.679   0.862
 8079SOL     OW25135   5.213   1.727   3.407
 8079SOL    HW125136   5.168   1.816   3.412
 8079SOL    HW225137   5.269   1.722   3.325
 8080SOL     OW25138   1.084   3.829   0.737
 8080SOL    HW125139   1.131   3.747   0.770
 8080SOL    HW225140   0.998   3.801   0.693
 8081SOL     OW25141   5.395   0.578   5.457
 8081SOL    HW125142   5.468   0.635   5.494
 8081SOL    HW225143   5.311   0.632   5.449
 8082SOL     OW25144   5.921   1.675   2.285
 8082SOL    HW125145   5.840   1.731   2.297
 8082SOL    HW225146   5.998   1.718   2.332
 8083SOL     OW25147   5.183   3.118   2.343
 8083SOL    HW125148   5.089   3.150   2.359
 8083SOL    HW225149   5.189   3.021   2.366
 8084SOL     OW25150   5.922   6.568   1.049
 8084SOL    HW125151   5.911   6.664   1.023
 8084SOL    HW225152   5.841   6.537   1.099
 8085SOL     OW25153   5.598   0.512   2.466
 8085SOL    HW125154   5.638   0.459   2.541
 8085SOL    HW225155   5.526   0.458   2.422
 8086SOL     OW25156   3.971   0.419   4.080
 8086SOL    HW125157   3.917   0.492   4.123
 8086SOL    HW225158   4.039   0.385   4.145
 8087SOL     OW25159   2.122   1.560   1.174
 8087SOL    HW125160   2.104   1.463   1.192
 8087SOL    HW225161   2.126   1.575   1.075
 8088SOL     OW25162   6.032   1.585   1.902
 8088SOL    HW125163   6.006   1.649   1.829
 8088SOL    HW225164   6.131   1.587   1.914
 8089SOL     OW25165   5.646   1.793   0.583
 8089SOL    HW125166   5.609   1.727   0.518
 8089SOL    HW225167   5.746   1.787   0.583
 8090SOL     OW25168   4.630   1.683   6.183
 8090SOL    HW125169   4.573   1.755   6.144
 8090SOL    HW225170   4.615   1.679   6.282
 8091SOL     OW25171   3.340   3.663   6.559
 8091SOL    HW125172   3.243   3.639   6.556
 8091SOL    HW225173   3.389   3.593   6.612
 8092SOL     OW25174   1.299   1.688   5.048
 8092SOL    HW125175   1.286   1.591   5.066
 8092SOL    HW225176   1.389   1.716   5.081
 8093SOL     OW25177   5.856   5.437   1.627
 8093SOL    HW125178   5.817   5.526   1.649
 8093SOL    HW225179   5.786   5.366   1.636
 8094SOL     OW25180   2.372   4.353   4.697
 8094SOL    HW125181   2.472   4.358   4.699
 8094SOL    HW225182   2.343   4.260   4.722
 8095SOL     OW25183   6.208   3.619   3.838
 8095SOL    HW125184   6.117   3.646   3.806
 8095SOL    HW225185   6.260   3.580   3.762
 8096SOL     OW25186   3.320   5.650   3.694
 8096SOL    HW125187   3.270   5.674   3.611
 8096SOL    HW225188   3.278   5.569   3.735
 8097SOL     OW25189   5.103   0.840   4.310
 8097SOL    HW125190   5.182   0.882   4.354
 8097SOL    HW225191   5.064   0.770   4.370
 8098SOL     OW25192   2.420   6.675   4.576
 8098SOL    HW125193   2.345   6.611   4.559
 8098SOL    HW225194   2.389   6.768   4.562
 8099SOL     OW25195   6.230   0.698   4.558
 8099SOL    HW125196   6.152   0.729   4.503
 8099SOL    HW225197   6.314   0.704   4.504
 8100SOL     OW25198   0.182   6.717   0.261
 8100SOL    HW125199   0.163   6.807   0.221
 8100SOL    HW225200   0.113   6.652   0.230
 8101SOL     OW25201   2.119   0.261   4.751
 8101SOL    HW125202   2.064   0.343   4.770
 8101SOL    HW225203   2.213   0.289   4.731
 8102SOL     OW25204   1.445   5.467   5.893
 8102SOL    HW125205   1.537   5.440   5.864
 8102SOL    HW225206   1.392   5.386   5.916
 8103SOL     OW25207   4.012   1.360   1.184
 8103SOL    HW125208   3.975   1.276   1.144
 8103SOL    HW225209   3.939   1.408   1.233
 8104SOL     OW25210   2.870   6.648   5.990
 8104SOL    HW125211   2.779   6.661   6.028
 8104SOL    HW225212   2.938   6.653   6.063
 8105SOL     OW25213   2.083   2.184   3.500
 8105SOL    HW125214   2.132   2.268   3.525
 8105SOL    HW225215   2.057   2.135   3.583
 8106SOL     OW25216   2.139   5.725   3.409
 8106SOL    HW125217   2.128   5.820   3.435
 8106SOL    HW225218   2.178   5.673   3.485
 8107SOL     OW25219   1.500   6.258   5.710
 8107SOL    HW125220   1.573   6.206   5.754
 8107SOL    HW225221   1.465   6.207   5.631
 8108SOL     OW25222   5.998   2.710   4.754
 8108SOL    HW125223   6.092   2.682   4.773
 8108SOL    HW225224   5.953   2.639   4.699
 8109SOL     OW25225   1.743   4.341   4.538
 8109SOL    HW125226   1.748   4.329   4.439
 8109SOL    HW225227   1.829   4.382   4.571
 8110SOL     OW25228   3.756   6.328   0.256
 8110SOL    HW125229   3.661   6.360   0.256
 8110SOL    HW225230   3.816   6.402   0.225
 8111SOL     OW25231   3.306   0.229   6.099
 8111SOL    HW125232   3.272   0.279   6.179
 8111SOL    HW225233   3.380   0.281   6.056
 8112SOL     OW25234   2.066   1.349   5.477
 8112SOL    HW125235   2.125   1.430   5.469
 8112SOL    HW225236   1.970   1.377   5.479
 8113SOL     OW25237   2.670   2.973   0.129
 8113SOL    HW125238   2.695   2.896   0.187
 8113SOL    HW225239   2.570   2.984   0.130
 8114SOL     OW25240   2.138   3.174   2.319
 8114SOL    HW125241   2.144   3.274   2.327
 8114SOL    HW225242   2.139   3.133   2.410
 8115SOL     OW25243   3.810   1.466   1.360
 8115SOL    HW125244   3.745   1.395   1.388
 8115SOL    HW225245   3.802   1.544   1.421
 8116SOL     OW25246   4.919   6.860   4.866
 8116SOL    HW125247   4.879   6.839   4.776
 8116SOL    HW225248   4.854   6.837   4.938
 8117SOL     OW25249   1.840   1.548   3.738
 8117SOL    HW125250   1.844   1.644   3.710
 8117SOL    HW225251   1.922   1.500   3.704
 8118SOL     OW25252   6.978   3.840   5.601
 8118SOL    HW125253   6.933   3.775   5.541
 8118SOL    HW225254   6.934   3.838   5.691
 8119SOL     OW25255   7.015   5.924   4.998
 8119SOL    HW125256   0.004   5.842   5.055
 8119SOL    HW225257   0.077   5.976   4.998
 8120SOL     OW25258   3.820   4.134   6.979
 8120SOL    HW125259   3.872   4.172   6.903
 8120SOL    HW225260   3.789   4.207   0.016
 8121SOL     OW25261   6.796   5.762   3.469
 8121SOL    HW125262   6.825   5.703   3.394
 8121SOL    HW225263   6.731   5.713   3.527
 8122SOL     OW25264   0.279   5.030   2.527
 8122SOL    HW125265   0.333   5.114   2.538
 8122SOL    HW225266   0.325   4.968   2.463
 8123SOL     OW25267   0.313   0.421   6.831
 8123SOL    HW125268   0.270   0.497   6.880
 8123SOL    HW225269   0.285   0.335   6.873
 8124SOL     OW25270   0.983   6.682   1.514
 8124SOL    HW125271   1.036   6.601   1.488
 8124SOL    HW225272   0.961   6.678   1.611
 8125SOL     OW25273   6.316   5.232   2.894
 8125SOL    HW125274   6.273   5.240   2.984
 8125SOL    HW225275   6.246   5.209   2.826
 8126SOL     OW25276   6.180   4.150   2.129
 8126SOL    HW125277   6.273   4.139   2.095
 8126SOL    HW225278   6.145   4.061   2.158
 8127SOL     OW25279   2.434   5.993   0.711
 8127SOL    HW125280   2.457   5.903   0.746
 8127SOL    HW225281   2.348   5.988   0.660
 8128SOL     OW25282   3.236   2.687   6.877
 8128SOL    HW125283   3.251   2.728   6.787
 8128SOL    HW225284   3.196   2.596   6.866
 8129SOL     OW25285   5.054   1.196   6.415
 8129SOL    HW125286   4.966   1.163   6.451
 8129SOL    HW225287   5.085   1.274   6.468
 8130SOL     OW25288   1.012   5.572   6.175
 8130SOL    HW125289   0.912   5.570   6.174
 8130SOL    HW225290   1.044   5.664   6.154
 8131SOL     OW25291   2.637   0.890   0.652
 8131SOL    HW125292   2.623   0.792   0.664
 8131SOL    HW225293   2.637   0.935   0.741
 8132SOL     OW25294   5.504   6.333   6.014
 8132SOL    HW125295   5.438   6.273   5.968
 8132SOL    HW225296   5.571   6.278   6.063
 8133SOL     OW25297   3.575   4.995   2.424
 8133SOL    HW125298   3.592   5.088   2.457
 8133SOL    HW225299   3.632   4.976   2.344
 8134SOL     OW25300   1.767   1.416   4.147
 8134SOL    HW125301   1.809   1.433   4.236
 8134SOL    HW225302   1.759   1.501   4.096
 8135SOL     OW25303   2.692   4.827   2.471
 8135SOL    HW125304   2.780   4.859   2.436
 8135SOL    HW225305   2.650   4.765   2.406
 8136SOL     OW25306   4.746   5.079   2.706
 8136SOL    HW125307   4.665   5.108   2.756
 8136SOL    HW225308   4.724   5.069   2.609
 8137SOL     OW25309   2.368   2.347   4.012
 8137SOL    HW125310   2.288   2.287   4.022
 8137SOL    HW225311   2.340   2.433   3.969
 8138SOL     OW25312   5.623   1.750   2.331
 8138SOL    HW125313   5.568   1.689   2.274
 8138SOL    HW225314   5.642   1.835   2.280
 8139SOL     OW25315   1.342   2.751   3.496
 8139SOL    HW125316   1.439   2.731   3.480
 8139SOL    HW225317   1.303   2.681   3.556
 8140SOL     OW25318   3.741   0.571   0.227
 8140SOL    HW125319   3.773   0.511   0.301
 8140SOL    HW225320   3.697   0.515   0.156
 8141SOL     OW25321   5.445   0.310   5.398
 8141SOL    HW125322   5.451   0.401   5.438
 8141SOL    HW225323   5.396   0.249   5.460
 8142SOL     OW25324   2.070   5.164   1.003
 8142SOL    HW125325   2.165   5.132   1.003
 8142SOL    HW225326   2.036   5.168   1.097
 8143SOL     OW25327   4.971   5.135   1.217
 8143SOL    HW125328   5.003   5.159   1.309
 8143SOL    HW225329   4.908   5.206   1.185
 8144SOL     OW25330   0.825   6.093   5.288
 8144SOL    HW125331   0.858   6.161   5.354
 8144SOL    HW225332   0.838   6.001   5.325
 8145SOL     OW25333   5.165   4.443   0.381
 8145SOL    HW125334   5.149   4.476   0.288
 8145SOL    HW225335   5.203   4.517   0.437
 8146SOL     OW25336   6.352   0.327   5.453
 8146SOL    HW125337   6.430   0.352   5.510
 8146SOL    HW225338   6.383   0.306   5.361
 8147SOL     OW25339   0.370   0.688   0.710
 8147SOL    HW125340   0.456   0.723   0.672
 8147SOL    HW225341   0.386   0.596   0.748
 8148SOL     OW25342   4.085   4.259   6.582
 8148SOL    HW125343   4.046   4.179   6.628
 8148SOL    HW225344   4.011   4.316   6.547
 8149SOL     OW25345   1.519   6.354   4.696
 8149SOL    HW125346   1.429   6.361   4.653
 8149SOL    HW225347   1.512   6.298   4.778
 8150SOL     OW25348   0.344   3.286   1.114
 8150SOL    HW125349   0.371   3.265   1.020
 8150SOL    HW225350   0.248   3.314   1.116
 8151SOL     OW25351   5.991   5.580   3.688
 8151SOL    HW125352   5.931   5.560   3.765
 8151SOL    HW225353   5.940   5.570   3.603
 8152SOL     OW25354   4.757   2.207   3.171
 8152SOL    HW125355   4.728   2.160   3.254
 8152SOL    HW225356   4.770   2.140   3.098
 8153SOL     OW25357   0.534   0.742   3.512
 8153SOL    HW125358   0.537   0.671   3.442
 8153SOL    HW225359   0.564   0.829   3.472
 8154SOL     OW25360   3.244   1.039   3.119
 8154SOL    HW125361   3.287   0.949   3.113
 8154SOL    HW225362   3.155   1.035   3.073
 8155SOL     OW25363   1.140   4.373   1.879
 8155SOL    HW125364   1.194   4.354   1.797
 8155SOL    HW225365   1.182   4.449   1.929
 8156SOL     OW25366   5.147   5.828   1.651
 8156SOL    HW125367   5.116   5.736   1.675
 8156SOL    HW225368   5.095   5.861   1.572
 8157SOL     OW25369   6.099   4.136   5.883
 8157SOL    HW125370   5.999   4.132   5.880
 8157SOL    HW225371   6.136   4.053   5.842
 8158SOL     OW25372   5.212   5.159   6.370
 8158SOL    HW125373   5.175   5.214   6.295
 8158SOL    HW225374   5.145   5.091   6.398
 8159SOL     OW25375   3.636   5.769   5.546
 8159SOL    HW125376   3.687   5.817   5.617
 8159SOL    HW225377   3.657   5.809   5.457
 8160SOL     OW25378   4.377   0.292   3.734
 8160SOL    HW125379   4.461   0.345   3.732
 8160SOL    HW225380   4.313   0.332   3.800
 8161SOL     OW25381   5.859   3.876   6.647
 8161SOL    HW125382   5.850   3.863   6.548
 8161SOL    HW225383   5.835   3.791   6.693
 8162SOL     OW25384   0.406   5.334   0.336
 8162SOL    HW125385   0.477   5.293   0.278
 8162SOL    HW225386   0.356   5.402   0.283
 8163SOL     OW25387   3.671   4.746   5.601
 8163SOL    HW125388   3.643   4.836   5.567
 8163SOL    HW225389   3.753   4.754   5.656
 8164SOL     OW25390   4.835   1.303   0.437
 8164SOL    HW125391   4.780   1.379   0.473
 8164SOL    HW225392   4.817   1.221   0.491
 8165SOL     OW25393   6.770   4.396   6.493
 8165SOL    HW125394   6.841   4.331   6.464
 8165SOL    HW225395   6.716   4.355   6.567
 8166SOL     OW25396   2.199   1.797   3.333
 8166SOL    HW125397   2.125   1.788   3.400
 8166SOL    HW225398   2.216   1.894   3.314
 8167SOL     OW25399   6.765   1.016   3.774
 8167SOL    HW125400   6.809   0.939   3.728
 8167SOL    HW225401   6.827   1.095   3.774
 8168SOL     OW25402   2.899   0.020   1.361
 8168SOL    HW125403   2.829   0.003   1.430
 8168SOL    HW225404   2.922   0.118   1.360
 8169SOL     OW25405   3.783   1.895   0.647
 8169SOL    HW125406   3.786   1.909   0.548
 8169SOL    HW225407   3.688   1.889   0.678
 8170SOL     OW25408   6.613   4.722   1.464
 8170SOL    HW125409   6.528   4.706   1.412
 8170SOL    HW225410   6.691   4.696   1.407
 8171SOL     OW25411   1.373   1.481   6.219
 8171SOL    HW125412   1.423   1.546   6.277
 8171SOL    HW225413   1.412   1.390   6.231
 8172SOL     OW25414   0.419   2.483   2.027
 8172SOL    HW125415   0.505   2.527   2.053
 8172SOL    HW225416   0.347   2.552   2.020
 8173SOL     OW25417   5.881   2.234   2.620
 8173SOL    HW125418   5.834   2.180   2.689
 8173SOL    HW225419   5.903   2.176   2.542
 8174SOL     OW25420   0.867   6.483   3.057
 8174SOL    HW125421   0.933   6.545   3.015
 8174SOL    HW225422   0.775   6.507   3.026
 8175SOL     OW25423   0.832   2.624   4.357
 8175SOL    HW125424   0.857   2.683   4.280
 8175SOL    HW225425   0.740   2.646   4.388
 8176SOL     OW25426   2.263   4.584   1.755
 8176SOL    HW125427   2.359   4.611   1.759
 8176SOL    HW225428   2.207   4.653   1.801
 8177SOL     OW25429   3.751   1.128   3.117
 8177SOL    HW125430   3.829   1.068   3.100
 8177SOL    HW225431   3.684   1.079   3.173
 8178SOL     OW25432   3.131   6.372   1.292
 8178SOL    HW125433   3.114   6.470   1.278
 8178SOL    HW225434   3.175   6.334   1.211
 8179SOL     OW25435   5.539   1.005   4.489
 8179SOL    HW125436   5.444   0.981   4.467
 8179SOL    HW225437   5.540   1.069   4.566
 8180SOL     OW25438   5.962   0.513   0.057
 8180SOL    HW125439   5.913   0.588   0.100
 8180SOL    HW225440   5.963   0.526   6.981
 8181SOL     OW25441   1.033   0.588   1.257
 8181SOL    HW125442   1.063   0.559   1.166
 8181SOL    HW225443   0.979   0.671   1.250
 8182SOL     OW25444   3.574   3.788   4.424
 8182SOL    HW125445   3.531   3.850   4.489
 8182SOL    HW225446   3.514   3.710   4.407
 8183SOL     OW25447   6.469   1.380   4.499
 8183SOL    HW125448   6.524   1.402   4.580
 8183SOL    HW225449   6.450   1.282   4.497
 8184SOL     OW25450   1.013   0.005   0.480
 8184SOL    HW125451   0.944   6.975   0.430
 8184SOL    HW225452   1.026   0.093   0.434
 8185SOL     OW25453   2.183   0.399   0.355
 8185SOL    HW125454   2.096   0.350   0.351
 8185SOL    HW225455   2.179   0.480   0.296
 8186SOL     OW25456   2.550   4.149   5.357
 8186SOL    HW125457   2.543   4.239   5.315
 8186SOL    HW225458   2.520   4.079   5.292
 8187SOL     OW25459   2.390   1.493   4.725
 8187SOL    HW125460   2.459   1.430   4.762
 8187SOL    HW225461   2.432   1.582   4.708
 8188SOL     OW25462   4.432   2.093   3.896
 8188SOL    HW125463   4.392   2.097   3.987
 8188SOL    HW225464   4.371   2.045   3.834
 8189SOL     OW25465   5.453   5.705   2.472
 8189SOL    HW125466   5.493   5.613   2.478
 8189SOL    HW225467   5.441   5.741   2.565
 8190SOL     OW25468   5.112   4.128   3.856
 8190SOL    HW125469   5.067   4.087   3.935
 8190SOL    HW225470   5.153   4.056   3.801
 8191SOL     OW25471   4.376   5.121   2.639
 8191SOL    HW125472   4.352   5.215   2.614
 8191SOL    HW225473   4.439   5.122   2.717
 8192SOL     OW25474   1.359   5.262   2.471
 8192SOL    HW125475   1.358   5.345   2.415
 8192SOL    HW225476   1.266   5.234   2.492
 8193SOL     OW25477   6.075   5.306   4.866
 8193SOL    HW125478   6.074   5.245   4.787
 8193SOL    HW225479   6.114   5.394   4.840
 8194SOL     OW25480   4.136   0.822   1.075
 8194SOL    HW125481   4.183   0.829   1.163
 8194SOL    HW225482   4.041   0.851   1.085
 8195SOL     OW25483   6.457   0.215   3.907
 8195SOL    HW125484   6.511   0.202   3.825
 8195SOL    HW225485   6.517   0.225   3.986
 8196SOL     OW25486   4.939   6.940   0.045
 8196SOL    HW125487   4.961   6.845   0.024
 8196SOL    HW225488   4.911   6.948   0.140
 8197SOL     OW25489   4.195   1.541   1.158
 8197SOL    HW125490   4.141   1.457   1.165
 8197SOL    HW225491   4.182   1.596   1.241
 8198SOL     OW25492   3.122   6.358   2.467
 8198SOL    HW125493   3.217   6.388   2.478
 8198SOL    HW225494   3.067   6.433   2.431
 8199SOL     OW25495   5.241   3.283   6.004
 8199SOL    HW125496   5.227   3.377   5.975
 8199SOL    HW225497   5.219   3.274   6.101
 8200SOL     OW25498   6.136   4.390   1.866
 8200SOL    HW125499   6.071   4.320   1.895
 8200SOL    HW225500   6.086   4.473   1.839
 8201SOL     OW25501   0.110   0.661   5.161
 8201SOL    HW125502   0.065   0.642   5.248
 8201SOL    HW225503   0.191   0.718   5.177
 8202SOL     OW25504   6.541   5.868   2.934
 8202SOL    HW125505   6.530   5.843   3.030
 8202SOL    HW225506   6.575   5.961   2.927
 8203SOL     OW25507   2.162   2.493   7.008
 8203SOL    HW125508   2.229   2.476   0.056
 8203SOL    HW225509   2.126   2.406   6.974
 8204SOL     OW25510   4.058   4.274   0.638
 8204SOL    HW125511   4.033   4.311   0.549
 8204SOL    HW225512   3.978   4.232   0.681
 8205SOL     OW25513   6.995   3.923   0.032
 8205SOL    HW125514   6.917   3.985   0.025
 8205SOL    HW225515   0.011   3.929   0.123
 8206SOL     OW25516   4.460   2.045   7.023
 8206SOL    HW125517   4.410   2.081   0.078
 8206SOL    HW225518   4.555   2.027   0.026
 8207SOL     OW25519   3.725   3.701   3.860
 8207SOL    HW125520   3.723   3.735   3.955
 8207SOL    HW225521   3.760   3.773   3.800
 8208SOL     OW25522   1.542   0.675   0.974
 8208SOL    HW125523   1.459   0.678   0.918
 8208SOL    HW225524   1.617   0.636   0.921
 8209SOL     OW25525   0.099   0.746   4.645
 8209SOL    HW125526   0.045   0.680   4.698
 8209SOL    HW225527   0.183   0.702   4.615
 8210SOL     OW25528   2.278   2.143   0.227
 8210SOL    HW125529   2.375   2.153   0.248
 8210SOL    HW225530   2.264   2.061   0.172
 8211SOL     OW25531   3.679   4.111   1.108
 8211SOL    HW125532   3.614   4.036   1.092
 8211SOL    HW225533   3.657   4.187   1.046
 8212SOL     OW25534   1.335   2.391   2.944
 8212SOL    HW125535   1.422   2.433   2.970
 8212SOL    HW225536   1.303   2.332   3.018
 8213SOL     OW25537   6.845   4.612   1.330
 8213SOL    HW125538   6.845   4.571   1.238
 8213SOL    HW225539   6.924   4.578   1.381
 8214SOL     OW25540   6.015   5.114   4.360
 8214SOL    HW125541   6.072   5.072   4.431
 8214SOL    HW225542   6.060   5.196   4.325
 8215SOL     OW25543   3.856   5.851   5.353
 8215SOL    HW125544   3.939   5.854   5.298
 8215SOL    HW225545   3.784   5.904   5.308
 8216SOL     OW25546   5.367   5.793   4.357
 8216SOL    HW125547   5.419   5.810   4.274
 8216SOL    HW225548   5.304   5.717   4.342
 8217SOL     OW25549   2.333   5.101   0.966
 8217SOL    HW125550   2.356   5.022   0.910
 8217SOL    HW225551   2.417   5.151   0.989
 8218SOL     OW25552   0.027   0.667   6.744
 8218SOL    HW125553   0.045   0.764   6.730
 8218SOL    HW225554   6.999   0.631   6.666
 8219SOL     OW25555   4.669   2.084   0.204
 8219SOL    HW125556   4.670   2.184   0.203
 8219SOL    HW225557   4.708   2.051   0.291
 8220SOL     OW25558   3.562   3.367   3.296
 8220SOL    HW125559   3.606   3.418   3.222
 8220SOL    HW225560   3.623   3.363   3.375
 8221SOL     OW25561   4.984   5.776   4.611
 8221SOL    HW125562   5.054   5.826   4.560
 8221SOL    HW225563   4.996   5.793   4.709
 8222SOL     OW25564   5.149   1.728   2.284
 8222SOL    HW125565   5.091   1.794   2.237
 8222SOL    HW225566   5.094   1.651   2.315
 8223SOL     OW25567   1.520   4.203   5.803
 8223SOL    HW125568   1.426   4.209   5.772
 8223SOL    HW225569   1.534   4.118   5.853
 8224SOL     OW25570   0.149   2.388   2.578
 8224SOL    HW125571   0.098   2.324   2.636
 8224SOL    HW225572   0.098   2.401   2.492
 8225SOL     OW25573   3.611   1.219   7.017
 8225SOL    HW125574   3.523   1.170   7.019
 8225SOL    HW225575   3.605   1.293   6.950
 8226SOL     OW25576   4.536   6.426   1.890
 8226SOL    HW125577   4.530   6.436   1.990
 8226SOL    HW225578   4.584   6.341   1.868
 8227SOL     OW25579   6.753   2.478   3.259
 8227SOL    HW125580   6.686   2.408   3.284
 8227SOL    HW225581   6.758   2.485   3.160
 8228SOL     OW25582   0.119   2.734   5.826
 8228SOL    HW125583   0.023   2.761   5.829
 8228SOL    HW225584   0.128   2.639   5.856
 8229SOL     OW25585   3.759   4.469   0.699
 8229SOL    HW125586   3.675   4.516   0.726
 8229SOL    HW225587   3.817   4.533   0.647
 8230SOL     OW25588   3.996   6.777   5.213
 8230SOL    HW125589   3.996   6.795   5.311
 8230SOL    HW225590   4.011   6.679   5.196
 8231SOL     OW25591   4.284   5.560   0.429
 8231SOL    HW125592   4.291   5.630   0.358
 8231SOL    HW225593   4.375   5.541   0.466
 8232SOL     OW25594   5.161   1.704   1.102
 8232SOL    HW125595   5.105   1.679   1.181
 8232SOL    HW225596   5.200   1.795   1.115
 8233SOL     OW25597   0.952   6.235   6.475
 8233SOL    HW125598   0.893   6.281   6.410
 8233SOL    HW225599   1.048   6.246   6.447
 8234SOL     OW25600   2.700   3.938   6.837
 8234SOL    HW125601   2.798   3.933   6.818
 8234SOL    HW225602   2.685   3.996   6.917
 8235SOL     OW25603   1.297   3.317   0.401
 8235SOL    HW125604   1.364   3.352   0.466
 8235SOL    HW225605   1.205   3.342   0.431
 8236SOL     OW25606   0.071   4.523   6.737
 8236SOL    HW125607   7.018   4.506   6.800
 8236SOL    HW225608   0.046   4.491   6.646
 8237SOL     OW25609   4.371   5.817   4.380
 8237SOL    HW125610   4.366   5.738   4.319
 8237SOL    HW225611   4.440   5.881   4.347
 8238SOL     OW25612   1.217   4.882   0.068
 8238SOL    HW125613   1.188   4.803   0.122
 8238SOL    HW225614   1.150   4.956   0.079
 8239SOL     OW25615   6.454   1.265   5.220
 8239SOL    HW125616   6.392   1.313   5.282
 8239SOL    HW225617   6.506   1.331   5.166
 8240SOL     OW25618   3.434   4.129   2.782
 8240SOL    HW125619   3.430   4.120   2.682
 8240SOL    HW225620   3.461   4.041   2.822
 8241SOL     OW25621   3.772   0.067   0.039
 8241SOL    HW125622   3.675   0.068   0.063
 8241SOL    HW225623   3.790   7.014   7.000
 8242SOL     OW25624   0.848   4.807   5.690
 8242SOL    HW125625   0.845   4.829   5.787
 8242SOL    HW225626   0.797   4.877   5.639
 8243SOL     OW25627   1.177   2.191   0.162
 8243SOL    HW125628   1.120   2.140   0.097
 8243SOL    HW225629   1.121   2.258   0.210
 8244SOL     OW25630   1.063   0.169   4.025
 8244SOL    HW125631   1.047   0.166   4.123
 8244SOL    HW225632   1.137   0.233   4.004
 8245SOL     OW25633   4.300   1.783   3.030
 8245SOL    HW125634   4.243   1.716   2.983
 8245SOL    HW225635   4.253   1.814   3.113
 8246SOL     OW25636   0.159   3.319   5.948
 8246SOL    HW125637   0.256   3.321   5.926
 8246SOL    HW225638   0.124   3.226   5.937
 8247SOL     OW25639   0.578   6.951   2.491
 8247SOL    HW125640   0.567   6.931   2.394
 8247SOL    HW225641   0.668   6.991   2.507
 8248SOL     OW25642   6.125   5.365   4.318
 8248SOL    HW125643   6.204   5.419   4.287
 8248SOL    HW225644   6.113   5.378   4.416
 8249SOL     OW25645   2.116   2.680   4.867
 8249SOL    HW125646   2.173   2.755   4.833
 8249SOL    HW225647   2.175   2.606   4.898
 8250SOL     OW25648   3.277   4.132   2.120
 8250SOL    HW125649   3.297   4.228   2.139
 8250SOL    HW225650   3.299   4.111   2.025
 8251SOL     OW25651   6.143   2.970   4.062
 8251SOL    HW125652   6.151   2.979   3.962
 8251SOL    HW225653   6.048   2.951   4.085
 8252SOL     OW25654   3.228   2.013   5.873
 8252SOL    HW125655   3.219   2.108   5.842
 8252SOL    HW225656   3.259   2.012   5.968
 8253SOL     OW25657   4.510   4.245   5.270
 8253SOL    HW125658   4.464   4.161   5.301
 8253SOL    HW225659   4.442   4.307   5.231
 8254SOL     OW25660   4.314   4.662   4.728
 8254SOL    HW125661   4.369   4.605   4.790
 8254SOL    HW225662   4.218   4.651   4.750
 8255SOL     OW25663   2.863   6.336   4.903
 8255SOL    HW125664   2.957   6.316   4.931
 8255SOL    HW225665   2.847   6.299   4.812
 8256SOL     OW25666   6.039   0.305   2.640
 8256SOL    HW125667   6.057   0.217   2.595
 8256SOL    HW225668   5.948   0.337   2.613
 8257SOL     OW25669   6.307   4.290   3.851
 8257SOL    HW125670   6.272   4.256   3.938
 8257SOL    HW225671   6.305   4.217   3.783
 8258SOL     OW25672   5.316   1.345   1.017
 8258SOL    HW125673   5.350   1.261   0.974
 8258SOL    HW225674   5.279   1.324   1.107
 8259SOL     OW25675   3.879   1.825   3.349
 8259SOL    HW125676   3.859   1.921   3.373
 8259SOL    HW225677   3.830   1.765   3.412
 8260SOL     OW25678   2.712   6.461   1.773
 8260SOL    HW125679   2.644   6.459   1.846
 8260SOL    HW225680   2.681   6.406   1.696
 8261SOL     OW25681   6.332   1.261   2.071
 8261SOL    HW125682   6.342   1.168   2.034
 8261SOL    HW225683   6.253   1.306   2.029
 8262SOL     OW25684   0.522   2.514   0.256
 8262SOL    HW125685   0.507   2.595   0.198
 8262SOL    HW225686   0.564   2.543   0.342
 8263SOL     OW25687   1.309   1.877   0.052
 8263SOL    HW125688   1.260   1.961   0.027
 8263SOL    HW225689   1.339   1.883   0.147
 8264SOL     OW25690   2.469   6.013   2.784
 8264SOL    HW125691   2.379   5.973   2.769
 8264SOL    HW225692   2.537   5.940   2.792
 8265SOL     OW25693   1.140   6.813   0.789
 8265SOL    HW125694   1.129   6.889   0.854
 8265SOL    HW225695   1.058   6.756   0.791
 8266SOL     OW25696   2.101   1.389   3.977
 8266SOL    HW125697   2.014   1.374   4.024
 8266SOL    HW225698   2.176   1.363   4.038
 8267SOL     OW25699   1.384   2.707   0.650
 8267SOL    HW125700   1.376   2.738   0.745
 8267SOL    HW225701   1.327   2.626   0.638
 8268SOL     OW25702   2.325   6.627   5.799
 8268SOL    HW125703   2.257   6.700   5.810
 8268SOL    HW225704   2.336   6.607   5.701
 8269SOL     OW25705   4.395   2.290   2.202
 8269SOL    HW125706   4.356   2.370   2.248
 8269SOL    HW225707   4.495   2.294   2.207
 8270SOL     OW25708   3.194   6.870   5.235
 8270SOL    HW125709   3.283   6.847   5.276
 8270SOL    HW225710   3.199   6.858   5.136
 8271SOL     OW25711   6.474   0.155   2.975
 8271SOL    HW125712   6.461   0.224   2.904
 8271SOL    HW225713   6.560   0.173   3.023
 8272SOL     OW25714   4.644   1.871   1.600
 8272SOL    HW125715   4.570   1.809   1.627
 8272SOL    HW225716   4.628   1.903   1.507
 8273SOL     OW25717   2.894   6.738   0.668
 8273SOL    HW125718   2.813   6.681   0.682
 8273SOL    HW225719   2.952   6.734   0.749
 8274SOL     OW25720   5.294   5.021   3.061
 8274SOL    HW125721   5.312   5.092   3.128
 8274SOL    HW225722   5.230   5.055   2.991
 8275SOL     OW25723   5.050   1.327   5.464
 8275SOL    HW125724   5.044   1.276   5.378
 8275SOL    HW225725   4.980   1.295   5.528
 8276SOL     OW25726   1.061   1.925   3.659
 8276SOL    HW125727   1.153   1.951   3.689
 8276SOL    HW225728   1.065   1.890   3.565
 8277SOL     OW25729   6.782   0.096   0.647
 8277SOL    HW125730   6.851   0.039   0.691
 8277SOL    HW225731   6.698   0.094   0.701
 8278SOL     OW25732   2.594   2.299   5.562
 8278SOL    HW125733   2.660   2.374   5.557
 8278SOL    HW225734   2.641   2.215   5.590
 8279SOL     OW25735   1.603   0.083   4.206
 8279SOL    HW125736   1.598   0.173   4.164
 8279SOL    HW225737   1.526   0.027   4.173
 8280SOL     OW25738   2.510   3.279   0.461
 8280SOL    HW125739   2.587   3.242   0.409
 8280SOL    HW225740   2.529   3.269   0.559
 8281SOL     OW25741   2.727   4.821   1.456
 8281SOL    HW125742   2.651   4.871   1.498
 8281SOL    HW225743   2.769   4.761   1.524
 8282SOL     OW25744   5.165   3.732   0.090
 8282SOL    HW125745   5.249   3.679   0.082
 8282SOL    HW225746   5.182   3.826   0.063
 8283SOL     OW25747   2.066   5.269   6.726
 8283SOL    HW125748   2.069   5.194   6.661
 8283SOL    HW225749   2.143   5.331   6.709
 8284SOL     OW25750   0.622   3.616   0.835
 8284SOL    HW125751   0.627   3.517   0.848
 8284SOL    HW225752   0.662   3.662   0.915
 8285SOL     OW25753   2.972   3.216   4.955
 8285SOL    HW125754   2.927   3.298   4.990
 8285SOL    HW225755   2.953   3.205   4.858
 8286SOL     OW25756   5.668   3.299   6.193
 8286SOL    HW125757   5.600   3.362   6.230
 8286SOL    HW225758   5.641   3.271   6.102
 8287SOL     OW25759   2.138   5.419   4.139
 8287SOL    HW125760   2.148   5.334   4.191
 8287SOL    HW225761   2.190   5.411   4.053
 8288SOL     OW25762   3.217   1.780   1.699
 8288SOL    HW125763   3.236   1.737   1.787
 8288SOL    HW225764   3.272   1.735   1.628
 8289SOL     OW25765   0.789   5.703   1.076
 8289SOL    HW125766   0.746   5.791   1.098
 8289SOL    HW225767   0.886   5.707   1.097
 8290SOL     OW25768   5.580   1.377   1.102
 8290SOL    HW125769   5.483   1.400   1.106
 8290SOL    HW225770   5.623   1.395   1.190
 8291SOL     OW25771   5.322   6.185   5.887
 8291SOL    HW125772   5.253   6.148   5.949
 8291SOL    HW225773   5.290   6.271   5.848
 8292SOL     OW25774   3.020   6.320   7.010
 8292SOL    HW125775   2.975   6.381   0.052
 8292SOL    HW225776   3.015   6.359   6.918
 8293SOL     OW25777   3.775   6.408   7.000
 8293SOL    HW125778   3.742   6.496   0.012
 8293SOL    HW225779   3.713   6.335   0.005
 8294SOL     OW25780   5.434   4.389   4.958
 8294SOL    HW125781   5.337   4.416   4.960
 8294SOL    HW225782   5.457   4.340   5.042
 8295SOL     OW25783   5.002   5.590   1.662
 8295SOL    HW125784   4.909   5.624   1.655
 8295SOL    HW225785   5.020   5.527   1.587
 8296SOL     OW25786   1.752   5.906   5.971
 8296SOL    HW125787   1.753   5.918   6.070
 8296SOL    HW225788   1.843   5.876   5.940
 8297SOL     OW25789   6.128   2.759   2.174
 8297SOL    HW125790   6.062   2.741   2.101
 8297SOL    HW225791   6.212   2.796   2.135
 8298SOL     OW25792   5.990   1.456   1.288
 8298SOL    HW125793   6.062   1.520   1.260
 8298SOL    HW225794   6.030   1.366   1.303
 8299SOL     OW25795   6.386   2.970   1.673
 8299SOL    HW125796   6.372   2.903   1.600
 8299SOL    HW225797   6.482   2.999   1.674
 8300SOL     OW25798   0.231   6.083   5.018
 8300SOL    HW125799   0.298   6.113   4.949
 8300SOL    HW225800   0.226   6.151   5.091
 8301SOL     OW25801   4.152   1.597   2.056
 8301SOL    HW125802   4.113   1.679   2.014
 8301SOL    HW225803   4.147   1.521   1.992
 8302SOL     OW25804   6.114   5.940   6.949
 8302SOL    HW125805   6.152   6.016   7.001
 8302SOL    HW225806   6.182   5.868   6.941
 8303SOL     OW25807   6.365   0.393   4.385
 8303SOL    HW125808   6.410   0.482   4.382
 8303SOL    HW225809   6.304   0.388   4.464
 8304SOL     OW25810   0.355   3.485   0.816
 8304SOL    HW125811   0.269   3.499   0.766
 8304SOL    HW225812   0.432   3.514   0.758
 8305SOL     OW25813   4.194   5.113   4.427
 8305SOL    HW125814   4.107   5.096   4.381
 8305SOL    HW225815   4.227   5.029   4.468
 8306SOL     OW25816   6.874   2.785   5.840
 8306SOL    HW125817   6.855   2.879   5.814
 8306SOL    HW225818   6.867   2.725   5.760
 8307SOL     OW25819   3.662   5.314   1.371
 8307SOL    HW125820   3.669   5.261   1.456
 8307SOL    HW225821   3.591   5.273   1.313
 8308SOL     OW25822   3.829   5.522   1.270
 8308SOL    HW125823   3.771   5.442   1.286
 8308SOL    HW225824   3.908   5.495   1.214
 8309SOL     OW25825   5.793   5.727   3.527
 8309SOL    HW125826   5.696   5.731   3.505
 8309SOL    HW225827   5.841   5.800   3.478
 8310SOL     OW25828   0.570   4.572   0.837
 8310SOL    HW125829   0.648   4.559   0.776
 8310SOL    HW225830   0.508   4.639   0.796
 8311SOL     OW25831   1.075   1.311   4.423
 8311SOL    HW125832   1.025   1.390   4.387
 8311SOL    HW225833   1.136   1.341   4.497
 8312SOL     OW25834   4.749   6.931   0.593
 8312SOL    HW125835   4.795   7.018   0.576
 8312SOL    HW225836   4.691   6.940   0.674
 8313SOL     OW25837   4.818   0.727   2.323
 8313SOL    HW125838   4.761   0.664   2.376
 8313SOL    HW225839   4.779   0.819   2.327
 8314SOL     OW25840   4.253   0.662   0.716
 8314SOL    HW125841   4.314   0.673   0.638
 8314SOL    HW225842   4.218   0.751   0.744
 8315SOL     OW25843   4.142   3.362   1.278
 8315SOL    HW125844   4.165   3.456   1.252
 8315SOL    HW225845   4.042   3.351   1.276
 8316SOL     OW25846   0.469   2.210   2.060
 8316SOL    HW125847   0.438   2.305   2.056
 8316SOL    HW225848   0.569   2.207   2.061
 8317SOL     OW25849   2.388   2.092   2.590
 8317SOL    HW125850   2.298   2.076   2.630
 8317SOL    HW225851   2.436   2.005   2.580
 8318SOL     OW25852   4.458   1.330   4.682
 8318SOL    HW125853   4.428   1.367   4.594
 8318SOL    HW225854   4.542   1.278   4.669
 8319SOL     OW25855   2.280   1.469   6.195
 8319SOL    HW125856   2.241   1.536   6.257
 8319SOL    HW225857   2.208   1.407   6.163
 8320SOL     OW25858   3.236   3.397   1.678
 8320SOL    HW125859   3.315   3.339   1.662
 8320SOL    HW225860   3.152   3.343   1.673
 8321SOL     OW25861   6.935   0.690   0.486
 8321SOL    HW125862   6.962   0.670   0.580
 8321SOL    HW225863   7.009   0.665   0.424
 8322SOL     OW25864   0.421   0.394   0.871
 8322SOL    HW125865   0.480   0.320   0.839
 8322SOL    HW225866   0.433   0.407   0.969
 8323SOL     OW25867   5.991   5.728   2.495
 8323SOL    HW125868   6.015   5.661   2.425
 8323SOL    HW225869   5.891   5.738   2.498
 8324SOL     OW25870   5.456   0.679   1.637
 8324SOL    HW125871   5.528   0.692   1.705
 8324SOL    HW225872   5.484   0.609   1.572
 8325SOL     OW25873   3.188   3.443   5.445
 8325SOL    HW125874   3.222   3.390   5.368
 8325SOL    HW225875   3.168   3.536   5.416
 8326SOL     OW25876   5.149   3.291   5.619
 8326SOL    HW125877   5.232   3.332   5.658
 8326SOL    HW225878   5.159   3.191   5.618
 8327SOL     OW25879   6.017   1.634   6.199
 8327SOL    HW125880   6.032   1.659   6.103
 8327SOL    HW225881   6.060   1.702   6.258
 8328SOL     OW25882   2.421   4.482   5.431
 8328SOL    HW125883   2.340   4.458   5.485
 8328SOL    HW225884   2.462   4.566   5.468
 8329SOL     OW25885   0.317   3.401   6.323
 8329SOL    HW125886   0.338   3.325   6.263
 8329SOL    HW225887   0.386   3.473   6.311
 8330SOL     OW25888   2.849   6.668   0.407
 8330SOL    HW125889   2.889   6.698   0.494
 8330SOL    HW225890   2.800   6.744   0.366
 8331SOL     OW25891   2.794   1.800   1.557
 8331SOL    HW125892   2.809   1.738   1.634
 8331SOL    HW225893   2.757   1.886   1.591
 8332SOL     OW25894   5.313   5.327   2.440
 8332SOL    HW125895   5.331   5.366   2.531
 8332SOL    HW225896   5.228   5.274   2.443
 8333SOL     OW25897   0.688   6.573   6.378
 8333SOL    HW125898   0.753   6.573   6.454
 8333SOL    HW225899   0.603   6.529   6.407
 8334SOL     OW25900   4.071   1.508   3.677
 8334SOL    HW125901   4.145   1.566   3.714
 8334SOL    HW225902   4.111   1.434   3.623
 8335SOL     OW25903   6.244   5.699   6.463
 8335SOL    HW125904   6.208   5.677   6.554
 8335SOL    HW225905   6.202   5.639   6.395
 8336SOL     OW25906   5.989   6.816   3.012
 8336SOL    HW125907   6.065   6.768   3.056
 8336SOL    HW225908   6.014   6.837   2.917
 8337SOL     OW25909   0.733   5.826   3.068
 8337SOL    HW125910   0.802   5.887   3.029
 8337SOL    HW225911   0.777   5.759   3.127
 8338SOL     OW25912   2.162   5.131   1.691
 8338SOL    HW125913   2.193   5.036   1.679
 8338SOL    HW225914   2.070   5.141   1.652
 8339SOL     OW25915   5.872   0.323   2.302
 8339SOL    HW125916   5.873   0.406   2.357
 8339SOL    HW225917   5.817   0.253   2.349
 8340SOL     OW25918   5.033   3.399   1.536
 8340SOL    HW125919   5.037   3.387   1.635
 8340SOL    HW225920   4.964   3.337   1.498
 8341SOL     OW25921   2.156   6.222   6.527
 8341SOL    HW125922   2.149   6.319   6.548
 8341SOL    HW225923   2.163   6.169   6.611
 8342SOL     OW25924   3.822   0.139   1.801
 8342SOL    HW125925   3.872   0.197   1.866
 8342SOL    HW225926   3.860   0.151   1.710
 8343SOL     OW25927   0.858   4.829   5.967
 8343SOL    HW125928   0.919   4.847   6.045
 8343SOL    HW225929   0.765   4.858   5.990
 8344SOL     OW25930   4.074   6.984   5.040
 8344SOL    HW125931   4.060   6.905   5.100
 8344SOL    HW225932   3.988   0.010   5.029
 8345SOL     OW25933   4.574   1.542   3.561
 8345SOL    HW125934   4.592   1.495   3.647
 8345SOL    HW225935   4.641   1.514   3.493
 8346SOL     OW25936   2.355   4.319   0.673
 8346SOL    HW125937   2.428   4.294   0.737
 8346SOL    HW225938   2.299   4.239   0.653
 8347SOL     OW25939   3.772   5.474   4.879
 8347SOL    HW125940   3.823   5.555   4.909
 8347SOL    HW225941   3.732   5.428   4.958
 8348SOL     OW25942   1.598   6.258   2.458
 8348SOL    HW125943   1.525   6.227   2.397
 8348SOL    HW225944   1.630   6.181   2.514
 8349SOL     OW25945   6.134   6.718   1.643
 8349SOL    HW125946   6.131   6.805   1.593
 8349SOL    HW225947   6.042   6.678   1.646
 8350SOL     OW25948   4.527   0.853   4.463
 8350SOL    HW125949   4.626   0.857   4.450
 8350SOL    HW225950   4.507   0.827   4.558
 8351SOL     OW25951   4.709   4.924   3.943
 8351SOL    HW125952   4.666   4.873   3.869
 8351SOL    HW225953   4.765   4.997   3.904
 8352SOL     OW25954   0.003   5.881   3.243
 8352SOL    HW125955   6.994   5.975   3.248
 8352SOL    HW225956   6.992   5.838   3.160
 8353SOL     OW25957   6.789   3.543   1.216
 8353SOL    HW125958   6.821   3.568   1.125
 8353SOL    HW225959   6.724   3.611   1.249
 8354SOL     OW25960   4.030   6.862   6.659
 8354SOL    HW125961   3.941   6.826   6.630
 8354SOL    HW225962   4.057   6.936   6.597
 8355SOL     OW25963   3.084   0.756   6.889
 8355SOL    HW125964   3.106   0.693   6.814
 8355SOL    HW225965   2.984   0.765   6.897
 8356SOL     OW25966   1.828   6.217   0.821
 8356SOL    HW125967   1.895   6.192   0.751
 8356SOL    HW225968   1.874   6.229   0.909
 8357SOL     OW25969   3.902   0.181   5.569
 8357SOL    HW125970   3.931   0.276   5.564
 8357SOL    HW225971   3.917   0.145   5.661
 8358SOL     OW25972   1.336   3.763   5.388
 8358SOL    HW125973   1.411   3.706   5.421
 8358SOL    HW225974   1.254   3.708   5.379
 8359SOL     OW25975   2.501   6.343   4.736
 8359SOL    HW125976   2.575   6.388   4.687
 8359SOL    HW225977   2.414   6.384   4.710
 8360SOL     OW25978   3.749   6.153   1.074
 8360SOL    HW125979   3.766   6.063   1.114
 8360SOL    HW225980   3.827   6.180   1.019
 8361SOL     OW25981   2.501   0.181   2.829
 8361SOL    HW125982   2.572   0.160   2.896
 8361SOL    HW225983   2.455   0.097   2.801
 8362SOL     OW25984   3.199   1.962   0.824
 8362SOL    HW125985   3.184   1.893   0.894
 8362SOL    HW225986   3.243   2.042   0.864
 8363SOL     OW25987   0.648   2.588   6.826
 8363SOL    HW125988   0.584   2.631   6.762
 8363SOL    HW225989   0.703   2.659   6.870
 8364SOL     OW25990   6.799   2.930   2.427
 8364SOL    HW125991   6.822   2.833   2.428
 8364SOL    HW225992   6.859   2.978   2.364
 8365SOL     OW25993   2.114   3.868   1.588
 8365SOL    HW125994   2.049   3.810   1.637
 8365SOL    HW225995   2.183   3.811   1.543
 8366SOL     OW25996   2.520   5.709   2.213
 8366SOL    HW125997   2.492   5.617   2.187
 8366SOL    HW225998   2.617   5.721   2.194
 8367SOL     OW25999   4.218   6.092   3.919
 8367SOL    HW126000   4.185   6.184   3.941
 8367SOL    HW226001   4.249   6.089   3.824
 8368SOL     OW26002   1.996   6.584   5.942
 8368SOL    HW126003   2.044   6.519   5.884
 8368SOL    HW226004   2.036   6.675   5.930
 8369SOL     OW26005   1.693   6.674   6.636
 8369SOL    HW126006   1.711   6.610   6.711
 8369SOL    HW226007   1.756   6.656   6.560
 8370SOL     OW26008   2.491   2.367   5.306
 8370SOL    HW126009   2.517   2.341   5.399
 8370SOL    HW226010   2.441   2.454   5.308
 8371SOL     OW26011   2.052   4.468   1.111
 8371SOL    HW126012   2.047   4.420   1.024
 8371SOL    HW226013   2.089   4.407   1.182
 8372SOL     OW26014   0.251   5.651   2.508
 8372SOL    HW126015   0.258   5.571   2.450
 8372SOL    HW226016   0.171   5.642   2.568
 8373SOL     OW26017   1.392   0.362   4.140
 8373SOL    HW126018   1.446   0.445   4.121
 8373SOL    HW226019   1.382   0.310   4.055
 8374SOL     OW26020   6.657   0.852   6.006
 8374SOL    HW126021   6.598   0.834   6.085
 8374SOL    HW226022   6.753   0.858   6.036
 8375SOL     OW26023   3.599   0.137   6.090
 8375SOL    HW126024   3.528   0.102   6.030
 8375SOL    HW226025   3.565   0.139   6.184
 8376SOL     OW26026   1.895   0.758   4.175
 8376SOL    HW126027   1.927   0.675   4.221
 8376SOL    HW226028   1.972   0.820   4.161
 8377SOL     OW26029   5.734   5.593   1.323
 8377SOL    HW126030   5.722   5.689   1.300
 8377SOL    HW226031   5.831   5.572   1.329
 8378SOL     OW26032   4.226   4.969   2.813
 8378SOL    HW126033   4.282   5.010   2.740
 8378SOL    HW226034   4.235   5.024   2.896
 8379SOL     OW26035   6.041   2.299   1.174
 8379SOL    HW126036   6.118   2.356   1.203
 8379SOL    HW226037   5.965   2.309   1.238
 8380SOL     OW26038   0.059   1.283   2.357
 8380SOL    HW126039   0.127   1.288   2.430
 8380SOL    HW226040   7.003   1.233   2.389
 8381SOL     OW26041   6.915   3.880   5.213
 8381SOL    HW126042   6.884   3.811   5.148
 8381SOL    HW226043   6.922   3.838   5.304
 8382SOL     OW26044   2.236   0.864   2.028
 8382SOL    HW126045   2.306   0.795   2.046
 8382SOL    HW226046   2.267   0.924   1.954
 8383SOL     OW26047   2.395   0.443   6.237
 8383SOL    HW126048   2.403   0.490   6.325
 8383SOL    HW226049   2.438   0.353   6.244
 8384SOL     OW26050   0.343   0.415   0.400
 8384SOL    HW126051   0.317   0.377   0.489
 8384SOL    HW226052   0.267   0.469   0.364
 8385SOL     OW26053   6.354   2.266   1.355
 8385SOL    HW126054   6.336   2.201   1.281
 8385SOL    HW226055   6.302   2.239   1.436
 8386SOL     OW26056   0.874   4.436   1.941
 8386SOL    HW126057   0.833   4.406   1.855
 8386SOL    HW226058   0.970   4.408   1.943
 8387SOL     OW26059   1.267   1.526   2.108
 8387SOL    HW126060   1.252   1.539   2.206
 8387SOL    HW226061   1.360   1.493   2.093
 8388SOL     OW26062   1.686   6.095   0.225
 8388SOL    HW126063   1.620   6.054   0.163
 8388SOL    HW226064   1.686   6.046   0.312
 8389SOL     OW26065   6.052   3.980   2.880
 8389SOL    HW126066   6.061   3.880   2.874
 8389SOL    HW226067   5.968   4.003   2.930
 8390SOL     OW26068   4.038   0.656   6.412
 8390SOL    HW126069   3.960   0.598   6.387
 8390SOL    HW226070   4.044   0.732   6.348
 8391SOL     OW26071   6.447   5.391   0.122
 8391SOL    HW126072   6.421   5.320   0.187
 8391SOL    HW226073   6.489   5.467   0.170
 8392SOL     OW26074   0.081   3.921   4.075
 8392SOL    HW126075   7.020   3.968   4.049
 8392SOL    HW226076   0.123   3.880   3.993
 8393SOL     OW26077   6.177   0.766   2.361
 8393SOL    HW126078   6.089   0.738   2.401
 8393SOL    HW226079   6.160   0.820   2.279
 8394SOL     OW26080   5.913   2.918   1.357
 8394SOL    HW126081   5.934   2.847   1.289
 8394SOL    HW226082   5.955   3.004   1.329
 8395SOL     OW26083   2.728   6.728   5.690
 8395SOL    HW126084   2.695   6.648   5.741
 8395SOL    HW226085   2.827   6.722   5.680
 8396SOL     OW26086   4.889   4.838   3.524
 8396SOL    HW126087   4.959   4.899   3.485
 8396SOL    HW226088   4.929   4.785   3.598
 8397SOL     OW26089   1.000   0.857   2.879
 8397SOL    HW126090   0.950   0.815   2.955
 8397SOL    HW226091   0.982   0.955   2.877
 8398SOL     OW26092   4.524   2.632   6.238
 8398SOL    HW126093   4.587   2.647   6.161
 8398SOL    HW226094   4.515   2.534   6.255
 8399SOL     OW26095   6.205   6.895   6.548
 8399SOL    HW126096   6.145   6.952   6.492
 8399SOL    HW226097   6.164   6.882   6.638
 8400SOL     OW26098   2.395   2.263   4.346
 8400SOL    HW126099   2.402   2.328   4.270
 8400SOL    HW226100   2.443   2.300   4.425
 8401SOL     OW26101   2.443   1.667   5.255
 8401SOL    HW126102   2.482   1.718   5.331
 8401SOL    HW226103   2.361   1.714   5.222
 8402SOL     OW26104   5.463   1.685   6.868
 8402SOL    HW126105   5.539   1.620   6.876
 8402SOL    HW226106   5.386   1.653   6.922
 8403SOL     OW26107   0.180   3.707   4.252
 8403SOL    HW126108   0.138   3.798   4.251
 8403SOL    HW226109   0.138   3.650   4.182
 8404SOL     OW26110   3.439   0.071   5.876
 8404SOL    HW126111   3.512   0.082   5.809
 8404SOL    HW226112   3.358   0.122   5.846
 8405SOL     OW26113   2.882   1.373   5.737
 8405SOL    HW126114   2.837   1.288   5.766
 8405SOL    HW226115   2.831   1.413   5.661
 8406SOL     OW26116   4.169   0.816   0.411
 8406SOL    HW126117   4.183   0.717   0.421
 8406SOL    HW226118   4.161   0.838   0.314
 8407SOL     OW26119   4.342   6.412   3.801
 8407SOL    HW126120   4.311   6.457   3.885
 8407SOL    HW226121   4.343   6.313   3.815
 8408SOL     OW26122   5.438   4.518   1.076
 8408SOL    HW126123   5.396   4.427   1.065
 8408SOL    HW226124   5.419   4.573   0.995
 8409SOL     OW26125   4.749   2.457   3.032
 8409SOL    HW126126   4.655   2.485   3.055
 8409SOL    HW226127   4.764   2.364   3.064
 8410SOL     OW26128   6.280   1.218   1.742
 8410SOL    HW126129   6.356   1.280   1.724
 8410SOL    HW226130   6.315   1.131   1.776
 8411SOL     OW26131   0.350   6.065   0.875
 8411SOL    HW126132   0.270   6.102   0.828
 8411SOL    HW226133   0.364   6.116   0.961
 8412SOL     OW26134   3.483   2.571   1.367
 8412SOL    HW126135   3.450   2.477   1.381
 8412SOL    HW226136   3.493   2.616   1.455
 8413SOL     OW26137   5.057   5.982   6.487
 8413SOL    HW126138   4.965   6.018   6.475
 8413SOL    HW226139   5.119   6.027   6.423
 8414SOL     OW26140   2.666   0.305   3.459
 8414SOL    HW126141   2.742   0.322   3.522
 8414SOL    HW226142   2.586   0.360   3.487
 8415SOL     OW26143   0.852   6.177   4.518
 8415SOL    HW126144   0.817   6.121   4.593
 8415SOL    HW226145   0.876   6.119   4.440
 8416SOL     OW26146   6.579   1.542   4.293
 8416SOL    HW126147   6.516   1.522   4.218
 8416SOL    HW226148   6.542   1.504   4.378
 8417SOL     OW26149   0.961   3.255   5.116
 8417SOL    HW126150   0.900   3.210   5.052
 8417SOL    HW226151   1.029   3.188   5.149
 8418SOL     OW26152   0.107   5.535   1.883
 8418SOL    HW126153   0.086   5.627   1.917
 8418SOL    HW226154   0.155   5.543   1.795
 8419SOL     OW26155   5.348   0.786   2.513
 8419SOL    HW126156   5.396   0.751   2.432
 8419SOL    HW226157   5.348   0.716   2.584
 8420SOL     OW26158   3.702   6.924   1.398
 8420SOL    HW126159   3.696   7.011   1.350
 8420SOL    HW226160   3.664   6.935   1.490
 8421SOL     OW26161   3.225   4.616   0.261
 8421SOL    HW126162   3.211   4.679   0.186
 8421SOL    HW226163   3.164   4.640   0.337
 8422SOL     OW26164   4.353   0.993   2.332
 8422SOL    HW126165   4.373   1.078   2.284
 8422SOL    HW226166   4.424   0.976   2.400
 8423SOL     OW26167   4.230   4.113   6.108
 8423SOL    HW126168   4.188   4.202   6.127
 8423SOL    HW226169   4.222   4.054   6.188
 8424SOL     OW26170   2.094   2.176   2.624
 8424SOL    HW126171   2.070   2.125   2.541
 8424SOL    HW226172   2.121   2.269   2.599
 8425SOL     OW26173   4.143   3.941   5.573
 8425SOL    HW126174   4.128   3.984   5.485
 8425SOL    HW226175   4.215   3.989   5.622
 8426SOL     OW26176   3.274   3.279   2.841
 8426SOL    HW126177   3.198   3.215   2.852
 8426SOL    HW226178   3.361   3.229   2.846
 8427SOL     OW26179   3.033   3.959   3.693
 8427SOL    HW126180   3.091   4.038   3.671
 8427SOL    HW226181   3.036   3.893   3.618
 8428SOL     OW26182   0.353   6.256   1.383
 8428SOL    HW126183   0.440   6.251   1.432
 8428SOL    HW226184   0.304   6.339   1.411
 8429SOL     OW26185   1.643   5.340   5.675
 8429SOL    HW126186   1.574   5.289   5.622
 8429SOL    HW226187   1.653   5.299   5.765
 8430SOL     OW26188   4.007   4.796   4.076
 8430SOL    HW126189   4.090   4.774   4.025
 8430SOL    HW226190   3.948   4.715   4.081
 8431SOL     OW26191   4.334   3.827   0.309
 8431SOL    HW126192   4.350   3.921   0.278
 8431SOL    HW226193   4.249   3.824   0.362
 8432SOL     OW26194   6.248   5.228   5.709
 8432SOL    HW126195   6.153   5.261   5.706
 8432SOL    HW226196   6.297   5.275   5.783
 8433SOL     OW26197   4.438   3.031   0.400
 8433SOL    HW126198   4.479   2.942   0.420
 8433SOL    HW226199   4.509   3.094   0.370
 8434SOL     OW26200   2.323   6.905   4.516
 8434SOL    HW126201   2.388   6.974   4.486
 8434SOL    HW226202   2.251   6.949   4.570
 8435SOL     OW26203   5.408   0.346   2.382
 8435SOL    HW126204   5.372   0.333   2.290
 8435SOL    HW226205   5.398   0.261   2.435
 8436SOL     OW26206   3.339   6.574   3.803
 8436SOL    HW126207   3.346   6.476   3.817
 8436SOL    HW226208   3.246   6.605   3.824
 8437SOL     OW26209   2.365   2.294   2.775
 8437SOL    HW126210   2.453   2.321   2.813
 8437SOL    HW226211   2.380   2.231   2.699
 8438SOL     OW26212   2.270   4.766   2.980
 8438SOL    HW126213   2.342   4.825   3.019
 8438SOL    HW226214   2.230   4.811   2.900
 8439SOL     OW26215   6.154   4.725   2.491
 8439SOL    HW126216   6.234   4.770   2.530
 8439SOL    HW226217   6.147   4.632   2.526
 8440SOL     OW26218   2.868   2.036   3.207
 8440SOL    HW126219   2.817   2.038   3.122
 8440SOL    HW226220   2.826   1.971   3.271
 8441SOL     OW26221   5.829   6.452   6.824
 8441SOL    HW126222   5.808   6.497   6.911
 8441SOL    HW226223   5.918   6.406   6.832
 8442SOL     OW26224   3.712   1.242   4.972
 8442SOL    HW126225   3.721   1.194   5.059
 8442SOL    HW226226   3.802   1.258   4.933
 8443SOL     OW26227   2.545   4.994   3.760
 8443SOL    HW126228   2.556   5.090   3.734
 8443SOL    HW226229   2.490   4.989   3.844
 8444SOL     OW26230   3.346   0.206   3.991
 8444SOL    HW126231   3.248   0.222   4.007
 8444SOL    HW226232   3.367   0.109   4.005
 8445SOL     OW26233   2.577   0.236   0.610
 8445SOL    HW126234   2.584   0.271   0.517
 8445SOL    HW226235   2.657   0.265   0.663
 8446SOL     OW26236   6.443   5.092   5.423
 8446SOL    HW126237   6.506   5.022   5.457
 8446SOL    HW226238   6.351   5.053   5.415
 8447SOL     OW26239   4.089   1.485   1.787
 8447SOL    HW126240   4.122   1.392   1.805
 8447SOL    HW226241   4.167   1.546   1.772
 8448SOL     OW26242   4.494   6.277   3.504
 8448SOL    HW126243   4.585   6.285   3.545
 8448SOL    HW226244   4.448   6.365   3.508
 8449SOL     OW26245   7.023   3.036   3.145
 8449SOL    HW126246   0.028   2.996   3.058
 8449SOL    HW226247   0.031   3.131   3.150
 8450SOL     OW26248   1.017   0.725   1.569
 8450SOL    HW126249   0.968   0.802   1.610
 8450SOL    HW226250   0.977   0.640   1.602
 8451SOL     OW26251   3.358   1.080   0.086
 8451SOL    HW126252   3.362   1.022   0.168
 8451SOL    HW226253   3.330   1.025   0.008
 8452SOL     OW26254   6.228   2.877   4.424
 8452SOL    HW126255   6.255   2.949   4.360
 8452SOL    HW226256   6.141   2.900   4.466
 8453SOL     OW26257   0.466   5.371   0.615
 8453SOL    HW126258   0.387   5.427   0.639
 8453SOL    HW226259   0.459   5.343   0.520
 8454SOL     OW26260   0.262   5.021   0.815
 8454SOL    HW126261   0.271   5.083   0.893
 8454SOL    HW226262   0.256   4.927   0.847
 8455SOL     OW26263   0.525   1.453   2.635
 8455SOL    HW126264   0.526   1.428   2.732
 8455SOL    HW226265   0.574   1.539   2.622
 8456SOL     OW26266   4.716   6.802   3.356
 8456SOL    HW126267   4.770   6.746   3.293
 8456SOL    HW226268   4.755   6.795   3.448
 8457SOL     OW26269   6.482   5.780   4.207
 8457SOL    HW126270   6.523   5.871   4.196
 8457SOL    HW226271   6.384   5.789   4.225
 8458SOL     OW26272   2.570   0.546   6.898
 8458SOL    HW126273   2.536   0.618   6.959
 8458SOL    HW226274   2.493   0.494   6.862
 8459SOL     OW26275   2.510   5.676   2.792
 8459SOL    HW126276   2.418   5.642   2.809
 8459SOL    HW226277   2.522   5.694   2.694
 8460SOL     OW26278   4.764   4.214   5.283
 8460SOL    HW126279   4.668   4.190   5.294
 8460SOL    HW226280   4.806   4.152   5.216
 8461SOL     OW26281   0.607   2.698   4.769
 8461SOL    HW126282   0.586   2.733   4.678
 8461SOL    HW226283   0.626   2.600   4.764
 8462SOL     OW26284   2.847   1.832   6.627
 8462SOL    HW126285   2.891   1.820   6.538
 8462SOL    HW226286   2.824   1.742   6.665
 8463SOL     OW26287   6.972   0.069   1.989
 8463SOL    HW126288   0.015   0.106   2.054
 8463SOL    HW226289   6.941   7.003   2.020
 8464SOL     OW26290   5.217   4.496   4.221
 8464SOL    HW126291   5.154   4.551   4.277
 8464SOL    HW226292   5.298   4.550   4.200
 8465SOL     OW26293   1.138   2.721   0.250
 8465SOL    HW126294   1.172   2.627   0.252
 8465SOL    HW226295   1.119   2.747   0.155
 8466SOL     OW26296   0.193   6.391   3.918
 8466SOL    HW126297   0.278   6.353   3.881
 8466SOL    HW226298   0.149   6.446   3.847
 8467SOL     OW26299   2.945   5.733   0.572
 8467SOL    HW126300   2.966   5.821   0.614
 8467SOL    HW226301   3.005   5.718   0.494
 8468SOL     OW26302   3.151   1.294   0.114
 8468SOL    HW126303   3.127   1.340   0.199
 8468SOL    HW226304   3.208   1.214   0.134
 8469SOL     OW26305   3.270   2.821   0.092
 8469SOL    HW126306   3.315   2.906   0.068
 8469SOL    HW226307   3.263   2.763   0.011
 8470SOL     OW26308   2.424   3.372   0.907
 8470SOL    HW126309   2.393   3.394   0.999
 8470SOL    HW226310   2.347   3.340   0.852
 8471SOL     OW26311   2.971   1.084   2.977
 8471SOL    HW126312   2.936   1.172   3.008
 8471SOL    HW226313   2.897   1.016   2.981
 8472SOL     OW26314   0.152   0.251   3.747
 8472SOL    HW126315   0.191   0.266   3.657
 8472SOL    HW226316   0.086   0.323   3.768
 8473SOL     OW26317   7.015   5.618   6.951
 8473SOL    HW126318   6.952   5.658   7.017
 8473SOL    HW226319   6.977   5.533   6.915
 8474SOL     OW26320   3.170   2.804   1.895
 8474SOL    HW126321   3.183   2.901   1.916
 8474SOL    HW226322   3.166   2.751   1.979
 8475SOL     OW26323   0.030   1.166   3.282
 8475SOL    HW126324   7.018   1.075   3.262
 8475SOL    HW226325   7.020   1.231   3.213
 8476SOL     OW26326   6.328   0.920   1.609
 8476SOL    HW126327   6.240   0.873   1.605
 8476SOL    HW226328   6.347   0.963   1.521
 8477SOL     OW26329   3.570   5.907   1.493
 8477SOL    HW126330   3.579   5.831   1.429
 8477SOL    HW226331   3.474   5.929   1.506
 8478SOL     OW26332   1.192   0.368   6.111
 8478SOL    HW126333   1.094   0.384   6.123
 8478SOL    HW226334   1.233   0.345   6.199
 8479SOL     OW26335   6.507   2.069   0.820
 8479SOL    HW126336   6.487   1.971   0.831
 8479SOL    HW226337   6.604   2.080   0.800
 8480SOL     OW26338   3.124   0.685   1.000
 8480SOL    HW126339   3.064   0.762   1.019
 8480SOL    HW226340   3.214   0.719   0.971
 8481SOL     OW26341   4.536   1.408   3.798
 8481SOL    HW126342   4.626   1.408   3.842
 8481SOL    HW226343   4.466   1.383   3.865
 8482SOL     OW26344   2.702   0.061   2.214
 8482SOL    HW126345   2.738   0.031   2.302
 8482SOL    HW226346   2.759   0.135   2.178
 8483SOL     OW26347   3.992   5.781   1.923
 8483SOL    HW126348   3.933   5.706   1.951
 8483SOL    HW226349   3.951   5.868   1.950
 8484SOL     OW26350   6.660   4.831   3.057
 8484SOL    HW126351   6.596   4.894   3.014
 8484SOL    HW226352   6.613   4.780   3.129
 8485SOL     OW26353   2.832   3.461   6.434
 8485SOL    HW126354   2.794   3.499   6.519
 8485SOL    HW226355   2.771   3.482   6.358
 8486SOL     OW26356   4.855   1.364   3.124
 8486SOL    HW126357   4.756   1.362   3.143
 8486SOL    HW226358   4.872   1.426   3.047
 8487SOL     OW26359   6.154   0.195   0.839
 8487SOL    HW126360   6.165   0.259   0.763
 8487SOL    HW226361   6.243   0.155   0.863
 8488SOL     OW26362   5.425   5.040   4.815
 8488SOL    HW126363   5.431   4.945   4.785
 8488SOL    HW226364   5.487   5.096   4.760
 8489SOL     OW26365   6.255   0.325   1.498
 8489SOL    HW126366   6.197   0.395   1.456
 8489SOL    HW226367   6.197   0.255   1.541
 8490SOL     OW26368   4.419   6.021   4.110
 8490SOL    HW126369   4.419   5.926   4.077
 8490SOL    HW226370   4.340   6.069   4.072
 8491SOL     OW26371   2.135   0.487   1.483
 8491SOL    HW126372   2.091   0.474   1.394
 8491SOL    HW226373   2.067   0.521   1.548
 8492SOL     OW26374   4.779   3.893   6.339
 8492SOL    HW126375   4.838   3.851   6.408
 8492SOL    HW226376   4.694   3.842   6.332
 8493SOL     OW26377   3.435   1.886   6.521
 8493SOL    HW126378   3.509   1.953   6.511
 8493SOL    HW226379   3.349   1.926   6.490
 8494SOL     OW26380   1.721   4.872   0.045
 8494SOL    HW126381   1.691   4.835   0.132
 8494SOL    HW226382   1.821   4.875   0.043
 8495SOL     OW26383   0.185   3.665   0.209
 8495SOL    HW126384   0.101   3.712   0.182
 8495SOL    HW226385   0.193   3.579   0.159
 8496SOL     OW26386   0.734   2.132   2.487
 8496SOL    HW126387   0.771   2.066   2.422
 8496SOL    HW226388   0.802   2.148   2.560
 8497SOL     OW26389   6.346   0.168   4.245
 8497SOL    HW126390   6.250   0.140   4.238
 8497SOL    HW226391   6.355   0.242   4.311
 8498SOL     OW26392   0.426   6.095   2.323
 8498SOL    HW126393   0.467   6.181   2.291
 8498SOL    HW226394   0.332   6.089   2.289
 8499SOL     OW26395   2.767   5.264   6.289
 8499SOL    HW126396   2.827   5.297   6.216
 8499SOL    HW226397   2.673   5.259   6.255
 8500SOL     OW26398   1.845   0.907   5.745
 8500SOL    HW126399   1.823   0.938   5.652
 8500SOL    HW226400   1.921   0.962   5.781
 8501SOL     OW26401   1.559   2.622   0.403
 8501SOL    HW126402   1.507   2.643   0.486
 8501SOL    HW226403   1.548   2.525   0.381
 8502SOL     OW26404   1.870   4.677   1.071
 8502SOL    HW126405   1.776   4.659   1.098
 8502SOL    HW226406   1.923   4.592   1.075
 8503SOL     OW26407   1.128   5.562   3.255
 8503SOL    HW126408   1.036   5.547   3.292
 8503SOL    HW226409   1.130   5.647   3.202
 8504SOL     OW26410   1.906   6.603   3.748
 8504SOL    HW126411   1.835   6.558   3.802
 8504SOL    HW226412   1.889   6.702   3.747
 8505SOL     OW26413   5.217   3.875   3.772
 8505SOL    HW126414   5.248   3.821   3.693
 8505SOL    HW226415   5.172   3.814   3.837
 8506SOL     OW26416   0.746   0.113   0.968
 8506SOL    HW126417   0.775   0.040   1.030
 8506SOL    HW226418   0.776   0.201   1.005
 8507SOL     OW26419   2.981   0.643   5.392
 8507SOL    HW126420   2.971   0.577   5.317
 8507SOL    HW226421   2.953   0.600   5.478
 8508SOL     OW26422   0.200   2.556   4.873
 8508SOL    HW126423   0.184   2.493   4.948
 8508SOL    HW226424   0.259   2.513   4.804
 8509SOL     OW26425   5.460   1.363   4.190
 8509SOL    HW126426   5.487   1.389   4.283
 8509SOL    HW226427   5.542   1.355   4.133
 8510SOL     OW26428   5.596   4.413   3.093
 8510SOL    HW126429   5.682   4.412   3.043
 8510SOL    HW226430   5.520   4.396   3.030
 8511SOL     OW26431   5.526   4.025   1.742
 8511SOL    HW126432   5.494   3.993   1.653
 8511SOL    HW226433   5.570   4.114   1.732
 8512SOL     OW26434   3.340   2.244   6.864
 8512SOL    HW126435   3.347   2.206   6.772
 8512SOL    HW226436   3.355   2.172   6.932
 8513SOL     OW26437   4.486   3.956   1.438
 8513SOL    HW126438   4.436   3.872   1.460
 8513SOL    HW226439   4.553   3.937   1.367
 8514SOL     OW26440   2.535   2.448   3.400
 8514SOL    HW126441   2.528   2.485   3.492
 8514SOL    HW226442   2.631   2.431   3.377
 8515SOL     OW26443   6.532   0.779   6.902
 8515SOL    HW126444   6.587   0.859   6.926
 8515SOL    HW226445   6.437   0.807   6.886
 8516SOL     OW26446   6.273   2.604   1.749
 8516SOL    HW126447   6.338   2.580   1.677
 8516SOL    HW226448   6.203   2.665   1.712
 8517SOL     OW26449   2.006   2.242   5.607
 8517SOL    HW126450   2.081   2.186   5.643
 8517SOL    HW226451   1.987   2.317   5.671
 8518SOL     OW26452   5.109   4.247   5.889
 8518SOL    HW126453   5.067   4.250   5.980
 8518SOL    HW226454   5.144   4.155   5.872
 8519SOL     OW26455   0.954   5.460   0.949
 8519SOL    HW126456   0.952   5.540   0.889
 8519SOL    HW226457   0.986   5.488   1.039
 8520SOL     OW26458   2.977   2.800   6.934
 8520SOL    HW126459   2.954   2.884   6.887
 8520SOL    HW226460   3.069   2.771   6.908
 8521SOL     OW26461   2.226   4.972   5.684
 8521SOL    HW126462   2.243   4.932   5.775
 8521SOL    HW226463   2.196   4.899   5.622
 8522SOL     OW26464   0.949   6.954   1.390
 8522SOL    HW126465   0.961   6.865   1.434
 8522SOL    HW226466   0.926   7.022   1.459
 8523SOL     OW26467   2.101   6.216   6.900
 8523SOL    HW126468   2.006   6.230   6.927
 8523SOL    HW226469   2.106   6.152   6.823
 8524SOL     OW26470   0.789   3.116   4.945
 8524SOL    HW126471   0.708   3.098   5.000
 8524SOL    HW226472   0.799   3.046   4.875
 8525SOL     OW26473   5.974   4.597   1.809
 8525SOL    HW126474   5.924   4.649   1.877
 8525SOL    HW226475   5.910   4.546   1.751
 8526SOL     OW26476   3.977   6.319   0.879
 8526SOL    HW126477   4.051   6.335   0.814
 8526SOL    HW226478   3.893   6.299   0.829
 8527SOL     OW26479   3.310   0.537   0.151
 8527SOL    HW126480   3.230   0.506   0.101
 8527SOL    HW226481   3.350   0.617   0.106
 8528SOL     OW26482   3.865   1.391   0.245
 8528SOL    HW126483   3.941   1.333   0.275
 8528SOL    HW226484   3.779   1.341   0.253
 8529SOL     OW26485   1.104   0.374   0.697
 8529SOL    HW126486   1.060   0.445   0.642
 8529SOL    HW226487   1.046   0.293   0.700
 8530SOL     OW26488   4.003   3.759   4.972
 8530SOL    HW126489   3.974   3.756   4.877
 8530SOL    HW226490   4.049   3.673   4.996
 8531SOL     OW26491   0.060   5.526   2.707
 8531SOL    HW126492   0.017   5.440   2.735
 8531SOL    HW226493   7.013   5.588   2.671
 8532SOL     OW26494   3.857   5.820   4.669
 8532SOL    HW126495   3.774   5.765   4.677
 8532SOL    HW226496   3.929   5.779   4.724
 8533SOL     OW26497   2.135   5.663   0.048
 8533SOL    HW126498   2.103   5.746   0.003
 8533SOL    HW226499   2.058   5.600   0.060
 8534SOL     OW26500   4.867   2.502   4.351
 8534SOL    HW126501   4.793   2.544   4.298
 8534SOL    HW226502   4.930   2.456   4.288
 8535SOL     OW26503   5.820   1.601   3.611
 8535SOL    HW126504   5.760   1.601   3.531
 8535SOL    HW226505   5.828   1.694   3.646
 8536SOL     OW26506   0.506   1.584   4.789
 8536SOL    HW126507   0.512   1.684   4.793
 8536SOL    HW226508   0.410   1.556   4.801
 8537SOL     OW26509   5.198   0.731   3.554
 8537SOL    HW126510   5.231   0.784   3.476
 8537SOL    HW226511   5.240   0.765   3.638
 8538SOL     OW26512   1.821   1.103   0.021
 8538SOL    HW126513   1.781   1.163   0.090
 8538SOL    HW226514   1.763   1.023   0.009
 8539SOL     OW26515   6.661   1.378   2.718
 8539SOL    HW126516   6.625   1.471   2.722
 8539SOL    HW226517   6.586   1.312   2.720
 8540SOL     OW26518   6.030   0.507   6.402
 8540SOL    HW126519   5.956   0.452   6.440
 8540SOL    HW226520   6.118   0.475   6.439
 8541SOL     OW26521   3.395   2.121   3.970
 8541SOL    HW126522   3.429   2.103   3.877
 8541SOL    HW226523   3.467   2.165   4.024
 8542SOL     OW26524   4.118   5.396   6.258
 8542SOL    HW126525   4.193   5.332   6.241
 8542SOL    HW226526   4.045   5.380   6.191
 8543SOL     OW26527   2.273   1.904   1.460
 8543SOL    HW126528   2.319   1.914   1.548
 8543SOL    HW226529   2.339   1.876   1.390
 8544SOL     OW26530   5.635   3.666   4.386
 8544SOL    HW126531   5.547   3.680   4.431
 8544SOL    HW226532   5.708   3.664   4.455
 8545SOL     OW26533   4.112   0.256   5.869
 8545SOL    HW126534   4.206   0.263   5.835
 8545SOL    HW226535   4.071   0.347   5.873
 8546SOL     OW26536   5.671   1.686   4.374
 8546SOL    HW126537   5.690   1.652   4.282
 8546SOL    HW226538   5.658   1.786   4.370
 8547SOL     OW26539   0.282   6.714   5.594
 8547SOL    HW126540   0.297   6.682   5.688
 8547SOL    HW226541   0.352   6.676   5.534
 8548SOL     OW26542   5.927   2.886   5.344
 8548SOL    HW126543   5.921   2.880   5.443
 8548SOL    HW226544   5.970   2.972   5.318
 8549SOL     OW26545   0.507   3.586   4.067
 8549SOL    HW126546   0.600   3.557   4.042
 8549SOL    HW226547   0.477   3.659   4.006
 8550SOL     OW26548   1.570   4.768   6.527
 8550SOL    HW126549   1.646   4.715   6.490
 8550SOL    HW226550   1.588   4.791   6.623
 8551SOL     OW26551   4.009   3.608   5.910
 8551SOL    HW126552   3.968   3.521   5.881
 8551SOL    HW226553   4.021   3.667   5.830
 8552SOL     OW26554   2.595   6.571   3.996
 8552SOL    HW126555   2.627   6.568   4.090
 8552SOL    HW226556   2.504   6.530   3.989
 8553SOL     OW26557   4.884   5.181   5.936
 8553SOL    HW126558   4.878   5.257   5.871
 8553SOL    HW226559   4.893   5.216   6.029
 8554SOL     OW26560   0.889   4.843   0.101
 8554SOL    HW126561   0.929   4.757   0.071
 8554SOL    HW226562   0.925   4.918   0.044
 8555SOL     OW26563   0.680   6.935   2.955
 8555SOL    HW126564   0.771   6.967   2.980
 8555SOL    HW226565   0.643   6.878   3.029
 8556SOL     OW26566   0.809   6.847   3.961
 8556SOL    HW126567   0.848   6.764   4.002
 8556SOL    HW226568   0.880   6.894   3.909
 8557SOL     OW26569   6.560   1.082   2.353
 8557SOL    HW126570   6.519   1.115   2.438
 8557SOL    HW226571   6.660   1.083   2.361
 8558SOL     OW26572   2.858   6.145   3.287
 8558SOL    HW126573   2.882   6.058   3.329
 8558SOL    HW226574   2.772   6.178   3.326
 8559SOL     OW26575   5.874   0.679   2.177
 8559SOL    HW126576   5.873   0.655   2.274
 8559SOL    HW226577   5.923   0.765   2.164
 8560SOL     OW26578   0.211   0.165   1.438
 8560SOL    HW126579   0.217   0.091   1.505
 8560SOL    HW226580   0.162   0.243   1.478
 8561SOL     OW26581   3.299   5.958   1.795
 8561SOL    HW126582   3.315   5.971   1.697
 8561SOL    HW226583   3.383   5.978   1.845
 8562SOL     OW26584   5.050   6.370   4.907
 8562SOL    HW126585   5.020   6.346   5.000
 8562SOL    HW226586   4.970   6.392   4.851
 8563SOL     OW26587   2.598   3.738   6.993
 8563SOL    HW126588   2.630   3.812   6.935
 8563SOL    HW226589   2.666   3.665   6.996
 8564SOL     OW26590   2.374   1.118   3.562
 8564SOL    HW126591   2.355   1.136   3.658
 8564SOL    HW226592   2.303   1.058   3.524
 8565SOL     OW26593   4.812   6.575   1.663
 8565SOL    HW126594   4.824   6.539   1.755
 8565SOL    HW226595   4.748   6.517   1.612
 8566SOL     OW26596   1.313   0.594   2.081
 8566SOL    HW126597   1.367   0.630   2.006
 8566SOL    HW226598   1.347   0.630   2.168
 8567SOL     OW26599   0.026   1.770   2.281
 8567SOL    HW126600   0.112   1.720   2.277
 8567SOL    HW226601   6.992   1.732   2.353
 8568SOL     OW26602   4.685   0.757   5.856
 8568SOL    HW126603   4.721   0.757   5.950
 8568SOL    HW226604   4.742   0.817   5.799
 8569SOL     OW26605   5.102   1.568   5.574
 8569SOL    HW126606   5.123   1.542   5.668
 8569SOL    HW226607   5.086   1.486   5.519
 8570SOL     OW26608   0.742   2.378   5.603
 8570SOL    HW126609   0.736   2.320   5.522
 8570SOL    HW226610   0.823   2.351   5.656
 8571SOL     OW26611   0.351   5.263   6.303
 8571SOL    HW126612   0.376   5.359   6.296
 8571SOL    HW226613   0.309   5.245   6.393
 8572SOL     OW26614   3.323   5.209   6.546
 8572SOL    HW126615   3.279   5.274   6.607
 8572SOL    HW226616   3.414   5.186   6.581
 8573SOL     OW26617   3.535   6.658   6.487
 8573SOL    HW126618   3.481   6.681   6.568
 8573SOL    HW226619   3.491   6.582   6.438
 8574SOL     OW26620   0.212   5.332   5.978
 8574SOL    HW126621   0.137   5.267   5.990
 8574SOL    HW226622   0.255   5.349   6.066
 8575SOL     OW26623   3.444   2.415   6.394
 8575SOL    HW126624   3.375   2.369   6.339
 8575SOL    HW226625   3.417   2.510   6.409
 8576SOL     OW26626   0.871   6.343   0.776
 8576SOL    HW126627   0.840   6.346   0.681
 8576SOL    HW226628   0.935   6.267   0.787
 8577SOL     OW26629   6.296   5.139   4.471
 8577SOL    HW126630   6.374   5.131   4.532
 8577SOL    HW226631   6.308   5.217   4.410
 8578SOL     OW26632   4.653   0.424   4.510
 8578SOL    HW126633   4.663   0.494   4.440
 8578SOL    HW226634   4.728   0.430   4.576
 8579SOL     OW26635   1.414   6.536   3.997
 8579SOL    HW126636   1.343   6.554   3.928
 8579SOL    HW226637   1.371   6.499   4.080
 8580SOL     OW26638   2.300   6.951   1.916
 8580SOL    HW126639   2.389   6.907   1.912
 8580SOL    HW226640   2.258   6.933   2.005
 8581SOL     OW26641   3.392   2.946   1.710
 8581SOL    HW126642   3.418   3.036   1.743
 8581SOL    HW226643   3.415   2.877   1.779
 8582SOL     OW26644   4.399   4.717   2.050
 8582SOL    HW126645   4.306   4.706   2.017
 8582SOL    HW226646   4.419   4.814   2.065
 8583SOL     OW26647   5.840   0.890   6.142
 8583SOL    HW126648   5.765   0.832   6.111
 8583SOL    HW226649   5.890   0.925   6.063
 8584SOL     OW26650   0.458   3.645   6.239
 8584SOL    HW126651   0.543   3.698   6.243
 8584SOL    HW226652   0.382   3.706   6.217
 8585SOL     OW26653   6.995   6.889   6.536
 8585SOL    HW126654   0.040   6.952   6.500
 8585SOL    HW226655   6.949   6.931   6.614
 8586SOL     OW26656   2.792   6.969   3.738
 8586SOL    HW126657   2.779   6.960   3.639
 8586SOL    HW226658   2.800   0.042   3.762
 8587SOL     OW26659   1.664   0.325   2.701
 8587SOL    HW126660   1.639   0.363   2.612
 8587SOL    HW226661   1.643   0.228   2.703
 8588SOL     OW26662   2.473   0.821   6.777
 8588SOL    HW126663   2.496   0.901   6.832
 8588SOL    HW226664   2.393   0.776   6.816
 8589SOL     OW26665   4.737   2.868   4.657
 8589SOL    HW126666   4.653   2.833   4.700
 8589SOL    HW226667   4.800   2.792   4.642
 8590SOL     OW26668   6.528   6.113   4.442
 8590SOL    HW126669   6.622   6.146   4.431
 8590SOL    HW226670   6.496   6.134   4.534
 8591SOL     OW26671   1.145   5.298   6.126
 8591SOL    HW126672   1.068   5.361   6.133
 8591SOL    HW226673   1.215   5.323   6.192
 8592SOL     OW26674   6.875   4.306   0.205
 8592SOL    HW126675   6.782   4.336   0.181
 8592SOL    HW226676   6.870   4.226   0.265
 8593SOL     OW26677   0.841   6.986   2.525
 8593SOL    HW126678   0.905   6.929   2.473
 8593SOL    HW226679   0.860   0.059   2.508
 8594SOL     OW26680   3.472   3.487   5.056
 8594SOL    HW126681   3.455   3.552   4.983
 8594SOL    HW226682   3.481   3.535   5.143
 8595SOL     OW26683   2.019   1.414   2.903
 8595SOL    HW126684   1.981   1.500   2.937
 8595SOL    HW226685   2.061   1.364   2.979
 8596SOL     OW26686   6.152   5.797   2.700
 8596SOL    HW126687   6.226   5.853   2.664
 8596SOL    HW226688   6.091   5.770   2.624
 8597SOL     OW26689   3.935   2.061   1.273
 8597SOL    HW126690   3.856   2.077   1.332
 8597SOL    HW226691   3.904   2.038   1.181
 8598SOL     OW26692   0.214   5.764   1.479
 8598SOL    HW126693   0.243   5.846   1.431
 8598SOL    HW226694   0.275   5.747   1.557
 8599SOL     OW26695   0.966   3.167   3.936
 8599SOL    HW126696   0.923   3.125   4.016
 8599SOL    HW226697   1.056   3.125   3.921
 8600SOL     OW26698   5.466   5.138   6.533
 8600SOL    HW126699   5.518   5.083   6.468
 8600SOL    HW226700   5.370   5.143   6.504
 8601SOL     OW26701   1.085   0.510   5.014
 8601SOL    HW126702   1.126   0.576   4.951
 8601SOL    HW226703   0.986   0.523   5.016
 8602SOL     OW26704   2.837   6.295   2.704
 8602SOL    HW126705   2.763   6.278   2.769
 8602SOL    HW226706   2.798   6.307   2.612
 8603SOL     OW26707   3.328   4.186   0.237
 8603SOL    HW126708   3.302   4.212   0.145
 8603SOL    HW226709   3.306   4.260   0.300
 8604SOL     OW26710   6.979   2.671   3.235
 8604SOL    HW126711   6.911   2.734   3.198
 8604SOL    HW226712   6.933   2.587   3.265
 8605SOL     OW26713   3.153   4.975   4.262
 8605SOL    HW126714   3.076   4.913   4.280
 8605SOL    HW226715   3.222   4.964   4.333
 8606SOL     OW26716   2.195   4.416   5.574
 8606SOL    HW126717   2.172   4.321   5.551
 8606SOL    HW226718   2.135   4.448   5.647
 8607SOL     OW26719   3.166   4.917   1.108
 8607SOL    HW126720   3.115   4.839   1.146
 8607SOL    HW226721   3.108   4.998   1.110
 8608SOL     OW26722   4.524   5.146   2.868
 8608SOL    HW126723   4.500   5.240   2.893
 8608SOL    HW226724   4.531   5.091   2.951
 8609SOL     OW26725   4.218   0.444   3.918
 8609SOL    HW126726   4.146   0.413   3.980
 8609SOL    HW226727   4.246   0.537   3.942
 8610SOL     OW26728   1.424   0.617   2.790
 8610SOL    HW126729   1.522   0.603   2.803
 8610SOL    HW226730   1.383   0.534   2.752
 8611SOL     OW26731   1.962   2.493   3.616
 8611SOL    HW126732   1.896   2.456   3.551
 8611SOL    HW226733   2.055   2.465   3.590
 8612SOL     OW26734   2.918   3.309   0.074
 8612SOL    HW126735   2.856   3.292   7.022
 8612SOL    HW226736   2.956   3.223   0.107
 8613SOL     OW26737   2.687   2.259   1.748
 8613SOL    HW126738   2.722   2.352   1.745
 8613SOL    HW226739   2.688   2.226   1.843
 8614SOL     OW26740   0.924   3.202   2.898
 8614SOL    HW126741   0.954   3.184   2.805
 8614SOL    HW226742   0.991   3.167   2.963
 8615SOL     OW26743   5.089   1.767   5.150
 8615SOL    HW126744   5.029   1.688   5.161
 8615SOL    HW226745   5.156   1.749   5.079
 8616SOL     OW26746   1.697   5.210   1.273
 8616SOL    HW126747   1.671   5.261   1.355
 8616SOL    HW226748   1.797   5.206   1.267
 8617SOL     OW26749   6.204   1.422   0.066
 8617SOL    HW126750   6.303   1.426   0.078
 8617SOL    HW226751   6.160   1.429   0.155
 8618SOL     OW26752   5.266   6.843   0.903
 8618SOL    HW126753   5.193   6.871   0.966
 8618SOL    HW226754   5.337   6.913   0.902
 8619SOL     OW26755   3.179   5.363   1.228
 8619SOL    HW126756   3.234   5.402   1.301
 8619SOL    HW226757   3.115   5.432   1.193
 8620SOL     OW26758   6.276   6.886   3.253
 8620SOL    HW126759   6.216   6.951   3.207
 8620SOL    HW226760   6.254   6.793   3.224
 8621SOL     OW26761   5.679   2.068   3.426
 8621SOL    HW126762   5.686   1.985   3.482
 8621SOL    HW226763   5.699   2.148   3.483
 8622SOL     OW26764   4.898   4.429   0.301
 8622SOL    HW126765   4.906   4.472   0.211
 8622SOL    HW226766   4.988   4.397   0.330
 8623SOL     OW26767   0.177   4.450   3.232
 8623SOL    HW126768   0.078   4.457   3.228
 8623SOL    HW226769   0.215   4.455   3.139
 8624SOL     OW26770   0.678   4.088   3.449
 8624SOL    HW126771   0.767   4.067   3.409
 8624SOL    HW226772   0.651   4.180   3.422
 8625SOL     OW26773   4.787   0.165   4.957
 8625SOL    HW126774   4.691   0.154   4.932
 8625SOL    HW226775   4.806   0.261   4.976
 8626SOL     OW26776   3.514   2.837   4.673
 8626SOL    HW126777   3.461   2.874   4.597
 8626SOL    HW226778   3.576   2.766   4.640
 8627SOL     OW26779   0.623   0.443   3.546
 8627SOL    HW126780   0.586   0.409   3.633
 8627SOL    HW226781   0.712   0.484   3.562
 8628SOL     OW26782   6.145   6.890   1.892
 8628SOL    HW126783   6.113   6.843   1.810
 8628SOL    HW226784   6.223   6.839   1.931
 8629SOL     OW26785   1.712   5.806   4.645
 8629SOL    HW126786   1.656   5.737   4.598
 8629SOL    HW226787   1.674   5.822   4.736
 8630SOL     OW26788   6.073   4.276   4.344
 8630SOL    HW126789   6.121   4.195   4.377
 8630SOL    HW226790   6.140   4.344   4.314
 8631SOL     OW26791   3.545   5.479   6.538
 8631SOL    HW126792   3.598   5.550   6.491
 8631SOL    HW226793   3.488   5.431   6.472
 8632SOL     OW26794   3.497   6.420   4.027
 8632SOL    HW126795   3.467   6.350   3.962
 8632SOL    HW226796   3.419   6.448   4.084
 8633SOL     OW26797   5.242   0.964   4.793
 8633SOL    HW126798   5.166   0.993   4.735
 8633SOL    HW226799   5.271   0.872   4.765
 8634SOL     OW26800   5.739   2.999   1.003
 8634SOL    HW126801   5.650   3.001   1.049
 8634SOL    HW226802   5.747   3.079   0.944
 8635SOL     OW26803   6.132   4.321   6.101
 8635SOL    HW126804   6.056   4.263   6.130
 8635SOL    HW226805   6.186   4.273   6.032
 8636SOL     OW26806   5.609   5.473   0.187
 8636SOL    HW126807   5.645   5.528   0.111
 8636SOL    HW226808   5.511   5.461   0.174
 8637SOL     OW26809   2.211   0.813   0.457
 8637SOL    HW126810   2.201   0.880   0.530
 8637SOL    HW226811   2.269   0.738   0.488
 8638SOL     OW26812   1.999   3.330   6.845
 8638SOL    HW126813   2.071   3.384   6.804
 8638SOL    HW226814   1.918   3.332   6.787
 8639SOL     OW26815   6.108   2.370   1.894
 8639SOL    HW126816   6.177   2.437   1.868
 8639SOL    HW226817   6.021   2.392   1.849
 8640SOL     OW26818   4.524   4.046   0.640
 8640SOL    HW126819   4.552   4.124   0.585
 8640SOL    HW226820   4.560   3.962   0.598
 8641SOL     OW26821   6.775   4.531   4.299
 8641SOL    HW126822   6.713   4.463   4.337
 8641SOL    HW226823   6.748   4.622   4.329
 8642SOL     OW26824   4.268   0.575   2.412
 8642SOL    HW126825   4.227   0.665   2.426
 8642SOL    HW226826   4.326   0.576   2.331
 8643SOL     OW26827   4.451   6.970   0.051
 8643SOL    HW126828   4.404   0.032   0.028
 8643SOL    HW226829   4.397   6.921   0.121
 8644SOL     OW26830   4.445   2.534   5.829
 8644SOL    HW126831   4.474   2.507   5.737
 8644SOL    HW226832   4.525   2.563   5.882
 8645SOL     OW26833   5.429   4.645   1.362
 8645SOL    HW126834   5.420   4.735   1.319
 8645SOL    HW226835   5.434   4.575   1.291
 8646SOL     OW26836   6.501   1.493   1.059
 8646SOL    HW126837   6.409   1.457   1.075
 8646SOL    HW226838   6.541   1.525   1.145
 8647SOL     OW26839   3.259   4.906   6.037
 8647SOL    HW126840   3.246   4.862   6.126
 8647SOL    HW226841   3.251   4.837   5.965
 8648SOL     OW26842   6.040   1.061   4.567
 8648SOL    HW126843   6.014   1.143   4.618
 8648SOL    HW226844   5.960   1.001   4.557
 8649SOL     OW26845   5.822   5.167   6.115
 8649SOL    HW126846   5.790   5.076   6.141
 8649SOL    HW226847   5.763   5.205   6.044
 8650SOL     OW26848   1.792   4.367   4.965
 8650SOL    HW126849   1.716   4.309   4.934
 8650SOL    HW226850   1.878   4.327   4.933
 8651SOL     OW26851   3.560   0.884   0.577
 8651SOL    HW126852   3.575   0.792   0.614
 8651SOL    HW226853   3.550   0.878   0.478
 8652SOL     OW26854   1.190   3.899   2.773
 8652SOL    HW126855   1.274   3.950   2.790
 8652SOL    HW226856   1.212   3.802   2.759
 8653SOL     OW26857   5.521   1.540   5.835
 8653SOL    HW126858   5.544   1.585   5.922
 8653SOL    HW226859   5.565   1.588   5.760
 8654SOL     OW26860   1.387   5.882   1.946
 8654SOL    HW126861   1.330   5.953   1.988
 8654SOL    HW226862   1.334   5.834   1.876
 8655SOL     OW26863   6.293   0.706   4.134
 8655SOL    HW126864   6.208   0.758   4.142
 8655SOL    HW226865   6.272   0.608   4.131
 8656SOL     OW26866   6.950   1.071   0.696
 8656SOL    HW126867   6.931   0.986   0.745
 8656SOL    HW226868   6.990   1.050   0.607
 8657SOL     OW26869   4.422   4.902   6.739
 8657SOL    HW126870   4.341   4.883   6.795
 8657SOL    HW226871   4.481   4.967   6.786
 8658SOL     OW26872   4.940   5.907   0.008
 8658SOL    HW126873   4.891   5.954   0.082
 8658SOL    HW226874   5.028   5.952   7.016
 8659SOL     OW26875   4.248   1.105   3.148
 8659SOL    HW126876   4.300   1.116   3.233
 8659SOL    HW226877   4.275   1.019   3.104
 8660SOL     OW26878   5.506   3.195   0.679
 8660SOL    HW126879   5.572   3.214   0.752
 8660SOL    HW226880   5.490   3.096   0.675
 8661SOL     OW26881   5.741   4.185   0.920
 8661SOL    HW126882   5.688   4.116   0.970
 8661SOL    HW226883   5.810   4.139   0.864
 8662SOL     OW26884   5.031   5.965   1.459
 8662SOL    HW126885   4.934   5.986   1.447
 8662SOL    HW226886   5.086   6.036   1.416
 8663SOL     OW26887   2.707   6.134   1.061
 8663SOL    HW126888   2.735   6.161   1.153
 8663SOL    HW226889   2.618   6.175   1.040
 8664SOL     OW26890   3.529   6.076   0.900
 8664SOL    HW126891   3.564   6.075   0.806
 8664SOL    HW226892   3.604   6.091   0.964
 8665SOL     OW26893   5.544   5.914   5.521
 8665SOL    HW126894   5.449   5.887   5.506
 8665SOL    HW226895   5.571   5.892   5.615
 8666SOL     OW26896   5.390   2.102   5.081
 8666SOL    HW126897   5.405   2.071   4.987
 8666SOL    HW226898   5.358   2.197   5.080
 8667SOL     OW26899   4.309   2.310   3.059
 8667SOL    HW126900   4.368   2.244   3.106
 8667SOL    HW226901   4.246   2.261   3.000
 8668SOL     OW26902   5.594   3.496   2.975
 8668SOL    HW126903   5.519   3.460   2.919
 8668SOL    HW226904   5.556   3.541   3.056
 8669SOL     OW26905   2.511   6.643   6.495
 8669SOL    HW126906   2.448   6.577   6.454
 8669SOL    HW226907   2.588   6.659   6.433
 8670SOL     OW26908   3.502   4.588   6.017
 8670SOL    HW126909   3.468   4.494   6.008
 8670SOL    HW226910   3.516   4.609   6.114
 8671SOL     OW26911   5.598   1.872   3.235
 8671SOL    HW126912   5.635   1.948   3.182
 8671SOL    HW226913   5.578   1.903   3.328
 8672SOL     OW26914   2.527   5.353   3.243
 8672SOL    HW126915   2.606   5.292   3.238
 8672SOL    HW226916   2.500   5.380   3.151
 8673SOL     OW26917   6.803   1.577   6.690
 8673SOL    HW126918   6.747   1.620   6.620
 8673SOL    HW226919   6.836   1.647   6.754
 8674SOL     OW26920   6.321   5.597   1.719
 8674SOL    HW126921   6.371   5.679   1.747
 8674SOL    HW226922   6.380   5.517   1.728
 8675SOL     OW26923   3.713   1.838   4.918
 8675SOL    HW126924   3.735   1.935   4.921
 8675SOL    HW226925   3.649   1.821   4.843
 8676SOL     OW26926   3.899   6.786   2.993
 8676SOL    HW126927   3.919   6.739   3.079
 8676SOL    HW226928   3.919   6.883   3.002
 8677SOL     OW26929   2.496   6.645   5.526
 8677SOL    HW126930   2.584   6.679   5.559
 8677SOL    HW226931   2.495   6.545   5.531
 8678SOL     OW26932   7.013   0.433   1.067
 8678SOL    HW126933   6.939   0.500   1.077
 8678SOL    HW226934   0.039   0.451   0.981
 8679SOL     OW26935   6.654   3.126   4.720
 8679SOL    HW126936   6.730   3.107   4.658
 8679SOL    HW226937   6.567   3.111   4.673
 8680SOL     OW26938   0.090   4.000   2.046
 8680SOL    HW126939   0.086   4.098   2.031
 8680SOL    HW226940   0.036   3.953   1.976
 8681SOL     OW26941   4.359   5.222   0.079
 8681SOL    HW126942   4.315   5.226   7.013
 8681SOL    HW226943   4.306   5.275   0.145
 8682SOL     OW26944   4.506   6.765   1.754
 8682SOL    HW126945   4.540   6.830   1.686
 8682SOL    HW226946   4.556   6.678   1.744
 8683SOL     OW26947   1.648   2.774   2.277
 8683SOL    HW126948   1.698   2.861   2.279
 8683SOL    HW226949   1.553   2.789   2.306
 8684SOL     OW26950   0.296   2.792   5.015
 8684SOL    HW126951   0.396   2.790   5.007
 8684SOL    HW226952   0.260   2.700   4.996
 8685SOL     OW26953   1.467   2.790   5.682
 8685SOL    HW126954   1.381   2.746   5.706
 8685SOL    HW226955   1.544   2.733   5.713
 8686SOL     OW26956   0.243   1.649   1.653
 8686SOL    HW126957   0.233   1.636   1.752
 8686SOL    HW226958   0.199   1.735   1.626
 8687SOL     OW26959   3.403   5.687   2.892
 8687SOL    HW126960   3.414   5.759   2.961
 8687SOL    HW226961   3.382   5.729   2.804
 8688SOL     OW26962   3.096   6.490   0.294
 8688SOL    HW126963   3.120   6.529   0.205
 8688SOL    HW226964   3.000   6.463   0.294
 8689SOL     OW26965   3.449   4.754   0.595
 8689SOL    HW126966   3.427   4.850   0.581
 8689SOL    HW226967   3.463   4.709   0.506
 8690SOL     OW26968   2.077   2.605   2.973
 8690SOL    HW126969   2.131   2.522   2.972
 8690SOL    HW226970   2.078   2.647   2.883
 8691SOL     OW26971   3.730   2.685   6.645
 8691SOL    HW126972   3.772   2.756   6.699
 8691SOL    HW226973   3.677   2.624   6.704
 8692SOL     OW26974   3.787   2.119   2.841
 8692SOL    HW126975   3.861   2.056   2.816
 8692SOL    HW226976   3.822   2.213   2.838
 8693SOL     OW26977   5.811   1.436   0.638
 8693SOL    HW126978   5.749   1.430   0.716
 8693SOL    HW226979   5.846   1.529   0.630
 8694SOL     OW26980   3.813   1.297   5.293
 8694SOL    HW126981   3.743   1.225   5.296
 8694SOL    HW226982   3.891   1.265   5.239
 8695SOL     OW26983   4.675   3.289   6.271
 8695SOL    HW126984   4.663   3.274   6.173
 8695SOL    HW226985   4.733   3.369   6.286
 8696SOL     OW26986   2.556   5.461   0.454
 8696SOL    HW126987   2.508   5.513   0.525
 8696SOL    HW226988   2.654   5.466   0.469
 8697SOL     OW26989   6.211   3.694   0.233
 8697SOL    HW126990   6.299   3.648   0.245
 8697SOL    HW226991   6.226   3.791   0.216
 8698SOL     OW26992   6.170   5.810   4.178
 8698SOL    HW126993   6.121   5.895   4.157
 8698SOL    HW226994   6.105   5.739   4.203
 8699SOL     OW26995   1.908   2.858   5.747
 8699SOL    HW126996   1.856   2.941   5.727
 8699SOL    HW226997   1.863   2.810   5.823
 8700SOL     OW26998   1.598   0.946   4.549
 8700SOL    HW126999   1.531   1.018   4.568
 8700SOL    HW227000   1.568   0.894   4.469
 8701SOL     OW27001   1.733   0.305   6.687
 8701SOL    HW127002   1.650   0.283   6.739
 8701SOL    HW227003   1.708   0.355   6.604
 8702SOL     OW27004   5.303   5.042   0.270
 8702SOL    HW127005   5.400   5.032   0.288
 8702SOL    HW227006   5.284   5.018   0.174
 8703SOL     OW27007   2.521   5.613   1.304
 8703SOL    HW127008   2.444   5.676   1.293
 8703SOL    HW227009   2.582   5.620   1.225
 8704SOL     OW27010   6.445   3.654   2.673
 8704SOL    HW127011   6.386   3.709   2.732
 8704SOL    HW227012   6.391   3.581   2.632
 8705SOL     OW27013   5.264   0.829   0.764
 8705SOL    HW127014   5.261   0.913   0.710
 8705SOL    HW227015   5.340   0.772   0.732
 8706SOL     OW27016   4.884   1.728   6.455
 8706SOL    HW127017   4.873   1.826   6.441
 8706SOL    HW227018   4.793   1.685   6.464
 8707SOL     OW27019   5.760   1.862   0.036
 8707SOL    HW127020   5.672   1.853   0.082
 8707SOL    HW227021   5.747   1.858   6.960
 8708SOL     OW27022   4.009   2.169   2.501
 8708SOL    HW127023   4.026   2.256   2.456
 8708SOL    HW227024   4.074   2.101   2.468
 8709SOL     OW27025   6.766   5.827   6.506
 8709SOL    HW127026   6.835   5.900   6.512
 8709SOL    HW227027   6.704   5.834   6.584
 8710SOL     OW27028   2.129   3.524   3.199
 8710SOL    HW127029   2.143   3.596   3.131
 8710SOL    HW227030   2.124   3.435   3.153
 8711SOL     OW27031   0.219   5.583   2.908
 8711SOL    HW127032   0.158   5.565   2.831
 8711SOL    HW227033   0.276   5.504   2.926
 8712SOL     OW27034   4.430   2.220   4.677
 8712SOL    HW127035   4.481   2.159   4.616
 8712SOL    HW227036   4.444   2.315   4.649
 8713SOL     OW27037   0.320   4.389   3.642
 8713SOL    HW127038   0.257   4.374   3.718
 8713SOL    HW227039   0.314   4.484   3.611
 8714SOL     OW27040   0.137   1.412   6.319
 8714SOL    HW127041   0.083   1.412   6.403
 8714SOL    HW227042   0.189   1.327   6.313
 8715SOL     OW27043   5.515   6.941   0.690
 8715SOL    HW127044   5.600   6.978   0.652
 8715SOL    HW227045   5.451   7.015   0.709
 8716SOL     OW27046   0.983   0.196   1.284
 8716SOL    HW127047   0.941   0.174   1.373
 8716SOL    HW227048   0.918   0.249   1.229
 8717SOL     OW27049   3.399   3.155   3.115
 8717SOL    HW127050   3.445   3.195   3.035
 8717SOL    HW227051   3.431   3.202   3.198
 8718SOL     OW27052   0.404   3.416   5.084
 8718SOL    HW127053   0.323   3.370   5.121
 8718SOL    HW227054   0.431   3.491   5.145
 8719SOL     OW27055   1.868   6.848   6.288
 8719SOL    HW127056   1.931   6.919   6.320
 8719SOL    HW227057   1.808   6.887   6.218
 8720SOL     OW27058   6.995   4.813   5.493
 8720SOL    HW127059   7.009   4.756   5.574
 8720SOL    HW227060   0.010   4.767   5.413
 8721SOL     OW27061   5.956   2.210   3.902
 8721SOL    HW127062   5.928   2.181   3.993
 8721SOL    HW227063   6.056   2.210   3.895
 8722SOL     OW27064   3.988   0.996   0.488
 8722SOL    HW127065   4.053   0.930   0.452
 8722SOL    HW227066   3.919   1.017   0.419
 8723SOL     OW27067   4.996   5.306   0.943
 8723SOL    HW127068   5.008   5.207   0.952
 8723SOL    HW227069   4.901   5.331   0.963
 8724SOL     OW27070   5.877   6.417   5.852
 8724SOL    HW127071   5.799   6.401   5.792
 8724SOL    HW227072   5.849   6.474   5.930
 8725SOL     OW27073   2.220   0.032   6.626
 8725SOL    HW127074   2.292   0.038   6.696
 8725SOL    HW227075   2.193   0.125   6.599
 8726SOL     OW27076   6.636   0.995   1.896
 8726SOL    HW127077   6.719   0.955   1.935
 8726SOL    HW227078   6.615   0.949   1.810
 8727SOL     OW27079   0.284   6.081   1.627
 8727SOL    HW127080   0.202   6.059   1.574
 8727SOL    HW227081   0.338   5.997   1.639
 8728SOL     OW27082   4.157   0.273   4.525
 8728SOL    HW127083   4.183   0.177   4.533
 8728SOL    HW227084   4.182   0.322   4.609
 8729SOL     OW27085   4.861   6.076   3.446
 8729SOL    HW127086   4.770   6.090   3.406
 8729SOL    HW227087   4.860   6.108   3.541
 8730SOL     OW27088   6.788   4.450   2.307
 8730SOL    HW127089   6.846   4.369   2.300
 8730SOL    HW227090   6.700   4.424   2.349
 8731SOL     OW27091   2.518   1.870   2.529
 8731SOL    HW127092   2.442   1.806   2.524
 8731SOL    HW227093   2.578   1.844   2.606
 8732SOL     OW27094   5.195   4.438   1.527
 8732SOL    HW127095   5.121   4.386   1.570
 8732SOL    HW227096   5.182   4.438   1.428
 8733SOL     OW27097   1.622   5.657   2.788
 8733SOL    HW127098   1.540   5.638   2.842
 8733SOL    HW227099   1.596   5.694   2.699
 8734SOL     OW27100   1.204   4.743   1.729
 8734SOL    HW127101   1.208   4.692   1.643
 8734SOL    HW227102   1.120   4.720   1.777
 8735SOL     OW27103   0.693   1.479   6.990
 8735SOL    HW127104   0.663   1.444   6.902
 8735SOL    HW227105   0.666   1.416   0.039
 8736SOL     OW27106   0.565   6.831   6.386
 8736SOL    HW127107   0.491   6.821   6.452
 8736SOL    HW227108   0.592   6.741   6.352
 8737SOL     OW27109   2.548   0.361   5.800
 8737SOL    HW127110   2.614   0.330   5.731
 8737SOL    HW227111   2.587   0.351   5.891
 8738SOL     OW27112   2.125   4.624   3.845
 8738SOL    HW127113   2.215   4.668   3.854
 8738SOL    HW227114   2.067   4.678   3.784
 8739SOL     OW27115   6.377   5.344   5.934
 8739SOL    HW127116   6.460   5.308   5.890
 8739SOL    HW227117   6.357   5.290   6.016
 8740SOL     OW27118   4.743   0.764   5.253
 8740SOL    HW127119   4.724   0.747   5.350
 8740SOL    HW227120   4.656   0.777   5.205
 8741SOL     OW27121   2.413   0.643   2.099
 8741SOL    HW127122   2.503   0.648   2.056
 8741SOL    HW227123   2.365   0.562   2.065
 8742SOL     OW27124   5.761   6.393   1.390
 8742SOL    HW127125   5.843   6.449   1.395
 8742SOL    HW227126   5.702   6.428   1.316
 8743SOL     OW27127   1.641   0.048   2.764
 8743SOL    HW127128   1.705   6.996   2.749
 8743SOL    HW227129   1.548   0.016   2.751
 8744SOL     OW27130   3.620   2.331   5.557
 8744SOL    HW127131   3.653   2.339   5.462
 8744SOL    HW227132   3.526   2.296   5.556
 8745SOL     OW27133   6.094   2.533   5.572
 8745SOL    HW127134   6.088   2.446   5.620
 8745SOL    HW227135   6.003   2.561   5.542
 8746SOL     OW27136   4.881   4.025   5.091
 8746SOL    HW127137   4.840   4.023   5.000
 8746SOL    HW227138   4.880   3.933   5.130
 8747SOL     OW27139   0.236   2.847   2.827
 8747SOL    HW127140   0.193   2.758   2.844
 8747SOL    HW227141   0.310   2.861   2.893
 8748SOL     OW27142   7.019   1.829   6.095
 8748SOL    HW127143   0.024   1.733   6.101
 8748SOL    HW227144   6.920   1.835   6.109
 8749SOL     OW27145   2.962   0.355   6.385
 8749SOL    HW127146   2.918   0.312   6.306
 8749SOL    HW227147   3.053   0.388   6.358
 8750SOL     OW27148   3.265   3.333   5.146
 8750SOL    HW127149   3.335   3.375   5.088
 8750SOL    HW227150   3.186   3.393   5.151
 8751SOL     OW27151   6.110   0.252   2.891
 8751SOL    HW127152   6.120   0.283   2.796
 8751SOL    HW227153   6.156   0.317   2.952
 8752SOL     OW27154   2.829   4.788   6.683
 8752SOL    HW127155   2.738   4.770   6.719
 8752SOL    HW227156   2.876   4.855   6.741
 8753SOL     OW27157   4.909   1.555   5.241
 8753SOL    HW127158   4.848   1.600   5.305
 8753SOL    HW227159   4.952   1.476   5.285
 8754SOL     OW27160   1.185   1.914   5.493
 8754SOL    HW127161   1.265   1.928   5.435
 8754SOL    HW227162   1.198   1.832   5.548
 8755SOL     OW27163   2.360   1.099   6.212
 8755SOL    HW127164   2.317   1.143   6.133
 8755SOL    HW227165   2.434   1.040   6.181
 8756SOL     OW27166   2.190   3.755   3.031
 8756SOL    HW127167   2.116   3.796   2.977
 8756SOL    HW227168   2.252   3.827   3.063
 8757SOL     OW27169   5.503   6.963   5.712
 8757SOL    HW127170   5.427   6.903   5.688
 8757SOL    HW227171   5.587   6.930   5.668
 8758SOL     OW27172   4.885   6.125   1.685
 8758SOL    HW127173   4.953   6.199   1.679
 8758SOL    HW227174   4.861   6.094   1.594
 8759SOL     OW27175   4.155   2.665   6.714
 8759SOL    HW127176   4.118   2.751   6.679
 8759SOL    HW227177   4.130   2.656   6.811
 8760SOL     OW27178   1.955   1.992   4.807
 8760SOL    HW127179   1.967   2.025   4.900
 8760SOL    HW227180   1.935   1.894   4.809
 8761SOL     OW27181   4.430   0.699   1.455
 8761SOL    HW127182   4.514   0.747   1.429
 8761SOL    HW227183   4.431   0.682   1.554
 8762SOL     OW27184   0.393   3.727   2.716
 8762SOL    HW127185   0.367   3.761   2.626
 8762SOL    HW227186   0.477   3.772   2.746
 8763SOL     OW27187   6.351   5.480   5.598
 8763SOL    HW127188   6.377   5.385   5.582
 8763SOL    HW227189   6.433   5.536   5.604
 8764SOL     OW27190   4.774   0.634   4.264
 8764SOL    HW127191   4.752   0.669   4.173
 8764SOL    HW227192   4.796   0.710   4.325
 8765SOL     OW27193   5.752   6.686   5.293
 8765SOL    HW127194   5.724   6.653   5.203
 8765SOL    HW227195   5.744   6.786   5.296
 8766SOL     OW27196   4.100   5.353   2.971
 8766SOL    HW127197   4.085   5.452   2.968
 8766SOL    HW227198   4.064   5.310   2.889
 8767SOL     OW27199   3.840   0.439   2.836
 8767SOL    HW127200   3.925   0.393   2.862
 8767SOL    HW227201   3.787   0.379   2.775
 8768SOL     OW27202   1.018   2.967   0.383
 8768SOL    HW127203   1.057   2.895   0.326
 8768SOL    HW227204   1.076   3.048   0.381
 8769SOL     OW27205   1.174   6.772   4.026
 8769SOL    HW127206   1.173   6.691   3.968
 8769SOL    HW227207   1.124   6.846   3.982
 8770SOL     OW27208   4.963   4.225   2.073
 8770SOL    HW127209   5.045   4.195   2.121
 8770SOL    HW227210   4.938   4.156   2.004
 8771SOL     OW27211   0.959   0.100   5.868
 8771SOL    HW127212   1.041   0.045   5.852
 8771SOL    HW227213   0.886   0.072   5.806
 8772SOL     OW27214   5.834   6.590   0.358
 8772SOL    HW127215   5.903   6.648   0.315
 8772SOL    HW227216   5.743   6.618   0.327
 8773SOL     OW27217   4.532   1.996   3.619
 8773SOL    HW127218   4.625   1.986   3.656
 8773SOL    HW227219   4.466   1.956   3.683
 8774SOL     OW27220   2.321   1.665   0.716
 8774SOL    HW127221   2.265   1.684   0.635
 8774SOL    HW227222   2.297   1.729   0.789
 8775SOL     OW27223   6.142   0.638   5.188
 8775SOL    HW127224   6.084   0.704   5.140
 8775SOL    HW227225   6.238   0.664   5.178
 8776SOL     OW27226   2.938   3.541   4.644
 8776SOL    HW127227   2.902   3.597   4.718
 8776SOL    HW227228   2.927   3.591   4.557
 8777SOL     OW27229   0.025   4.113   1.133
 8777SOL    HW127230   0.098   4.094   1.199
 8777SOL    HW227231   6.968   4.147   1.181
 8778SOL     OW27232   5.880   2.329   4.318
 8778SOL    HW127233   5.901   2.249   4.262
 8778SOL    HW227234   5.956   2.394   4.313
 8779SOL     OW27235   2.734   5.374   2.030
 8779SOL    HW127236   2.651   5.400   2.078
 8779SOL    HW227237   2.814   5.406   2.082
 8780SOL     OW27238   1.006   5.293   3.826
 8780SOL    HW127239   1.098   5.261   3.849
 8780SOL    HW227240   0.970   5.347   3.901
 8781SOL     OW27241   6.246   1.692   3.797
 8781SOL    HW127242   6.185   1.732   3.728
 8781SOL    HW227243   6.191   1.653   3.870
 8782SOL     OW27244   5.701   0.471   2.121
 8782SOL    HW127245   5.741   0.419   2.196
 8782SOL    HW227246   5.741   0.563   2.117
 8783SOL     OW27247   6.380   3.454   3.679
 8783SOL    HW127248   6.318   3.376   3.687
 8783SOL    HW227249   6.435   3.445   3.596
 8784SOL     OW27250   5.342   3.879   5.215
 8784SOL    HW127251   5.333   3.805   5.148
 8784SOL    HW227252   5.252   3.913   5.239
 8785SOL     OW27253   6.385   3.654   6.676
 8785SOL    HW127254   6.456   3.703   6.624
 8785SOL    HW227255   6.296   3.693   6.655
 8786SOL     OW27256   2.842   6.499   0.196
 8786SOL    HW127257   2.844   6.577   0.259
 8786SOL    HW227258   2.754   6.496   0.150
 8787SOL     OW27259   1.795   2.981   2.185
 8787SOL    HW127260   1.774   3.070   2.226
 8787SOL    HW227261   1.893   2.975   2.166
 8788SOL     OW27262   6.856   2.270   5.645
 8788SOL    HW127263   6.830   2.326   5.566
 8788SOL    HW227264   6.938   2.308   5.688
 8789SOL     OW27265   5.889   6.473   6.148
 8789SOL    HW127266   5.970   6.444   6.199
 8789SOL    HW227267   5.912   6.551   6.090
 8790SOL     OW27268   0.077   1.455   0.317
 8790SOL    HW127269   0.167   1.431   0.279
 8790SOL    HW227270   0.084   1.543   0.365
 8791SOL     OW27271   5.078   6.771   4.456
 8791SOL    HW127272   5.115   6.860   4.431
 8791SOL    HW227273   5.126   6.699   4.406
 8792SOL     OW27274   3.637   6.102   3.286
 8792SOL    HW127275   3.644   6.009   3.321
 8792SOL    HW227276   3.587   6.159   3.350
 8793SOL     OW27277   2.026   5.274   3.698
 8793SOL    HW127278   2.032   5.374   3.703
 8793SOL    HW227279   2.003   5.246   3.605
 8794SOL     OW27280   4.061   6.567   2.003
 8794SOL    HW127281   3.961   6.571   1.995
 8794SOL    HW227282   4.101   6.536   1.917
 8795SOL     OW27283   1.492   6.579   5.051
 8795SOL    HW127284   1.407   6.560   5.003
 8795SOL    HW227285   1.473   6.599   5.147
 8796SOL     OW27286   3.735   0.117   5.144
 8796SOL    HW127287   3.719   0.191   5.209
 8796SOL    HW227288   3.647   0.076   5.119
 8797SOL     OW27289   1.192   6.949   5.339
 8797SOL    HW127290   1.162   6.964   5.244
 8797SOL    HW227291   1.251   6.869   5.343
 8798SOL     OW27292   4.855   5.246   4.964
 8798SOL    HW127293   4.883   5.190   5.041
 8798SOL    HW227294   4.933   5.300   4.931
 8799SOL     OW27295   1.843   4.596   3.490
 8799SOL    HW127296   1.743   4.599   3.486
 8799SOL    HW227297   1.872   4.502   3.507
 8800SOL     OW27298   5.799   3.831   5.182
 8800SOL    HW127299   5.808   3.739   5.220
 8800SOL    HW227300   5.739   3.886   5.241
 8801SOL     OW27301   1.350   1.337   4.641
 8801SOL    HW127302   1.414   1.346   4.565
 8801SOL    HW227303   1.355   1.418   4.699
 8802SOL     OW27304   1.566   0.709   0.301
 8802SOL    HW127305   1.545   0.655   0.219
 8802SOL    HW227306   1.657   0.749   0.293
 8803SOL     OW27307   0.931   5.327   5.793
 8803SOL    HW127308   0.864   5.386   5.838
 8803SOL    HW227309   0.900   5.232   5.797
 8804SOL     OW27310   3.271   0.344   1.789
 8804SOL    HW127311   3.238   0.437   1.772
 8804SOL    HW227312   3.215   0.301   1.860
 8805SOL     OW27313   2.631   0.305   4.369
 8805SOL    HW127314   2.575   0.382   4.338
 8805SOL    HW227315   2.667   0.324   4.460
 8806SOL     OW27316   1.820   4.935   1.932
 8806SOL    HW127317   1.744   4.931   1.997
 8806SOL    HW227318   1.854   4.842   1.916
 8807SOL     OW27319   6.419   6.313   6.296
 8807SOL    HW127320   6.408   6.266   6.208
 8807SOL    HW227321   6.496   6.272   6.346
 8808SOL     OW27322   5.281   1.959   1.092
 8808SOL    HW127323   5.352   1.971   1.162
 8808SOL    HW227324   5.209   2.027   1.106
 8809SOL     OW27325   5.400   4.325   2.915
 8809SOL    HW127326   5.307   4.352   2.938
 8809SOL    HW227327   5.408   4.225   2.921
 8810SOL     OW27328   5.702   1.570   6.259
 8810SOL    HW127329   5.736   1.634   6.190
 8810SOL    HW227330   5.656   1.620   6.332
 8811SOL     OW27331   3.062   1.649   3.583
 8811SOL    HW127332   3.018   1.593   3.653
 8811SOL    HW227333   3.121   1.591   3.526
 8812SOL     OW27334   1.711   0.568   0.776
 8812SOL    HW127335   1.686   0.471   0.775
 8812SOL    HW227336   1.799   0.581   0.731
 8813SOL     OW27337   1.254   4.588   1.498
 8813SOL    HW127338   1.348   4.604   1.468
 8813SOL    HW227339   1.191   4.621   1.428
 8814SOL     OW27340   6.788   0.569   1.126
 8814SOL    HW127341   6.726   0.644   1.151
 8814SOL    HW227342   6.737   0.483   1.123
 8815SOL     OW27343   6.153   6.455   0.480
 8815SOL    HW127344   6.167   6.370   0.531
 8815SOL    HW227345   6.072   6.502   0.516
 8816SOL     OW27346   2.158   0.648   0.222
 8816SOL    HW127347   2.142   0.718   0.292
 8816SOL    HW227348   2.221   0.684   0.153
 8817SOL     OW27349   0.441   5.875   5.749
 8817SOL    HW127350   0.438   5.954   5.686
 8817SOL    HW227351   0.529   5.872   5.794
 8818SOL     OW27352   0.408   3.236   3.930
 8818SOL    HW127353   0.374   3.152   3.974
 8818SOL    HW227354   0.364   3.315   3.972
 8819SOL     OW27355   4.343   5.330   4.184
 8819SOL    HW127356   4.297   5.251   4.142
 8819SOL    HW227357   4.290   5.361   4.262
 8820SOL     OW27358   2.407   1.728   4.387
 8820SOL    HW127359   2.440   1.795   4.453
 8820SOL    HW227360   2.467   1.727   4.307
 8821SOL     OW27361   2.909   5.927   0.325
 8821SOL    HW127362   3.007   5.906   0.336
 8821SOL    HW227363   2.896   5.983   0.243
 8822SOL     OW27364   0.996   0.320   3.535
 8822SOL    HW127365   0.933   0.361   3.601
 8822SOL    HW227366   1.078   0.288   3.582
 8823SOL     OW27367   2.185   0.952   0.717
 8823SOL    HW127368   2.250   0.892   0.763
 8823SOL    HW227369   2.096   0.945   0.762
 8824SOL     OW27370   1.448   3.531   1.169
 8824SOL    HW127371   1.373   3.470   1.147
 8824SOL    HW227372   1.427   3.582   1.252
 8825SOL     OW27373   1.859   0.248   3.568
 8825SOL    HW127374   1.769   0.204   3.570
 8825SOL    HW227375   1.913   0.218   3.647
 8826SOL     OW27376   6.391   2.596   0.348
 8826SOL    HW127377   6.327   2.583   0.423
 8826SOL    HW227378   6.402   2.694   0.329
 8827SOL     OW27379   3.333   1.587   3.096
 8827SOL    HW127380   3.275   1.633   3.162
 8827SOL    HW227381   3.345   1.645   3.015
 8828SOL     OW27382   4.703   5.638   4.844
 8828SOL    HW127383   4.737   5.544   4.833
 8828SOL    HW227384   4.662   5.668   4.758
 8829SOL     OW27385   0.188   2.407   7.020
 8829SOL    HW127386   0.242   2.358   6.952
 8829SOL    HW227387   0.120   2.344   0.036
 8830SOL     OW27388   0.724   1.282   1.177
 8830SOL    HW127389   0.806   1.250   1.129
 8830SOL    HW227390   0.655   1.209   1.176
 8831SOL     OW27391   5.325   0.833   3.781
 8831SOL    HW127392   5.411   0.804   3.823
 8831SOL    HW227393   5.256   0.849   3.851
 8832SOL     OW27394   6.281   6.238   2.539
 8832SOL    HW127395   6.345   6.174   2.497
 8832SOL    HW227396   6.229   6.285   2.467
 8833SOL     OW27397   2.167   6.366   5.854
 8833SOL    HW127398   2.231   6.392   5.926
 8833SOL    HW227399   2.195   6.408   5.768
 8834SOL     OW27400   5.457   3.701   4.606
 8834SOL    HW127401   5.534   3.704   4.669
 8834SOL    HW227402   5.393   3.775   4.626
 8835SOL     OW27403   6.247   1.261   6.026
 8835SOL    HW127404   6.189   1.240   5.948
 8835SOL    HW227405   6.268   1.358   6.027
 8836SOL     OW27406   4.556   1.085   6.676
 8836SOL    HW127407   4.560   1.108   6.774
 8836SOL    HW227408   4.467   1.111   6.639
 8837SOL     OW27409   0.058   6.299   2.640
 8837SOL    HW127410   0.055   6.356   2.722
 8837SOL    HW227411   0.145   6.249   2.638
 8838SOL     OW27412   3.213   4.883   2.948
 8838SOL    HW127413   3.167   4.845   3.028
 8838SOL    HW227414   3.150   4.883   2.871
 8839SOL     OW27415   5.189   5.669   2.086
 8839SOL    HW127416   5.208   5.644   2.180
 8839SOL    HW227417   5.098   5.635   2.060
 8840SOL     OW27418   6.354   2.009   2.005
 8840SOL    HW127419   6.388   2.100   2.029
 8840SOL    HW227420   6.297   2.015   1.923
 8841SOL     OW27421   1.425   0.556   4.685
 8841SOL    HW127422   1.510   0.601   4.658
 8841SOL    HW227423   1.392   0.498   4.611
 8842SOL     OW27424   3.145   3.167   1.091
 8842SOL    HW127425   3.104   3.099   1.152
 8842SOL    HW227426   3.185   3.120   1.012
 8843SOL     OW27427   1.817   3.340   4.793
 8843SOL    HW127428   1.852   3.246   4.801
 8843SOL    HW227429   1.721   3.342   4.821
 8844SOL     OW27430   5.490   1.624   0.416
 8844SOL    HW127431   5.461   1.577   0.333
 8844SOL    HW227432   5.435   1.706   0.431
 8845SOL     OW27433   4.613   4.070   6.779
 8845SOL    HW127434   4.523   4.078   6.737
 8845SOL    HW227435   4.680   4.118   6.723
 8846SOL     OW27436   2.343   5.468   3.431
 8846SOL    HW127437   2.406   5.413   3.375
 8846SOL    HW227438   2.396   5.527   3.492
 8847SOL     OW27439   2.718   0.823   2.681
 8847SOL    HW127440   2.771   0.887   2.626
 8847SOL    HW227441   2.671   0.873   2.754
 8848SOL     OW27442   2.629   0.335   1.749
 8848SOL    HW127443   2.565   0.272   1.793
 8848SOL    HW227444   2.615   0.333   1.650
 8849SOL     OW27445   3.164   6.622   2.694
 8849SOL    HW127446   3.120   6.570   2.621
 8849SOL    HW227447   3.096   6.647   2.763
 8850SOL     OW27448   1.650   1.957   0.084
 8850SOL    HW127449   1.593   1.990   0.160
 8850SOL    HW227450   1.610   1.985   7.021
 8851SOL     OW27451   1.882   4.379   2.412
 8851SOL    HW127452   1.922   4.445   2.348
 8851SOL    HW227453   1.927   4.291   2.400
 8852SOL     OW27454   1.156   1.877   4.895
 8852SOL    HW127455   1.229   1.828   4.943
 8852SOL    HW227456   1.081   1.814   4.875
 8853SOL     OW27457   2.637   0.564   1.897
 8853SOL    HW127458   2.652   0.633   1.826
 8853SOL    HW227459   2.652   0.473   1.858
 8854SOL     OW27460   2.064   3.186   4.454
 8854SOL    HW127461   2.107   3.158   4.539
 8854SOL    HW227462   1.965   3.190   4.467
 8855SOL     OW27463   6.568   5.367   1.447
 8855SOL    HW127464   6.564   5.463   1.476
 8855SOL    HW227465   6.573   5.362   1.348
 8856SOL     OW27466   0.434   6.040   6.690
 8856SOL    HW127467   0.476   6.124   6.655
 8856SOL    HW227468   0.423   5.975   6.615
 8857SOL     OW27469   6.943   1.612   4.841
 8857SOL    HW127470   6.956   1.558   4.759
 8857SOL    HW227471   0.008   1.624   4.887
 8858SOL     OW27472   0.036   4.485   4.366
 8858SOL    HW127473   0.072   4.396   4.339
 8858SOL    HW227474   6.963   4.491   4.341
 8859SOL     OW27475   1.108   1.093   4.011
 8859SOL    HW127476   1.014   1.117   3.985
 8859SOL    HW227477   1.172   1.140   3.949
 8860SOL     OW27478   6.509   2.381   1.784
 8860SOL    HW127479   6.590   2.334   1.749
 8860SOL    HW227480   6.451   2.409   1.707
 8861SOL     OW27481   4.293   1.243   6.815
 8861SOL    HW127482   4.250   1.199   6.894
 8861SOL    HW227483   4.351   1.319   6.846
 8862SOL     OW27484   5.431   6.828   3.592
 8862SOL    HW127485   5.510   6.863   3.541
 8862SOL    HW227486   5.449   6.734   3.621
 8863SOL     OW27487   2.004   5.131   3.066
 8863SOL    HW127488   1.991   5.229   3.080
 8863SOL    HW227489   1.974   5.106   2.975
 8864SOL     OW27490   4.308   4.134   6.498
 8864SOL    HW127491   4.238   4.199   6.528
 8864SOL    HW227492   4.271   4.074   6.427
 8865SOL     OW27493   3.437   0.912   5.373
 8865SOL    HW127494   3.472   0.882   5.284
 8865SOL    HW227495   3.385   0.837   5.415
 8866SOL     OW27496   5.320   6.634   2.748
 8866SOL    HW127497   5.348   6.622   2.844
 8866SOL    HW227498   5.296   6.545   2.710
 8867SOL     OW27499   6.075   3.732   3.590
 8867SOL    HW127500   6.049   3.709   3.496
 8867SOL    HW227501   6.144   3.804   3.589
 8868SOL     OW27502   6.844   3.542   2.152
 8868SOL    HW127503   6.797   3.466   2.198
 8868SOL    HW227504   6.943   3.529   2.159
 8869SOL     OW27505   4.354   5.714   5.254
 8869SOL    HW127506   4.333   5.732   5.158
 8869SOL    HW227507   4.444   5.753   5.276
 8870SOL     OW27508   1.552   6.094   1.682
 8870SOL    HW127509   1.652   6.086   1.681
 8870SOL    HW227510   1.521   6.125   1.772
 8871SOL     OW27511   1.811   0.729   3.472
 8871SOL    HW127512   1.825   0.631   3.457
 8871SOL    HW227513   1.771   0.770   3.390
 8872SOL     OW27514   1.344   4.959   6.069
 8872SOL    HW127515   1.335   4.866   6.034
 8872SOL    HW227516   1.258   5.009   6.053
 8873SOL     OW27517   1.595   6.679   1.812
 8873SOL    HW127518   1.557   6.618   1.742
 8873SOL    HW227519   1.537   6.759   1.821
 8874SOL     OW27520   1.314   5.519   2.339
 8874SOL    HW127521   1.260   5.490   2.260
 8874SOL    HW227522   1.389   5.578   2.308
 8875SOL     OW27523   0.285   3.027   4.324
 8875SOL    HW127524   0.237   2.973   4.393
 8875SOL    HW227525   0.356   3.082   4.368
 8876SOL     OW27526   2.340   0.834   6.544
 8876SOL    HW127527   2.282   0.909   6.513
 8876SOL    HW227528   2.392   0.864   6.625
 8877SOL     OW27529   1.801   3.489   3.159
 8877SOL    HW127530   1.825   3.586   3.163
 8877SOL    HW227531   1.801   3.459   3.064
 8878SOL     OW27532   3.442   5.074   0.974
 8878SOL    HW127533   3.398   5.006   1.033
 8878SOL    HW227534   3.513   5.029   0.919
 8879SOL     OW27535   6.027   4.867   2.302
 8879SOL    HW127536   6.062   4.801   2.369
 8879SOL    HW227537   5.961   4.822   2.242
 8880SOL     OW27538   4.277   6.121   4.762
 8880SOL    HW127539   4.290   6.220   4.770
 8880SOL    HW227540   4.179   6.100   4.759
 8881SOL     OW27541   5.176   5.601   4.271
 8881SOL    HW127542   5.168   5.564   4.363
 8881SOL    HW227543   5.197   5.526   4.207
 8882SOL     OW27544   3.956   1.034   0.794
 8882SOL    HW127545   3.880   0.975   0.821
 8882SOL    HW227546   3.973   1.025   0.696
 8883SOL     OW27547   0.989   6.473   5.818
 8883SOL    HW127548   1.027   6.496   5.728
 8883SOL    HW227549   1.010   6.378   5.839
 8884SOL     OW27550   6.073   3.700   5.107
 8884SOL    HW127551   6.041   3.741   5.021
 8884SOL    HW227552   6.133   3.623   5.087
 8885SOL     OW27553   5.261   5.052   0.840
 8885SOL    HW127554   5.314   4.970   0.818
 8885SOL    HW227555   5.198   5.072   0.765
 8886SOL     OW27556   4.067   5.913   6.336
 8886SOL    HW127557   4.157   5.941   6.303
 8886SOL    HW227558   4.011   5.995   6.352
 8887SOL     OW27559   3.521   1.628   0.750
 8887SOL    HW127560   3.524   1.568   0.830
 8887SOL    HW227561   3.542   1.722   0.778
 8888SOL     OW27562   2.337   2.700   4.449
 8888SOL    HW127563   2.389   2.784   4.441
 8888SOL    HW227564   2.253   2.707   4.394
 8889SOL     OW27565   7.008   5.970   6.426
 8889SOL    HW127566   0.027   6.051   6.384
 8889SOL    HW227567   0.055   5.902   6.445
 8890SOL     OW27568   0.557   6.245   6.513
 8890SOL    HW127569   0.500   6.198   6.445
 8890SOL    HW227570   0.641   6.192   6.528
 8891SOL     OW27571   4.182   4.301   0.064
 8891SOL    HW127572   4.251   4.236   0.032
 8891SOL    HW227573   4.177   4.379   0.001
 8892SOL     OW27574   3.880   5.033   3.748
 8892SOL    HW127575   3.805   4.972   3.771
 8892SOL    HW227576   3.906   5.087   3.828
 8893SOL     OW27577   1.761   5.589   5.281
 8893SOL    HW127578   1.768   5.682   5.317
 8893SOL    HW227579   1.853   5.552   5.266
 8894SOL     OW27580   3.808   1.923   6.939
 8894SOL    HW127581   3.837   2.006   6.891
 8894SOL    HW227582   3.857   1.844   6.903
 8895SOL     OW27583   0.579   2.218   0.859
 8895SOL    HW127584   0.655   2.196   0.799
 8895SOL    HW227585   0.535   2.303   0.827
 8896SOL     OW27586   1.725   2.922   4.690
 8896SOL    HW127587   1.792   2.976   4.638
 8896SOL    HW227588   1.764   2.834   4.715
 8897SOL     OW27589   2.145   3.696   3.419
 8897SOL    HW127590   2.123   3.788   3.386
 8897SOL    HW227591   2.140   3.632   3.342
 8898SOL     OW27592   5.971   3.663   1.933
 8898SOL    HW127593   5.892   3.675   1.994
 8898SOL    HW227594   6.051   3.637   1.987
 8899SOL     OW27595   0.564   4.659   6.921
 8899SOL    HW127596   0.533   4.570   6.889
 8899SOL    HW227597   0.629   4.697   6.855
 8900SOL     OW27598   5.750   2.483   3.228
 8900SOL    HW127599   5.750   2.527   3.318
 8900SOL    HW227600   5.737   2.384   3.239
 8901SOL     OW27601   1.102   1.448   3.978
 8901SOL    HW127602   1.077   1.435   4.074
 8901SOL    HW227603   1.020   1.442   3.921
 8902SOL     OW27604   1.719   5.782   6.819
 8902SOL    HW127605   1.627   5.780   6.858
 8902SOL    HW227606   1.713   5.764   6.720
 8903SOL     OW27607   0.965   2.508   4.606
 8903SOL    HW127608   1.015   2.449   4.542
 8903SOL    HW227609   0.975   2.603   4.578
 8904SOL     OW27610   1.198   1.686   3.894
 8904SOL    HW127611   1.166   1.594   3.914
 8904SOL    HW227612   1.159   1.718   3.808
 8905SOL     OW27613   1.808   3.504   2.557
 8905SOL    HW127614   1.871   3.572   2.519
 8905SOL    HW227615   1.714   3.529   2.534
 8906SOL     OW27616   1.446   5.893   1.025
 8906SOL    HW127617   1.359   5.882   0.978
 8906SOL    HW227618   1.444   5.843   1.111
 8907SOL     OW27619   2.886   2.824   5.412
 8907SOL    HW127620   2.873   2.920   5.384
 8907SOL    HW227621   2.962   2.785   5.360
 8908SOL     OW27622   2.026   4.947   7.002
 8908SOL    HW127623   2.061   4.942   0.072
 8908SOL    HW227624   2.005   5.042   6.980
 8909SOL     OW27625   2.614   1.143   6.391
 8909SOL    HW127626   2.539   1.183   6.338
 8909SOL    HW227627   2.605   1.043   6.391
 8910SOL     OW27628   0.285   3.073   4.984
 8910SOL    HW127629   0.280   2.973   4.980
 8910SOL    HW227630   0.263   3.111   4.894
 8911SOL     OW27631   5.588   3.018   5.065
 8911SOL    HW127632   5.496   3.056   5.078
 8911SOL    HW227633   5.641   3.077   5.005
 8912SOL     OW27634   3.126   3.099   6.190
 8912SOL    HW127635   3.044   3.156   6.200
 8912SOL    HW227636   3.138   3.074   6.094
 8913SOL     OW27637   4.630   5.564   6.712
 8913SOL    HW127638   4.625   5.573   6.812
 8913SOL    HW227639   4.726   5.559   6.684
 8914SOL     OW27640   4.670   6.638   4.443
 8914SOL    HW127641   4.702   6.646   4.349
 8914SOL    HW227642   4.698   6.549   4.480
 8915SOL     OW27643   1.138   2.166   4.448
 8915SOL    HW127644   1.117   2.152   4.544
 8915SOL    HW227645   1.123   2.262   4.424
 8916SOL     OW27646   6.366   2.510   6.820
 8916SOL    HW127647   6.355   2.487   6.723
 8916SOL    HW227648   6.371   2.426   6.874
 8917SOL     OW27649   5.600   2.280   0.961
 8917SOL    HW127650   5.652   2.365   0.944
 8917SOL    HW227651   5.632   2.238   1.046
 8918SOL     OW27652   1.110   5.485   0.653
 8918SOL    HW127653   1.054   5.558   0.615
 8918SOL    HW227654   1.154   5.516   0.738
 8919SOL     OW27655   5.048   4.652   6.512
 8919SOL    HW127656   5.009   4.646   6.420
 8919SOL    HW227657   5.133   4.599   6.516
 8920SOL     OW27658   0.452   2.231   6.808
 8920SOL    HW127659   0.414   2.156   6.862
 8920SOL    HW227660   0.529   2.198   6.754
 8921SOL     OW27661   1.505   3.055   1.599
 8921SOL    HW127662   1.406   3.040   1.598
 8921SOL    HW227663   1.552   2.968   1.617
 8922SOL     OW27664   4.470   5.955   2.216
 8922SOL    HW127665   4.458   5.988   2.123
 8922SOL    HW227666   4.460   6.031   2.280
 8923SOL     OW27667   1.557   1.143   5.527
 8923SOL    HW127668   1.586   1.085   5.450
 8923SOL    HW227669   1.463   1.121   5.550
 8924SOL     OW27670   5.046   5.668   5.475
 8924SOL    HW127671   5.070   5.571   5.474
 8924SOL    HW227672   5.054   5.704   5.568
 8925SOL     OW27673   6.836   0.534   2.513
 8925SOL    HW127674   6.851   0.464   2.443
 8925SOL    HW227675   6.769   0.601   2.479
 8926SOL     OW27676   6.363   3.363   4.768
 8926SOL    HW127677   6.365   3.383   4.670
 8926SOL    HW227678   6.403   3.440   4.819
 8927SOL     OW27679   6.393   1.667   4.815
 8927SOL    HW127680   6.395   1.724   4.897
 8927SOL    HW227681   6.487   1.650   4.784
 8928SOL     OW27682   1.465   0.210   5.939
 8928SOL    HW127683   1.381   0.264   5.933
 8928SOL    HW227684   1.529   0.240   5.868
 8929SOL     OW27685   6.555   1.989   5.076
 8929SOL    HW127686   6.599   1.973   4.988
 8929SOL    HW227687   6.563   2.086   5.099
 8930SOL     OW27688   0.680   2.981   3.307
 8930SOL    HW127689   0.620   2.902   3.321
 8930SOL    HW227690   0.749   2.959   3.239
 8931SOL     OW27691   2.762   3.200   1.751
 8931SOL    HW127692   2.812   3.285   1.768
 8931SOL    HW227693   2.749   3.152   1.838
 8932SOL     OW27694   6.963   2.250   2.696
 8932SOL    HW127695   6.933   2.154   2.690
 8932SOL    HW227696   6.973   2.275   2.792
 8933SOL     OW27697   3.085   2.670   6.296
 8933SOL    HW127698   3.067   2.617   6.380
 8933SOL    HW227699   3.009   2.733   6.279
 8934SOL     OW27700   3.644   4.837   5.286
 8934SOL    HW127701   3.733   4.793   5.296
 8934SOL    HW227702   3.633   4.907   5.357
 8935SOL     OW27703   0.527   4.285   0.057
 8935SOL    HW127704   0.501   4.307   6.986
 8935SOL    HW227705   0.476   4.205   0.088
 8936SOL     OW27706   1.535   4.015   0.541
 8936SOL    HW127707   1.457   4.043   0.483
 8936SOL    HW227708   1.612   3.991   0.483
 8937SOL     OW27709   0.392   0.501   5.143
 8937SOL    HW127710   0.362   0.521   5.050
 8937SOL    HW227711   0.374   0.580   5.202
 8938SOL     OW27712   0.731   5.452   0.623
 8938SOL    HW127713   0.633   5.433   0.628
 8938SOL    HW227714   0.745   5.551   0.615
 8939SOL     OW27715   4.747   2.852   4.361
 8939SOL    HW127716   4.832   2.822   4.317
 8939SOL    HW227717   4.746   2.823   4.456
 8940SOL     OW27718   0.192   1.051   3.606
 8940SOL    HW127719   0.103   1.087   3.633
 8940SOL    HW227720   0.243   1.120   3.555
 8941SOL     OW27721   5.799   2.591   5.213
 8941SOL    HW127722   5.848   2.589   5.300
 8941SOL    HW227723   5.803   2.683   5.175
 8942SOL     OW27724   0.439   4.416   5.153
 8942SOL    HW127725   0.482   4.489   5.100
 8942SOL    HW227726   0.509   4.370   5.208
 8943SOL     OW27727   3.848   4.029   0.260
 8943SOL    HW127728   3.859   3.975   0.176
 8943SOL    HW227729   3.769   4.089   0.250
 8944SOL     OW27730   5.004   4.622   4.884
 8944SOL    HW127731   4.984   4.700   4.943
 8944SOL    HW227732   5.046   4.655   4.799
 8945SOL     OW27733   2.163   0.967   3.771
 8945SOL    HW127734   2.111   0.957   3.686
 8945SOL    HW227735   2.239   0.902   3.772
 8946SOL     OW27736   3.089   1.489   4.890
 8946SOL    HW127737   3.011   1.478   4.951
 8946SOL    HW227738   3.094   1.584   4.859
 8947SOL     OW27739   1.585   3.858   4.920
 8947SOL    HW127740   1.672   3.808   4.920
 8947SOL    HW227741   1.529   3.828   4.997
 8948SOL     OW27742   6.449   6.254   4.231
 8948SOL    HW127743   6.470   6.197   4.310
 8948SOL    HW227744   6.446   6.350   4.258
 8949SOL     OW27745   2.391   0.242   0.295
 8949SOL    HW127746   2.358   0.153   0.263
 8949SOL    HW227747   2.313   0.298   0.323
 8950SOL     OW27748   4.937   3.270   5.858
 8950SOL    HW127749   4.854   3.243   5.809
 8950SOL    HW227750   5.007   3.299   5.793
 8951SOL     OW27751   0.745   2.121   4.753
 8951SOL    HW127752   0.675   2.164   4.696
 8951SOL    HW227753   0.725   2.024   4.763
 8952SOL     OW27754   1.272   0.129   2.475
 8952SOL    HW127755   1.292   0.069   2.553
 8952SOL    HW227756   1.174   0.149   2.473
 8953SOL     OW27757   1.035   3.701   6.440
 8953SOL    HW127758   0.978   3.735   6.365
 8953SOL    HW227759   1.081   3.617   6.411
 8954SOL     OW27760   0.765   6.292   6.270
 8954SOL    HW127761   0.748   6.391   6.262
 8954SOL    HW227762   0.680   6.243   6.252
 8955SOL     OW27763   0.358   4.588   2.365
 8955SOL    HW127764   0.440   4.540   2.398
 8955SOL    HW227765   0.322   4.541   2.284
 8956SOL     OW27766   6.988   1.871   0.068
 8956SOL    HW127767   0.013   1.903   0.150
 8956SOL    HW227768   6.947   1.782   0.087
 8957SOL     OW27769   2.990   4.271   1.735
 8957SOL    HW127770   2.947   4.355   1.767
 8957SOL    HW227771   2.936   4.193   1.767
 8958SOL     OW27772   0.843   0.296   4.490
 8958SOL    HW127773   0.833   0.394   4.506
 8958SOL    HW227774   0.872   0.252   4.575
 8959SOL     OW27775   1.528   4.630   1.439
 8959SOL    HW127776   1.591   4.557   1.466
 8959SOL    HW227777   1.571   4.719   1.458
 8960SOL     OW27778   4.919   5.767   2.257
 8960SOL    HW127779   4.824   5.783   2.283
 8960SOL    HW227780   4.941   5.670   2.269
 8961SOL     OW27781   2.446   2.622   4.703
 8961SOL    HW127782   2.390   2.540   4.689
 8961SOL    HW227783   2.489   2.648   4.616
 8962SOL     OW27784   6.465   6.563   2.931
 8962SOL    HW127785   6.445   6.633   2.862
 8962SOL    HW227786   6.465   6.473   2.887
 8963SOL     OW27787   5.002   6.637   3.911
 8963SOL    HW127788   4.913   6.669   3.878
 8963SOL    HW227789   5.052   6.714   3.952
 8964SOL     OW27790   5.692   3.889   3.419
 8964SOL    HW127791   5.711   3.942   3.336
 8964SOL    HW227792   5.664   3.950   3.493
 8965SOL     OW27793   2.084   4.810   0.442
 8965SOL    HW127794   2.170   4.840   0.482
 8965SOL    HW227795   2.039   4.745   0.503
 8966SOL     OW27796   1.383   4.141   5.245
 8966SOL    HW127797   1.473   4.112   5.214
 8966SOL    HW227798   1.313   4.081   5.206
 8967SOL     OW27799   3.567   6.220   2.167
 8967SOL    HW127800   3.567   6.295   2.233
 8967SOL    HW227801   3.607   6.252   2.080
 8968SOL     OW27802   5.227   4.771   2.400
 8968SOL    HW127803   5.175   4.785   2.316
 8968SOL    HW227804   5.171   4.794   2.479
 8969SOL     OW27805   6.604   0.196   4.135
 8969SOL    HW127806   6.509   0.206   4.166
 8969SOL    HW227807   6.624   0.100   4.118
 8970SOL     OW27808   3.061   2.786   0.241
 8970SOL    HW127809   3.151   2.784   0.197
 8970SOL    HW227810   3.071   2.772   0.339
 8971SOL     OW27811   4.465   5.256   1.980
 8971SOL    HW127812   4.460   5.336   2.040
 8971SOL    HW227813   4.373   5.231   1.950
 8972SOL     OW27814   4.897   5.422   6.144
 8972SOL    HW127815   4.821   5.473   6.104
 8972SOL    HW227816   4.873   5.395   6.237
 8973SOL     OW27817   0.859   3.254   2.059
 8973SOL    HW127818   0.834   3.217   2.149
 8973SOL    HW227819   0.941   3.208   2.026
 8974SOL     OW27820   1.544   4.525   5.712
 8974SOL    HW127821   1.568   4.622   5.711
 8974SOL    HW227822   1.602   4.475   5.649
 8975SOL     OW27823   2.326   6.844   6.444
 8975SOL    HW127824   2.384   6.773   6.485
 8975SOL    HW227825   2.299   6.910   6.514
 8976SOL     OW27826   0.466   5.149   5.420
 8976SOL    HW127827   0.407   5.227   5.443
 8976SOL    HW227828   0.518   5.170   5.338
 8977SOL     OW27829   5.605   1.452   6.899
 8977SOL    HW127830   5.576   1.388   6.828
 8977SOL    HW227831   5.703   1.442   6.915
 8978SOL     OW27832   5.541   0.032   6.510
 8978SOL    HW127833   5.488   0.063   6.589
 8978SOL    HW227834   5.512   6.964   6.484
 8979SOL     OW27835   1.146   3.235   4.437
 8979SOL    HW127836   1.111   3.281   4.518
 8979SOL    HW227837   1.242   3.211   4.451
 8980SOL     OW27838   2.295   3.251   5.328
 8980SOL    HW127839   2.212   3.214   5.369
 8980SOL    HW227840   2.342   3.179   5.276
 8981SOL     OW27841   3.476   1.219   4.868
 8981SOL    HW127842   3.567   1.241   4.903
 8981SOL    HW227843   3.475   1.125   4.834
 8982SOL     OW27844   1.813   2.329   0.362
 8982SOL    HW127845   1.866   2.411   0.382
 8982SOL    HW227846   1.801   2.321   0.263
 8983SOL     OW27847   2.398   6.464   6.365
 8983SOL    HW127848   2.427   6.391   6.427
 8983SOL    HW227849   2.413   6.437   6.270
 8984SOL     OW27850   0.943   6.883   4.260
 8984SOL    HW127851   0.857   6.922   4.227
 8984SOL    HW227852   0.958   6.794   4.217
 8985SOL     OW27853   3.238   3.250   0.470
 8985SOL    HW127854   3.239   3.245   0.371
 8985SOL    HW227855   3.206   3.341   0.498
 8986SOL     OW27856   4.388   5.434   2.686
 8986SOL    HW127857   4.488   5.432   2.674
 8986SOL    HW227858   4.366   5.465   2.778
 8987SOL     OW27859   4.197   6.910   1.732
 8987SOL    HW127860   4.114   6.854   1.739
 8987SOL    HW227861   4.277   6.850   1.730
 8988SOL     OW27862   1.597   4.512   4.705
 8988SOL    HW127863   1.672   4.545   4.763
 8988SOL    HW227864   1.634   4.448   4.638
 8989SOL     OW27865   5.123   3.413   0.065
 8989SOL    HW127866   5.107   3.509   0.088
 8989SOL    HW227867   5.050   3.381   0.005
 8990SOL     OW27868   1.854   5.856   4.428
 8990SOL    HW127869   1.802   5.871   4.345
 8990SOL    HW227870   1.792   5.844   4.505
 8991SOL     OW27871   1.356   2.465   4.794
 8991SOL    HW127872   1.439   2.410   4.791
 8991SOL    HW227873   1.276   2.406   4.800
 8992SOL     OW27874   4.389   1.289   0.626
 8992SOL    HW127875   4.383   1.369   0.566
 8992SOL    HW227876   4.373   1.206   0.574
 8993SOL     OW27877   4.934   2.522   1.427
 8993SOL    HW127878   4.945   2.426   1.402
 8993SOL    HW227879   4.859   2.562   1.375
 8994SOL     OW27880   1.019   3.699   5.065
 8994SOL    HW127881   0.947   3.728   5.128
 8994SOL    HW227882   1.008   3.746   4.977
 8995SOL     OW27883   1.363   2.733   6.800
 8995SOL    HW127884   1.357   2.728   6.900
 8995SOL    HW227885   1.452   2.772   6.775
 8996SOL     OW27886   5.216   4.427   6.782
 8996SOL    HW127887   5.250   4.521   6.781
 8996SOL    HW227888   5.285   4.368   6.823
 8997SOL     OW27889   5.211   1.961   6.390
 8997SOL    HW127890   5.307   1.956   6.362
 8997SOL    HW227891   5.153   1.931   6.314
 8998SOL     OW27892   6.322   3.845   3.991
 8998SOL    HW127893   6.379   3.880   3.916
 8998SOL    HW227894   6.274   3.763   3.960
 8999SOL     OW27895   5.053   6.809   6.387
 8999SOL    HW127896   5.042   6.905   6.416
 8999SOL    HW227897   4.963   6.770   6.368
 9000SOL     OW27898   1.265   3.327   1.487
 9000SOL    HW127899   1.238   3.272   1.566
 9000SOL    HW227900   1.302   3.267   1.416
 9001SOL     OW27901   1.014   4.665   2.220
 9001SOL    HW127902   0.990   4.757   2.190
 9001SOL    HW227903   1.057   4.615   2.144
 9002SOL     OW27904   1.372   5.301   5.236
 9002SOL    HW127905   1.361   5.205   5.212
 9002SOL    HW227906   1.341   5.358   5.160
 9003SOL     OW27907   5.728   3.816   1.761
 9003SOL    HW127908   5.641   3.865   1.764
 9003SOL    HW227909   5.802   3.878   1.788
 9004SOL     OW27910   4.362   6.057   0.735
 9004SOL    HW127911   4.364   6.075   0.834
 9004SOL    HW227912   4.408   6.131   0.687
 9005SOL     OW27913   6.277   2.664   4.830
 9005SOL    HW127914   6.266   2.587   4.894
 9005SOL    HW227915   6.321   2.740   4.877
 9006SOL     OW27916   2.487   5.535   0.895
 9006SOL    HW127917   2.482   5.435   0.898
 9006SOL    HW227918   2.553   5.567   0.963
 9007SOL     OW27919   3.385   0.807   3.538
 9007SOL    HW127920   3.348   0.803   3.632
 9007SOL    HW227921   3.480   0.837   3.541
 9008SOL     OW27922   0.940   5.317   3.436
 9008SOL    HW127923   0.916   5.242   3.497
 9008SOL    HW227924   1.039   5.335   3.442
 9009SOL     OW27925   2.655   5.833   0.398
 9009SOL    HW127926   2.741   5.875   0.367
 9009SOL    HW227927   2.675   5.761   0.464
 9010SOL     OW27928   0.948   6.459   4.345
 9010SOL    HW127929   1.035   6.431   4.387
 9010SOL    HW227930   0.886   6.381   4.342
 9011SOL     OW27931   4.956   1.487   1.670
 9011SOL    HW127932   4.865   1.515   1.642
 9011SOL    HW227933   4.983   1.405   1.619
 9012SOL     OW27934   1.755   4.439   0.126
 9012SOL    HW127935   1.847   4.410   0.099
 9012SOL    HW227936   1.688   4.401   0.062
 9013SOL     OW27937   0.293   6.821   6.470
 9013SOL    HW127938   0.262   6.823   6.375
 9013SOL    HW227939   0.236   6.882   6.525
 9014SOL     OW27940   0.104   2.097   1.054
 9014SOL    HW127941   0.075   2.170   0.993
 9014SOL    HW227942   0.158   2.136   1.129
 9015SOL     OW27943   4.535   2.217   1.840
 9015SOL    HW127944   4.435   2.206   1.838
 9015SOL    HW227945   4.557   2.312   1.862
 9016SOL     OW27946   6.894   6.161   6.609
 9016SOL    HW127947   6.899   6.239   6.548
 9016SOL    HW227948   6.937   6.081   6.566
 9017SOL     OW27949   4.787   1.509   3.889
 9017SOL    HW127950   4.849   1.556   3.952
 9017SOL    HW227951   4.833   1.494   3.802
 9018SOL     OW27952   2.938   3.006   6.764
 9018SOL    HW127953   2.867   3.067   6.800
 9018SOL    HW227954   2.932   3.003   6.664
 9019SOL     OW27955   1.535   5.099   2.303
 9019SOL    HW127956   1.465   5.169   2.286
 9019SOL    HW227957   1.511   5.049   2.387
 9020SOL     OW27958   0.015   3.951   0.678
 9020SOL    HW127959   0.107   3.925   0.647
 9020SOL    HW227960   0.021   4.032   0.736
 9021SOL     OW27961   0.009   0.580   3.999
 9021SOL    HW127962   0.041   0.671   4.025
 9021SOL    HW227963   6.969   0.546   4.068
 9022SOL     OW27964   3.082   0.859   0.144
 9022SOL    HW127965   3.050   0.902   0.060
 9022SOL    HW227966   3.149   0.788   0.122
 9023SOL     OW27967   3.539   2.858   2.359
 9023SOL    HW127968   3.562   2.915   2.438
 9023SOL    HW227969   3.441   2.866   2.339
 9024SOL     OW27970   1.213   3.961   5.136
 9024SOL    HW127971   1.117   3.989   5.139
 9024SOL    HW227972   1.220   3.865   5.163
 9025SOL     OW27973   0.875   5.271   0.773
 9025SOL    HW127974   0.895   5.336   0.847
 9025SOL    HW227975   0.826   5.319   0.699
 9026SOL     OW27976   3.567   3.342   1.096
 9026SOL    HW127977   3.471   3.355   1.119
 9026SOL    HW227978   3.596   3.250   1.124
 9027SOL     OW27979   1.408   2.854   2.907
 9027SOL    HW127980   1.431   2.864   3.004
 9027SOL    HW227981   1.362   2.936   2.875
 9028SOL     OW27982   2.914   3.083   5.326
 9028SOL    HW127983   2.991   3.095   5.263
 9028SOL    HW227984   2.940   3.116   5.417
 9029SOL     OW27985   3.881   6.667   4.549
 9029SOL    HW127986   3.798   6.669   4.604
 9029SOL    HW227987   3.880   6.742   4.483
 9030SOL     OW27988   2.633   2.014   3.341
 9030SOL    HW127989   2.597   2.104   3.366
 9030SOL    HW227990   2.659   1.965   3.424
 9031SOL     OW27991   4.020   6.086   4.608
 9031SOL    HW127992   3.971   6.000   4.624
 9031SOL    HW227993   3.954   6.160   4.592
 9032SOL     OW27994   4.312   3.855   0.660
 9032SOL    HW127995   4.259   3.905   0.729
 9032SOL    HW227996   4.401   3.832   0.698
 9033SOL     OW27997   0.008   4.276   2.785
 9033SOL    HW127998   0.010   4.368   2.824
 9033SOL    HW227999   0.044   4.279   2.691
 9034SOL     OW28000   3.178   6.461   4.585
 9034SOL    HW128001   3.110   6.533   4.569
 9034SOL    HW228002   3.199   6.415   4.500
 9035SOL     OW28003   2.423   4.299   6.966
 9035SOL    HW128004   2.380   4.276   6.878
 9035SOL    HW228005   2.354   4.303   0.014
 9036SOL     OW28006   1.814   3.017   5.369
 9036SOL    HW128007   1.724   2.975   5.378
 9036SOL    HW228008   1.884   2.946   5.362
 9037SOL     OW28009   1.317   4.070   4.498
 9037SOL    HW128010   1.384   4.067   4.424
 9037SOL    HW228011   1.362   4.047   4.585
 9038SOL     OW28012   4.655   0.998   6.345
 9038SOL    HW128013   4.557   0.980   6.348
 9038SOL    HW228014   4.696   0.944   6.271
 9039SOL     OW28015   2.626   5.012   5.875
 9039SOL    HW128016   2.724   4.988   5.877
 9039SOL    HW228017   2.588   4.985   5.786
 9040SOL     OW28018   2.683   2.298   2.746
 9040SOL    HW128019   2.671   2.384   2.795
 9040SOL    HW228020   2.632   2.301   2.660
 9041SOL     OW28021   1.231   1.760   1.532
 9041SOL    HW128022   1.314   1.706   1.539
 9041SOL    HW228023   1.158   1.717   1.585
 9042SOL     OW28024   4.129   6.703   4.666
 9042SOL    HW128025   4.044   6.667   4.629
 9042SOL    HW228026   4.122   6.802   4.675
 9043SOL     OW28027   1.554   0.877   6.528
 9043SOL    HW128028   1.555   0.858   6.430
 9043SOL    HW228029   1.560   0.792   6.579
 9044SOL     OW28030   6.670   0.103   1.012
 9044SOL    HW128031   6.621   0.119   0.926
 9044SOL    HW228032   6.724   0.020   1.004
 9045SOL     OW28033   3.171   1.386   2.830
 9045SOL    HW128034   3.228   1.464   2.802
 9045SOL    HW228035   3.228   1.320   2.879
 9046SOL     OW28036   3.430   4.146   3.065
 9046SOL    HW128037   3.423   4.172   2.969
 9046SOL    HW228038   3.339   4.125   3.101
 9047SOL     OW28039   1.915   3.763   5.048
 9047SOL    HW128040   1.915   3.684   5.110
 9047SOL    HW228041   1.964   3.839   5.091
 9048SOL     OW28042   6.175   3.304   6.333
 9048SOL    HW128043   6.093   3.253   6.359
 9048SOL    HW228044   6.244   3.296   6.405
 9049SOL     OW28045   4.042   6.244   5.668
 9049SOL    HW128046   4.034   6.320   5.732
 9049SOL    HW228047   4.007   6.272   5.579
 9050SOL     OW28048   0.571   3.357   0.909
 9050SOL    HW128049   0.595   3.314   0.822
 9050SOL    HW228050   0.479   3.395   0.903
 9051SOL     OW28051   3.374   6.916   1.452
 9051SOL    HW128052   3.324   6.895   1.536
 9051SOL    HW228053   3.472   6.920   1.471
 9052SOL     OW28054   2.340   2.059   3.767
 9052SOL    HW128055   2.312   1.967   3.739
 9052SOL    HW228056   2.363   2.113   3.686
 9053SOL     OW28057   1.576   1.292   2.572
 9053SOL    HW128058   1.668   1.293   2.611
 9053SOL    HW228059   1.559   1.378   2.525
 9054SOL     OW28060   3.196   6.058   3.898
 9054SOL    HW128061   3.270   5.996   3.870
 9054SOL    HW228062   3.108   6.011   3.888
 9055SOL     OW28063   5.534   2.750   4.489
 9055SOL    HW128064   5.565   2.825   4.548
 9055SOL    HW228065   5.521   2.784   4.396
 9056SOL     OW28066   1.412   2.731   1.682
 9056SOL    HW128067   1.348   2.797   1.643
 9056SOL    HW228068   1.506   2.758   1.660
 9057SOL     OW28069   4.721   2.820   5.604
 9057SOL    HW128070   4.756   2.755   5.536
 9057SOL    HW228071   4.697   2.906   5.558
 9058SOL     OW28072   1.985   0.538   1.713
 9058SOL    HW128073   2.002   0.466   1.781
 9058SOL    HW228074   1.902   0.587   1.737
 9059SOL     OW28075   1.323   2.004   2.773
 9059SOL    HW128076   1.418   2.019   2.801
 9059SOL    HW228077   1.314   2.020   2.675
 9060SOL     OW28078   6.466   3.143   4.133
 9060SOL    HW128079   6.476   3.242   4.123
 9060SOL    HW228080   6.395   3.124   4.201
 9061SOL     OW28081   2.471   5.462   2.112
 9061SOL    HW128082   2.430   5.424   2.029
 9061SOL    HW228083   2.492   5.388   2.175
 9062SOL     OW28084   1.255   6.570   2.831
 9062SOL    HW128085   1.190   6.633   2.873
 9062SOL    HW228086   1.219   6.477   2.835
 9063SOL     OW28087   3.183   0.452   4.289
 9063SOL    HW128088   3.223   0.514   4.222
 9063SOL    HW228089   3.083   0.458   4.284
 9064SOL     OW28090   6.002   2.489   6.036
 9064SOL    HW128091   6.050   2.403   6.055
 9064SOL    HW228092   5.918   2.470   5.985
 9065SOL     OW28093   4.101   0.593   6.961
 9065SOL    HW128094   4.175   0.661   6.957
 9065SOL    HW228095   4.070   0.583   0.032
 9066SOL     OW28096   5.555   6.392   0.847
 9066SOL    HW128097   5.527   6.333   0.923
 9066SOL    HW228098   5.646   6.429   0.867
 9067SOL     OW28099   1.176   0.615   4.012
 9067SOL    HW128100   1.275   0.630   4.004
 9067SOL    HW228101   1.132   0.702   4.037
 9068SOL     OW28102   1.746   6.522   4.663
 9068SOL    HW128103   1.663   6.468   4.675
 9068SOL    HW228104   1.722   6.618   4.654
 9069SOL     OW28105   1.531   2.800   1.146
 9069SOL    HW128106   1.570   2.725   1.199
 9069SOL    HW228107   1.546   2.886   1.195
 9070SOL     OW28108   1.603   3.509   5.174
 9070SOL    HW128109   1.594   3.450   5.254
 9070SOL    HW228110   1.699   3.518   5.150
 9071SOL     OW28111   6.644   6.629   1.669
 9071SOL    HW128112   6.571   6.565   1.695
 9071SOL    HW228113   6.722   6.577   1.634
 9072SOL     OW28114   0.540   1.977   0.603
 9072SOL    HW128115   0.509   2.001   0.695
 9072SOL    HW228116   0.612   1.908   0.610
 9073SOL     OW28117   2.408   6.949   2.484
 9073SOL    HW128118   2.362   6.873   2.437
 9073SOL    HW228119   2.384   0.012   2.440
 9074SOL     OW28120   1.330   0.405   2.661
 9074SOL    HW128121   1.304   0.322   2.710
 9074SOL    HW228122   1.301   0.398   2.566
 9075SOL     OW28123   0.229   1.326   2.570
 9075SOL    HW128124   0.326   1.329   2.544
 9075SOL    HW228125   0.211   1.393   2.642
 9076SOL     OW28126   6.905   1.282   6.409
 9076SOL    HW128127   6.809   1.277   6.435
 9076SOL    HW228128   6.930   1.200   6.356
 9077SOL     OW28129   4.316   0.380   1.288
 9077SOL    HW128130   4.301   0.420   1.198
 9077SOL    HW228131   4.414   0.363   1.301
 9078SOL     OW28132   3.524   3.750   4.987
 9078SOL    HW128133   3.440   3.798   4.963
 9078SOL    HW228134   3.551   3.774   5.080
 9079SOL     OW28135   2.628   0.621   4.722
 9079SOL    HW128136   2.539   0.631   4.766
 9079SOL    HW228137   2.699   0.618   4.793
 9080SOL     OW28138   4.805   2.658   6.730
 9080SOL    HW128139   4.732   2.650   6.663
 9080SOL    HW228140   4.862   2.575   6.729
 9081SOL     OW28141   4.895   6.700   2.288
 9081SOL    HW128142   4.906   6.799   2.286
 9081SOL    HW228143   4.824   6.676   2.355
 9082SOL     OW28144   2.077   0.370   5.102
 9082SOL    HW128145   2.016   0.351   5.179
 9082SOL    HW228146   2.024   0.379   5.018
 9083SOL     OW28147   4.018   5.033   6.024
 9083SOL    HW128148   4.095   5.012   5.963
 9083SOL    HW228149   4.030   4.985   6.111
 9084SOL     OW28150   3.085   4.010   3.170
 9084SOL    HW128151   3.063   3.988   3.075
 9084SOL    HW228152   3.160   3.952   3.200
 9085SOL     OW28153   2.302   0.203   0.741
 9085SOL    HW128154   2.376   0.203   0.673
 9085SOL    HW228155   2.244   0.284   0.727
 9086SOL     OW28156   0.788   4.048   0.324
 9086SOL    HW128157   0.798   4.085   0.232
 9086SOL    HW228158   0.842   3.964   0.332
 9087SOL     OW28159   4.682   2.883   1.667
 9087SOL    HW128160   4.590   2.866   1.631
 9087SOL    HW228161   4.674   2.939   1.750
 9088SOL     OW28162   6.824   6.880   0.967
 9088SOL    HW128163   6.786   6.860   0.877
 9088SOL    HW228164   6.776   6.824   1.036
 9089SOL     OW28165   5.181   6.639   5.352
 9089SOL    HW128166   5.236   6.640   5.269
 9089SOL    HW228167   5.204   6.719   5.408
 9090SOL     OW28168   5.816   1.152   5.627
 9090SOL    HW128169   5.789   1.124   5.719
 9090SOL    HW228170   5.735   1.184   5.577
 9091SOL     OW28171   3.027   3.522   6.797
 9091SOL    HW128172   2.953   3.565   6.848
 9091SOL    HW228173   3.041   3.572   6.711
 9092SOL     OW28174   6.695   0.818   0.414
 9092SOL    HW128175   6.732   0.897   0.365
 9092SOL    HW228176   6.771   0.763   0.449
 9093SOL     OW28177   1.888   6.279   5.249
 9093SOL    HW128178   1.905   6.241   5.340
 9093SOL    HW228179   1.966   6.261   5.190
 9094SOL     OW28180   6.383   4.426   2.690
 9094SOL    HW128181   6.292   4.459   2.663
 9094SOL    HW228182   6.395   4.332   2.659
 9095SOL     OW28183   4.600   4.690   6.117
 9095SOL    HW128184   4.621   4.610   6.175
 9095SOL    HW228185   4.511   4.676   6.072
 9096SOL     OW28186   6.156   5.286   3.135
 9096SOL    HW128187   6.089   5.224   3.174
 9096SOL    HW228188   6.111   5.370   3.105
 9097SOL     OW28189   2.366   1.909   0.125
 9097SOL    HW128190   2.433   1.880   0.193
 9097SOL    HW228191   2.298   1.837   0.112
 9098SOL     OW28192   2.778   2.010   5.343
 9098SOL    HW128193   2.701   2.044   5.289
 9098SOL    HW228194   2.830   2.088   5.378
 9099SOL     OW28195   2.593   2.952   6.794
 9099SOL    HW128196   2.569   2.886   6.865
 9099SOL    HW228197   2.626   2.904   6.713
 9100SOL     OW28198   0.937   3.487   2.467
 9100SOL    HW128199   0.893   3.447   2.548
 9100SOL    HW228200   0.975   3.576   2.491
 9101SOL     OW28201   2.565   1.323   2.368
 9101SOL    HW128202   2.552   1.416   2.333
 9101SOL    HW228203   2.491   1.300   2.431
 9102SOL     OW28204   3.677   6.327   1.916
 9102SOL    HW128205   3.621   6.404   1.886
 9102SOL    HW228206   3.689   6.263   1.840
 9103SOL     OW28207   5.232   1.526   6.987
 9103SOL    HW128208   5.144   1.549   0.004
 9103SOL    HW228209   5.295   1.497   0.035
 9104SOL     OW28210   6.954   6.500   1.776
 9104SOL    HW128211   6.947   6.549   1.863
 9104SOL    HW228212   6.997   6.411   1.791
 9105SOL     OW28213   1.372   0.284   5.066
 9105SOL    HW128214   1.288   0.243   5.030
 9105SOL    HW228215   1.424   0.324   4.991
 9106SOL     OW28216   0.464   3.394   0.091
 9106SOL    HW128217   0.543   3.448   0.060
 9106SOL    HW228218   0.476   3.371   0.188
 9107SOL     OW28219   1.696   1.144   6.768
 9107SOL    HW128220   1.762   1.111   6.836
 9107SOL    HW228221   1.729   1.121   6.676
 9108SOL     OW28222   4.322   4.074   5.734
 9108SOL    HW128223   4.251   4.033   5.791
 9108SOL    HW228224   4.412   4.045   5.767
 9109SOL     OW28225   4.990   2.755   3.083
 9109SOL    HW128226   5.077   2.722   3.046
 9109SOL    HW228227   4.955   2.828   3.024
 9110SOL     OW28228   1.193   5.621   4.451
 9110SOL    HW128229   1.222   5.714   4.471
 9110SOL    HW228230   1.161   5.616   4.356
 9111SOL     OW28231   4.342   2.988   6.703
 9111SOL    HW128232   4.244   2.983   6.722
 9111SOL    HW228233   4.381   2.896   6.702
 9112SOL     OW28234   1.360   4.925   2.942
 9112SOL    HW128235   1.342   4.972   2.856
 9112SOL    HW228236   1.408   4.839   2.923
 9113SOL     OW28237   5.577   2.465   3.742
 9113SOL    HW128238   5.668   2.485   3.779
 9113SOL    HW228239   5.531   2.551   3.717
 9114SOL     OW28240   0.952   6.117   3.957
 9114SOL    HW128241   0.926   6.076   3.870
 9114SOL    HW228242   0.957   6.216   3.947
 9115SOL     OW28243   6.336   5.418   4.070
 9115SOL    HW128244   6.252   5.437   4.018
 9115SOL    HW228245   6.344   5.320   4.085
 9116SOL     OW28246   0.146   0.387   3.118
 9116SOL    HW128247   0.174   0.433   3.034
 9116SOL    HW228248   0.065   0.331   3.099
 9117SOL     OW28249   4.139   2.087   6.260
 9117SOL    HW128250   4.140   2.151   6.337
 9117SOL    HW228251   4.085   2.125   6.185
 9118SOL     OW28252   6.298   3.958   0.177
 9118SOL    HW128253   6.341   3.967   0.267
 9118SOL    HW228254   6.368   3.936   0.110
 9119SOL     OW28255   4.088   6.688   1.466
 9119SOL    HW128256   4.156   6.615   1.472
 9119SOL    HW228257   4.106   6.744   1.386
 9120SOL     OW28258   6.387   3.046   6.013
 9120SOL    HW128259   6.364   2.967   5.956
 9120SOL    HW228260   6.362   3.130   5.965
 9121SOL     OW28261   4.031   0.020   5.770
 9121SOL    HW128262   4.053   0.101   5.824
 9121SOL    HW228263   3.971   6.984   5.823
 9122SOL     OW28264   2.199   3.997   2.085
 9122SOL    HW128265   2.212   3.977   1.988
 9122SOL    HW228266   2.191   3.912   2.136
 9123SOL     OW28267   1.441   0.712   3.868
 9123SOL    HW128268   1.495   0.767   3.805
 9123SOL    HW228269   1.407   0.630   3.822
 9124SOL     OW28270   3.840   5.416   2.175
 9124SOL    HW128271   3.827   5.318   2.161
 9124SOL    HW228272   3.887   5.455   2.096
 9125SOL     OW28273   3.730   5.000   0.937
 9125SOL    HW128274   3.729   4.973   0.840
 9125SOL    HW228275   3.700   4.923   0.993
 9126SOL     OW28276   4.795   4.214   0.558
 9126SOL    HW128277   4.798   4.144   0.486
 9126SOL    HW228278   4.863   4.194   0.627
 9127SOL     OW28279   6.496   2.804   5.020
 9127SOL    HW128280   6.411   2.843   5.056
 9127SOL    HW228281   6.559   2.877   4.996
 9128SOL     OW28282   6.412   3.074   4.605
 9128SOL    HW128283   6.338   3.141   4.611
 9128SOL    HW228284   6.379   2.991   4.559
 9129SOL     OW28285   1.679   2.503   0.765
 9129SOL    HW128286   1.672   2.495   0.665
 9129SOL    HW228287   1.647   2.419   0.808
 9130SOL     OW28288   1.078   3.950   5.533
 9130SOL    HW128289   1.078   4.023   5.465
 9130SOL    HW228290   1.019   3.876   5.503
 9131SOL     OW28291   5.419   2.881   0.009
 9131SOL    HW128292   5.356   2.824   0.062
 9131SOL    HW228293   5.494   2.912   0.068
 9132SOL     OW28294   0.960   4.692   4.191
 9132SOL    HW128295   0.995   4.690   4.285
 9132SOL    HW228296   0.860   4.691   4.193
 9133SOL     OW28297   2.925   0.369   1.087
 9133SOL    HW128298   2.899   0.417   1.003
 9133SOL    HW228299   3.021   0.341   1.081
 9134SOL     OW28300   4.095   5.497   0.670
 9134SOL    HW128301   4.139   5.512   0.582
 9134SOL    HW228302   4.039   5.577   0.694
 9135SOL     OW28303   0.963   6.081   1.881
 9135SOL    HW128304   0.930   5.990   1.854
 9135SOL    HW228305   1.061   6.088   1.862
 9136SOL     OW28306   4.706   4.996   5.864
 9136SOL    HW128307   4.670   5.038   5.782
 9136SOL    HW228308   4.777   5.055   5.904
 9137SOL     OW28309   4.714   6.513   5.877
 9137SOL    HW128310   4.807   6.538   5.903
 9137SOL    HW228311   4.691   6.423   5.914
 9138SOL     OW28312   2.344   3.019   0.641
 9138SOL    HW128313   2.323   3.111   0.671
 9138SOL    HW228314   2.262   2.977   0.601
 9139SOL     OW28315   0.568   0.932   1.367
 9139SOL    HW128316   0.519   1.015   1.395
 9139SOL    HW228317   0.591   0.939   1.270
 9140SOL     OW28318   0.244   4.360   1.425
 9140SOL    HW128319   0.188   4.352   1.506
 9140SOL    HW228320   0.337   4.387   1.451
 9141SOL     OW28321   0.337   5.545   6.227
 9141SOL    HW128322   0.335   5.585   6.135
 9141SOL    HW228323   0.254   5.571   6.276
 9142SOL     OW28324   0.644   3.098   2.912
 9142SOL    HW128325   0.646   3.024   2.979
 9142SOL    HW228326   0.733   3.105   2.867
 9143SOL     OW28327   7.010   3.398   1.335
 9143SOL    HW128328   6.936   3.457   1.304
 9143SOL    HW228329   0.072   3.450   1.336
 9144SOL     OW28330   2.997   5.131   4.618
 9144SOL    HW128331   2.988   5.179   4.531
 9144SOL    HW228332   2.907   5.103   4.650
 9145SOL     OW28333   1.527   6.992   6.471
 9145SOL    HW128334   1.501   6.985   6.375
 9145SOL    HW228335   1.473   0.041   6.515
 9146SOL     OW28336   6.079   2.904   3.460
 9146SOL    HW128337   6.061   2.941   3.552
 9146SOL    HW228338   6.022   2.952   3.393
 9147SOL     OW28339   5.831   7.004   4.561
 9147SOL    HW128340   5.899   0.011   4.627
 9147SOL    HW228341   5.741   7.002   4.604
 9148SOL     OW28342   6.325   0.602   1.668
 9148SOL    HW128343   6.284   0.679   1.620
 9148SOL    HW228344   6.289   0.516   1.632
 9149SOL     OW28345   5.488   2.846   1.413
 9149SOL    HW128346   5.400   2.892   1.420
 9149SOL    HW228347   5.562   2.912   1.427
 9150SOL     OW28348   2.698   4.377   0.201
 9150SOL    HW128349   2.700   4.372   0.101
 9150SOL    HW228350   2.605   4.361   0.234
 9151SOL     OW28351   2.109   3.623   3.677
 9151SOL    HW128352   2.166   3.637   3.596
 9151SOL    HW228353   2.027   3.680   3.670
 9152SOL     OW28354   1.829   3.654   4.053
 9152SOL    HW128355   1.902   3.615   3.995
 9152SOL    HW228356   1.771   3.713   3.997
 9153SOL     OW28357   0.543   2.905   6.316
 9153SOL    HW128358   0.617   2.967   6.341
 9153SOL    HW228359   0.582   2.818   6.285
 9154SOL     OW28360   5.689   5.294   3.240
 9154SOL    HW128361   5.732   5.324   3.154
 9154SOL    HW228362   5.639   5.370   3.280
 9155SOL     OW28363   1.807   5.369   2.062
 9155SOL    HW128364   1.713   5.387   2.090
 9155SOL    HW228365   1.826   5.418   1.976
 9156SOL     OW28366   6.599   3.024   1.157
 9156SOL    HW128367   6.626   3.117   1.130
 9156SOL    HW228368   6.514   2.999   1.110
 9157SOL     OW28369   3.616   4.242   6.608
 9157SOL    HW128370   3.592   4.227   6.704
 9157SOL    HW228371   3.607   4.340   6.587
 9158SOL     OW28372   6.581   4.182   3.950
 9158SOL    HW128373   6.633   4.151   3.871
 9158SOL    HW228374   6.509   4.245   3.920
 9159SOL     OW28375   2.766   0.652   3.072
 9159SOL    HW128376   2.837   0.684   3.010
 9159SOL    HW228377   2.783   0.557   3.096
 9160SOL     OW28378   0.405   4.874   6.781
 9160SOL    HW128379   0.357   4.793   6.745
 9160SOL    HW228380   0.440   4.853   6.872
 9161SOL     OW28381   5.852   4.251   2.097
 9161SOL    HW128382   5.851   4.174   2.161
 9161SOL    HW228383   5.809   4.330   2.141
 9162SOL     OW28384   4.028   1.600   2.453
 9162SOL    HW128385   4.127   1.586   2.446
 9162SOL    HW228386   4.000   1.594   2.549
 9163SOL     OW28387   0.477   1.939   2.034
 9163SOL    HW128388   0.572   1.909   2.033
 9163SOL    HW228389   0.474   2.037   2.052
 9164SOL     OW28390   2.430   0.360   6.767
 9164SOL    HW128391   2.405   0.273   6.809
 9164SOL    HW228392   2.492   0.343   6.690
 9165SOL     OW28393   4.548   2.426   5.591
 9165SOL    HW128394   4.634   2.478   5.591
 9165SOL    HW228395   4.567   2.331   5.567
 9166SOL     OW28396   4.427   5.687   1.409
 9166SOL    HW128397   4.371   5.746   1.468
 9166SOL    HW228398   4.461   5.740   1.332
 9167SOL     OW28399   0.725   2.036   6.343
 9167SOL    HW128400   0.731   1.936   6.351
 9167SOL    HW228401   0.634   2.061   6.311
 9168SOL     OW28402   6.389   4.822   5.047
 9168SOL    HW128403   6.440   4.781   5.123
 9168SOL    HW228404   6.339   4.750   4.998
 9169SOL     OW28405   6.367   6.274   6.617
 9169SOL    HW128406   6.444   6.319   6.572
 9169SOL    HW228407   6.372   6.175   6.600
 9170SOL     OW28408   1.149   1.999   6.074
 9170SOL    HW128409   1.247   1.999   6.096
 9170SOL    HW228410   1.115   1.905   6.072
 9171SOL     OW28411   2.850   4.597   0.886
 9171SOL    HW128412   2.834   4.527   0.955
 9171SOL    HW228413   2.763   4.628   0.848
 9172SOL     OW28414   4.843   1.376   4.836
 9172SOL    HW128415   4.772   1.420   4.891
 9172SOL    HW228416   4.919   1.441   4.822
 9173SOL     OW28417   6.767   2.581   3.892
 9173SOL    HW128418   6.845   2.567   3.831
 9173SOL    HW228419   6.689   2.615   3.839
 9174SOL     OW28420   0.832   6.148   0.113
 9174SOL    HW128421   0.895   6.172   0.187
 9174SOL    HW228422   0.881   6.147   0.026
 9175SOL     OW28423   1.736   6.977   0.195
 9175SOL    HW128424   1.750   0.014   0.116
 9175SOL    HW228425   1.759   0.003   0.279
 9176SOL     OW28426   2.005   1.140   3.096
 9176SOL    HW128427   1.984   1.043   3.110
 9176SOL    HW228428   2.057   1.151   3.011
 9177SOL     OW28429   0.761   3.831   3.862
 9177SOL    HW128430   0.723   3.897   3.797
 9177SOL    HW228431   0.855   3.855   3.883
 9178SOL     OW28432   2.659   6.253   6.968
 9178SOL    HW128433   2.590   6.181   6.958
 9178SOL    HW228434   2.627   6.321   0.010
 9179SOL     OW28435   3.744   6.194   5.540
 9179SOL    HW128436   3.758   6.171   5.444
 9179SOL    HW228437   3.709   6.288   5.547
 9180SOL     OW28438   6.767   1.978   4.408
 9180SOL    HW128439   6.777   1.919   4.328
 9180SOL    HW228440   6.685   1.952   4.459
 9181SOL     OW28441   4.303   1.893   3.700
 9181SOL    HW128442   4.305   1.823   3.630
 9181SOL    HW228443   4.210   1.904   3.734
 9182SOL     OW28444   1.597   0.983   2.978
 9182SOL    HW128445   1.508   0.985   2.934
 9182SOL    HW228446   1.652   1.061   2.947
 9183SOL     OW28447   5.098   2.682   6.844
 9183SOL    HW128448   5.118   2.779   6.857
 9183SOL    HW228449   5.048   2.647   6.923
 9184SOL     OW28450   3.364   3.018   0.936
 9184SOL    HW128451   3.397   2.927   0.960
 9184SOL    HW228452   3.438   3.084   0.949
 9185SOL     OW28453   0.594   0.472   6.729
 9185SOL    HW128454   0.510   0.425   6.756
 9185SOL    HW228455   0.631   0.429   6.646
 9186SOL     OW28456   5.044   0.208   6.115
 9186SOL    HW128457   5.048   0.307   6.122
 9186SOL    HW228458   4.956   0.175   6.150
 9187SOL     OW28459   4.827   1.972   6.810
 9187SOL    HW128460   4.886   1.900   6.774
 9187SOL    HW228461   4.747   1.983   6.751
 9188SOL     OW28462   1.309   0.388   1.123
 9188SOL    HW128463   1.402   0.355   1.111
 9188SOL    HW228464   1.275   0.359   1.213
 9189SOL     OW28465   2.740   1.407   3.142
 9189SOL    HW128466   2.657   1.425   3.194
 9189SOL    HW228467   2.777   1.493   3.108
 9190SOL     OW28468   5.916   3.434   5.186
 9190SOL    HW128469   5.840   3.374   5.208
 9190SOL    HW228470   5.911   3.516   5.243
 9191SOL     OW28471   5.328   6.501   6.940
 9191SOL    HW128472   5.402   6.436   6.954
 9191SOL    HW228473   5.299   6.498   6.844
 9192SOL     OW28474   6.931   4.436   5.835
 9192SOL    HW128475   6.879   4.435   5.920
 9192SOL    HW228476   6.981   4.350   5.825
 9193SOL     OW28477   3.476   3.117   4.104
 9193SOL    HW128478   3.480   3.100   4.005
 9193SOL    HW228479   3.429   3.204   4.121
 9194SOL     OW28480   3.415   5.835   2.635
 9194SOL    HW128481   3.397   5.931   2.616
 9194SOL    HW228482   3.430   5.786   2.549
 9195SOL     OW28483   0.488   3.138   3.380
 9195SOL    HW128484   0.498   3.237   3.389
 9195SOL    HW228485   0.577   3.097   3.360
 9196SOL     OW28486   3.115   0.627   3.899
 9196SOL    HW128487   3.198   0.679   3.879
 9196SOL    HW228488   3.109   0.549   3.838
 9197SOL     OW28489   2.744   3.505   6.956
 9197SOL    HW128490   2.714   3.501   6.860
 9197SOL    HW228491   2.695   3.436   7.009
 9198SOL     OW28492   5.344   4.141   5.464
 9198SOL    HW128493   5.303   4.213   5.407
 9198SOL    HW228494   5.272   4.079   5.496
 9199SOL     OW28495   1.388   3.896   5.911
 9199SOL    HW128496   1.341   3.813   5.882
 9199SOL    HW228497   1.321   3.970   5.921
 9200SOL     OW28498   0.310   6.491   0.842
 9200SOL    HW128499   0.361   6.422   0.790
 9200SOL    HW228500   0.358   6.578   0.838
 9201SOL     OW28501   0.092   4.138   1.693
 9201SOL    HW128502   0.188   4.136   1.665
 9201SOL    HW228503   0.062   4.047   1.721
 9202SOL     OW28504   1.883   5.117   4.368
 9202SOL    HW128505   1.886   5.127   4.268
 9202SOL    HW228506   1.901   5.021   4.391
 9203SOL     OW28507   5.129   1.425   6.541
 9203SOL    HW128508   5.089   1.495   6.599
 9203SOL    HW228509   5.208   1.462   6.493
 9204SOL     OW28510   5.712   4.001   3.154
 9204SOL    HW128511   5.656   4.075   3.190
 9204SOL    HW228512   5.809   4.025   3.163
 9205SOL     OW28513   5.752   3.180   2.804
 9205SOL    HW128514   5.839   3.210   2.843
 9205SOL    HW228515   5.720   3.248   2.738
 9206SOL     OW28516   2.296   6.121   3.818
 9206SOL    HW128517   2.259   6.053   3.755
 9206SOL    HW228518   2.254   6.110   3.908
 9207SOL     OW28519   4.371   6.321   6.138
 9207SOL    HW128520   4.315   6.395   6.100
 9207SOL    HW228521   4.396   6.344   6.232
 9208SOL     OW28522   4.891   3.500   2.352
 9208SOL    HW128523   4.824   3.433   2.320
 9208SOL    HW228524   4.886   3.508   2.451
 9209SOL     OW28525   4.303   1.258   2.924
 9209SOL    HW128526   4.243   1.227   2.850
 9209SOL    HW228527   4.271   1.218   3.011
 9210SOL     OW28528   2.174   6.898   1.532
 9210SOL    HW128529   2.223   6.844   1.463
 9210SOL    HW228530   2.222   6.984   1.546
 9211SOL     OW28531   5.131   1.785   6.160
 9211SOL    HW128532   5.075   1.704   6.172
 9211SOL    HW228533   5.226   1.758   6.144
 9212SOL     OW28534   4.656   4.479   4.404
 9212SOL    HW128535   4.663   4.397   4.460
 9212SOL    HW228536   4.563   4.516   4.412
 9213SOL     OW28537   5.673   0.300   4.404
 9213SOL    HW128538   5.729   0.222   4.377
 9213SOL    HW228539   5.640   0.347   4.323
 9214SOL     OW28540   2.043   2.775   4.445
 9214SOL    HW128541   2.047   2.836   4.524
 9214SOL    HW228542   2.005   2.825   4.366
 9215SOL     OW28543   0.385   3.464   2.810
 9215SOL    HW128544   0.371   3.549   2.759
 9215SOL    HW228545   0.482   3.453   2.831
 9216SOL     OW28546   2.551   6.071   4.968
 9216SOL    HW128547   2.535   6.066   4.869
 9216SOL    HW228548   2.594   6.158   4.990
 9217SOL     OW28549   5.234   1.469   6.115
 9217SOL    HW128550   5.138   1.493   6.131
 9217SOL    HW228551   5.239   1.376   6.078
 9218SOL     OW28552   5.812   6.610   0.044
 9218SOL    HW128553   5.876   6.651   0.110
 9218SOL    HW228554   5.754   6.544   0.091
 9219SOL     OW28555   3.553   2.848   5.321
 9219SOL    HW128556   3.627   2.832   5.255
 9219SOL    HW228557   3.481   2.900   5.276
 9220SOL     OW28558   2.006   6.346   3.056
 9220SOL    HW128559   1.941   6.312   3.124
 9220SOL    HW228560   1.958   6.371   2.973
 9221SOL     OW28561   2.681   0.323   6.030
 9221SOL    HW128562   2.760   0.268   6.059
 9221SOL    HW228563   2.602   0.299   6.086
 9222SOL     OW28564   2.029   4.380   3.816
 9222SOL    HW128565   2.073   4.467   3.835
 9222SOL    HW228566   2.073   4.308   3.870
 9223SOL     OW28567   1.710   4.058   4.612
 9223SOL    HW128568   1.715   4.157   4.595
 9223SOL    HW228569   1.698   4.010   4.525
 9224SOL     OW28570   1.572   4.378   3.722
 9224SOL    HW128571   1.506   4.451   3.741
 9224SOL    HW228572   1.583   4.368   3.623
 9225SOL     OW28573   4.010   6.714   6.058
 9225SOL    HW128574   3.965   6.801   6.039
 9225SOL    HW228575   3.941   6.642   6.067
 9226SOL     OW28576   1.494   6.656   0.536
 9226SOL    HW128577   1.506   6.747   0.576
 9226SOL    HW228578   1.476   6.665   0.438
 9227SOL     OW28579   2.196   5.370   0.854
 9227SOL    HW128580   2.263   5.301   0.828
 9227SOL    HW228581   2.112   5.325   0.886
 9228SOL     OW28582   1.939   2.495   5.724
 9228SOL    HW128583   1.881   2.528   5.650
 9228SOL    HW228584   2.022   2.551   5.730
 9229SOL     OW28585   0.560   4.471   0.268
 9229SOL    HW128586   0.621   4.541   0.229
 9229SOL    HW228587   0.520   4.417   0.194
 9230SOL     OW28588   5.253   2.536   4.232
 9230SOL    HW128589   5.222   2.599   4.161
 9230SOL    HW228590   5.263   2.585   4.319
 9231SOL     OW28591   0.941   5.140   5.542
 9231SOL    HW128592   0.901   5.232   5.543
 9231SOL    HW228593   1.024   5.140   5.486
 9232SOL     OW28594   1.756   5.401   1.751
 9232SOL    HW128595   1.843   5.434   1.788
 9232SOL    HW228596   1.681   5.453   1.792
 9233SOL     OW28597   0.899   6.681   0.761
 9233SOL    HW128598   0.905   6.581   0.764
 9233SOL    HW228599   0.872   6.710   0.669
 9234SOL     OW28600   2.311   5.001   1.249
 9234SOL    HW128601   2.285   5.082   1.302
 9234SOL    HW228602   2.288   4.918   1.300
 9235SOL     OW28603   2.395   2.292   3.209
 9235SOL    HW128604   2.472   2.243   3.167
 9235SOL    HW228605   2.430   2.357   3.276
 9236SOL     OW28606   1.904   3.425   6.576
 9236SOL    HW128607   1.957   3.360   6.522
 9236SOL    HW228608   1.962   3.503   6.599
 9237SOL     OW28609   6.056   5.655   3.259
 9237SOL    HW128610   6.051   5.576   3.320
 9237SOL    HW228611   6.124   5.638   3.188
 9238SOL     OW28612   1.775   3.185   5.095
 9238SOL    HW128613   1.856   3.204   5.152
 9238SOL    HW228614   1.692   3.202   5.148
 9239SOL     OW28615   0.165   4.839   6.944
 9239SOL    HW128616   0.189   4.797   6.856
 9239SOL    HW228617   0.103   4.916   6.929
 9240SOL     OW28618   4.893   3.052   3.244
 9240SOL    HW128619   4.974   3.041   3.187
 9240SOL    HW228620   4.870   3.149   3.250
 9241SOL     OW28621   0.139   6.289   0.511
 9241SOL    HW128622   0.065   6.354   0.529
 9241SOL    HW228623   0.109   6.221   0.446
 9242SOL     OW28624   1.831   2.399   1.911
 9242SOL    HW128625   1.889   2.463   1.861
 9242SOL    HW228626   1.799   2.442   1.996
 9243SOL     OW28627   0.392   6.935   1.764
 9243SOL    HW128628   0.473   6.907   1.815
 9243SOL    HW228629   0.415   7.010   1.702
 9244SOL     OW28630   3.625   6.341   5.062
 9244SOL    HW128631   3.648   6.438   5.049
 9244SOL    HW228632   3.581   6.307   4.979
 9245SOL     OW28633   0.893   3.979   2.994
 9245SOL    HW128634   0.851   3.902   2.945
 9245SOL    HW228635   0.988   3.957   3.014
 9246SOL     OW28636   6.138   0.091   4.498
 9246SOL    HW128637   6.108   0.092   4.402
 9246SOL    HW228638   6.160   7.021   4.525
 9247SOL     OW28639   3.630   5.517   2.863
 9247SOL    HW128640   3.549   5.570   2.837
 9247SOL    HW228641   3.708   5.579   2.873
 9248SOL     OW28642   2.900   1.744   4.899
 9248SOL    HW128643   2.865   1.685   4.972
 9248SOL    HW228644   2.924   1.834   4.936
 9249SOL     OW28645   3.849   4.688   1.697
 9249SOL    HW128646   3.764   4.662   1.742
 9249SOL    HW228647   3.909   4.734   1.763
 9250SOL     OW28648   6.593   4.454   4.477
 9250SOL    HW128649   6.513   4.447   4.536
 9250SOL    HW228650   6.676   4.456   4.534
 9251SOL     OW28651   4.184   2.741   1.057
 9251SOL    HW128652   4.187   2.781   0.965
 9251SOL    HW228653   4.094   2.754   1.096
 9252SOL     OW28654   4.102   0.338   5.016
 9252SOL    HW128655   4.086   0.435   5.034
 9252SOL    HW228656   4.130   0.292   5.101
 9253SOL     OW28657   0.076   4.714   5.259
 9253SOL    HW128658   0.127   4.796   5.233
 9253SOL    HW228659   0.086   4.644   5.188
 9254SOL     OW28660   5.846   4.529   2.603
 9254SOL    HW128661   5.852   4.628   2.593
 9254SOL    HW228662   5.755   4.504   2.635
 9255SOL     OW28663   6.727   3.729   6.684
 9255SOL    HW128664   6.669   3.732   6.602
 9255SOL    HW228665   6.739   3.634   6.712
 9256SOL     OW28666   1.827   6.631   1.588
 9256SOL    HW128667   1.765   6.593   1.519
 9256SOL    HW228668   1.798   6.724   1.612
 9257SOL     OW28669   6.286   5.639   3.447
 9257SOL    HW128670   6.317   5.723   3.491
 9257SOL    HW228671   6.200   5.657   3.398
 9258SOL     OW28672   3.517   3.408   0.252
 9258SOL    HW128673   3.583   3.482   0.264
 9258SOL    HW228674   3.555   3.323   0.288
 9259SOL     OW28675   1.817   1.517   6.456
 9259SOL    HW128676   1.865   1.430   6.459
 9259SOL    HW228677   1.877   1.589   6.492
 9260SOL     OW28678   5.871   3.199   5.868
 9260SOL    HW128679   5.881   3.104   5.898
 9260SOL    HW228680   5.948   3.253   5.901
 9261SOL     OW28681   4.250   1.234   1.068
 9261SOL    HW128682   4.166   1.193   1.104
 9261SOL    HW228683   4.228   1.319   1.021
 9262SOL     OW28684   0.055   6.726   4.980
 9262SOL    HW128685   0.119   6.786   4.932
 9262SOL    HW228686   6.986   6.739   4.944
 9263SOL     OW28687   2.816   5.053   2.697
 9263SOL    HW128688   2.732   5.093   2.661
 9263SOL    HW228689   2.892   5.115   2.679
 9264SOL     OW28690   5.643   3.514   6.525
 9264SOL    HW128691   5.631   3.509   6.426
 9264SOL    HW228692   5.679   3.427   6.559
 9265SOL     OW28693   4.060   2.186   6.550
 9265SOL    HW128694   3.986   2.252   6.558
 9265SOL    HW228695   4.148   2.233   6.559
 9266SOL     OW28696   0.032   4.865   1.688
 9266SOL    HW128697   0.039   4.844   1.786
 9266SOL    HW228698   6.961   4.853   1.658
 9267SOL     OW28699   0.597   1.400   3.872
 9267SOL    HW128700   0.628   1.314   3.830
 9267SOL    HW228701   0.498   1.409   3.861
 9268SOL     OW28702   0.540   6.436   1.788
 9268SOL    HW128703   0.448   6.466   1.813
 9268SOL    HW228704   0.579   6.500   1.723
 9269SOL     OW28705   5.413   0.362   0.185
 9269SOL    HW128706   5.363   0.383   0.269
 9269SOL    HW228707   5.409   0.441   0.123
 9270SOL     OW28708   3.579   1.338   6.048
 9270SOL    HW128709   3.489   1.332   6.006
 9270SOL    HW228710   3.645   1.373   5.981
 9271SOL     OW28711   1.482   0.356   6.805
 9271SOL    HW128712   1.406   0.348   6.870
 9271SOL    HW228713   1.482   0.447   6.764
 9272SOL     OW28714   6.684   6.367   6.092
 9272SOL    HW128715   6.738   6.419   6.158
 9272SOL    HW228716   6.740   6.347   6.011
 9273SOL     OW28717   5.527   5.940   3.783
 9273SOL    HW128718   5.610   5.887   3.795
 9273SOL    HW228719   5.462   5.917   3.855
 9274SOL     OW28720   0.414   2.705   0.110
 9274SOL    HW128721   0.363   2.740   0.189
 9274SOL    HW228722   0.351   2.692   0.033
 9275SOL     OW28723   1.046   6.567   1.128
 9275SOL    HW128724   0.958   6.609   1.109
 9275SOL    HW228725   1.052   6.544   1.225
 9276SOL     OW28726   3.455   4.521   0.151
 9276SOL    HW128727   3.376   4.555   0.202
 9276SOL    HW228728   3.527   4.591   0.152
 9277SOL     OW28729   4.423   4.899   2.494
 9277SOL    HW128730   4.510   4.892   2.446
 9277SOL    HW228731   4.424   4.980   2.553
 9278SOL     OW28732   0.337   0.688   4.490
 9278SOL    HW128733   0.363   0.776   4.448
 9278SOL    HW228734   0.264   0.647   4.436
 9279SOL     OW28735   3.720   5.780   1.686
 9279SOL    HW128736   3.790   5.720   1.648
 9279SOL    HW228737   3.688   5.843   1.615
 9280SOL     OW28738   1.105   1.517   2.710
 9280SOL    HW128739   1.138   1.598   2.757
 9280SOL    HW228740   1.183   1.461   2.681
 9281SOL     OW28741   3.611   3.590   6.092
 9281SOL    HW128742   3.574   3.607   6.001
 9281SOL    HW228743   3.706   3.619   6.097
 9282SOL     OW28744   3.434   0.370   4.609
 9282SOL    HW128745   3.397   0.461   4.590
 9282SOL    HW228746   3.500   0.346   4.539
 9283SOL     OW28747   5.635   0.245   6.370
 9283SOL    HW128748   5.601   0.158   6.407
 9283SOL    HW228749   5.624   0.246   6.271
 9284SOL     OW28750   3.357   3.647   5.245
 9284SOL    HW128751   3.289   3.645   5.173
 9284SOL    HW228752   3.324   3.701   5.322
 9285SOL     OW28753   5.657   3.050   2.398
 9285SOL    HW128754   5.712   3.122   2.356
 9285SOL    HW228755   5.633   2.981   2.329
 9286SOL     OW28756   5.313   6.309   0.463
 9286SOL    HW128757   5.260   6.347   0.387
 9286SOL    HW228758   5.385   6.373   0.489
 9287SOL     OW28759   2.540   4.509   5.952
 9287SOL    HW128760   2.515   4.435   5.889
 9287SOL    HW228761   2.489   4.498   6.037
 9288SOL     OW28762   4.403   2.460   4.403
 9288SOL    HW128763   4.332   2.396   4.374
 9288SOL    HW228764   4.388   2.485   4.498
 9289SOL     OW28765   4.492   6.962   6.074
 9289SOL    HW128766   4.488   6.968   6.174
 9289SOL    HW228767   4.512   6.868   6.047
 9290SOL     OW28768   5.324   0.517   4.923
 9290SOL    HW128769   5.359   0.426   4.902
 9290SOL    HW228770   5.279   0.515   5.013
 9291SOL     OW28771   1.192   6.349   5.259
 9291SOL    HW128772   1.173   6.377   5.353
 9291SOL    HW228773   1.170   6.253   5.248
 9292SOL     OW28774   1.239   1.379   5.672
 9292SOL    HW128775   1.252   1.354   5.576
 9292SOL    HW228776   1.300   1.323   5.729
 9293SOL     OW28777   4.773   2.805   5.872
 9293SOL    HW128778   4.741   2.884   5.924
 9293SOL    HW228779   4.750   2.817   5.775
 9294SOL     OW28780   4.988   0.843   0.668
 9294SOL    HW128781   4.907   0.815   0.719
 9294SOL    HW228782   5.058   0.772   0.675
 9295SOL     OW28783   0.629   0.779   5.381
 9295SOL    HW128784   0.703   0.809   5.321
 9295SOL    HW228785   0.636   0.827   5.469
 9296SOL     OW28786   2.972   3.821   1.290
 9296SOL    HW128787   3.006   3.835   1.383
 9296SOL    HW228788   3.042   3.776   1.235
 9297SOL     OW28789   0.089   5.519   3.205
 9297SOL    HW128790   0.186   5.513   3.230
 9297SOL    HW228791   0.067   5.613   3.180
 9298SOL     OW28792   1.189   6.741   5.868
 9298SOL    HW128793   1.126   6.665   5.877
 9298SOL    HW228794   1.248   6.746   5.949
 9299SOL     OW28795   1.768   2.212   3.920
 9299SOL    HW128796   1.718   2.273   3.981
 9299SOL    HW228797   1.740   2.229   3.825
 9300SOL     OW28798   1.619   6.326   5.139
 9300SOL    HW128799   1.616   6.422   5.114
 9300SOL    HW228800   1.702   6.307   5.192
 9301SOL     OW28801   0.410   4.014   4.402
 9301SOL    HW128802   0.453   3.936   4.356
 9301SOL    HW228803   0.314   4.019   4.376
 9302SOL     OW28804   2.323   2.865   4.811
 9302SOL    HW128805   2.338   2.892   4.906
 9302SOL    HW228806   2.390   2.795   4.785
 9303SOL     OW28807   3.039   3.923   6.983
 9303SOL    HW128808   3.006   3.864   0.033
 9303SOL    HW228809   3.138   3.933   6.990
 9304SOL     OW28810   4.688   4.998   0.716
 9304SOL    HW128811   4.632   4.964   0.791
 9304SOL    HW228812   4.711   4.922   0.655
 9305SOL     OW28813   2.780   1.582   0.602
 9305SOL    HW128814   2.756   1.536   0.688
 9305SOL    HW228815   2.824   1.670   0.623
 9306SOL     OW28816   6.995   4.206   4.539
 9306SOL    HW128817   0.024   4.176   4.619
 9306SOL    HW228818   6.986   4.305   4.541
 9307SOL     OW28819   2.115   3.712   0.208
 9307SOL    HW128820   2.088   3.648   0.136
 9307SOL    HW228821   2.141   3.662   0.290
 9308SOL     OW28822   1.731   4.451   1.464
 9308SOL    HW128823   1.680   4.406   1.538
 9308SOL    HW228824   1.827   4.460   1.492
 9309SOL     OW28825   5.194   5.789   5.753
 9309SOL    HW128826   5.279   5.833   5.783
 9309SOL    HW228827   5.144   5.850   5.691
 9310SOL     OW28828   4.434   5.758   5.917
 9310SOL    HW128829   4.503   5.705   5.867
 9310SOL    HW228830   4.370   5.696   5.961
 9311SOL     OW28831   4.491   3.346   1.322
 9311SOL    HW128832   4.432   3.321   1.244
 9311SOL    HW228833   4.437   3.394   1.390
 9312SOL     OW28834   1.400   2.230   0.640
 9312SOL    HW128835   1.479   2.223   0.702
 9312SOL    HW228836   1.346   2.146   0.645
 9313SOL     OW28837   1.575   0.437   1.775
 9313SOL    HW128838   1.500   0.466   1.716
 9313SOL    HW228839   1.555   0.346   1.811
 9314SOL     OW28840   5.054   2.776   1.018
 9314SOL    HW128841   5.049   2.744   0.923
 9314SOL    HW228842   5.102   2.708   1.074
 9315SOL     OW28843   5.817   0.954   6.699
 9315SOL    HW128844   5.804   0.978   6.603
 9315SOL    HW228845   5.739   0.985   6.753
 9316SOL     OW28846   5.500   0.341   5.891
 9316SOL    HW128847   5.450   0.255   5.903
 9316SOL    HW228848   5.596   0.321   5.872
 9317SOL     OW28849   3.123   5.323   3.782
 9317SOL    HW128850   3.023   5.320   3.775
 9317SOL    HW228851   3.150   5.305   3.876
 9318SOL     OW28852   5.409   5.881   0.311
 9318SOL    HW128853   5.338   5.817   0.342
 9318SOL    HW228854   5.369   5.948   0.249
 9319SOL     OW28855   2.785   3.945   1.091
 9319SOL    HW128856   2.823   3.937   0.999
 9319SOL    HW228857   2.841   3.894   1.156
 9320SOL     OW28858   5.537   0.437   6.161
 9320SOL    HW128859   5.502   0.438   6.068
 9320SOL    HW228860   5.629   0.398   6.162
 9321SOL     OW28861   0.087   2.746   5.563
 9321SOL    HW128862   0.104   2.747   5.661
 9321SOL    HW228863   0.048   2.834   5.535
 9322SOL     OW28864   6.624   4.469   5.717
 9322SOL    HW128865   6.691   4.417   5.663
 9322SOL    HW228866   6.632   4.566   5.695
 9323SOL     OW28867   1.673   3.186   3.629
 9323SOL    HW128868   1.596   3.132   3.595
 9323SOL    HW228869   1.681   3.174   3.728
 9324SOL     OW28870   0.929   3.608   0.863
 9324SOL    HW128871   1.018   3.564   0.879
 9324SOL    HW228872   0.867   3.584   0.938
 9325SOL     OW28873   2.229   5.360   1.844
 9325SOL    HW128874   2.317   5.394   1.809
 9325SOL    HW228875   2.208   5.273   1.800
 9326SOL     OW28876   3.994   4.444   0.373
 9326SOL    HW128877   4.025   4.511   0.305
 9326SOL    HW228878   4.053   4.364   0.369
 9327SOL     OW28879   4.526   0.625   3.216
 9327SOL    HW128880   4.498   0.612   3.121
 9327SOL    HW228881   4.542   0.535   3.258
 9328SOL     OW28882   3.274   6.852   4.978
 9328SOL    HW128883   3.279   6.753   4.959
 9328SOL    HW228884   3.271   6.902   4.892
 9329SOL     OW28885   0.177   5.790   6.509
 9329SOL    HW128886   0.268   5.831   6.514
 9329SOL    HW228887   0.132   5.798   6.598
 9330SOL     OW28888   7.009   0.241   6.797
 9330SOL    HW128889   6.978   0.298   6.720
 9330SOL    HW228890   6.979   0.281   6.883
 9331SOL     OW28891   1.382   3.187   4.884
 9331SOL    HW128892   1.284   3.171   4.876
 9331SOL    HW228893   1.399   3.285   4.894
 9332SOL     OW28894   3.823   5.851   0.713
 9332SOL    HW128895   3.891   5.913   0.752
 9332SOL    HW228896   3.733   5.894   0.715
 9333SOL     OW28897   3.428   5.272   0.610
 9333SOL    HW128898   3.396   5.322   0.690
 9333SOL    HW228899   3.469   5.336   0.545
 9334SOL     OW28900   5.019   6.121   4.340
 9334SOL    HW128901   4.991   6.026   4.330
 9334SOL    HW228902   5.028   6.144   4.437
 9335SOL     OW28903   2.451   1.809   1.262
 9335SOL    HW128904   2.528   1.757   1.227
 9335SOL    HW228905   2.401   1.851   1.187
 9336SOL     OW28906   6.214   0.929   5.407
 9336SOL    HW128907   6.228   0.957   5.312
 9336SOL    HW228908   6.152   0.994   5.452
 9337SOL     OW28909   4.307   6.763   6.684
 9337SOL    HW128910   4.303   6.713   6.597
 9337SOL    HW228911   4.220   6.810   6.699
 9338SOL     OW28912   0.385   6.330   0.635
 9338SOL    HW128913   0.440   6.247   0.624
 9338SOL    HW228914   0.299   6.320   0.584
 9339SOL     OW28915   5.519   4.962   6.784
 9339SOL    HW128916   5.578   5.032   6.825
 9339SOL    HW228917   5.453   5.005   6.724
 9340SOL     OW28918   3.686   6.085   2.612
 9340SOL    HW128919   3.608   6.056   2.667
 9340SOL    HW228920   3.676   6.050   2.519
 9341SOL     OW28921   5.989   4.562   6.409
 9341SOL    HW128922   5.893   4.588   6.401
 9341SOL    HW228923   5.995   4.463   6.423
 9342SOL     OW28924   2.997   0.388   4.615
 9342SOL    HW128925   2.906   0.351   4.601
 9342SOL    HW228926   3.014   0.461   4.549
 9343SOL     OW28927   4.648   4.184   1.684
 9343SOL    HW128928   4.568   4.214   1.734
 9343SOL    HW228929   4.631   4.093   1.646
 9344SOL     OW28930   5.740   4.817   6.189
 9344SOL    HW128931   5.689   4.860   6.113
 9344SOL    HW228932   5.838   4.819   6.168
 9345SOL     OW28933   6.446   6.155   0.191
 9345SOL    HW128934   6.543   6.179   0.182
 9345SOL    HW228935   6.429   6.118   0.282
 9346SOL     OW28936   5.215   6.431   2.609
 9346SOL    HW128937   5.190   6.335   2.597
 9346SOL    HW228938   5.140   6.489   2.579
 9347SOL     OW28939   3.606   5.716   1.307
 9347SOL    HW128940   3.535   5.669   1.254
 9347SOL    HW228941   3.692   5.666   1.298
 9348SOL     OW28942   2.456   6.423   3.089
 9348SOL    HW128943   2.504   6.508   3.108
 9348SOL    HW228944   2.515   6.362   3.036
 9349SOL     OW28945   6.444   5.829   2.353
 9349SOL    HW128946   6.415   5.766   2.425
 9349SOL    HW228947   6.516   5.786   2.299
 9350SOL     OW28948   6.979   1.483   4.588
 9350SOL    HW128949   6.930   1.518   4.507
 9350SOL    HW228950   0.005   1.400   4.563
 9351SOL     OW28951   2.211   1.567   5.524
 9351SOL    HW128952   2.296   1.556   5.472
 9351SOL    HW228953   2.224   1.637   5.594
 9352SOL     OW28954   1.374   2.401   5.261
 9352SOL    HW128955   1.320   2.480   5.231
 9352SOL    HW228956   1.350   2.322   5.204
 9353SOL     OW28957   1.644   4.111   1.748
 9353SOL    HW128958   1.707   4.177   1.791
 9353SOL    HW228959   1.586   4.070   1.818
 9354SOL     OW28960   6.353   1.825   1.134
 9354SOL    HW128961   6.315   1.915   1.151
 9354SOL    HW228962   6.407   1.826   1.050
 9355SOL     OW28963   6.257   1.071   4.750
 9355SOL    HW128964   6.291   0.983   4.784
 9355SOL    HW228965   6.236   1.063   4.653
 9356SOL     OW28966   4.454   4.958   2.178
 9356SOL    HW128967   4.536   5.011   2.153
 9356SOL    HW228968   4.379   5.021   2.195
 9357SOL     OW28969   2.618   3.523   0.362
 9357SOL    HW128970   2.547   3.534   0.293
 9357SOL    HW228971   2.607   3.434   0.408
 9358SOL     OW28972   6.041   3.914   2.173
 9358SOL    HW128973   6.080   3.828   2.206
 9358SOL    HW228974   5.951   3.927   2.214
 9359SOL     OW28975   6.791   3.787   5.817
 9359SOL    HW128976   6.781   3.879   5.779
 9359SOL    HW228977   6.838   3.791   5.905
 9360SOL     OW28978   1.563   0.127   5.539
 9360SOL    HW128979   1.468   0.115   5.512
 9360SOL    HW228980   1.620   0.059   5.492
 9361SOL     OW28981   2.916   6.584   3.264
 9361SOL    HW128982   2.979   6.507   3.277
 9361SOL    HW228983   2.826   6.560   3.299
 9362SOL     OW28984   1.808   1.067   1.938
 9362SOL    HW128985   1.891   1.084   1.884
 9362SOL    HW228986   1.834   1.038   2.030
 9363SOL     OW28987   3.959   5.494   1.953
 9363SOL    HW128988   3.918   5.432   1.886
 9363SOL    HW228989   4.051   5.519   1.923
 9364SOL     OW28990   4.064   2.535   6.238
 9364SOL    HW128991   4.091   2.535   6.334
 9364SOL    HW228992   4.140   2.571   6.183
 9365SOL     OW28993   2.721   2.472   5.188
 9365SOL    HW128994   2.708   2.568   5.214
 9365SOL    HW228995   2.635   2.423   5.198
 9366SOL     OW28996   3.090   1.611   6.839
 9366SOL    HW128997   3.176   1.578   6.801
 9366SOL    HW228998   3.107   1.693   6.893
 9367SOL     OW28999   0.488   5.678   4.043
 9367SOL    HW129000   0.468   5.676   4.141
 9367SOL    HW229001   0.402   5.675   3.992
 9368SOL     OW29002   3.576   2.115   2.586
 9368SOL    HW129003   3.634   2.091   2.508
 9368SOL    HW229004   3.625   2.180   2.644
 9369SOL     OW29005   6.766   1.652   6.037
 9369SOL    HW129006   6.792   1.604   6.120
 9369SOL    HW229007   6.727   1.586   5.972
 9370SOL     OW29008   5.555   1.016   3.079
 9370SOL    HW129009   5.634   0.962   3.048
 9370SOL    HW229010   5.525   1.076   3.005
 9371SOL     OW29011   1.588   5.495   6.990
 9371SOL    HW129012   1.523   5.564   6.960
 9371SOL    HW229013   1.655   5.478   6.917
 9372SOL     OW29014   5.789   6.640   3.003
 9372SOL    HW129015   5.826   6.553   3.035
 9372SOL    HW229016   5.860   6.711   3.012
 9373SOL     OW29017   4.455   2.080   3.147
 9373SOL    HW129018   4.539   2.051   3.193
 9373SOL    HW229019   4.458   2.053   3.051
 9374SOL     OW29020   5.844   2.620   6.859
 9374SOL    HW129021   5.757   2.581   6.829
 9374SOL    HW229022   5.914   2.548   6.859
 9375SOL     OW29023   6.819   1.488   3.433
 9375SOL    HW129024   6.778   1.398   3.418
 9375SOL    HW229025   6.760   1.559   3.394
 9376SOL     OW29026   2.856   3.944   0.757
 9376SOL    HW129027   2.933   4.008   0.756
 9376SOL    HW229028   2.868   3.876   0.685
 9377SOL     OW29029   0.373   5.119   3.790
 9377SOL    HW129030   0.287   5.143   3.745
 9377SOL    HW229031   0.449   5.163   3.742
 9378SOL     OW29032   1.819   0.181   5.651
 9378SOL    HW129033   1.852   0.101   5.602
 9378SOL    HW229034   1.730   0.207   5.615
 9379SOL     OW29035   4.594   4.784   4.685
 9379SOL    HW129036   4.502   4.798   4.648
 9379SOL    HW229037   4.603   4.689   4.715
 9380SOL     OW29038   6.043   5.745   5.219
 9380SOL    HW129039   6.118   5.755   5.153
 9380SOL    HW229040   6.062   5.668   5.280
 9381SOL     OW29041   2.808   3.115   5.703
 9381SOL    HW129042   2.858   3.094   5.787
 9381SOL    HW229043   2.874   3.132   5.629
 9382SOL     OW29044   3.399   1.763   2.893
 9382SOL    HW129045   3.472   1.817   2.934
 9382SOL    HW229046   3.315   1.818   2.890
 9383SOL     OW29047   3.766   6.064   4.816
 9383SOL    HW129048   3.682   6.102   4.856
 9383SOL    HW229049   3.758   5.965   4.809
 9384SOL     OW29050   4.632   6.375   1.579
 9384SOL    HW129051   4.532   6.367   1.572
 9384SOL    HW229052   4.671   6.382   1.487
 9385SOL     OW29053   3.873   1.451   2.284
 9385SOL    HW129054   3.949   1.496   2.331
 9385SOL    HW229055   3.810   1.412   2.352
 9386SOL     OW29056   2.916   6.293   4.363
 9386SOL    HW129057   2.904   6.375   4.308
 9386SOL    HW229058   3.003   6.250   4.342
 9387SOL     OW29059   4.486   0.134   0.522
 9387SOL    HW129060   4.446   0.054   0.567
 9387SOL    HW229061   4.460   0.216   0.572
 9388SOL     OW29062   1.842   6.104   2.834
 9388SOL    HW129063   1.851   6.189   2.885
 9388SOL    HW229064   1.774   6.046   2.879
 9389SOL     OW29065   2.617   0.463   5.188
 9389SOL    HW129066   2.518   0.450   5.181
 9389SOL    HW229067   2.639   0.500   5.278
 9390SOL     OW29068   3.761   6.088   3.954
 9390SOL    HW129069   3.843   6.081   4.010
 9390SOL    HW229070   3.694   6.146   4.000
 9391SOL     OW29071   2.481   1.098   5.317
 9391SOL    HW129072   2.395   1.065   5.277
 9391SOL    HW229073   2.496   1.054   5.405
 9392SOL     OW29074   0.199   0.190   4.845
 9392SOL    HW129075   0.283   0.219   4.798
 9392SOL    HW229076   0.186   0.246   4.927
 9393SOL     OW29077   3.552   1.630   4.413
 9393SOL    HW129078   3.519   1.600   4.323
 9393SOL    HW229079   3.487   1.696   4.451
 9394SOL     OW29080   6.136   2.004   3.137
 9394SOL    HW129081   6.181   1.931   3.085
 9394SOL    HW229082   6.127   2.085   3.079
 9395SOL     OW29083   2.592   2.192   0.275
 9395SOL    HW129084   2.666   2.143   0.229
 9395SOL    HW229085   2.609   2.291   0.268
 9396SOL     OW29086   0.473   6.426   4.839
 9396SOL    HW129087   0.523   6.419   4.752
 9396SOL    HW229088   0.467   6.522   4.866
 9397SOL     OW29089   2.711   6.894   0.276
 9397SOL    HW129090   2.659   6.954   0.337
 9397SOL    HW229091   2.777   6.948   0.223
 9398SOL     OW29092   1.672   0.541   5.986
 9398SOL    HW129093   1.638   0.634   5.998
 9398SOL    HW229094   1.759   0.543   5.936
 9399SOL     OW29095   0.110   2.064   6.916
 9399SOL    HW129096   0.066   2.009   6.987
 9399SOL    HW229097   0.206   2.038   6.909
 9400SOL     OW29098   5.278   3.537   1.515
 9400SOL    HW129099   5.194   3.484   1.532
 9400SOL    HW229100   5.297   3.537   1.417
 9401SOL     OW29101   3.405   6.265   3.576
 9401SOL    HW129102   3.382   6.210   3.496
 9401SOL    HW229103   3.473   6.334   3.551
 9402SOL     OW29104   1.372   4.768   5.229
 9402SOL    HW129105   1.383   4.687   5.172
 9402SOL    HW229106   1.276   4.776   5.257
 9403SOL     OW29107   5.017   1.737   2.742
 9403SOL    HW129108   4.960   1.683   2.681
 9403SOL    HW229109   5.056   1.678   2.813
 9404SOL     OW29110   0.831   4.129   6.226
 9404SOL    HW129111   0.926   4.139   6.198
 9404SOL    HW229112   0.819   4.044   6.276
 9405SOL     OW29113   0.120   0.060   2.605
 9405SOL    HW129114   0.021   0.048   2.600
 9405SOL    HW229115   0.147   0.080   2.699
 9406SOL     OW29116   6.646   2.029   6.069
 9406SOL    HW129117   6.656   2.029   5.969
 9406SOL    HW229118   6.589   2.107   6.096
 9407SOL     OW29119   2.504   6.098   2.530
 9407SOL    HW129120   2.497   6.008   2.486
 9407SOL    HW229121   2.479   6.091   2.626
 9408SOL     OW29122   4.033   1.764   5.751
 9408SOL    HW129123   4.004   1.826   5.824
 9408SOL    HW229124   3.977   1.681   5.754
 9409SOL     OW29125   5.163   4.731   5.480
 9409SOL    HW129126   5.258   4.711   5.501
 9409SOL    HW229127   5.108   4.723   5.563
 9410SOL     OW29128   4.102   5.739   1.677
 9410SOL    HW129129   4.036   5.703   1.611
 9410SOL    HW229130   4.054   5.772   1.758
 9411SOL     OW29131   3.670   4.285   0.913
 9411SOL    HW129132   3.744   4.340   0.951
 9411SOL    HW229133   3.632   4.331   0.832
 9412SOL     OW29134   0.180   3.167   1.499
 9412SOL    HW129135   0.191   3.257   1.456
 9412SOL    HW229136   0.203   3.095   1.434
 9413SOL     OW29137   4.265   5.574   4.992
 9413SOL    HW129138   4.315   5.525   5.064
 9413SOL    HW229139   4.285   5.533   4.903
 9414SOL     OW29140   3.403   1.525   3.715
 9414SOL    HW129141   3.360   1.464   3.782
 9414SOL    HW229142   3.373   1.499   3.623
 9415SOL     OW29143   2.143   6.784   2.549
 9415SOL    HW129144   2.173   6.690   2.563
 9415SOL    HW229145   2.055   6.785   2.502
 9416SOL     OW29146   0.713   1.574   1.564
 9416SOL    HW129147   0.640   1.620   1.614
 9416SOL    HW229148   0.679   1.543   1.475
 9417SOL     OW29149   3.456   0.569   5.663
 9417SOL    HW129150   3.525   0.507   5.702
 9417SOL    HW229151   3.493   0.661   5.658
 9418SOL     OW29152   3.178   6.450   0.708
 9418SOL    HW129153   3.113   6.373   0.710
 9418SOL    HW229154   3.140   6.527   0.760
 9419SOL     OW29155   3.590   5.908   5.251
 9419SOL    HW129156   3.605   5.853   5.169
 9419SOL    HW229157   3.529   5.984   5.230
 9420SOL     OW29158   0.329   2.247   4.390
 9420SOL    HW129159   0.395   2.197   4.446
 9420SOL    HW229160   0.370   2.334   4.361
 9421SOL     OW29161   2.451   6.358   5.507
 9421SOL    HW129162   2.471   6.309   5.591
 9421SOL    HW229163   2.470   6.299   5.428
 9422SOL     OW29164   5.241   6.748   2.338
 9422SOL    HW129165   5.178   6.758   2.261
 9422SOL    HW229166   5.254   6.650   2.358
 9423SOL     OW29167   3.433   0.392   3.278
 9423SOL    HW129168   3.531   0.408   3.275
 9423SOL    HW229169   3.386   0.480   3.289
 9424SOL     OW29170   4.459   0.554   4.940
 9424SOL    HW129171   4.451   0.488   4.864
 9424SOL    HW229172   4.427   0.511   5.024
 9425SOL     OW29173   6.813   4.194   6.236
 9425SOL    HW129174   6.789   4.102   6.207
 9425SOL    HW229175   6.781   4.260   6.168
 9426SOL     OW29176   2.969   1.379   6.908
 9426SOL    HW129177   3.015   1.465   6.886
 9426SOL    HW229178   3.012   1.339   6.989
 9427SOL     OW29179   3.036   5.140   5.139
 9427SOL    HW129180   2.939   5.114   5.140
 9427SOL    HW229181   3.092   5.058   5.122
 9428SOL     OW29182   4.848   0.820   1.785
 9428SOL    HW129183   4.866   0.742   1.724
 9428SOL    HW229184   4.757   0.857   1.767
 9429SOL     OW29185   1.598   4.554   1.842
 9429SOL    HW129186   1.581   4.494   1.764
 9429SOL    HW229187   1.686   4.532   1.883
 9430SOL     OW29188   0.002   6.163   2.356
 9430SOL    HW129189   7.023   6.123   2.264
 9430SOL    HW229190   0.051   6.103   2.418
 9431SOL     OW29191   6.109   4.731   0.568
 9431SOL    HW129192   6.058   4.803   0.522
 9431SOL    HW229193   6.045   4.667   0.610
 9432SOL     OW29194   6.876   0.923   3.388
 9432SOL    HW129195   6.869   1.000   3.451
 9432SOL    HW229196   6.795   0.865   3.398
 9433SOL     OW29197   3.756   4.882   4.077
 9433SOL    HW129198   3.725   4.882   3.982
 9433SOL    HW229199   3.856   4.884   4.079
 9434SOL     OW29200   5.913   4.734   3.847
 9434SOL    HW129201   5.927   4.640   3.814
 9434SOL    HW229202   5.946   4.799   3.778
 9435SOL     OW29203   0.762   1.627   3.945
 9435SOL    HW129204   0.823   1.616   3.867
 9435SOL    HW229205   0.695   1.553   3.947
 9436SOL     OW29206   0.793   4.118   2.071
 9436SOL    HW129207   0.738   4.059   2.130
 9436SOL    HW229208   0.733   4.171   2.012
 9437SOL     OW29209   0.916   6.600   3.668
 9437SOL    HW129210   0.931   6.687   3.621
 9437SOL    HW229211   0.830   6.604   3.719
 9438SOL     OW29212   1.614   6.511   1.474
 9438SOL    HW129213   1.565   6.563   1.404
 9438SOL    HW229214   1.590   6.414   1.467
 9439SOL     OW29215   0.141   2.957   1.904
 9439SOL    HW129216   0.048   2.956   1.941
 9439SOL    HW229217   0.177   3.050   1.906
 9440SOL     OW29218   4.950   5.957   4.008
 9440SOL    HW129219   4.894   5.954   4.091
 9440SOL    HW229220   4.944   5.869   3.960
 9441SOL     OW29221   1.556   4.927   4.554
 9441SOL    HW129222   1.651   4.926   4.585
 9441SOL    HW229223   1.534   5.015   4.513
 9442SOL     OW29224   5.823   3.098   0.367
 9442SOL    HW129225   5.779   3.187   0.363
 9442SOL    HW229226   5.895   3.093   0.297
 9443SOL     OW29227   2.611   4.676   1.219
 9443SOL    HW129228   2.659   4.729   1.288
 9443SOL    HW229229   2.575   4.737   1.148
 9444SOL     OW29230   0.874   3.783   6.226
 9444SOL    HW129231   0.897   3.805   6.132
 9444SOL    HW229232   0.776   3.794   6.240
 9445SOL     OW29233   5.350   3.570   2.170
 9445SOL    HW129234   5.272   3.529   2.216
 9445SOL    HW229235   5.427   3.575   2.234
 9446SOL     OW29236   6.740   6.830   3.861
 9446SOL    HW129237   6.835   6.838   3.832
 9446SOL    HW229238   6.680   6.855   3.785
 9447SOL     OW29239   6.093   3.225   3.313
 9447SOL    HW129240   6.053   3.205   3.224
 9447SOL    HW229241   6.190   3.247   3.302
 9448SOL     OW29242   6.052   6.240   5.912
 9448SOL    HW129243   5.975   6.303   5.906
 9448SOL    HW229244   6.069   6.200   5.821
 9449SOL     OW29245   6.783   5.909   6.788
 9449SOL    HW129246   6.693   5.942   6.819
 9449SOL    HW229247   6.819   5.844   6.855
 9450SOL     OW29248   3.348   4.917   4.480
 9450SOL    HW129249   3.436   4.947   4.518
 9450SOL    HW229250   3.284   4.899   4.554
 9451SOL     OW29251   3.863   6.181   6.589
 9451SOL    HW129252   3.925   6.115   6.633
 9451SOL    HW229253   3.777   6.184   6.639
 9452SOL     OW29254   1.123   2.899   0.779
 9452SOL    HW129255   1.188   2.895   0.855
 9452SOL    HW229256   1.045   2.956   0.805
 9453SOL     OW29257   2.308   4.675   3.471
 9453SOL    HW129258   2.224   4.711   3.511
 9453SOL    HW229259   2.360   4.627   3.542
 9454SOL     OW29260   1.622   3.305   5.679
 9454SOL    HW129261   1.631   3.209   5.651
 9454SOL    HW229262   1.643   3.312   5.777
 9455SOL     OW29263   3.419   1.516   2.760
 9455SOL    HW129264   3.439   1.604   2.803
 9455SOL    HW229265   3.446   1.441   2.822
 9456SOL     OW29266   0.519   4.128   6.759
 9456SOL    HW129267   0.606   4.118   6.807
 9456SOL    HW229268   0.518   4.068   6.679
 9457SOL     OW29269   1.825   3.800   5.858
 9457SOL    HW129270   1.780   3.724   5.812
 9457SOL    HW229271   1.757   3.856   5.905
 9458SOL     OW29272   1.265   3.546   5.667
 9458SOL    HW129273   1.363   3.526   5.671
 9458SOL    HW229274   1.236   3.553   5.571
 9459SOL     OW29275   5.707   4.249   2.841
 9459SOL    HW129276   5.746   4.206   2.759
 9459SOL    HW229277   5.618   4.290   2.819
 9460SOL     OW29278   0.082   1.614   4.261
 9460SOL    HW129279   0.144   1.545   4.223
 9460SOL    HW229280   7.016   1.572   4.278
 9461SOL     OW29281   6.555   2.023   3.643
 9461SOL    HW129282   6.574   1.995   3.737
 9461SOL    HW229283   6.456   2.037   3.632
 9462SOL     OW29284   2.250   4.041   3.118
 9462SOL    HW129285   2.327   4.096   3.149
 9462SOL    HW229286   2.248   4.040   3.018
 9463SOL     OW29287   0.410   1.001   1.753
 9463SOL    HW129288   0.405   1.034   1.659
 9463SOL    HW229289   0.410   1.078   1.816
 9464SOL     OW29290   5.841   6.437   0.587
 9464SOL    HW129291   5.867   6.343   0.563
 9464SOL    HW229292   5.823   6.489   0.504
 9465SOL     OW29293   0.320   6.638   3.272
 9465SOL    HW129294   0.271   6.630   3.185
 9465SOL    HW229295   0.279   6.577   3.340
 9466SOL     OW29296   3.830   3.745   5.301
 9466SOL    HW129297   3.732   3.763   5.289
 9466SOL    HW229298   3.883   3.802   5.238
 9467SOL     OW29299   1.080   2.709   2.018
 9467SOL    HW129300   1.023   2.679   1.941
 9467SOL    HW229301   1.175   2.684   2.001
 9468SOL     OW29302   5.833   2.174   6.400
 9468SOL    HW129303   5.799   2.252   6.348
 9468SOL    HW229304   5.758   2.129   6.447
 9469SOL     OW29305   6.247   5.425   1.402
 9469SOL    HW129306   6.267   5.337   1.444
 9469SOL    HW229307   6.331   5.479   1.397
 9470SOL     OW29308   5.600   2.972   6.083
 9470SOL    HW129309   5.562   3.043   6.023
 9470SOL    HW229310   5.685   3.005   6.123
 9471SOL     OW29311   5.891   2.049   4.577
 9471SOL    HW129312   5.821   2.117   4.558
 9471SOL    HW229313   5.849   1.958   4.587
 9472SOL     OW29314   6.843   3.980   4.029
 9472SOL    HW129315   6.813   4.074   4.047
 9472SOL    HW229316   6.763   3.924   4.008
 9473SOL     OW29317   3.518   6.030   5.823
 9473SOL    HW129318   3.449   5.967   5.789
 9473SOL    HW229319   3.562   5.992   5.904
 9474SOL     OW29320   6.412   3.652   0.497
 9474SOL    HW129321   6.478   3.635   0.570
 9474SOL    HW229322   6.353   3.572   0.487
 9475SOL     OW29323   2.889   3.337   0.440
 9475SOL    HW129324   2.872   3.409   0.508
 9475SOL    HW229325   2.949   3.372   0.369
 9476SOL     OW29326   3.571   3.827   5.246
 9476SOL    HW129327   3.554   3.924   5.233
 9476SOL    HW229328   3.483   3.779   5.256
 9477SOL     OW29329   7.012   3.091   2.205
 9477SOL    HW129330   0.085   3.067   2.220
 9477SOL    HW229331   6.984   3.060   2.114
 9478SOL     OW29332   5.708   3.260   6.739
 9478SOL    HW129333   5.671   3.241   6.648
 9478SOL    HW229334   5.687   3.183   6.800
 9479SOL     OW29335   5.985   6.269   6.347
 9479SOL    HW129336   5.908   6.209   6.367
 9479SOL    HW229337   6.017   6.312   6.432
 9480SOL     OW29338   4.207   4.534   6.897
 9480SOL    HW129339   4.223   4.481   6.814
 9480SOL    HW229340   4.288   4.590   6.917
 9481SOL     OW29341   5.623   3.827   1.239
 9481SOL    HW129342   5.529   3.792   1.247
 9481SOL    HW229343   5.679   3.790   1.313
 9482SOL     OW29344   5.634   1.595   3.413
 9482SOL    HW129345   5.585   1.508   3.419
 9482SOL    HW229346   5.623   1.634   3.321
 9483SOL     OW29347   1.318   1.958   0.658
 9483SOL    HW129348   1.220   1.958   0.639
 9483SOL    HW229349   1.365   1.896   0.595
 9484SOL     OW29350   4.423   1.152   3.348
 9484SOL    HW129351   4.461   1.060   3.341
 9484SOL    HW229352   4.433   1.186   3.442
 9485SOL     OW29353   1.078   6.876   2.227
 9485SOL    HW129354   1.168   6.920   2.226
 9485SOL    HW229355   1.010   6.936   2.184
 9486SOL     OW29356   2.515   4.974   1.518
 9486SOL    HW129357   2.430   4.927   1.494
 9486SOL    HW229358   2.506   5.013   1.610
 9487SOL     OW29359   2.932   3.711   3.256
 9487SOL    HW129360   2.946   3.646   3.181
 9487SOL    HW229361   2.947   3.804   3.222
 9488SOL     OW29362   2.961   6.355   1.031
 9488SOL    HW129363   2.922   6.334   0.942
 9488SOL    HW229364   3.030   6.286   1.054
 9489SOL     OW29365   3.770   4.072   1.484
 9489SOL    HW129366   3.818   3.986   1.463
 9489SOL    HW229367   3.805   4.109   1.570
 9490SOL     OW29368   6.519   6.476   0.184
 9490SOL    HW129369   6.430   6.493   0.141
 9490SOL    HW229370   6.592   6.492   0.117
 9491SOL     OW29371   0.636   4.802   3.575
 9491SOL    HW129372   0.663   4.707   3.556
 9491SOL    HW229373   0.542   4.803   3.609
 9492SOL     OW29374   3.269   3.741   2.639
 9492SOL    HW129375   3.256   3.776   2.546
 9492SOL    HW229376   3.254   3.814   2.705
 9493SOL     OW29377   4.013   5.085   4.090
 9493SOL    HW129378   4.015   4.987   4.114
 9493SOL    HW229379   4.103   5.112   4.057
 9494SOL     OW29380   4.569   4.242   1.078
 9494SOL    HW129381   4.484   4.233   1.026
 9494SOL    HW229382   4.606   4.334   1.064
 9495SOL     OW29383   6.130   1.978   4.031
 9495SOL    HW129384   6.161   2.035   4.107
 9495SOL    HW229385   6.200   1.976   3.960
 9496SOL     OW29386   5.906   4.557   0.602
 9496SOL    HW129387   5.908   4.493   0.526
 9496SOL    HW229388   5.841   4.630   0.583
 9497SOL     OW29389   5.177   4.481   0.101
 9497SOL    HW129390   5.268   4.482   0.060
 9497SOL    HW229391   5.111   4.520   0.036
 9498SOL     OW29392   5.722   0.966   6.386
 9498SOL    HW129393   5.772   0.963   6.300
 9498SOL    HW229394   5.670   0.881   6.398
 9499SOL     OW29395   2.113   3.413   5.856
 9499SOL    HW129396   2.118   3.421   5.756
 9499SOL    HW229397   2.104   3.317   5.882
 9500SOL     OW29398   3.570   6.928   1.639
 9500SOL    HW129399   3.490   6.973   1.679
 9500SOL    HW229400   3.629   6.893   1.713
 9501SOL     OW29401   2.702   1.344   4.352
 9501SOL    HW129402   2.706   1.270   4.285
 9501SOL    HW229403   2.775   1.410   4.333
 9502SOL     OW29404   0.536   1.873   4.333
 9502SOL    HW129405   0.626   1.916   4.339
 9502SOL    HW229406   0.495   1.894   4.244
 9503SOL     OW29407   0.892   1.337   1.559
 9503SOL    HW129408   0.810   1.390   1.541
 9503SOL    HW229409   0.893   1.308   1.655
 9504SOL     OW29410   0.738   2.307   1.102
 9504SOL    HW129411   0.706   2.285   1.010
 9504SOL    HW229412   0.809   2.242   1.130
 9505SOL     OW29413   5.298   4.272   3.307
 9505SOL    HW129414   5.251   4.222   3.380
 9505SOL    HW229415   5.232   4.291   3.234
 9506SOL     OW29416   7.016   3.384   6.536
 9506SOL    HW129417   0.052   3.313   6.498
 9506SOL    HW229418   6.951   3.414   6.466
 9507SOL     OW29419   1.542   1.120   3.673
 9507SOL    HW129420   1.607   1.194   3.690
 9507SOL    HW229421   1.573   1.037   3.719
 9508SOL     OW29422   6.227   2.864   0.599
 9508SOL    HW129423   6.160   2.836   0.668
 9508SOL    HW229424   6.199   2.830   0.510
 9509SOL     OW29425   0.997   6.971   5.546
 9509SOL    HW129426   1.060   6.974   5.624
 9509SOL    HW229427   1.048   6.990   5.462
 9510SOL     OW29428   0.863   4.121   1.523
 9510SOL    HW129429   0.929   4.116   1.448
 9510SOL    HW229430   0.880   4.046   1.587
 9511SOL     OW29431   0.939   1.574   0.072
 9511SOL    HW129432   1.011   1.589   0.004
 9511SOL    HW229433   0.860   1.532   0.028
 9512SOL     OW29434   5.714   1.807   2.918
 9512SOL    HW129435   5.757   1.873   2.981
 9512SOL    HW229436   5.747   1.823   2.825
 9513SOL     OW29437   1.149   3.049   5.229
 9513SOL    HW129438   1.235   3.008   5.198
 9513SOL    HW229439   1.075   2.982   5.219
 9514SOL     OW29440   1.653   3.734   6.583
 9514SOL    HW129441   1.692   3.820   6.617
 9514SOL    HW229442   1.573   3.755   6.526
 9515SOL     OW29443   1.652   5.769   0.383
 9515SOL    HW129444   1.662   5.764   0.283
 9515SOL    HW229445   1.689   5.685   0.424
 9516SOL     OW29446   5.203   3.518   4.779
 9516SOL    HW129447   5.242   3.544   4.868
 9516SOL    HW229448   5.134   3.585   4.751
 9517SOL     OW29449   1.323   5.342   0.091
 9517SOL    HW129450   1.411   5.353   0.138
 9517SOL    HW229451   1.336   5.282   0.012
 9518SOL     OW29452   0.695   1.995   6.788
 9518SOL    HW129453   0.724   1.901   6.807
 9518SOL    HW229454   0.711   2.052   6.869
 9519SOL     OW29455   3.960   3.585   3.528
 9519SOL    HW129456   3.900   3.511   3.500
 9519SOL    HW229457   3.965   3.653   3.455
 9520SOL     OW29458   6.943   1.372   3.112
 9520SOL    HW129459   6.845   1.393   3.106
 9520SOL    HW229460   6.986   1.389   3.023
 9521SOL     OW29461   3.343   3.770   1.295
 9521SOL    HW129462   3.305   3.703   1.359
 9521SOL    HW229463   3.432   3.802   1.329
 9522SOL     OW29464   3.797   5.710   2.943
 9522SOL    HW129465   3.769   5.723   3.038
 9522SOL    HW229466   3.793   5.798   2.895
 9523SOL     OW29467   2.758   5.175   5.115
 9523SOL    HW129468   2.694   5.247   5.143
 9523SOL    HW229469   2.740   5.149   5.020
 9524SOL     OW29470   1.715   2.766   0.731
 9524SOL    HW129471   1.684   2.674   0.754
 9524SOL    HW229472   1.637   2.827   0.724
 9525SOL     OW29473   1.159   2.291   4.896
 9525SOL    HW129474   1.065   2.319   4.918
 9525SOL    HW229475   1.201   2.250   4.976
 9526SOL     OW29476   6.066   4.368   1.541
 9526SOL    HW129477   5.988   4.412   1.586
 9526SOL    HW229478   6.148   4.423   1.555
 9527SOL     OW29479   2.959   0.775   5.018
 9527SOL    HW129480   2.900   0.696   5.037
 9527SOL    HW229481   2.904   0.848   4.979
 9528SOL     OW29482   6.138   1.298   0.919
 9528SOL    HW129483   6.181   1.368   0.861
 9528SOL    HW229484   6.040   1.294   0.898
 9529SOL     OW29485   6.038   3.729   6.973
 9529SOL    HW129486   5.997   3.673   6.902
 9529SOL    HW229487   5.992   3.712   0.037
 9530SOL     OW29488   0.801   4.269   3.843
 9530SOL    HW129489   0.802   4.214   3.926
 9530SOL    HW229490   0.830   4.213   3.765
 9531SOL     OW29491   4.715   4.181   2.468
 9531SOL    HW129492   4.773   4.101   2.455
 9531SOL    HW229493   4.709   4.232   2.382
 9532SOL     OW29494   0.250   5.320   1.161
 9532SOL    HW129495   0.343   5.336   1.127
 9532SOL    HW229496   0.247   5.237   1.215
 9533SOL     OW29497   0.889   5.424   4.016
 9533SOL    HW129498   0.888   5.523   4.002
 9533SOL    HW229499   0.797   5.393   4.042
 9534SOL     OW29500   5.857   4.286   4.492
 9534SOL    HW129501   5.845   4.193   4.529
 9534SOL    HW229502   5.929   4.285   4.423
 9535SOL     OW29503   1.971   1.068   6.044
 9535SOL    HW129504   1.976   1.108   5.953
 9535SOL    HW229505   1.906   1.119   6.100
 9536SOL     OW29506   3.099   3.734   5.475
 9536SOL    HW129507   3.139   3.721   5.566
 9536SOL    HW229508   3.129   3.822   5.438
 9537SOL     OW29509   2.439   1.098   4.944
 9537SOL    HW129510   2.409   1.189   4.973
 9537SOL    HW229511   2.490   1.106   4.858
 9538SOL     OW29512   4.857   0.480   4.692
 9538SOL    HW129513   4.864   0.561   4.750
 9538SOL    HW229514   4.887   0.399   4.744
 9539SOL     OW29515   2.931   3.657   4.388
 9539SOL    HW129516   2.886   3.743   4.414
 9539SOL    HW229517   2.989   3.673   4.308
 9540SOL     OW29518   5.616   4.993   4.559
 9540SOL    HW129519   5.568   4.933   4.494
 9540SOL    HW229520   5.666   4.937   4.625
 9541SOL     OW29521   2.599   0.859   6.336
 9541SOL    HW129522   2.537   0.796   6.382
 9541SOL    HW229523   2.570   0.872   6.241
 9542SOL     OW29524   5.045   4.649   4.344
 9542SOL    HW129525   5.068   4.744   4.367
 9542SOL    HW229526   4.961   4.623   4.392
 9543SOL     OW29527   3.938   1.092   6.539
 9543SOL    HW129528   3.941   1.183   6.498
 9543SOL    HW229529   4.030   1.062   6.562
 9544SOL     OW29530   5.879   2.953   4.124
 9544SOL    HW129531   5.791   2.995   4.148
 9544SOL    HW229532   5.870   2.854   4.123
 9545SOL     OW29533   5.733   5.624   2.610
 9545SOL    HW129534   5.695   5.700   2.663
 9545SOL    HW229535   5.806   5.581   2.663
 9546SOL     OW29536   4.132   1.184   6.222
 9546SOL    HW129537   4.205   1.192   6.155
 9546SOL    HW229538   4.056   1.243   6.196
 9547SOL     OW29539   2.545   5.247   4.058
 9547SOL    HW129540   2.510   5.162   4.019
 9547SOL    HW229541   2.642   5.236   4.083
 9548SOL     OW29542   6.956   4.950   4.636
 9548SOL    HW129543   6.935   4.997   4.722
 9548SOL    HW229544   6.964   4.851   4.653
 9549SOL     OW29545   3.284   1.511   1.628
 9549SOL    HW129546   3.304   1.553   1.716
 9549SOL    HW229547   3.329   1.422   1.622
 9550SOL     OW29548   6.933   1.240   0.368
 9550SOL    HW129549   6.993   1.317   0.349
 9550SOL    HW229550   6.987   1.156   0.370
 9551SOL     OW29551   5.525   3.198   5.963
 9551SOL    HW129552   5.427   3.193   5.978
 9551SOL    HW229553   5.544   3.265   5.891
 9552SOL     OW29554   2.484   5.872   5.585
 9552SOL    HW129555   2.504   5.775   5.592
 9552SOL    HW229556   2.428   5.889   5.504
 9553SOL     OW29557   5.769   2.141   0.242
 9553SOL    HW129558   5.682   2.132   0.291
 9553SOL    HW229559   5.843   2.154   0.308
 9554SOL     OW29560   1.584   6.484   3.627
 9554SOL    HW129561   1.576   6.584   3.630
 9554SOL    HW229562   1.633   6.452   3.708
 9555SOL     OW29563   6.947   0.969   2.910
 9555SOL    HW129564   6.926   0.898   2.977
 9555SOL    HW229565   0.015   1.006   2.928
 9556SOL     OW29566   1.341   3.830   1.043
 9556SOL    HW129567   1.301   3.896   1.107
 9556SOL    HW229568   1.351   3.872   0.953
 9557SOL     OW29569   5.708   6.838   1.455
 9557SOL    HW129570   5.680   6.887   1.537
 9557SOL    HW229571   5.758   6.755   1.481
 9558SOL     OW29572   5.768   5.917   5.772
 9558SOL    HW129573   5.825   5.875   5.843
 9558SOL    HW229574   5.753   6.013   5.794
 9559SOL     OW29575   0.730   4.838   0.548
 9559SOL    HW129576   0.796   4.860   0.476
 9559SOL    HW229577   0.637   4.850   0.512
 9560SOL     OW29578   2.387   1.113   2.777
 9560SOL    HW129579   2.469   1.142   2.728
 9560SOL    HW229580   2.310   1.173   2.754
 9561SOL     OW29581   0.878   1.001   1.412
 9561SOL    HW129582   0.882   0.974   1.508
 9561SOL    HW229583   0.879   1.100   1.405
 9562SOL     OW29584   2.899   0.300   4.953
 9562SOL    HW129585   2.929   0.210   4.983
 9562SOL    HW229586   2.976   0.350   4.914
 9563SOL     OW29587   6.983   0.198   0.263
 9563SOL    HW129588   6.918   0.139   0.215
 9563SOL    HW229589   6.963   0.197   0.361
 9564SOL     OW29590   2.687   0.993   0.094
 9564SOL    HW129591   2.768   1.014   0.040
 9564SOL    HW229592   2.705   1.011   0.191
 9565SOL     OW29593   3.860   0.545   5.155
 9565SOL    HW129594   3.797   0.617   5.126
 9565SOL    HW229595   3.809   0.459   5.166
 9566SOL     OW29596   3.134   5.633   6.588
 9566SOL    HW129597   3.101   5.609   6.496
 9566SOL    HW229598   3.192   5.714   6.582
 9567SOL     OW29599   4.908   4.688   0.813
 9567SOL    HW129600   4.890   4.598   0.773
 9567SOL    HW229601   4.870   4.692   0.906
 9568SOL     OW29602   4.494   2.043   6.599
 9568SOL    HW129603   4.459   1.987   6.524
 9568SOL    HW229604   4.582   2.082   6.572
 9569SOL     OW29605   6.844   1.561   2.239
 9569SOL    HW129606   6.932   1.523   2.212
 9569SOL    HW229607   6.825   1.536   2.334
 9570SOL     OW29608   0.509   3.310   1.314
 9570SOL    HW129609   0.453   3.342   1.391
 9570SOL    HW229610   0.458   3.322   1.229
 9571SOL     OW29611   3.465   3.133   5.690
 9571SOL    HW129612   3.509   3.043   5.690
 9571SOL    HW229613   3.530   3.201   5.656
 9572SOL     OW29614   2.000   5.151   1.993
 9572SOL    HW129615   1.929   5.215   2.022
 9572SOL    HW229616   1.965   5.058   1.998
 9573SOL     OW29617   0.835   2.347   6.791
 9573SOL    HW129618   0.814   2.311   6.700
 9573SOL    HW229619   0.751   2.378   6.835
 9574SOL     OW29620   3.820   2.984   3.012
 9574SOL    HW129621   3.861   2.898   3.044
 9574SOL    HW229622   3.785   2.972   2.919
 9575SOL     OW29623   0.871   0.936   1.693
 9575SOL    HW129624   0.809   1.013   1.704
 9575SOL    HW229625   0.883   0.890   1.781
 9576SOL     OW29626   2.092   1.466   0.383
 9576SOL    HW129627   2.123   1.561   0.394
 9576SOL    HW229628   2.171   1.405   0.378
 9577SOL     OW29629   0.590   0.756   6.022
 9577SOL    HW129630   0.587   0.682   6.090
 9577SOL    HW229631   0.614   0.718   5.933
 9578SOL     OW29632   0.994   3.915   2.568
 9578SOL    HW129633   1.008   3.831   2.515
 9578SOL    HW229634   1.065   3.921   2.639
 9579SOL     OW29635   0.484   4.923   3.970
 9579SOL    HW129636   0.465   5.020   3.954
 9579SOL    HW229637   0.405   4.869   3.941
 9580SOL     OW29638   4.333   3.296   0.996
 9580SOL    HW129639   4.246   3.293   1.044
 9580SOL    HW229640   4.337   3.376   0.936
 9581SOL     OW29641   0.306   0.016   6.139
 9581SOL    HW129642   0.260   6.960   6.179
 9581SOL    HW229643   0.243   0.064   6.078
 9582SOL     OW29644   4.856   5.067   5.187
 9582SOL    HW129645   4.782   5.008   5.155
 9582SOL    HW229646   4.892   5.031   5.273
 9583SOL     OW29647   3.129   3.826   1.590
 9583SOL    HW129648   3.217   3.864   1.620
 9583SOL    HW229649   3.145   3.746   1.532
 9584SOL     OW29650   0.522   4.863   6.306
 9584SOL    HW129651   0.427   4.894   6.308
 9584SOL    HW229652   0.526   4.767   6.333
 9585SOL     OW29653   6.490   6.648   3.914
 9585SOL    HW129654   6.524   6.617   4.002
 9585SOL    HW229655   6.560   6.703   3.868
 9586SOL     OW29656   4.930   5.086   2.258
 9586SOL    HW129657   4.932   4.995   2.216
 9586SOL    HW229658   4.972   5.152   2.196
 9587SOL     OW29659   1.232   0.235   1.346
 9587SOL    HW129660   1.306   0.168   1.344
 9587SOL    HW229661   1.145   0.189   1.327
 9588SOL     OW29662   6.573   6.922   1.945
 9588SOL    HW129663   6.600   7.014   1.973
 9588SOL    HW229664   6.654   6.873   1.910
 9589SOL     OW29665   2.281   5.193   6.947
 9589SOL    HW129666   2.222   5.235   6.878
 9589SOL    HW229667   2.276   5.247   0.008
 9590SOL     OW29668   5.975   3.034   2.021
 9590SOL    HW129669   6.024   3.015   1.936
 9590SOL    HW229670   5.962   2.949   2.072
 9591SOL     OW29671   2.738   5.486   5.794
 9591SOL    HW129672   2.826   5.438   5.787
 9591SOL    HW229673   2.668   5.421   5.824
 9592SOL     OW29674   2.875   4.361   0.430
 9592SOL    HW129675   2.814   4.372   0.352
 9592SOL    HW229676   2.849   4.279   0.482
 9593SOL     OW29677   0.224   1.026   5.990
 9593SOL    HW129678   0.298   1.064   6.046
 9593SOL    HW229679   0.259   0.953   5.933
 9594SOL     OW29680   1.669   5.210   3.279
 9594SOL    HW129681   1.587   5.242   3.231
 9594SOL    HW229682   1.724   5.155   3.218
 9595SOL     OW29683   0.594   2.718   4.464
 9595SOL    HW129684   0.524   2.649   4.446
 9595SOL    HW229685   0.553   2.809   4.461
 9596SOL     OW29686   0.848   5.101   6.279
 9596SOL    HW129687   0.781   5.076   6.349
 9596SOL    HW229688   0.932   5.050   6.295
 9597SOL     OW29689   0.195   4.451   1.093
 9597SOL    HW129690   0.217   4.497   1.007
 9597SOL    HW229691   0.098   4.462   1.113
 9598SOL     OW29692   1.579   4.597   3.485
 9598SOL    HW129693   1.559   4.691   3.511
 9598SOL    HW229694   1.513   4.566   3.416
 9599SOL     OW29695   2.814   0.632   4.480
 9599SOL    HW129696   2.853   0.661   4.567
 9599SOL    HW229697   2.720   0.599   4.494
 9600SOL     OW29698   2.867   6.808   6.879
 9600SOL    HW129699   2.888   6.835   6.973
 9600SOL    HW229700   2.803   6.731   6.880
 9601SOL     OW29701   4.535   3.876   0.882
 9601SOL    HW129702   4.465   3.927   0.832
 9601SOL    HW229703   4.614   3.935   0.900
 9602SOL     OW29704   6.403   4.422   5.552
 9602SOL    HW129705   6.387   4.349   5.486
 9602SOL    HW229706   6.494   4.410   5.593
 9603SOL     OW29707   4.462   1.476   4.908
 9603SOL    HW129708   4.545   1.477   4.965
 9603SOL    HW229709   4.486   1.444   4.817
 9604SOL     OW29710   4.711   0.290   0.277
 9604SOL    HW129711   4.616   0.263   0.267
 9604SOL    HW229712   4.762   0.261   0.196
 9605SOL     OW29713   1.167   5.980   3.447
 9605SOL    HW129714   1.117   5.953   3.529
 9605SOL    HW229715   1.102   6.015   3.379
 9606SOL     OW29716   2.395   5.948   6.809
 9606SOL    HW129717   2.386   6.003   6.892
 9606SOL    HW229718   2.490   5.949   6.778
 9607SOL     OW29719   1.617   1.704   6.876
 9607SOL    HW129720   1.681   1.771   6.838
 9607SOL    HW229721   1.524   1.740   6.870
 9608SOL     OW29722   6.644   5.558   2.425
 9608SOL    HW129723   6.599   5.595   2.506
 9608SOL    HW229724   6.694   5.475   2.450
 9609SOL     OW29725   1.991   3.882   6.808
 9609SOL    HW129726   1.960   3.882   6.713
 9609SOL    HW229727   2.084   3.847   6.813
 9610SOL     OW29728   2.053   4.771   3.574
 9610SOL    HW129729   2.061   4.850   3.513
 9610SOL    HW229730   1.980   4.711   3.542
 9611SOL     OW29731   0.902   6.661   6.577
 9611SOL    HW129732   0.959   6.743   6.571
 9611SOL    HW229733   0.822   6.680   6.633
 9612SOL     OW29734   0.469   4.065   1.050
 9612SOL    HW129735   0.532   3.995   1.015
 9612SOL    HW229736   0.498   4.155   1.017
 9613SOL     OW29737   5.440   0.423   3.745
 9613SOL    HW129738   5.364   0.451   3.687
 9613SOL    HW229739   5.521   0.408   3.689
 9614SOL     OW29740   3.589   2.197   1.247
 9614SOL    HW129741   3.514   2.198   1.313
 9614SOL    HW229742   3.554   2.226   1.157
 9615SOL     OW29743   2.505   6.722   0.155
 9615SOL    HW129744   2.457   6.768   0.080
 9615SOL    HW229745   2.574   6.783   0.193
 9616SOL     OW29746   4.201   4.007   0.869
 9616SOL    HW129747   4.200   4.097   0.827
 9616SOL    HW229748   4.143   4.006   0.950
 9617SOL     OW29749   1.365   3.238   3.115
 9617SOL    HW129750   1.456   3.228   3.154
 9617SOL    HW229751   1.298   3.191   3.173
 9618SOL     OW29752   3.489   6.871   6.295
 9618SOL    HW129753   3.495   6.786   6.346
 9618SOL    HW229754   3.498   6.853   6.198
 9619SOL     OW29755   1.323   6.820   6.809
 9619SOL    HW129756   1.419   6.844   6.796
 9619SOL    HW229757   1.299   6.831   6.905
 9620SOL     OW29758   4.548   0.995   5.992
 9620SOL    HW129759   4.583   0.918   6.045
 9620SOL    HW229760   4.601   1.077   6.013
 9621SOL     OW29761   0.924   1.294   2.118
 9621SOL    HW129762   0.849   1.256   2.172
 9621SOL    HW229763   0.891   1.314   2.025
 9622SOL     OW29764   0.287   1.230   0.584
 9622SOL    HW129765   0.327   1.236   0.675
 9622SOL    HW229766   0.293   1.136   0.550
 9623SOL     OW29767   3.000   3.995   5.646
 9623SOL    HW129768   2.947   4.051   5.581
 9623SOL    HW229769   3.016   3.905   5.607
 9624SOL     OW29770   6.971   4.184   2.362
 9624SOL    HW129771   7.017   4.257   2.413
 9624SOL    HW229772   7.007   4.095   2.390
 9625SOL     OW29773   4.928   5.447   6.765
 9625SOL    HW129774   4.995   5.516   6.792
 9625SOL    HW229775   4.916   5.381   6.839
 9626SOL     OW29776   3.781   4.611   6.912
 9626SOL    HW129777   3.710   4.678   6.936
 9626SOL    HW229778   3.743   4.519   6.917
 9627SOL     OW29779   6.865   5.847   4.391
 9627SOL    HW129780   6.822   5.933   4.419
 9627SOL    HW229781   6.927   5.864   4.315
 9628SOL     OW29782   4.914   4.520   0.004
 9628SOL    HW129783   4.903   4.596   6.964
 9628SOL    HW229784   4.921   4.435   6.976
 9629SOL     OW29785   0.283   0.118   2.256
 9629SOL    HW129786   0.343   0.082   2.327
 9629SOL    HW229787   0.252   0.042   2.198
 9630SOL     OW29788   6.211   6.974   5.254
 9630SOL    HW129789   6.309   6.954   5.260
 9630SOL    HW229790   6.196   0.028   5.193
 9631SOL     OW29791   6.932   6.631   6.630
 9631SOL    HW129792   6.916   6.716   6.579
 9631SOL    HW229793   7.020   6.636   6.677
 9632SOL     OW29794   0.901   6.964   3.146
 9632SOL    HW129795   0.919   6.894   3.215
 9632SOL    HW229796   0.965   0.017   3.159
 9633SOL     OW29797   5.426   4.647   5.844
 9633SOL    HW129798   5.372   4.730   5.830
 9633SOL    HW229799   5.492   4.638   5.769
 9634SOL     OW29800   1.135   5.553   3.893
 9634SOL    HW129801   1.141   5.635   3.837
 9634SOL    HW229802   1.060   5.496   3.861
 9635SOL     OW29803   1.853   4.693   5.559
 9635SOL    HW129804   1.888   4.662   5.471
 9635SOL    HW229805   1.756   4.718   5.550
 9636SOL     OW29806   4.282   1.716   5.953
 9636SOL    HW129807   4.268   1.673   5.864
 9636SOL    HW229808   4.224   1.797   5.961
 9637SOL     OW29809   2.617   2.309   6.290
 9637SOL    HW129810   2.705   2.309   6.241
 9637SOL    HW229811   2.625   2.257   6.375
 9638SOL     OW29812   6.519   3.444   6.828
 9638SOL    HW129813   6.613   3.427   6.798
 9638SOL    HW229814   6.482   3.523   6.778
 9639SOL     OW29815   3.548   1.533   2.289
 9639SOL    HW129816   3.609   1.542   2.368
 9639SOL    HW229817   3.595   1.566   2.207
 9640SOL     OW29818   2.311   2.652   3.485
 9640SOL    HW129819   2.313   2.598   3.401
 9640SOL    HW229820   2.247   2.728   3.476
 9641SOL     OW29821   4.238   6.507   0.966
 9641SOL    HW129822   4.330   6.521   0.929
 9641SOL    HW229823   4.233   6.544   1.059
 9642SOL     OW29824   3.888   6.587   4.925
 9642SOL    HW129825   3.917   6.677   4.894
 9642SOL    HW229826   3.791   6.574   4.904
 9643SOL     OW29827   5.134   5.389   3.798
 9643SOL    HW129828   5.057   5.441   3.761
 9643SOL    HW229829   5.219   5.417   3.752
 9644SOL     OW29830   1.290   4.397   5.271
 9644SOL    HW129831   1.333   4.314   5.236
 9644SOL    HW229832   1.318   4.412   5.366
 9645SOL     OW29833   3.715   5.448   3.410
 9645SOL    HW129834   3.692   5.435   3.506
 9645SOL    HW229835   3.761   5.366   3.375
 9646SOL     OW29836   2.965   4.819   2.070
 9646SOL    HW129837   2.902   4.745   2.045
 9646SOL    HW229838   2.917   4.907   2.066
 9647SOL     OW29839   5.848   5.237   1.179
 9647SOL    HW129840   5.930   5.180   1.181
 9647SOL    HW229841   5.843   5.291   1.263
 9648SOL     OW29842   4.377   1.702   6.933
 9648SOL    HW129843   4.324   1.700   7.018
 9648SOL    HW229844   4.405   1.609   6.909
 9649SOL     OW29845   2.716   6.571   6.887
 9649SOL    HW129846   2.715   6.502   6.960
 9649SOL    HW229847   2.629   6.568   6.837
 9650SOL     OW29848   5.716   5.095   2.716
 9650SOL    HW129849   5.804   5.118   2.759
 9650SOL    HW229850   5.733   5.040   2.635
 9651SOL     OW29851   6.902   1.016   6.319
 9651SOL    HW129852   6.915   0.931   6.268
 9651SOL    HW229853   6.915   0.998   6.417
 9652SOL     OW29854   2.283   4.642   0.725
 9652SOL    HW129855   2.264   4.544   0.725
 9652SOL    HW229856   2.203   4.692   0.756
 9653SOL     OW29857   3.970   5.473   4.691
 9653SOL    HW129858   3.938   5.471   4.597
 9653SOL    HW229859   3.892   5.468   4.754
 9654SOL     OW29860   3.474   3.440   1.431
 9654SOL    HW129861   3.540   3.388   1.485
 9654SOL    HW229862   3.511   3.454   1.339
 9655SOL     OW29863   6.881   1.772   6.859
 9655SOL    HW129864   6.937   1.783   6.941
 9655SOL    HW229865   6.790   1.811   6.874
 9656SOL     OW29866   2.899   2.294   1.028
 9656SOL    HW129867   2.861   2.245   1.106
 9656SOL    HW229868   2.902   2.392   1.048
 9657SOL     OW29869   6.432   0.683   4.376
 9657SOL    HW129870   6.496   0.760   4.389
 9657SOL    HW229871   6.369   0.705   4.301
 9658SOL     OW29872   6.395   2.331   2.613
 9658SOL    HW129873   6.425   2.426   2.625
 9658SOL    HW229874   6.473   2.270   2.629
 9659SOL     OW29875   6.641   4.465   0.158
 9659SOL    HW129876   6.736   4.490   0.139
 9659SOL    HW229877   6.581   4.543   0.136
 9660SOL     OW29878   0.479   5.732   0.445
 9660SOL    HW129879   0.457   5.819   0.400
 9660SOL    HW229880   0.417   5.719   0.523
 9661SOL     OW29881   3.622   6.421   2.352
 9661SOL    HW129882   3.641   6.515   2.321
 9661SOL    HW229883   3.702   6.385   2.400
 9662SOL     OW29884   5.793   2.053   5.052
 9662SOL    HW129885   5.751   2.040   4.962
 9662SOL    HW229886   5.803   2.151   5.070
 9663SOL     OW29887   0.856   5.716   4.205
 9663SOL    HW129888   0.798   5.668   4.270
 9663SOL    HW229889   0.809   5.722   4.117
 9664SOL     OW29890   6.566   6.866   3.642
 9664SOL    HW129891   6.480   6.856   3.591
 9664SOL    HW229892   6.630   6.795   3.613
 9665SOL     OW29893   5.429   5.840   6.156
 9665SOL    HW129894   5.470   5.790   6.080
 9665SOL    HW229895   5.481   5.823   6.239
 9666SOL     OW29896   5.591   4.222   2.418
 9666SOL    HW129897   5.510   4.234   2.475
 9666SOL    HW229898   5.670   4.199   2.475
 9667SOL     OW29899   3.067   3.126   4.468
 9667SOL    HW129900   3.016   3.202   4.428
 9667SOL    HW229901   3.102   3.067   4.395
 9668SOL     OW29902   5.953   1.056   0.081
 9668SOL    HW129903   5.947   0.995   0.159
 9668SOL    HW229904   5.866   1.103   0.068
 9669SOL     OW29905   1.243   0.160   1.914
 9669SOL    HW129906   1.189   0.217   1.852
 9669SOL    HW229907   1.224   0.063   1.895
 9670SOL     OW29908   5.092   4.753   6.106
 9670SOL    HW129909   5.003   4.732   6.147
 9670SOL    HW229910   5.081   4.825   6.038
 9671SOL     OW29911   0.576   5.505   6.359
 9671SOL    HW129912   0.646   5.559   6.313
 9671SOL    HW229913   0.491   5.508   6.307
 9672SOL     OW29914   1.005   6.101   4.791
 9672SOL    HW129915   1.069   6.174   4.814
 9672SOL    HW229916   0.985   6.047   4.872
 9673SOL     OW29917   5.366   4.187   6.941
 9673SOL    HW129918   5.363   4.166   0.015
 9673SOL    HW229919   5.461   4.192   6.910
 9674SOL     OW29920   2.686   6.557   3.412
 9674SOL    HW129921   2.635   6.544   3.497
 9674SOL    HW229922   2.661   6.644   3.371
 9675SOL     OW29923   5.806   1.689   1.442
 9675SOL    HW129924   5.896   1.722   1.413
 9675SOL    HW229925   5.818   1.610   1.502
 9676SOL     OW29926   1.537   3.616   5.508
 9676SOL    HW129927   1.558   3.528   5.464
 9676SOL    HW229928   1.570   3.614   5.603
 9677SOL     OW29929   2.530   5.315   5.897
 9677SOL    HW129930   2.431   5.301   5.903
 9677SOL    HW229931   2.577   5.227   5.910
 9678SOL     OW29932   3.249   3.881   2.374
 9678SOL    HW129933   3.155   3.911   2.363
 9678SOL    HW229934   3.301   3.900   2.290
 9679SOL     OW29935   1.833   1.346   2.686
 9679SOL    HW129936   1.891   1.400   2.747
 9679SOL    HW229937   1.859   1.362   2.591
 9680SOL     OW29938   6.217   0.440   4.147
 9680SOL    HW129939   6.278   0.393   4.210
 9680SOL    HW229940   6.197   0.381   4.069
 9681SOL     OW29941   2.975   1.143   0.586
 9681SOL    HW129942   2.913   1.082   0.635
 9681SOL    HW229943   3.029   1.090   0.521
 9682SOL     OW29944   4.845   5.117   3.839
 9682SOL    HW129945   4.810   5.210   3.848
 9682SOL    HW229946   4.920   5.116   3.773
 9683SOL     OW29947   3.112   4.948   0.763
 9683SOL    HW129948   3.183   4.983   0.702
 9683SOL    HW229949   3.093   5.016   0.834
 9684SOL     OW29950   6.934   2.354   5.218
 9684SOL    HW129951   6.885   2.440   5.234
 9684SOL    HW229952   6.867   2.280   5.205
 9685SOL     OW29953   2.208   3.277   0.767
 9685SOL    HW129954   2.161   3.355   0.809
 9685SOL    HW229955   2.190   3.194   0.820
 9686SOL     OW29956   5.683   2.041   0.859
 9686SOL    HW129957   5.604   1.980   0.854
 9686SOL    HW229958   5.654   2.131   0.891
 9687SOL     OW29959   2.299   0.621   3.969
 9687SOL    HW129960   2.349   0.700   3.933
 9687SOL    HW229961   2.310   0.544   3.906
 9688SOL     OW29962   6.989   2.176   3.546
 9688SOL    HW129963   6.933   2.233   3.606
 9688SOL    HW229964   0.005   2.100   3.598
 9689SOL     OW29965   2.051   6.204   1.027
 9689SOL    HW129966   2.128   6.263   1.051
 9689SOL    HW229967   2.081   6.108   1.030
 9690SOL     OW29968   5.640   5.526   6.687
 9690SOL    HW129969   5.630   5.496   6.781
 9690SOL    HW229970   5.642   5.447   6.626
 9691SOL     OW29971   2.520   4.649   1.587
 9691SOL    HW129972   2.517   4.651   1.487
 9691SOL    HW229973   2.571   4.568   1.617
 9692SOL     OW29974   2.969   4.863   2.777
 9692SOL    HW129975   2.900   4.925   2.738
 9692SOL    HW229976   2.949   4.847   2.874
 9693SOL     OW29977   6.287   5.184   1.507
 9693SOL    HW129978   6.379   5.145   1.505
 9693SOL    HW229979   6.224   5.118   1.548
 9694SOL     OW29980   2.188   1.348   5.763
 9694SOL    HW129981   2.166   1.384   5.672
 9694SOL    HW229982   2.285   1.326   5.767
 9695SOL     OW29983   6.959   3.864   1.419
 9695SOL    HW129984   6.915   3.948   1.452
 9695SOL    HW229985   6.916   3.784   1.461
 9696SOL     OW29986   5.083   2.167   1.066
 9696SOL    HW129987   5.083   2.242   1.000
 9696SOL    HW229988   4.989   2.147   1.093
 9697SOL     OW29989   6.743   5.610   6.854
 9697SOL    HW129990   6.794   5.613   6.768
 9697SOL    HW229991   6.703   5.519   6.866
 9698SOL     OW29992   5.375   1.464   6.336
 9698SOL    HW129993   5.312   1.476   6.259
 9698SOL    HW229994   5.441   1.393   6.315
 9699SOL     OW29995   0.498   4.441   6.755
 9699SOL    HW129996   0.483   4.345   6.777
 9699SOL    HW229997   0.570   4.449   6.685
 9700SOL     OW29998   4.026   5.476   5.105
 9700SOL    HW129999   4.044   5.461   5.202
 9700SOL    HW230000   4.102   5.526   5.064
 9701SOL     OW30001   3.761   5.160   4.790
 9701SOL    HW130002   3.748   5.134   4.886
 9701SOL    HW230003   3.773   5.259   4.783
 9702SOL     OW30004   5.274   0.425   0.402
 9702SOL    HW130005   5.214   0.457   0.329
 9702SOL    HW230006   5.223   0.363   0.462
 9703SOL     OW30007   4.062   5.664   3.603
 9703SOL    HW130008   4.079   5.737   3.669
 9703SOL    HW230009   4.064   5.575   3.650
 9704SOL     OW30010   3.184   1.153   1.945
 9704SOL    HW130011   3.090   1.128   1.924
 9704SOL    HW230012   3.190   1.252   1.960
 9705SOL     OW30013   4.986   5.747   0.402
 9705SOL    HW130014   5.085   5.738   0.413
 9705SOL    HW230015   4.941   5.695   0.475
 9706SOL     OW30016   1.258   2.436   0.593
 9706SOL    HW130017   1.315   2.355   0.605
 9706SOL    HW230018   1.168   2.408   0.559
 9707SOL     OW30019   6.631   3.959   1.701
 9707SOL    HW130020   6.693   3.948   1.623
 9707SOL    HW230021   6.657   4.042   1.752
 9708SOL     OW30022   1.293   2.071   3.079
 9708SOL    HW130023   1.249   2.141   3.134
 9708SOL    HW230024   1.240   2.057   2.995
 9709SOL     OW30025   6.137   5.561   2.860
 9709SOL    HW130026   6.173   5.478   2.817
 9709SOL    HW230027   6.137   5.636   2.794
 9710SOL     OW30028   0.465   1.701   2.299
 9710SOL    HW130029   0.488   1.755   2.380
 9710SOL    HW230030   0.442   1.763   2.224
 9711SOL     OW30031   1.657   3.036   5.736
 9711SOL    HW130032   1.639   2.955   5.681
 9711SOL    HW230033   1.577   3.055   5.793
 9712SOL     OW30034   5.627   3.755   5.497
 9712SOL    HW130035   5.716   3.796   5.516
 9712SOL    HW230036   5.556   3.806   5.546
 9713SOL     OW30037   1.289   4.463   3.474
 9713SOL    HW130038   1.189   4.475   3.474
 9713SOL    HW230039   1.327   4.502   3.558
 9714SOL     OW30040   2.417   1.650   1.547
 9714SOL    HW130041   2.439   1.671   1.452
 9714SOL    HW230042   2.473   1.707   1.607
 9715SOL     OW30043   5.832   4.772   5.543
 9715SOL    HW130044   5.911   4.802   5.596
 9715SOL    HW230045   5.751   4.825   5.569
 9716SOL     OW30046   3.817   2.860   6.846
 9716SOL    HW130047   3.827   2.833   6.942
 9716SOL    HW230048   3.906   2.889   6.810
 9717SOL     OW30049   5.957   5.524   5.931
 9717SOL    HW130050   5.983   5.617   5.905
 9717SOL    HW230051   5.915   5.526   6.022
 9718SOL     OW30052   4.960   3.020   1.904
 9718SOL    HW130053   4.876   3.026   1.957
 9718SOL    HW230054   5.039   3.037   1.963
 9719SOL     OW30055   0.387   1.989   6.904
 9719SOL    HW130056   0.449   1.933   6.960
 9719SOL    HW230057   0.398   1.964   6.808
 9720SOL     OW30058   0.313   5.585   1.669
 9720SOL    HW130059   0.356   5.521   1.732
 9720SOL    HW230060   0.298   5.540   1.581
 9721SOL     OW30061   1.016   2.719   1.359
 9721SOL    HW130062   0.941   2.785   1.356
 9721SOL    HW230063   0.997   2.643   1.297
 9722SOL     OW30064   0.355   0.151   3.396
 9722SOL    HW130065   0.430   0.185   3.340
 9722SOL    HW230066   0.376   0.057   3.425
 9723SOL     OW30067   2.147   5.949   3.649
 9723SOL    HW130068   2.096   5.991   3.575
 9723SOL    HW230069   2.236   5.917   3.615
 9724SOL     OW30070   2.874   3.234   0.712
 9724SOL    HW130071   2.776   3.216   0.710
 9724SOL    HW230072   2.907   3.253   0.619
 9725SOL     OW30073   4.016   3.759   6.569
 9725SOL    HW130074   4.105   3.718   6.591
 9725SOL    HW230075   3.990   3.733   6.475
 9726SOL     OW30076   4.395   6.527   4.115
 9726SOL    HW130077   4.357   6.499   4.204
 9726SOL    HW230078   4.455   6.455   4.081
 9727SOL     OW30079   0.726   3.667   5.181
 9727SOL    HW130080   0.776   3.735   5.234
 9727SOL    HW230081   0.732   3.578   5.227
 9728SOL     OW30082   0.725   0.262   6.455
 9728SOL    HW130083   0.766   0.171   6.450
 9728SOL    HW230084   0.713   0.298   6.363
 9729SOL     OW30085   0.773   4.616   2.378
 9729SOL    HW130086   0.725   4.589   2.461
 9729SOL    HW230087   0.854   4.670   2.403
 9730SOL     OW30088   0.486   3.196   2.703
 9730SOL    HW130089   0.434   3.274   2.736
 9730SOL    HW230090   0.519   3.142   2.780
 9731SOL     OW30091   4.484   4.379   0.436
 9731SOL    HW130092   4.425   4.345   0.509
 9731SOL    HW230093   4.429   4.434   0.372
 9732SOL     OW30094   5.269   5.821   3.115
 9732SOL    HW130095   5.249   5.808   3.212
 9732SOL    HW230096   5.211   5.892   3.078
 9733SOL     OW30097   5.341   4.849   6.210
 9733SOL    HW130098   5.272   4.799   6.158
 9733SOL    HW230099   5.317   4.947   6.210
 9734SOL     OW30100   5.045   2.118   3.686
 9734SOL    HW130101   4.992   2.149   3.765
 9734SOL    HW230102   5.024   2.176   3.608
 9735SOL     OW30103   1.636   4.688   2.594
 9735SOL    HW130104   1.712   4.637   2.634
 9735SOL    HW230105   1.600   4.637   2.516
 9736SOL     OW30106   6.286   1.548   6.034
 9736SOL    HW130107   6.323   1.628   5.987
 9736SOL    HW230108   6.197   1.572   6.074
 9737SOL     OW30109   6.652   3.283   4.942
 9737SOL    HW130110   6.572   3.258   4.996
 9737SOL    HW230111   6.664   3.216   4.868
 9738SOL     OW30112   1.941   0.311   2.964
 9738SOL    HW130113   1.945   0.404   3.001
 9738SOL    HW230114   1.863   0.262   3.003
 9739SOL     OW30115   6.577   5.412   1.813
 9739SOL    HW130116   6.588   5.409   1.913
 9739SOL    HW230117   6.510   5.343   1.785
 9740SOL     OW30118   6.860   3.188   3.543
 9740SOL    HW130119   6.957   3.193   3.567
 9740SOL    HW230120   6.845   3.228   3.453
 9741SOL     OW30121   4.525   1.452   2.456
 9741SOL    HW130122   4.470   1.464   2.374
 9741SOL    HW230123   4.618   1.425   2.431
 9742SOL     OW30124   4.369   6.847   2.788
 9742SOL    HW130125   4.297   6.916   2.788
 9742SOL    HW230126   4.435   6.869   2.716
 9743SOL     OW30127   1.574   1.754   4.922
 9743SOL    HW130128   1.645   1.684   4.921
 9743SOL    HW230129   1.547   1.775   4.828
 9744SOL     OW30130   0.108   6.705   2.553
 9744SOL    HW130131   0.034   6.765   2.580
 9744SOL    HW230132   0.072   6.631   2.495
 9745SOL     OW30133   6.669   2.758   6.000
 9745SOL    HW130134   6.757   2.766   5.952
 9745SOL    HW230135   6.680   2.792   6.093
 9746SOL     OW30136   6.099   1.436   6.409
 9746SOL    HW130137   6.038   1.428   6.488
 9746SOL    HW230138   6.059   1.497   6.341
 9747SOL     OW30139   1.852   0.837   1.596
 9747SOL    HW130140   1.829   0.888   1.679
 9747SOL    HW230141   1.850   0.739   1.615
 9748SOL     OW30142   1.381   0.847   4.347
 9748SOL    HW130143   1.357   0.878   4.255
 9748SOL    HW230144   1.313   0.782   4.380
 9749SOL     OW30145   2.324   2.009   5.087
 9749SOL    HW130146   2.276   1.930   5.124
 9749SOL    HW230147   2.325   2.004   4.987
 9750SOL     OW30148   5.027   5.107   3.633
 9750SOL    HW130149   4.977   5.182   3.591
 9750SOL    HW230150   5.121   5.106   3.597
 9751SOL     OW30151   1.936   1.678   0.722
 9751SOL    HW130152   1.872   1.622   0.774
 9751SOL    HW230153   1.886   1.739   0.661
 9752SOL     OW30154   4.648   0.782   0.253
 9752SOL    HW130155   4.649   0.856   0.321
 9752SOL    HW230156   4.654   0.821   0.162
 9753SOL     OW30157   5.921   5.598   4.882
 9753SOL    HW130158   5.922   5.516   4.941
 9753SOL    HW230159   5.833   5.603   4.836
 9754SOL     OW30160   0.829   1.824   0.175
 9754SOL    HW130161   0.880   1.742   0.149
 9754SOL    HW230162   0.790   1.812   0.266
 9755SOL     OW30163   4.303   3.248   5.301
 9755SOL    HW130164   4.229   3.211   5.358
 9755SOL    HW230165   4.339   3.176   5.242
 9756SOL     OW30166   6.360   3.371   0.346
 9756SOL    HW130167   6.419   3.291   0.353
 9756SOL    HW230168   6.398   3.435   0.279
 9757SOL     OW30169   5.562   3.146   3.110
 9757SOL    HW130170   5.513   3.085   3.048
 9757SOL    HW230171   5.550   3.241   3.080
 9758SOL     OW30172   1.861   6.608   6.439
 9758SOL    HW130173   1.859   6.693   6.387
 9758SOL    HW230174   1.950   6.563   6.427
 9759SOL     OW30175   2.346   6.903   0.002
 9759SOL    HW130176   2.252   6.880   6.998
 9759SOL    HW230177   2.343   6.958   0.086
 9760SOL     OW30178   4.740   3.599   5.512
 9760SOL    HW130179   4.705   3.583   5.420
 9760SOL    HW230180   4.785   3.688   5.516
 9761SOL     OW30181   6.044   6.336   2.107
 9761SOL    HW130182   6.036   6.349   2.008
 9761SOL    HW230183   5.996   6.252   2.133
 9762SOL     OW30184   2.473   2.321   5.004
 9762SOL    HW130185   2.380   2.353   5.024
 9762SOL    HW230186   2.537   2.395   5.022
 9763SOL     OW30187   4.178   2.425   1.838
 9763SOL    HW130188   4.243   2.352   1.862
 9763SOL    HW230189   4.093   2.384   1.805
 9764SOL     OW30190   0.896   2.457   2.667
 9764SOL    HW130191   0.803   2.442   2.699
 9764SOL    HW230192   0.961   2.420   2.734
 9765SOL     OW30193   6.281   2.171   3.758
 9765SOL    HW130194   6.359   2.232   3.774
 9765SOL    HW230195   6.308   2.077   3.778
 9766SOL     OW30196   2.359   0.671   2.805
 9766SOL    HW130197   2.428   0.599   2.794
 9766SOL    HW230198   2.269   0.628   2.814
 9767SOL     OW30199   5.163   2.023   5.269
 9767SOL    HW130200   5.208   2.026   5.180
 9767SOL    HW230201   5.126   1.931   5.285
 9768SOL     OW30202   4.548   1.749   2.133
 9768SOL    HW130203   4.549   1.841   2.092
 9768SOL    HW230204   4.608   1.747   2.213
 9769SOL     OW30205   1.869   1.543   2.046
 9769SOL    HW130206   1.876   1.512   1.952
 9769SOL    HW230207   1.922   1.483   2.106
 9770SOL     OW30208   5.811   0.125   6.954
 9770SOL    HW130209   5.725   0.174   6.963
 9770SOL    HW230210   5.793   0.027   6.944
 9771SOL     OW30211   3.876   4.592   1.400
 9771SOL    HW130212   3.813   4.617   1.474
 9771SOL    HW230213   3.950   4.659   1.396
 9772SOL     OW30214   0.846   6.248   2.081
 9772SOL    HW130215   0.809   6.323   2.027
 9772SOL    HW230216   0.897   6.186   2.022
 9773SOL     OW30217   5.322   6.632   4.144
 9773SOL    HW130218   5.390   6.618   4.071
 9773SOL    HW230219   5.249   6.691   4.110
 9774SOL     OW30220   6.063   5.133   2.365
 9774SOL    HW130221   5.983   5.180   2.326
 9774SOL    HW230222   6.068   5.041   2.327
 9775SOL     OW30223   2.842   1.405   4.099
 9775SOL    HW130224   2.780   1.334   4.067
 9775SOL    HW230225   2.808   1.495   4.071
 9776SOL     OW30226   6.812   5.805   4.647
 9776SOL    HW130227   6.814   5.796   4.547
 9776SOL    HW230228   6.904   5.790   4.683
 9777SOL     OW30229   5.549   4.919   6.368
 9777SOL    HW130230   5.468   4.881   6.322
 9777SOL    HW230231   5.630   4.902   6.312
 9778SOL     OW30232   6.592   0.606   3.954
 9778SOL    HW130233   6.500   0.572   3.934
 9778SOL    HW230234   6.593   0.706   3.944
 9779SOL     OW30235   2.709   1.898   4.746
 9779SOL    HW130236   2.660   1.969   4.795
 9779SOL    HW230237   2.768   1.848   4.810
 9780SOL     OW30238   2.376   1.824   1.002
 9780SOL    HW130239   2.418   1.896   0.948
 9780SOL    HW230240   2.285   1.803   0.966
 9781SOL     OW30241   1.888   3.782   3.670
 9781SOL    HW130242   1.820   3.799   3.741
 9781SOL    HW230243   1.843   3.743   3.590
 9782SOL     OW30244   0.089   0.660   1.625
 9782SOL    HW130245   0.072   0.733   1.559
 9782SOL    HW230246   0.186   0.656   1.647
 9783SOL     OW30247   4.672   1.510   1.679
 9783SOL    HW130248   4.622   1.538   1.761
 9783SOL    HW230249   4.611   1.513   1.600
 9784SOL     OW30250   5.006   1.056   4.025
 9784SOL    HW130251   5.061   0.973   4.014
 9784SOL    HW230252   4.937   1.059   3.952
 9785SOL     OW30253   0.083   4.080   4.752
 9785SOL    HW130254   0.136   4.013   4.699
 9785SOL    HW230255   0.007   4.034   4.797
 9786SOL     OW30256   1.902   5.048   6.222
 9786SOL    HW130257   1.824   5.110   6.214
 9786SOL    HW230258   1.897   5.001   6.311
 9787SOL     OW30259   5.540   4.017   1.064
 9787SOL    HW130260   5.588   3.975   1.141
 9787SOL    HW230261   5.493   3.947   1.010
 9788SOL     OW30262   0.350   0.489   3.932
 9788SOL    HW130263   0.305   0.474   3.844
 9788SOL    HW230264   0.449   0.495   3.918
 9789SOL     OW30265   2.430   5.976   6.480
 9789SOL    HW130266   2.460   5.883   6.459
 9789SOL    HW230267   2.387   5.977   6.571
 9790SOL     OW30268   5.564   3.533   5.296
 9790SOL    HW130269   5.523   3.456   5.344
 9790SOL    HW230270   5.604   3.596   5.363
 9791SOL     OW30271   0.750   0.734   2.992
 9791SOL    HW130272   0.752   0.657   3.056
 9791SOL    HW230273   0.746   0.698   2.898
 9792SOL     OW30274   5.028   5.172   1.483
 9792SOL    HW130275   5.042   5.092   1.542
 9792SOL    HW230276   4.935   5.207   1.495
 9793SOL     OW30277   5.817   6.008   3.085
 9793SOL    HW130278   5.871   5.961   3.016
 9793SOL    HW230279   5.813   5.953   3.168
 9794SOL     OW30280   6.141   3.770   6.575
 9794SOL    HW130281   6.047   3.798   6.556
 9794SOL    HW230282   6.204   3.834   6.530
 9795SOL     OW30283   1.391   2.363   3.887
 9795SOL    HW130284   1.418   2.411   3.803
 9795SOL    HW230285   1.465   2.370   3.954
 9796SOL     OW30286   3.358   3.899   0.731
 9796SOL    HW130287   3.320   3.987   0.701
 9796SOL    HW230288   3.305   3.864   0.808
 9797SOL     OW30289   3.877   3.872   6.934
 9797SOL    HW130290   3.963   3.859   6.884
 9797SOL    HW230291   3.860   3.970   6.946
 9798SOL     OW30292   2.296   0.571   0.568
 9798SOL    HW130293   2.260   0.499   0.509
 9798SOL    HW230294   2.278   0.550   0.664
 9799SOL     OW30295   3.100   3.473   2.703
 9799SOL    HW130296   3.150   3.559   2.711
 9799SOL    HW230297   3.151   3.400   2.750
 9800SOL     OW30298   3.808   5.863   5.758
 9800SOL    HW130299   3.758   5.838   5.841
 9800SOL    HW230300   3.839   5.958   5.765
 9801SOL     OW30301   4.250   4.967   0.120
 9801SOL    HW130302   4.291   4.884   0.157
 9801SOL    HW230303   4.310   5.045   0.135
 9802SOL     OW30304   6.964   2.616   2.159
 9802SOL    HW130305   6.974   2.619   2.259
 9802SOL    HW230306   6.887   2.558   2.135
 9803SOL     OW30307   6.258   0.821   6.921
 9803SOL    HW130308   6.158   0.827   6.914
 9803SOL    HW230309   6.285   0.725   6.919
 9804SOL     OW30310   0.206   5.505   3.583
 9804SOL    HW130311   0.258   5.424   3.558
 9804SOL    HW230312   0.144   5.529   3.509
 9805SOL     OW30313   1.161   5.762   6.920
 9805SOL    HW130314   1.152   5.846   6.867
 9805SOL    HW230315   1.107   5.769   7.004
 9806SOL     OW30316   0.910   2.113   1.222
 9806SOL    HW130317   0.975   2.169   1.272
 9806SOL    HW230318   0.880   2.037   1.280
 9807SOL     OW30319   2.796   2.738   0.248
 9807SOL    HW130320   2.895   2.749   0.238
 9807SOL    HW230321   2.766   2.657   0.197
 9808SOL     OW30322   5.597   0.654   5.671
 9808SOL    HW130323   5.552   0.610   5.748
 9808SOL    HW230324   5.692   0.623   5.667
 9809SOL     OW30325   0.341   1.903   6.013
 9809SOL    HW130326   0.336   1.863   5.921
 9809SOL    HW230327   0.384   1.837   6.075
 9810SOL     OW30328   2.715   2.343   3.188
 9810SOL    HW130329   2.740   2.303   3.276
 9810SOL    HW230330   2.777   2.420   3.169
 9811SOL     OW30331   5.731   5.750   3.785
 9811SOL    HW130332   5.790   5.695   3.843
 9811SOL    HW230333   5.761   5.742   3.690
 9812SOL     OW30334   3.837   2.356   6.577
 9812SOL    HW130335   3.790   2.326   6.494
 9812SOL    HW230336   3.770   2.375   6.648
 9813SOL     OW30337   5.831   5.952   6.957
 9813SOL    HW130338   5.787   5.949   6.868
 9813SOL    HW230339   5.931   5.949   6.946
 9814SOL     OW30340   0.269   0.632   5.951
 9814SOL    HW130341   0.294   0.713   5.897
 9814SOL    HW230342   0.197   0.581   5.903
 9815SOL     OW30343   6.840   1.968   1.425
 9815SOL    HW130344   6.910   2.036   1.405
 9815SOL    HW230345   6.804   1.931   1.339
 9816SOL     OW30346   6.711   1.001   6.742
 9816SOL    HW130347   6.727   0.972   6.648
 9816SOL    HW230348   6.640   1.072   6.743
 9817SOL     OW30349   2.910   5.776   1.743
 9817SOL    HW130350   2.945   5.834   1.817
 9817SOL    HW230351   2.948   5.806   1.656
 9818SOL     OW30352   1.741   1.292   3.733
 9818SOL    HW130353   1.774   1.381   3.764
 9818SOL    HW230354   1.797   1.261   3.656
 9819SOL     OW30355   5.472   3.789   4.919
 9819SOL    HW130356   5.384   3.743   4.908
 9819SOL    HW230357   5.523   3.744   4.993
 9820SOL     OW30358   2.918   2.118   6.617
 9820SOL    HW130359   2.894   2.160   6.705
 9820SOL    HW230360   2.893   2.021   6.618
 9821SOL     OW30361   4.173   2.179   1.224
 9821SOL    HW130362   4.093   2.122   1.240
 9821SOL    HW230363   4.230   2.181   1.306
 9822SOL     OW30364   3.949   6.137   4.208
 9822SOL    HW130365   3.875   6.186   4.252
 9822SOL    HW230366   4.033   6.146   4.262
 9823SOL     OW30367   1.441   0.679   2.346
 9823SOL    HW130368   1.480   0.755   2.294
 9823SOL    HW230369   1.453   0.696   2.444
 9824SOL     OW30370   2.756   5.885   5.684
 9824SOL    HW130371   2.741   5.957   5.615
 9824SOL    HW230372   2.675   5.826   5.689
 9825SOL     OW30373   5.610   5.683   5.030
 9825SOL    HW130374   5.531   5.668   5.089
 9825SOL    HW230375   5.670   5.752   5.071
 9826SOL     OW30376   3.591   6.448   5.568
 9826SOL    HW130377   3.541   6.379   5.620
 9826SOL    HW230378   3.558   6.450   5.474
 9827SOL     OW30379   2.223   5.252   2.689
 9827SOL    HW130380   2.159   5.200   2.746
 9827SOL    HW230381   2.314   5.210   2.694
 9828SOL     OW30382   3.670   2.118   4.687
 9828SOL    HW130383   3.571   2.117   4.676
 9828SOL    HW230384   3.714   2.112   4.597
 9829SOL     OW30385   5.291   6.686   6.204
 9829SOL    HW130386   5.302   6.749   6.127
 9829SOL    HW230387   5.207   6.708   6.254
 9830SOL     OW30388   5.519   1.243   2.422
 9830SOL    HW130389   5.491   1.248   2.518
 9830SOL    HW230390   5.531   1.147   2.396
 9831SOL     OW30391   0.391   4.465   1.837
 9831SOL    HW130392   0.322   4.502   1.775
 9831SOL    HW230393   0.352   4.389   1.888
 9832SOL     OW30394   4.886   5.089   4.371
 9832SOL    HW130395   4.804   5.044   4.408
 9832SOL    HW230396   4.965   5.030   4.383
 9833SOL     OW30397   3.257   4.141   3.683
 9833SOL    HW130398   3.327   4.138   3.612
 9833SOL    HW230399   3.226   4.235   3.696
 9834SOL     OW30400   2.337   5.178   5.568
 9834SOL    HW130401   2.271   5.115   5.610
 9834SOL    HW230402   2.421   5.128   5.548
 9835SOL     OW30403   3.908   4.005   4.060
 9835SOL    HW130404   3.982   3.940   4.042
 9835SOL    HW230405   3.898   4.017   4.159
 9836SOL     OW30406   0.886   4.476   5.370
 9836SOL    HW130407   0.960   4.460   5.305
 9836SOL    HW230408   0.925   4.499   5.459
 9837SOL     OW30409   5.582   2.015   2.184
 9837SOL    HW130410   5.679   2.040   2.177
 9837SOL    HW230411   5.532   2.055   2.107
 9838SOL     OW30412   1.341   6.502   0.769
 9838SOL    HW130413   1.420   6.450   0.737
 9838SOL    HW230414   1.311   6.565   0.697
 9839SOL     OW30415   4.859   0.993   3.784
 9839SOL    HW130416   4.762   1.015   3.797
 9839SOL    HW230417   4.868   0.911   3.728
 9840SOL     OW30418   4.791   1.298   0.137
 9840SOL    HW130419   4.731   1.315   0.215
 9840SOL    HW230420   4.884   1.326   0.160
 9841SOL     OW30421   0.339   5.289   3.504
 9841SOL    HW130422   0.419   5.267   3.559
 9841SOL    HW230423   0.302   5.204   3.464
 9842SOL     OW30424   3.802   3.282   0.558
 9842SOL    HW130425   3.798   3.349   0.632
 9842SOL    HW230426   3.710   3.254   0.532
 9843SOL     OW30427   6.384   0.294   1.866
 9843SOL    HW130428   6.439   0.375   1.848
 9843SOL    HW230429   6.319   0.313   1.940
 9844SOL     OW30430   5.816   0.402   4.606
 9844SOL    HW130431   5.898   0.400   4.549
 9844SOL    HW230432   5.746   0.343   4.567
 9845SOL     OW30433   1.252   2.537   2.594
 9845SOL    HW130434   1.312   2.557   2.672
 9845SOL    HW230435   1.200   2.619   2.570
 9846SOL     OW30436   4.799   1.698   0.979
 9846SOL    HW130437   4.862   1.769   1.008
 9846SOL    HW230438   4.808   1.618   1.039
 9847SOL     OW30439   3.744   3.096   2.018
 9847SOL    HW130440   3.843   3.099   2.007
 9847SOL    HW230441   3.700   3.114   1.930
 9848SOL     OW30442   3.327   4.077   5.536
 9848SOL    HW130443   3.241   4.036   5.506
 9848SOL    HW230444   3.403   4.018   5.508
 9849SOL     OW30445   1.031   0.393   6.667
 9849SOL    HW130446   0.968   0.317   6.686
 9849SOL    HW230447   0.984   0.462   6.613
 9850SOL     OW30448   0.148   0.273   4.273
 9850SOL    HW130449   0.214   0.341   4.241
 9850SOL    HW230450   0.109   0.302   4.360
 9851SOL     OW30451   2.858   5.522   4.802
 9851SOL    HW130452   2.853   5.613   4.760
 9851SOL    HW230453   2.953   5.491   4.802
 9852SOL     OW30454   1.007   2.211   6.008
 9852SOL    HW130455   0.957   2.244   6.087
 9852SOL    HW230456   1.048   2.122   6.029
 9853SOL     OW30457   0.124   4.047   5.086
 9853SOL    HW130458   0.187   3.982   5.043
 9853SOL    HW230459   0.071   4.000   5.157
 9854SOL     OW30460   1.069   5.645   5.482
 9854SOL    HW130461   1.096   5.572   5.545
 9854SOL    HW230462   1.103   5.624   5.390
 9855SOL     OW30463   0.846   3.359   0.995
 9855SOL    HW130464   0.824   3.367   1.092
 9855SOL    HW230465   0.763   3.373   0.941
 9856SOL     OW30466   5.610   4.971   4.037
 9856SOL    HW130467   5.646   4.878   4.039
 9856SOL    HW230468   5.641   5.021   4.118
 9857SOL     OW30469   5.629   2.902   3.242
 9857SOL    HW130470   5.673   2.850   3.169
 9857SOL    HW230471   5.591   2.987   3.204
 9858SOL     OW30472   1.362   6.576   2.159
 9858SOL    HW130473   1.442   6.617   2.204
 9858SOL    HW230474   1.287   6.568   2.225
 9859SOL     OW30475   6.888   5.165   5.014
 9859SOL    HW130476   6.971   5.130   4.970
 9859SOL    HW230477   6.912   5.213   5.098
 9860SOL     OW30478   1.931   2.411   5.097
 9860SOL    HW130479   1.831   2.414   5.098
 9860SOL    HW230480   1.963   2.363   5.179
 9861SOL     OW30481   3.404   1.154   3.710
 9861SOL    HW130482   3.429   1.060   3.732
 9861SOL    HW230483   3.308   1.158   3.683
 9862SOL     OW30484   2.469   4.209   1.328
 9862SOL    HW130485   2.460   4.148   1.407
 9862SOL    HW230486   2.390   4.269   1.323
 9863SOL     OW30487   3.246   5.621   0.993
 9863SOL    HW130488   3.319   5.619   1.061
 9863SOL    HW230489   3.237   5.531   0.952
 9864SOL     OW30490   2.945   6.832   5.373
 9864SOL    HW130491   3.030   6.843   5.322
 9864SOL    HW230492   2.882   6.774   5.320
 9865SOL     OW30493   0.269   0.162   5.279
 9865SOL    HW130494   0.321   0.088   5.322
 9865SOL    HW230495   0.176   0.132   5.259
 9866SOL     OW30496   5.824   4.501   4.740
 9866SOL    HW130497   5.852   4.434   4.672
 9866SOL    HW230498   5.843   4.465   4.832
 9867SOL     OW30499   4.734   2.342   2.771
 9867SOL    HW130500   4.820   2.370   2.728
 9867SOL    HW230501   4.724   2.388   2.859
 9868SOL     OW30502   0.922   4.035   3.371
 9868SOL    HW130503   0.898   4.039   3.274
 9868SOL    HW230504   1.016   4.002   3.381
 9869SOL     OW30505   0.663   2.542   1.230
 9869SOL    HW130506   0.627   2.523   1.321
 9869SOL    HW230507   0.684   2.456   1.184
 9870SOL     OW30508   4.130   1.275   1.971
 9870SOL    HW130509   4.160   1.265   2.066
 9870SOL    HW230510   4.099   1.187   1.936
 9871SOL     OW30511   6.567   2.868   5.708
 9871SOL    HW130512   6.632   2.852   5.783
 9871SOL    HW230513   6.613   2.918   5.635
 9872SOL     OW30514   2.319   5.570   5.229
 9872SOL    HW130515   2.309   5.471   5.215
 9872SOL    HW230516   2.382   5.586   5.305
 9873SOL     OW30517   1.561   2.340   5.512
 9873SOL    HW130518   1.461   2.346   5.510
 9873SOL    HW230519   1.589   2.244   5.513
 9874SOL     OW30520   1.059   2.787   4.366
 9874SOL    HW130521   0.973   2.736   4.372
 9874SOL    HW230522   1.039   2.884   4.354
 9875SOL     OW30523   0.726   6.326   1.276
 9875SOL    HW130524   0.677   6.411   1.257
 9875SOL    HW230525   0.717   6.265   1.196
 9876SOL     OW30526   3.383   0.310   3.724
 9876SOL    HW130527   3.421   0.218   3.713
 9876SOL    HW230528   3.365   0.326   3.821
 9877SOL     OW30529   6.861   4.354   4.071
 9877SOL    HW130530   6.958   4.335   4.085
 9877SOL    HW230531   6.850   4.447   4.036
 9878SOL     OW30532   2.014   2.821   6.833
 9878SOL    HW130533   1.986   2.797   6.926
 9878SOL    HW230534   2.061   2.909   6.833
 9879SOL     OW30535   1.321   4.462   5.539
 9879SOL    HW130536   1.413   4.486   5.570
 9879SOL    HW230537   1.275   4.544   5.505
 9880SOL     OW30538   2.676   0.815   6.596
 9880SOL    HW130539   2.602   0.796   6.660
 9880SOL    HW230540   2.640   0.855   6.512
 9881SOL     OW30541   5.490   0.532   4.615
 9881SOL    HW130542   5.463   0.440   4.589
 9881SOL    HW230543   5.558   0.528   4.688
 9882SOL     OW30544   4.056   3.358   4.533
 9882SOL    HW130545   4.118   3.419   4.483
 9882SOL    HW230546   4.052   3.270   4.487
 9883SOL     OW30547   1.828   5.769   1.899
 9883SOL    HW130548   1.844   5.866   1.913
 9883SOL    HW230549   1.903   5.716   1.941
 9884SOL     OW30550   1.523   3.241   6.910
 9884SOL    HW130551   1.487   3.330   6.885
 9884SOL    HW230552   1.606   3.222   6.857
 9885SOL     OW30553   0.149   2.867   3.794
 9885SOL    HW130554   0.107   2.849   3.883
 9885SOL    HW230555   0.247   2.851   3.801
 9886SOL     OW30556   5.773   6.040   1.701
 9886SOL    HW130557   5.825   5.990   1.632
 9886SOL    HW230558   5.724   6.115   1.657
 9887SOL     OW30559   4.412   6.756   0.392
 9887SOL    HW130560   4.410   6.836   0.452
 9887SOL    HW230561   4.380   6.676   0.443
 9888SOL     OW30562   5.547   5.823   2.728
 9888SOL    HW130563   5.599   5.767   2.791
 9888SOL    HW230564   5.591   5.912   2.717
 9889SOL     OW30565   6.933   4.888   3.099
 9889SOL    HW130566   6.972   4.853   3.185
 9889SOL    HW230567   6.834   4.880   3.102
 9890SOL     OW30568   6.284   2.456   0.559
 9890SOL    HW130569   6.352   2.382   0.559
 9890SOL    HW230570   6.207   2.431   0.617
 9891SOL     OW30571   5.207   5.035   1.127
 9891SOL    HW130572   5.119   5.074   1.155
 9891SOL    HW230573   5.222   5.053   1.030
 9892SOL     OW30574   2.407   4.721   3.810
 9892SOL    HW130575   2.425   4.647   3.746
 9892SOL    HW230576   2.490   4.775   3.822
 9893SOL     OW30577   6.147   6.144   2.756
 9893SOL    HW130578   6.196   6.175   2.675
 9893SOL    HW230579   6.048   6.143   2.738
 9894SOL     OW30580   3.836   1.843   6.060
 9894SOL    HW130581   3.807   1.830   6.155
 9894SOL    HW230582   3.777   1.910   6.016
 9895SOL     OW30583   5.537   2.164   6.530
 9895SOL    HW130584   5.449   2.210   6.537
 9895SOL    HW230585   5.579   2.158   6.621
 9896SOL     OW30586   4.044   3.284   1.013
 9896SOL    HW130587   4.021   3.381   1.000
 9896SOL    HW230588   3.960   3.230   1.017
 9897SOL     OW30589   5.039   1.562   2.966
 9897SOL    HW130590   4.941   1.581   2.961
 9897SOL    HW230591   5.063   1.534   3.059
 9898SOL     OW30592   1.112   4.705   5.356
 9898SOL    HW130593   1.073   4.670   5.271
 9898SOL    HW230594   1.066   4.660   5.433
 9899SOL     OW30595   5.557   4.623   2.313
 9899SOL    HW130596   5.537   4.721   2.326
 9899SOL    HW230597   5.486   4.569   2.359
 9900SOL     OW30598   1.517   2.078   3.520
 9900SOL    HW130599   1.546   1.993   3.474
 9900SOL    HW230600   1.594   2.115   3.572
 9901SOL     OW30601   1.812   1.837   6.124
 9901SOL    HW130602   1.872   1.823   6.045
 9901SOL    HW230603   1.866   1.865   6.203
 9902SOL     OW30604   3.767   3.461   0.757
 9902SOL    HW130605   3.738   3.488   0.848
 9902SOL    HW230606   3.850   3.511   0.731
 9903SOL     OW30607   4.751   0.985   2.384
 9903SOL    HW130608   4.840   0.969   2.427
 9903SOL    HW230609   4.678   0.957   2.446
 9904SOL     OW30610   6.558   3.211   6.988
 9904SOL    HW130611   6.526   3.300   6.957
 9904SOL    HW230612   6.496   3.140   6.954
 9905SOL     OW30613   1.136   6.352   6.914
 9905SOL    HW130614   1.049   6.305   6.900
 9905SOL    HW230615   1.156   6.411   6.836
 9906SOL     OW30616   1.643   3.068   6.271
 9906SOL    HW130617   1.732   3.095   6.236
 9906SOL    HW230618   1.605   2.996   6.212
 9907SOL     OW30619   2.938   5.911   3.405
 9907SOL    HW130620   2.877   5.832   3.410
 9907SOL    HW230621   2.960   5.942   3.498
 9908SOL     OW30622   0.613   3.330   6.224
 9908SOL    HW130623   0.622   3.417   6.177
 9908SOL    HW230624   0.536   3.279   6.186
 9909SOL     OW30625   2.463   1.165   3.053
 9909SOL    HW130626   2.415   1.077   3.049
 9909SOL    HW230627   2.544   1.161   2.994
 9910SOL     OW30628   0.514   4.951   1.035
 9910SOL    HW130629   0.473   5.042   1.044
 9910SOL    HW230630   0.597   4.958   0.981
 9911SOL     OW30631   5.144   5.115   2.475
 9911SOL    HW130632   5.116   5.032   2.426
 9911SOL    HW230633   5.066   5.152   2.526
 9912SOL     OW30634   4.169   0.818   2.439
 9912SOL    HW130635   4.084   0.846   2.396
 9912SOL    HW230636   4.246   0.866   2.396
 9913SOL     OW30637   5.497   2.895   2.241
 9913SOL    HW130638   5.547   2.814   2.272
 9913SOL    HW230639   5.399   2.879   2.250
 9914SOL     OW30640   1.634   0.768   5.553
 9914SOL    HW130641   1.697   0.690   5.562
 9914SOL    HW230642   1.682   0.843   5.508
 9915SOL     OW30643   5.462   3.695   4.019
 9915SOL    HW130644   5.506   3.766   3.964
 9915SOL    HW230645   5.533   3.637   4.061
 9916SOL     OW30646   2.118   3.353   2.760
 9916SOL    HW130647   2.112   3.339   2.859
 9916SOL    HW230648   2.153   3.445   2.741
 9917SOL     OW30649   3.286   3.871   4.923
 9917SOL    HW130650   3.253   3.832   4.837
 9917SOL    HW230651   3.208   3.894   4.981
 9918SOL     OW30652   1.885   1.529   6.054
 9918SOL    HW130653   1.854   1.618   6.086
 9918SOL    HW230654   1.837   1.457   6.106
 9919SOL     OW30655   1.324   5.621   2.694
 9919SOL    HW130656   1.277   5.576   2.619
 9919SOL    HW230657   1.384   5.693   2.658
 9920SOL     OW30658   3.776   6.881   1.851
 9920SOL    HW130659   3.799   6.977   1.861
 9920SOL    HW230660   3.854   6.831   1.814
 9921SOL     OW30661   5.873   6.956   3.217
 9921SOL    HW130662   5.915   6.946   3.127
 9921SOL    HW230663   5.933   7.011   3.276
 9922SOL     OW30664   4.682   4.762   1.021
 9922SOL    HW130665   4.640   4.701   1.088
 9922SOL    HW230666   4.611   4.794   0.957
 9923SOL     OW30667   6.319   2.501   6.541
 9923SOL    HW130668   6.336   2.535   6.449
 9923SOL    HW230669   6.234   2.541   6.576
 9924SOL     OW30670   5.741   1.294   2.230
 9924SOL    HW130671   5.731   1.387   2.195
 9924SOL    HW230672   5.661   1.270   2.285
 9925SOL     OW30673   2.333   3.542   5.642
 9925SOL    HW130674   2.334   3.576   5.736
 9925SOL    HW230675   2.310   3.616   5.579
 9926SOL     OW30676   2.592   1.632   1.068
 9926SOL    HW130677   2.687   1.623   1.037
 9926SOL    HW230678   2.544   1.697   1.009
 9927SOL     OW30679   1.106   1.790   2.449
 9927SOL    HW130680   1.158   1.705   2.458
 9927SOL    HW230681   1.047   1.801   2.530
 9928SOL     OW30682   0.099   4.479   1.677
 9928SOL    HW130683   0.145   4.553   1.628
 9928SOL    HW230684   0.020   4.515   1.726
 9929SOL     OW30685   3.457   4.313   5.476
 9929SOL    HW130686   3.408   4.232   5.508
 9929SOL    HW230687   3.393   4.372   5.427
 9930SOL     OW30688   7.021   0.540   5.863
 9930SOL    HW130689   7.000   0.444   5.849
 9930SOL    HW230690   6.963   0.596   5.802
 9931SOL     OW30691   0.840   6.572   4.636
 9931SOL    HW130692   0.842   6.658   4.585
 9931SOL    HW230693   0.853   6.591   4.733
 9932SOL     OW30694   1.921   2.142   0.512
 9932SOL    HW130695   1.971   2.089   0.443
 9932SOL    HW230696   1.893   2.230   0.473
 9933SOL     OW30697   2.462   0.379   3.879
 9933SOL    HW130698   2.468   0.297   3.822
 9933SOL    HW230699   2.552   0.422   3.886
 9934SOL     OW30700   6.134   1.215   6.903
 9934SOL    HW130701   6.158   1.306   6.938
 9934SOL    HW230702   6.044   1.189   6.936
 9935SOL     OW30703   2.931   2.439   0.724
 9935SOL    HW130704   2.979   2.361   0.764
 9935SOL    HW230705   2.860   2.471   0.786
 9936SOL     OW30706   5.330   4.909   5.824
 9936SOL    HW130707   5.327   5.000   5.865
 9936SOL    HW230708   5.371   4.915   5.733
 9937SOL     OW30709   0.218   0.326   2.577
 9937SOL    HW130710   0.166   0.241   2.573
 9937SOL    HW230711   0.305   0.314   2.529
 9938SOL     OW30712   5.987   1.317   4.706
 9938SOL    HW130713   6.058   1.386   4.723
 9938SOL    HW230714   5.931   1.307   4.788
 9939SOL     OW30715   1.878   3.486   0.803
 9939SOL    HW130716   1.808   3.534   0.856
 9939SOL    HW230717   1.968   3.513   0.836
 9940SOL     OW30718   6.712   0.173   3.154
 9940SOL    HW130719   6.796   0.145   3.108
 9940SOL    HW230720   6.721   0.268   3.184
 9941SOL     OW30721   3.660   5.369   5.810
 9941SOL    HW130722   3.690   5.276   5.832
 9941SOL    HW230723   3.727   5.435   5.844
 9942SOL     OW30724   5.258   5.165   2.746
 9942SOL    HW130725   5.267   5.105   2.666
 9942SOL    HW230726   5.181   5.135   2.802
 9943SOL     OW30727   1.601   3.966   6.062
 9943SOL    HW130728   1.625   3.898   6.132
 9943SOL    HW230729   1.526   3.931   6.007
 9944SOL     OW30730   1.339   5.364   6.302
 9944SOL    HW130731   1.434   5.335   6.316
 9944SOL    HW230732   1.286   5.346   6.385
 9945SOL     OW30733   6.537   3.770   6.486
 9945SOL    HW130734   6.487   3.854   6.466
 9945SOL    HW230735   6.601   3.751   6.412
 9946SOL     OW30736   5.780   0.755   3.156
 9946SOL    HW130737   5.767   0.827   3.224
 9946SOL    HW230738   5.862   0.702   3.178
 9947SOL     OW30739   1.016   2.234   4.193
 9947SOL    HW130740   1.101   2.229   4.245
 9947SOL    HW230741   0.954   2.162   4.225
 9948SOL     OW30742   6.836   6.771   4.880
 9948SOL    HW130743   6.873   6.736   4.794
 9948SOL    HW230744   6.750   6.818   4.863
 9949SOL     OW30745   6.776   4.420   4.686
 9949SOL    HW130746   6.733   4.331   4.702
 9949SOL    HW230747   6.755   4.481   4.763
 9950SOL     OW30748   6.157   4.629   6.600
 9950SOL    HW130749   6.247   4.615   6.559
 9950SOL    HW230750   6.086   4.606   6.533
 9951SOL     OW30751   1.681   3.211   2.298
 9951SOL    HW130752   1.663   3.231   2.394
 9951SOL    HW230753   1.612   3.256   2.242
 9952SOL     OW30754   0.595   3.850   1.482
 9952SOL    HW130755   0.639   3.797   1.555
 9952SOL    HW230756   0.551   3.930   1.522
 9953SOL     OW30757   6.359   2.816   3.411
 9953SOL    HW130758   6.297   2.886   3.446
 9953SOL    HW230759   6.453   2.837   3.441
 9954SOL     OW30760   2.886   1.602   5.370
 9954SOL    HW130761   2.839   1.676   5.322
 9954SOL    HW230762   2.959   1.640   5.427
 9955SOL     OW30763   4.451   3.503   0.563
 9955SOL    HW130764   4.542   3.497   0.520
 9955SOL    HW230765   4.384   3.456   0.506
 9956SOL     OW30766   0.762   4.050   2.519
 9956SOL    HW130767   0.796   4.132   2.473
 9956SOL    HW230768   0.838   3.987   2.535
 9957SOL     OW30769   5.699   0.189   1.474
 9957SOL    HW130770   5.614   0.203   1.424
 9957SOL    HW230771   5.765   0.141   1.416
 9958SOL     OW30772   3.880   4.957   6.376
 9958SOL    HW130773   3.849   4.913   6.292
 9958SOL    HW230774   3.891   5.055   6.361
 9959SOL     OW30775   4.691   3.634   1.543
 9959SOL    HW130776   4.637   3.576   1.605
 9959SOL    HW230777   4.711   3.583   1.460
 9960SOL     OW30778   6.159   6.967   1.564
 9960SOL    HW130779   6.105   0.020   1.598
 9960SOL    HW230780   6.255   6.993   1.559
 9961SOL     OW30781   1.252   4.334   1.593
 9961SOL    HW130782   1.245   4.431   1.571
 9961SOL    HW230783   1.228   4.280   1.513
 9962SOL     OW30784   3.770   6.612   2.048
 9962SOL    HW130785   3.755   6.650   2.139
 9962SOL    HW230786   3.714   6.530   2.037
 9963SOL     OW30787   2.829   2.358   0.271
 9963SOL    HW130788   2.853   2.263   0.289
 9963SOL    HW230789   2.862   2.416   0.345
 9964SOL     OW30790   4.671   4.534   5.252
 9964SOL    HW130791   4.706   4.446   5.284
 9964SOL    HW230792   4.748   4.594   5.229
 9965SOL     OW30793   3.407   5.931   4.989
 9965SOL    HW130794   3.323   5.877   4.977
 9965SOL    HW230795   3.483   5.869   5.008
 9966SOL     OW30796   2.947   4.889   2.326
 9966SOL    HW130797   2.966   4.835   2.244
 9966SOL    HW230798   3.012   4.865   2.398
 9967SOL     OW30799   6.158   6.395   2.364
 9967SOL    HW130800   6.118   6.391   2.273
 9967SOL    HW230801   6.095   6.442   2.426
 9968SOL     OW30802   4.524   5.831   0.004
 9968SOL    HW130803   4.588   5.902   0.030
 9968SOL    HW230804   4.454   5.869   6.967
 9969SOL     OW30805   1.143   4.236   4.365
 9969SOL    HW130806   1.210   4.184   4.419
 9969SOL    HW230807   1.191   4.298   4.303
 9970SOL     OW30808   5.336   5.210   1.544
 9970SOL    HW130809   5.250   5.167   1.515
 9970SOL    HW230810   5.401   5.209   1.468
 9971SOL     OW30811   1.310   2.917   0.990
 9971SOL    HW130812   1.337   2.842   1.050
 9971SOL    HW230813   1.391   2.967   0.960
 9972SOL     OW30814   3.231   4.190   1.241
 9972SOL    HW130815   3.219   4.140   1.327
 9972SOL    HW230816   3.151   4.247   1.224
 9973SOL     OW30817   4.632   2.669   4.903
 9973SOL    HW130818   4.579   2.596   4.947
 9973SOL    HW230819   4.712   2.629   4.858
 9974SOL     OW30820   6.551   2.342   3.388
 9974SOL    HW130821   6.495   2.425   3.384
 9974SOL    HW230822   6.497   2.263   3.359
 9975SOL     OW30823   0.993   5.289   6.663
 9975SOL    HW130824   0.914   5.312   6.720
 9975SOL    HW230825   0.984   5.333   6.574
 9976SOL     OW30826   1.059   5.057   5.783
 9976SOL    HW130827   1.088   4.962   5.788
 9976SOL    HW230828   1.036   5.080   5.688
 9977SOL     OW30829   5.244   5.445   5.464
 9977SOL    HW130830   5.191   5.377   5.413
 9977SOL    HW230831   5.322   5.400   5.507
 9978SOL     OW30832   0.266   2.186   5.953
 9978SOL    HW130833   0.364   2.194   5.936
 9978SOL    HW230834   0.217   2.251   5.895
 9979SOL     OW30835   5.494   3.950   5.890
 9979SOL    HW130836   5.512   4.023   5.956
 9979SOL    HW230837   5.440   3.878   5.934
 9980SOL     OW30838   1.928   1.078   0.445
 9980SOL    HW130839   1.964   1.170   0.458
 9980SOL    HW230840   1.838   1.083   0.401
 9981SOL     OW30841   1.608   2.231   0.831
 9981SOL    HW130842   1.532   2.209   0.892
 9981SOL    HW230843   1.692   2.188   0.865
 9982SOL     OW30844   2.082   1.331   4.428
 9982SOL    HW130845   1.996   1.373   4.401
 9982SOL    HW230846   2.148   1.402   4.453
 9983SOL     OW30847   6.373   2.896   2.613
 9983SOL    HW130848   6.316   2.814   2.624
 9983SOL    HW230849   6.363   2.930   2.519
 9984SOL     OW30850   0.190   5.683   0.991
 9984SOL    HW130851   0.118   5.750   1.005
 9984SOL    HW230852   0.279   5.729   0.994
 9985SOL     OW30853   2.915   5.618   1.027
 9985SOL    HW130854   2.966   5.602   1.112
 9985SOL    HW230855   2.953   5.698   0.981
 9986SOL     OW30856   6.058   4.435   0.826
 9986SOL    HW130857   6.089   4.371   0.756
 9986SOL    HW230858   5.999   4.504   0.785
 9987SOL     OW30859   5.271   3.347   1.991
 9987SOL    HW130860   5.328   3.424   2.020
 9987SOL    HW230861   5.291   3.326   1.895
 9988SOL     OW30862   6.987   5.585   4.407
 9988SOL    HW130863   6.903   5.604   4.357
 9988SOL    HW230864   6.966   5.564   4.503
 9989SOL     OW30865   6.214   3.573   2.038
 9989SOL    HW130866   6.163   3.490   2.014
 9989SOL    HW230867   6.306   3.548   2.067
 9990SOL     OW30868   1.041   6.375   3.517
 9990SOL    HW130869   1.115   6.326   3.563
 9990SOL    HW230870   1.013   6.453   3.573
 9991SOL     OW30871   1.614   3.559   3.691
 9991SOL    HW130872   1.594   3.496   3.765
 9991SOL    HW230873   1.673   3.514   3.623
 9992SOL     OW30874   3.502   3.875   1.065
 9992SOL    HW130875   3.490   3.832   1.154
 9992SOL    HW230876   3.512   3.804   0.995
 9993SOL     OW30877   2.893   6.024   3.975
 9993SOL    HW130878   2.871   6.121   3.962
 9993SOL    HW230879   2.835   5.969   3.915
 9994SOL     OW30880   6.682   4.180   3.185
 9994SOL    HW130881   6.753   4.124   3.228
 9994SOL    HW230882   6.658   4.256   3.245
 9995SOL     OW30883   2.917   0.896   3.452
 9995SOL    HW130884   2.962   0.866   3.536
 9995SOL    HW230885   2.882   0.989   3.465
 9996SOL     OW30886   3.154   3.818   0.905
 9996SOL    HW130887   3.062   3.811   0.942
 9996SOL    HW230888   3.213   3.750   0.949
 9997SOL     OW30889   4.823   1.551   3.413
 9997SOL    HW130890   4.818   1.643   3.375
 9997SOL    HW230891   4.876   1.493   3.352
 9998SOL     OW30892   4.898   3.729   2.750
 9998SOL    HW130893   4.860   3.822   2.745
 9998SOL    HW230894   4.987   3.727   2.705
 9999SOL     OW30895   0.272   6.922   3.954
 9999SOL    HW130896   0.257   7.012   3.994
 9999SOL    HW230897   0.317   6.862   4.020
10000SOL     OW30898   5.820   1.485   1.649
10000SOL    HW130899   5.818   1.560   1.715
10000SOL    HW230900   5.756   1.414   1.678
10001SOL     OW30901   3.384   6.380   2.492
10001SOL    HW130902   3.393   6.450   2.563
10001SOL    HW230903   3.468   6.377   2.437
10002SOL     OW30904   2.674   1.432   1.368
10002SOL    HW130905   2.758   1.486   1.375
10002SOL    HW230906   2.610   1.477   1.307
10003SOL     OW30907   3.262   1.741   2.352
10003SOL    HW130908   3.251   1.837   2.378
10003SOL    HW230909   3.339   1.732   2.289
10004SOL     OW30910   5.245   4.245   4.766
10004SOL    HW130911   5.160   4.286   4.801
10004SOL    HW230912   5.292   4.198   4.841
10005SOL     OW30913   3.277   5.141   2.599
10005SOL    HW130914   3.271   5.043   2.619
10005SOL    HW230915   3.350   5.181   2.655
10006SOL     OW30916   5.273   0.462   5.197
10006SOL    HW130917   5.323   0.481   5.282
10006SOL    HW230918   5.178   0.491   5.207
10007SOL     OW30919   0.595   3.590   4.541
10007SOL    HW130920   0.673   3.652   4.546
10007SOL    HW230921   0.515   3.634   4.580
10008SOL     OW30922   4.742   1.759   3.643
10008SOL    HW130923   4.686   1.691   3.595
10008SOL    HW230924   4.838   1.731   3.640
10009SOL     OW30925   1.726   4.270   1.249
10009SOL    HW130926   1.797   4.201   1.260
10009SOL    HW230927   1.732   4.336   1.324
10010SOL     OW30928   2.939   5.662   6.783
10010SOL    HW130929   2.966   5.595   6.853
10010SOL    HW230930   2.998   5.653   6.703
10011SOL     OW30931   0.237   3.976   6.822
10011SOL    HW130932   0.263   4.055   6.766
10011SOL    HW230933   0.179   3.915   6.769
10012SOL     OW30934   4.845   0.248   2.568
10012SOL    HW130935   4.797   0.267   2.482
10012SOL    HW230936   4.857   0.333   2.619
10013SOL     OW30937   0.954   4.110   3.661
10013SOL    HW130938   0.950   4.056   3.577
10013SOL    HW230939   0.975   4.050   3.738
10014SOL     OW30940   1.614   6.690   2.285
10014SOL    HW130941   1.586   6.753   2.358
10014SOL    HW230942   1.653   6.743   2.210
10015SOL     OW30943   4.016   5.110   0.354
10015SOL    HW130944   3.959   5.159   0.288
10015SOL    HW230945   4.004   5.150   0.444
10016SOL     OW30946   2.653   1.425   4.831
10016SOL    HW130947   2.726   1.415   4.763
10016SOL    HW230948   2.687   1.480   4.908
10017SOL     OW30949   1.663   1.155   3.435
10017SOL    HW130950   1.588   1.131   3.496
10017SOL    HW230951   1.647   1.114   3.345
10018SOL     OW30952   6.583   4.299   5.330
10018SOL    HW130953   6.488   4.273   5.349
10018SOL    HW230954   6.632   4.219   5.294
10019SOL     OW30955   0.492   1.226   3.193
10019SOL    HW130956   0.424   1.254   3.127
10019SOL    HW230957   0.543   1.306   3.225
10020SOL     OW30958   0.569   0.823   2.361
10020SOL    HW130959   0.617   0.795   2.278
10020SOL    HW230960   0.482   0.867   2.336
10021SOL     OW30961   0.784   3.068   2.289
10021SOL    HW130962   0.761   3.098   2.381
10021SOL    HW230963   0.809   2.971   2.291
10022SOL     OW30964   2.547   5.277   0.256
10022SOL    HW130965   2.560   5.182   0.284
10022SOL    HW230966   2.517   5.331   0.334
10023SOL     OW30967   2.874   5.491   5.485
10023SOL    HW130968   2.787   5.483   5.436
10023SOL    HW230969   2.856   5.494   5.584
10024SOL     OW30970   0.758   5.123   3.210
10024SOL    HW130971   0.748   5.182   3.290
10024SOL    HW230972   0.716   5.034   3.228
10025SOL     OW30973   1.397   2.791   2.420
10025SOL    HW130974   1.433   2.762   2.509
10025SOL    HW230975   1.299   2.774   2.416
10026SOL     OW30976   5.014   0.125   3.539
10026SOL    HW130977   4.964   0.206   3.570
10026SOL    HW230978   4.951   0.064   3.491
10027SOL     OW30979   0.746   2.508   5.221
10027SOL    HW130980   0.716   2.539   5.131
10027SOL    HW230981   0.714   2.415   5.237
10028SOL     OW30982   2.544   1.346   0.977
10028SOL    HW130983   2.496   1.351   0.889
10028SOL    HW230984   2.484   1.379   1.049
10029SOL     OW30985   1.394   3.085   3.593
10029SOL    HW130986   1.325   3.156   3.611
10029SOL    HW230987   1.364   3.029   3.516
10030SOL     OW30988   3.473   0.500   5.042
10030SOL    HW130989   3.488   0.571   4.974
10030SOL    HW230990   3.512   0.414   5.011
10031SOL     OW30991   4.753   4.963   4.785
10031SOL    HW130992   4.792   4.924   4.868
10031SOL    HW230993   4.686   4.900   4.746
10032SOL     OW30994   3.844   0.342   6.080
10032SOL    HW130995   3.919   0.285   6.115
10032SOL    HW230996   3.799   0.294   6.005
10033SOL     OW30997   4.705   2.065   4.672
10033SOL    HW130998   4.704   2.126   4.751
10033SOL    HW230999   4.726   1.972   4.702
10034SOL     OW31000   2.395   1.201   3.823
10034SOL    HW131001   2.425   1.281   3.876
10034SOL    HW231002   2.375   1.126   3.886
10035SOL     OW31003   6.132   4.160   0.266
10035SOL    HW131004   6.186   4.083   0.231
10035SOL    HW231005   6.038   4.131   0.280
10036SOL     OW31006   6.694   0.990   1.179
10036SOL    HW131007   6.653   1.072   1.140
10036SOL    HW231008   6.789   0.982   1.149
10037SOL     OW31009   6.072   6.845   6.840
10037SOL    HW131010   6.105   6.908   6.910
10037SOL    HW231011   5.981   6.873   6.809
10038SOL     OW31012   4.638   0.121   5.928
10038SOL    HW131013   4.589   0.042   5.965
10038SOL    HW231014   4.669   0.101   5.835
10039SOL     OW31015   5.507   6.469   5.323
10039SOL    HW131016   5.576   6.398   5.337
10039SOL    HW231017   5.484   6.476   5.226
10040SOL     OW31018   4.546   6.096   5.694
10040SOL    HW131019   4.483   6.021   5.676
10040SOL    HW231020   4.549   6.115   5.792
10041SOL     OW31021   5.492   5.279   6.200
10041SOL    HW131022   5.496   5.299   6.298
10041SOL    HW231023   5.437   5.349   6.154
10042SOL     OW31024   0.333   1.043   5.380
10042SOL    HW131025   0.260   1.110   5.371
10042SOL    HW231026   0.345   0.995   5.293
10043SOL     OW31027   0.610   0.725   4.078
10043SOL    HW131028   0.626   0.739   3.980
10043SOL    HW231029   0.522   0.764   4.104
10044SOL     OW31030   2.780   2.308   3.465
10044SOL    HW131031   2.855   2.244   3.473
10044SOL    HW231032   2.736   2.319   3.554
10045SOL     OW31033   5.233   0.438   4.302
10045SOL    HW131034   5.189   0.495   4.371
10045SOL    HW231035   5.279   0.361   4.346
10046SOL     OW31036   1.869   2.346   1.208
10046SOL    HW131037   1.794   2.372   1.148
10046SOL    HW231038   1.842   2.267   1.263
10047SOL     OW31039   5.888   3.448   4.918
10047SOL    HW131040   5.925   3.474   5.007
10047SOL    HW231041   5.961   3.447   4.850
10048SOL     OW31042   3.692   1.825   2.607
10048SOL    HW131043   3.781   1.851   2.571
10048SOL    HW231044   3.635   1.906   2.619
10049SOL     OW31045   0.510   0.893   0.222
10049SOL    HW131046   0.461   0.952   0.158
10049SOL    HW231047   0.606   0.923   0.228
10050SOL     OW31048   6.162   2.673   5.238
10050SOL    HW131049   6.112   2.759   5.227
10050SOL    HW231050   6.211   2.673   5.325
10051SOL     OW31051   6.038   2.293   4.941
10051SOL    HW131052   6.085   2.255   4.862
10051SOL    HW231053   5.943   2.313   4.918
10052SOL     OW31054   2.169   2.392   2.398
10052SOL    HW131055   2.257   2.383   2.350
10052SOL    HW231056   2.096   2.356   2.340
10053SOL     OW31057   3.338   5.415   1.714
10053SOL    HW131058   3.401   5.490   1.735
10053SOL    HW231059   3.252   5.431   1.762
10054SOL     OW31060   4.539   5.903   6.109
10054SOL    HW131061   4.492   5.857   6.034
10054SOL    HW231062   4.485   5.981   6.139
10055SOL     OW31063   5.661   1.849   5.904
10055SOL    HW131064   5.573   1.819   5.866
10055SOL    HW231065   5.728   1.776   5.893
10056SOL     OW31066   6.818   5.046   0.716
10056SOL    HW131067   6.763   5.121   0.678
10056SOL    HW231068   6.911   5.051   0.680
10057SOL     OW31069   3.894   1.218   4.261
10057SOL    HW131070   3.943   1.290   4.311
10057SOL    HW231071   3.927   1.215   4.167
10058SOL     OW31072   0.236   3.893   4.609
10058SOL    HW131073   0.316   3.927   4.560
10058SOL    HW231074   0.159   3.884   4.545
10059SOL     OW31075   5.594   6.335   0.308
10059SOL    HW131076   5.562   6.331   0.402
10059SOL    HW231077   5.562   6.420   0.265
10060SOL     OW31078   2.213   1.517   2.195
10060SOL    HW131079   2.267   1.539   2.114
10060SOL    HW231080   2.159   1.434   2.178
10061SOL     OW31081   5.281   0.721   4.639
10061SOL    HW131082   5.308   0.756   4.550
10061SOL    HW231083   5.348   0.653   4.670
10062SOL     OW31084   6.141   6.682   4.797
10062SOL    HW131085   6.082   6.609   4.830
10062SOL    HW231086   6.137   6.760   4.860
10063SOL     OW31087   1.584   1.780   3.490
10063SOL    HW131088   1.521   1.705   3.509
10063SOL    HW231089   1.636   1.760   3.407
10064SOL     OW31090   5.425   6.220   6.735
10064SOL    HW131091   5.404   6.148   6.669
10064SOL    HW231092   5.384   6.306   6.705
10065SOL     OW31093   2.002   1.100   1.754
10065SOL    HW131094   2.062   1.023   1.776
10065SOL    HW231095   2.057   1.183   1.744
10066SOL     OW31096   1.788   1.178   3.979
10066SOL    HW131097   1.786   1.253   4.044
10066SOL    HW231098   1.790   1.214   3.885
10067SOL     OW31099   6.140   4.143   5.006
10067SOL    HW131100   6.237   4.134   4.983
10067SOL    HW231101   6.095   4.055   4.995
10068SOL     OW31102   6.021   3.261   3.558
10068SOL    HW131103   6.055   3.263   3.464
10068SOL    HW231104   5.962   3.340   3.574
10069SOL     OW31105   2.121   5.024   3.477
10069SOL    HW131106   2.063   5.106   3.479
10069SOL    HW231107   2.168   5.019   3.389
10070SOL     OW31108   6.936   0.287   5.562
10070SOL    HW131109   6.846   0.279   5.519
10070SOL    HW231110   7.000   0.224   5.519
10071SOL     OW31111   5.308   5.969   3.622
10071SOL    HW131112   5.260   5.895   3.669
10071SOL    HW231113   5.394   5.989   3.670
10072SOL     OW31114   0.427   6.089   3.812
10072SOL    HW131115   0.398   6.036   3.892
10072SOL    HW231116   0.346   6.123   3.764
10073SOL     OW31117   5.807   4.569   4.408
10073SOL    HW131118   5.805   4.504   4.484
10073SOL    HW231119   5.868   4.645   4.430
10074SOL     OW31120   1.573   0.976   5.297
10074SOL    HW131121   1.506   0.911   5.262
10074SOL    HW231122   1.665   0.946   5.272
10075SOL     OW31123   1.518   2.288   2.745
10075SOL    HW131124   1.533   2.351   2.669
10075SOL    HW231125   1.470   2.335   2.818
10076SOL     OW31126   6.245   6.990   3.792
10076SOL    HW131127   6.312   0.038   3.814
10076SOL    HW231128   6.259   6.912   3.853
10077SOL     OW31129   3.773   2.892   6.079
10077SOL    HW131130   3.816   2.817   6.128
10077SOL    HW231131   3.839   2.934   6.017
10078SOL     OW31132   0.142   6.098   4.084
10078SOL    HW131133   0.126   6.177   4.143
10078SOL    HW231134   0.114   6.120   3.991
10079SOL     OW31135   0.499   3.434   2.275
10079SOL    HW131136   0.451   3.387   2.349
10079SOL    HW231137   0.516   3.370   2.200
10080SOL     OW31138   3.532   1.349   5.510
10080SOL    HW131139   3.583   1.277   5.557
10080SOL    HW231140   3.566   1.359   5.417
10081SOL     OW31141   0.845   0.830   0.591
10081SOL    HW131142   0.887   0.861   0.676
10081SOL    HW231143   0.869   0.892   0.516
10082SOL     OW31144   6.879   4.645   2.437
10082SOL    HW131145   6.967   4.662   2.393
10082SOL    HW231146   6.832   4.570   2.390
10083SOL     OW31147   5.154   0.592   3.200
10083SOL    HW131148   5.237   0.544   3.229
10083SOL    HW231149   5.117   0.645   3.276
10084SOL     OW31150   3.215   1.354   6.143
10084SOL    HW131151   3.242   1.383   6.052
10084SOL    HW231152   3.278   1.284   6.177
10085SOL     OW31153   1.092   6.190   2.440
10085SOL    HW131154   1.186   6.183   2.473
10085SOL    HW231155   1.035   6.122   2.488
10086SOL     OW31156   5.633   4.897   1.754
10086SOL    HW131157   5.549   4.951   1.740
10086SOL    HW231158   5.633   4.820   1.690
10087SOL     OW31159   0.111   6.821   3.754
10087SOL    HW131160   0.190   6.837   3.813
10087SOL    HW231161   0.056   6.904   3.750
10088SOL     OW31162   0.061   0.431   0.177
10088SOL    HW131163   0.033   0.336   0.192
10088SOL    HW231164   0.041   0.457   0.083
10089SOL     OW31165   2.534   2.512   2.886
10089SOL    HW131166   2.511   2.525   2.982
10089SOL    HW231167   2.476   2.571   2.830
10090SOL     OW31168   1.339   4.817   1.034
10090SOL    HW131169   1.352   4.791   0.938
10090SOL    HW231170   1.411   4.880   1.062
10091SOL     OW31171   1.528   3.113   5.241
10091SOL    HW131172   1.526   3.039   5.309
10091SOL    HW231173   1.480   3.083   5.158
10092SOL     OW31174   1.861   3.633   4.829
10092SOL    HW131175   1.866   3.535   4.846
10092SOL    HW231176   1.886   3.683   4.912
10093SOL     OW31177   0.308   4.423   4.685
10093SOL    HW131178   0.336   4.519   4.684
10093SOL    HW231179   0.318   4.385   4.593
10094SOL     OW31180   1.682   5.920   2.215
10094SOL    HW131181   1.740   5.918   2.296
10094SOL    HW231182   1.739   5.930   2.134
10095SOL     OW31183   6.089   1.750   5.450
10095SOL    HW131184   6.144   1.706   5.379
10095SOL    HW231185   6.083   1.848   5.432
10096SOL     OW31186   5.437   5.245   2.197
10096SOL    HW131187   5.421   5.284   2.288
10096SOL    HW231188   5.501   5.168   2.205
10097SOL     OW31189   1.076   1.330   6.915
10097SOL    HW131190   1.165   1.362   6.948
10097SOL    HW231191   1.036   1.267   6.981
10098SOL     OW31192   2.682   0.662   4.999
10098SOL    HW131193   2.651   0.586   5.057
10098SOL    HW231194   2.645   0.748   5.036
10099SOL     OW31195   0.247   4.903   0.304
10099SOL    HW131196   0.171   4.884   0.242
10099SOL    HW231197   0.280   4.817   0.343
10100SOL     OW31198   4.965   0.138   4.734
10100SOL    HW131199   4.932   0.084   4.656
10100SOL    HW231200   4.910   0.117   4.815
10101SOL     OW31201   5.753   3.698   1.474
10101SOL    HW131202   5.766   3.712   1.573
10101SOL    HW231203   5.842   3.698   1.428
10102SOL     OW31204   1.379   0.841   2.626
10102SOL    HW131205   1.368   0.762   2.687
10102SOL    HW231206   1.471   0.878   2.635
10103SOL     OW31207   2.268   1.959   6.059
10103SOL    HW131208   2.326   2.036   6.031
10103SOL    HW231209   2.325   1.889   6.102
10104SOL     OW31210   1.346   2.748   4.324
10104SOL    HW131211   1.371   2.675   4.388
10104SOL    HW231212   1.254   2.781   4.346
10105SOL     OW31213   1.379   0.820   0.087
10105SOL    HW131214   1.323   0.839   0.168
10105SOL    HW231215   1.320   0.797   0.010
10106SOL     OW31216   4.478   6.434   0.756
10106SOL    HW131217   4.483   6.341   0.719
10106SOL    HW231218   4.562   6.456   0.805
10107SOL     OW31219   0.165   1.756   6.886
10107SOL    HW131220   0.136   1.846   6.852
10107SOL    HW231221   0.178   1.761   6.985
10108SOL     OW31222   6.774   6.511   0.085
10108SOL    HW131223   6.779   6.609   0.100
10108SOL    HW231224   6.778   6.491   7.010
10109SOL     OW31225   4.161   6.828   1.227
10109SOL    HW131226   4.073   6.833   1.180
10109SOL    HW231227   4.198   6.920   1.238
10110SOL     OW31228   4.723   6.171   4.710
10110SOL    HW131229   4.815   6.158   4.674
10110SOL    HW231230   4.727   6.174   4.810
10111SOL     OW31231   5.538   3.498   3.539
10111SOL    HW131232   5.635   3.512   3.517
10111SOL    HW231233   5.526   3.410   3.584
10112SOL     OW31234   5.939   3.807   3.808
10112SOL    HW131235   5.960   3.895   3.851
10112SOL    HW231236   5.988   3.800   3.722
10113SOL     OW31237   4.280   6.805   5.197
10113SOL    HW131238   4.184   6.781   5.217
10113SOL    HW231239   4.305   6.767   5.108
10114SOL     OW31240   5.714   0.972   1.040
10114SOL    HW131241   5.619   0.944   1.025
10114SOL    HW231242   5.776   0.903   1.003
10115SOL     OW31243   3.471   1.528   4.173
10115SOL    HW131244   3.409   1.598   4.138
10115SOL    HW231245   3.478   1.453   4.107
10116SOL     OW31246   6.747   6.121   0.347
10116SOL    HW131247   6.713   6.175   0.270
10116SOL    HW231248   6.828   6.164   0.385
10117SOL     OW31249   0.108   6.684   5.235
10117SOL    HW131250   0.059   6.744   5.298
10117SOL    HW231251   0.091   6.712   5.141
10118SOL     OW31252   1.403   5.127   3.145
10118SOL    HW131253   1.379   5.078   3.061
10118SOL    HW231254   1.366   5.220   3.142
10119SOL     OW31255   0.466   6.340   4.403
10119SOL    HW131256   0.537   6.369   4.467
10119SOL    HW231257   0.405   6.417   4.384
10120SOL     OW31258   2.027   3.997   4.679
10120SOL    HW131259   1.930   4.017   4.669
10120SOL    HW231260   2.038   3.901   4.705
10121SOL     OW31261   6.239   4.515   6.245
10121SOL    HW131262   6.196   4.433   6.207
10121SOL    HW231263   6.177   4.558   6.310
10122SOL     OW31264   6.040   2.976   0.877
10122SOL    HW131265   6.005   2.911   0.945
10122SOL    HW231266   5.966   3.002   0.815
10123SOL     OW31267   6.189   0.233   6.937
10123SOL    HW131268   6.124   0.309   6.937
10123SOL    HW231269   6.256   0.246   6.864
10124SOL     OW31270   2.149   3.555   6.720
10124SOL    HW131271   2.201   3.607   6.788
10124SOL    HW231272   2.125   3.615   6.644
10125SOL     OW31273   1.734   0.876   2.463
10125SOL    HW131274   1.693   0.924   2.385
10125SOL    HW231275   1.770   0.943   2.528
10126SOL     OW31276   0.556   6.938   6.097
10126SOL    HW131277   0.576   6.887   6.181
10126SOL    HW231278   0.466   6.981   6.105
10127SOL     OW31279   2.333   4.373   6.184
10127SOL    HW131280   2.263   4.335   6.124
10127SOL    HW231281   2.386   4.299   6.225
10128SOL     OW31282   1.672   0.909   1.330
10128SOL    HW131283   1.611   0.895   1.408
10128SOL    HW231284   1.734   0.984   1.350
10129SOL     OW31285   5.958   2.680   3.426
10129SOL    HW131286   5.866   2.702   3.458
10129SOL    HW231287   6.015   2.762   3.426
10130SOL     OW31288   1.684   4.178   2.035
10130SOL    HW131289   1.767   4.125   2.018
10130SOL    HW231290   1.683   4.210   2.129
10131SOL     OW31291   0.520   0.176   4.093
10131SOL    HW131292   0.570   0.260   4.074
10131SOL    HW231293   0.527   0.153   4.190
10132SOL     OW31294   3.266   6.986   4.749
10132SOL    HW131295   3.345   6.963   4.693
10132SOL    HW231296   3.243   0.059   4.738
10133SOL     OW31297   4.833   6.723   1.340
10133SOL    HW131298   4.885   6.653   1.291
10133SOL    HW231299   4.895   6.775   1.399
10134SOL     OW31300   7.018   6.095   3.861
10134SOL    HW131301   6.960   6.148   3.799
10134SOL    HW231302   6.966   6.020   3.901
10135SOL     OW31303   4.910   3.318   3.573
10135SOL    HW131304   4.930   3.410   3.606
10135SOL    HW231305   4.896   3.320   3.474
10136SOL     OW31306   5.309   0.906   3.352
10136SOL    HW131307   5.311   0.994   3.398
10136SOL    HW231308   5.280   0.918   3.257
10137SOL     OW31309   5.716   4.300   3.994
10137SOL    HW131310   5.783   4.347   4.051
10137SOL    HW231311   5.711   4.204   4.020
10138SOL     OW31312   5.064   2.396   0.918
10138SOL    HW131313   5.142   2.426   0.863
10138SOL    HW231314   5.023   2.476   0.963
10139SOL     OW31315   3.747   4.123   3.550
10139SOL    HW131316   3.781   4.186   3.479
10139SOL    HW231317   3.779   4.030   3.529
10140SOL     OW31318   6.441   6.006   5.951
10140SOL    HW131319   6.399   5.942   6.016
10140SOL    HW231320   6.469   6.089   5.999
10141SOL     OW31321   4.115   1.869   4.783
10141SOL    HW131322   4.169   1.953   4.786
10141SOL    HW231323   4.092   1.841   4.877
10142SOL     OW31324   6.296   6.892   4.642
10142SOL    HW131325   6.276   6.798   4.668
10142SOL    HW231326   6.347   6.892   4.556
10143SOL     OW31327   4.234   0.898   0.161
10143SOL    HW131328   4.205   0.979   0.111
10143SOL    HW231329   4.309   0.853   0.113
10144SOL     OW31330   3.666   0.108   6.672
10144SOL    HW131331   3.711   0.085   6.586
10144SOL    HW231332   3.731   0.153   6.733
10145SOL     OW31333   3.110   5.426   5.402
10145SOL    HW131334   3.147   5.357   5.341
10145SOL    HW231335   3.011   5.417   5.407
10146SOL     OW31336   3.891   5.444   4.434
10146SOL    HW131337   3.937   5.512   4.377
10146SOL    HW231338   3.880   5.359   4.382
10147SOL     OW31339   5.572   3.992   5.312
10147SOL    HW131340   5.485   3.955   5.280
10147SOL    HW231341   5.573   3.992   5.412
10148SOL     OW31342   4.635   5.583   6.987
10148SOL    HW131343   4.622   5.681   7.001
10148SOL    HW231344   4.731   5.560   7.003
10149SOL     OW31345   6.113   2.805   0.338
10149SOL    HW131346   6.125   2.880   0.273
10149SOL    HW231347   6.031   2.753   0.314
10150SOL     OW31348   4.135   3.738   0.500
10150SOL    HW131349   4.201   3.790   0.553
10150SOL    HW231350   4.042   3.763   0.527
10151SOL     OW31351   0.836   6.753   6.989
10151SOL    HW131352   0.792   6.699   6.917
10151SOL    HW231353   0.850   6.695   0.046
10152SOL     OW31354   0.441   6.156   4.867
10152SOL    HW131355   0.494   6.134   4.949
10152SOL    HW231356   0.433   6.255   4.858
10153SOL     OW31357   4.735   6.420   3.968
10153SOL    HW131358   4.671   6.361   4.016
10153SOL    HW231359   4.828   6.389   3.985
10154SOL     OW31360   5.587   0.172   5.028
10154SOL    HW131361   5.622   0.096   4.974
10154SOL    HW231362   5.641   0.180   5.112
10155SOL     OW31363   3.765   1.934   5.544
10155SOL    HW131364   3.676   1.979   5.546
10155SOL    HW231365   3.834   1.995   5.581
10156SOL     OW31366   5.938   1.374   3.180
10156SOL    HW131367   5.904   1.329   3.262
10156SOL    HW231368   5.869   1.368   3.107
10157SOL     OW31369   6.434   2.347   0.245
10157SOL    HW131370   6.528   2.315   0.258
10157SOL    HW231371   6.419   2.430   0.298
10158SOL     OW31372   6.003   3.744   1.349
10158SOL    HW131373   6.070   3.722   1.278
10158SOL    HW231374   6.047   3.797   1.422
10159SOL     OW31375   2.710   3.171   6.911
10159SOL    HW131376   2.678   3.080   6.882
10159SOL    HW231377   2.643   3.211   6.973
10160SOL     OW31378   2.069   3.077   2.071
10160SOL    HW131379   2.089   3.118   2.159
10160SOL    HW231380   2.151   3.035   2.033
10161SOL     OW31381   3.099   2.989   6.474
10161SOL    HW131382   3.048   2.971   6.390
10161SOL    HW231383   3.112   2.904   6.524
10162SOL     OW31384   3.521   4.522   0.835
10162SOL    HW131385   3.429   4.531   0.796
10162SOL    HW231386   3.521   4.448   0.903
10163SOL     OW31387   5.895   4.519   5.853
10163SOL    HW131388   5.945   4.532   5.767
10163SOL    HW231389   5.955   4.539   5.930
10164SOL     OW31390   6.001   3.907   4.610
10164SOL    HW131391   5.915   3.947   4.643
10164SOL    HW231392   6.038   3.965   4.538
10165SOL     OW31393   0.326   2.276   3.198
10165SOL    HW131394   0.265   2.301   3.274
10165SOL    HW231395   0.305   2.332   3.118
10166SOL     OW31396   3.446   1.873   1.541
10166SOL    HW131397   3.410   1.929   1.616
10166SOL    HW231398   3.524   1.919   1.500
10167SOL     OW31399   2.647   3.473   6.673
10167SOL    HW131400   2.681   3.385   6.639
10167SOL    HW231401   2.547   3.471   6.676
10168SOL     OW31402   6.180   3.889   5.782
10168SOL    HW131403   6.239   3.837   5.843
10168SOL    HW231404   6.159   3.834   5.701
10169SOL     OW31405   6.802   4.134   3.777
10169SOL    HW131406   6.895   4.142   3.813
10169SOL    HW231407   6.776   4.220   3.733
10170SOL     OW31408   1.072   5.125   5.270
10170SOL    HW131409   1.016   5.042   5.275
10170SOL    HW231410   1.164   5.101   5.238
10171SOL     OW31411   6.759   2.585   5.240
10171SOL    HW131412   6.808   2.649   5.180
10171SOL    HW231413   6.666   2.572   5.205
10172SOL     OW31414   6.727   6.800   5.133
10172SOL    HW131415   6.750   6.801   5.035
10172SOL    HW231416   6.762   6.716   5.174
10173SOL     OW31417   0.867   3.267   1.607
10173SOL    HW131418   0.863   3.329   1.685
10173SOL    HW231419   0.897   3.177   1.638
10174SOL     OW31420   5.407   5.516   2.672
10174SOL    HW131421   5.459   5.443   2.717
10174SOL    HW231422   5.349   5.562   2.740
10175SOL     OW31423   4.957   1.787   4.072
10175SOL    HW131424   4.927   1.839   3.992
10175SOL    HW231425   5.014   1.845   4.130
10176SOL     OW31426   0.867   3.691   5.455
10176SOL    HW131427   0.884   3.598   5.422
10176SOL    HW231428   0.785   3.691   5.512
10177SOL     OW31429   2.572   0.585   0.565
10177SOL    HW131430   2.596   0.533   0.483
10177SOL    HW231431   2.472   0.594   0.571
10178SOL     OW31432   0.010   0.603   6.151
10178SOL    HW131433   0.016   0.567   6.058
10178SOL    HW231434   0.094   0.579   6.202
10179SOL     OW31435   0.871   1.737   6.759
10179SOL    HW131436   0.879   1.640   6.781
10179SOL    HW231437   0.961   1.781   6.768
10180SOL     OW31438   4.521   0.349   5.991
10180SOL    HW131439   4.583   0.279   5.956
10180SOL    HW231440   4.499   0.414   5.919
10181SOL     OW31441   6.124   2.796   1.596
10181SOL    HW131442   6.138   2.891   1.622
10181SOL    HW231443   6.050   2.790   1.529
10182SOL     OW31444   4.238   1.107   1.518
10182SOL    HW131445   4.284   1.112   1.429
10182SOL    HW231446   4.219   1.011   1.540
10183SOL     OW31447   6.844   2.353   6.727
10183SOL    HW131448   6.944   2.364   6.732
10183SOL    HW231449   6.822   2.267   6.682
10184SOL     OW31450   4.737   0.786   6.159
10184SOL    HW131451   4.720   0.688   6.166
10184SOL    HW231452   4.835   0.804   6.165
10185SOL     OW31453   5.898   6.131   2.235
10185SOL    HW131454   5.957   6.066   2.283
10185SOL    HW231455   5.867   6.091   2.149
10186SOL     OW31456   5.733   3.654   3.822
10186SOL    HW131457   5.641   3.693   3.821
10186SOL    HW231458   5.800   3.728   3.827
10187SOL     OW31459   0.452   3.347   0.377
10187SOL    HW131460   0.550   3.353   0.396
10187SOL    HW231461   0.417   3.259   0.411
10188SOL     OW31462   3.540   5.482   0.459
10188SOL    HW131463   3.606   5.519   0.524
10188SOL    HW231464   3.503   5.556   0.403
10189SOL     OW31465   0.881   1.417   6.269
10189SOL    HW131466   0.874   1.436   6.367
10189SOL    HW231467   0.826   1.483   6.218
10190SOL     OW31468   4.919   3.189   2.182
10190SOL    HW131469   4.852   3.130   2.137
10190SOL    HW231470   4.943   3.264   2.121
10191SOL     OW31471   5.641   5.074   5.616
10191SOL    HW131472   5.718   5.086   5.679
10191SOL    HW231473   5.667   5.107   5.525
10192SOL     OW31474   4.159   0.943   5.586
10192SOL    HW131475   4.098   0.978   5.515
10192SOL    HW231476   4.243   0.997   5.587
10193SOL     OW31477   4.061   3.386   2.085
10193SOL    HW131478   4.065   3.310   2.020
10193SOL    HW231479   4.082   3.353   2.177
10194SOL     OW31480   5.435   5.954   5.823
10194SOL    HW131481   5.531   5.934   5.846
10194SOL    HW231482   5.424   6.052   5.807
10195SOL     OW31483   6.336   5.752   0.627
10195SOL    HW131484   6.421   5.713   0.662
10195SOL    HW231485   6.270   5.678   0.608
10196SOL     OW31486   4.883   1.459   3.648
10196SOL    HW131487   4.837   1.478   3.561
10196SOL    HW231488   4.975   1.499   3.646
10197SOL     OW31489   5.515   1.607   5.564
10197SOL    HW131490   5.474   1.520   5.537
10197SOL    HW231491   5.495   1.677   5.495
10198SOL     OW31492   2.527   6.897   2.087
10198SOL    HW131493   2.549   6.984   2.131
10198SOL    HW231494   2.592   6.827   2.117
10199SOL     OW31495   2.423   2.867   0.159
10199SOL    HW131496   2.430   2.861   0.258
10199SOL    HW231497   2.333   2.902   0.134
10200SOL     OW31498   4.869   2.223   6.990
10200SOL    HW131499   4.925   2.183   0.039
10200SOL    HW231500   4.843   2.151   6.925
10201SOL     OW31501   1.491   4.833   0.780
10201SOL    HW131502   1.536   4.744   0.779
10201SOL    HW231503   1.393   4.821   0.761
10202SOL     OW31504   3.693   3.590   0.251
10202SOL    HW131505   3.681   3.649   0.171
10202SOL    HW231506   3.790   3.575   0.267
10203SOL     OW31507   6.478   3.108   2.781
10203SOL    HW131508   6.413   3.137   2.851
10203SOL    HW231509   6.435   3.041   2.721
10204SOL     OW31510   5.387   6.156   0.190
10204SOL    HW131511   5.451   6.167   0.266
10204SOL    HW231512   5.386   6.239   0.134
10205SOL     OW31513   1.560   0.209   1.355
10205SOL    HW131514   1.572   0.225   1.257
10205SOL    HW231515   1.581   0.292   1.406
10206SOL     OW31516   0.049   0.984   0.445
10206SOL    HW131517   7.009   0.915   0.411
10206SOL    HW231518   0.143   0.960   0.419
10207SOL     OW31519   1.205   2.109   6.883
10207SOL    HW131520   1.194   2.160   6.798
10207SOL    HW231521   1.116   2.101   6.929
10208SOL     OW31522   6.192   4.515   4.247
10208SOL    HW131523   6.132   4.591   4.275
10208SOL    HW231524   6.287   4.538   4.271
10209SOL     OW31525   0.373   0.187   0.261
10209SOL    HW131526   0.377   0.281   0.294
10209SOL    HW231527   0.439   0.174   0.187
10210SOL     OW31528   4.761   6.692   2.034
10210SOL    HW131529   4.759   6.616   1.969
10210SOL    HW231530   4.813   6.665   2.116
10211SOL     OW31531   4.083   6.384   4.889
10211SOL    HW131532   4.146   6.423   4.821
10211SOL    HW231533   4.006   6.446   4.902
10212SOL     OW31534   0.885   0.109   4.991
10212SOL    HW131535   0.831   0.185   5.026
10212SOL    HW231536   0.875   0.030   5.052
10213SOL     OW31537   5.697   3.038   1.416
10213SOL    HW131538   5.770   2.981   1.378
10213SOL    HW231539   5.730   3.081   1.500
10214SOL     OW31540   1.808   1.869   2.044
10214SOL    HW131541   1.901   1.864   2.007
10214SOL    HW231542   1.753   1.794   2.008
10215SOL     OW31543   4.020   3.780   3.342
10215SOL    HW131544   3.931   3.802   3.302
10215SOL    HW231545   4.091   3.836   3.299
10216SOL     OW31546   0.154   1.257   1.595
10216SOL    HW131547   0.086   1.184   1.602
10216SOL    HW231548   0.137   1.325   1.667
10217SOL     OW31549   3.123   1.977   3.189
10217SOL    HW131550   3.157   2.054   3.135
10217SOL    HW231551   3.023   1.975   3.185
10218SOL     OW31552   2.032   1.720   1.371
10218SOL    HW131553   2.113   1.759   1.417
10218SOL    HW231554   2.060   1.678   1.285
10219SOL     OW31555   0.082   1.984   2.447
10219SOL    HW131556   0.065   1.923   2.369
10219SOL    HW231557   0.144   2.057   2.419
10220SOL     OW31558   4.840   2.013   1.081
10220SOL    HW131559   4.760   2.036   1.026
10220SOL    HW231560   4.811   1.977   1.170
10221SOL     OW31561   0.881   4.839   3.421
10221SOL    HW131562   0.844   4.814   3.511
10221SOL    HW231563   0.980   4.824   3.422
10222SOL     OW31564   2.635   3.775   5.863
10222SOL    HW131565   2.608   3.805   5.771
10222SOL    HW231566   2.680   3.686   5.857
10223SOL     OW31567   1.146   4.992   1.368
10223SOL    HW131568   1.078   4.978   1.440
10223SOL    HW231569   1.185   4.904   1.341
10224SOL     OW31570   6.989   3.212   4.532
10224SOL    HW131571   0.032   3.199   4.607
10224SOL    HW231572   0.012   3.254   4.455
10225SOL     OW31573   1.448   4.840   5.704
10225SOL    HW131574   1.489   4.915   5.756
10225SOL    HW231575   1.357   4.820   5.740
10226SOL     OW31576   2.780   1.283   6.032
10226SOL    HW131577   2.688   1.319   6.046
10226SOL    HW231578   2.831   1.285   6.118
10227SOL     OW31579   5.867   4.937   0.714
10227SOL    HW131580   5.866   4.953   0.615
10227SOL    HW231581   5.910   5.014   0.759
10228SOL     OW31582   0.294   6.507   1.890
10228SOL    HW131583   0.212   6.456   1.864
10228SOL    HW231584   0.292   6.524   1.989
10229SOL     OW31585   0.888   3.333   4.819
10229SOL    HW131586   0.851   3.417   4.858
10229SOL    HW231587   0.829   3.256   4.845
10230SOL     OW31588   5.602   6.170   3.047
10230SOL    HW131589   5.589   6.236   3.120
10230SOL    HW231590   5.674   6.105   3.073
10231SOL     OW31591   6.779   5.669   5.401
10231SOL    HW131592   6.866   5.628   5.428
10231SOL    HW231593   6.788   5.769   5.405
10232SOL     OW31594   2.893   1.174   3.516
10232SOL    HW131595   2.907   1.216   3.427
10232SOL    HW231596   2.798   1.143   3.524
10233SOL     OW31597   3.939   4.040   4.967
10233SOL    HW131598   4.006   4.030   5.041
10233SOL    HW231599   3.941   3.959   4.909
10234SOL     OW31600   6.092   1.305   1.954
10234SOL    HW131601   6.064   1.397   1.928
10234SOL    HW231602   6.146   1.264   1.880
10235SOL     OW31603   2.246   2.976   1.887
10235SOL    HW131604   2.180   3.043   1.852
10235SOL    HW231605   2.323   2.969   1.824
10236SOL     OW31606   3.114   0.018   6.945
10236SOL    HW131607   3.213   0.004   6.956
10236SOL    HW231608   3.098   0.086   6.873
10237SOL     OW31609   0.332   3.549   6.766
10237SOL    HW131610   0.294   3.582   6.680
10237SOL    HW231611   0.427   3.519   6.751
10238SOL     OW31612   3.786   4.302   1.708
10238SOL    HW131613   3.723   4.352   1.649
10238SOL    HW231614   3.741   4.281   1.795
10239SOL     OW31615   1.374   3.139   4.526
10239SOL    HW131616   1.462   3.171   4.491
10239SOL    HW231617   1.389   3.060   4.586
10240SOL     OW31618   2.330   5.182   2.384
10240SOL    HW131619   2.409   5.242   2.390
10240SOL    HW231620   2.293   5.182   2.291
10241SOL     OW31621   6.069   0.152   2.293
10241SOL    HW131622   6.002   0.078   2.287
10241SOL    HW231623   6.021   0.240   2.291
10242SOL     OW31624   0.326   1.605   0.822
10242SOL    HW131625   0.268   1.676   0.781
10242SOL    HW231626   0.269   1.530   0.854
10243SOL     OW31627   2.422   4.672   2.113
10243SOL    HW131628   2.480   4.675   2.032
10243SOL    HW231629   2.355   4.746   2.108
10244SOL     OW31630   1.765   4.265   0.372
10244SOL    HW131631   1.698   4.206   0.326
10244SOL    HW231632   1.771   4.353   0.324
10245SOL     OW31633   3.954   3.793   0.732
10245SOL    HW131634   3.908   3.838   0.809
10245SOL    HW231635   3.899   3.804   0.649
10246SOL     OW31636   3.237   3.996   4.231
10246SOL    HW131637   3.170   4.006   4.157
10246SOL    HW231638   3.318   4.050   4.209
10247SOL     OW31639   6.381   4.064   5.720
10247SOL    HW131640   6.294   4.041   5.762
10247SOL    HW231641   6.411   4.154   5.751
10248SOL     OW31642   1.342   6.564   3.255
10248SOL    HW131643   1.414   6.628   3.281
10248SOL    HW231644   1.366   6.472   3.287
10249SOL     OW31645   3.166   6.099   6.514
10249SOL    HW131646   3.175   6.004   6.483
10249SOL    HW231647   3.072   6.129   6.502
10250SOL     OW31648   6.444   3.076   1.367
10250SOL    HW131649   6.486   3.084   1.276
10250SOL    HW231650   6.435   2.980   1.391
10251SOL     OW31651   2.287   1.501   4.468
10251SOL    HW131652   2.325   1.487   4.559
10251SOL    HW231653   2.342   1.568   4.419
10252SOL     OW31654   4.190   3.959   6.309
10252SOL    HW131655   4.092   3.975   6.304
10252SOL    HW231656   4.209   3.861   6.303
10253SOL     OW31657   3.038   5.425   0.429
10253SOL    HW131658   3.018   5.425   0.527
10253SOL    HW231659   2.972   5.366   0.382
10254SOL     OW31660   5.029   1.169   5.241
10254SOL    HW131661   5.013   1.234   5.166
10254SOL    HW231662   4.990   1.080   5.217
10255SOL     OW31663   2.471   6.736   0.990
10255SOL    HW131664   2.402   6.806   1.011
10255SOL    HW231665   2.562   6.777   0.994
10256SOL     OW31666   3.894   1.799   2.339
10256SOL    HW131667   3.933   1.713   2.370
10256SOL    HW231668   3.870   1.792   2.242
10257SOL     OW31669   2.329   5.395   3.929
10257SOL    HW131670   2.304   5.337   3.851
10257SOL    HW231671   2.402   5.351   3.981
10258SOL     OW31672   3.771   2.076   3.711
10258SOL    HW131673   3.792   2.014   3.786
10258SOL    HW231674   3.856   2.115   3.675
10259SOL     OW31675   0.348   3.975   2.932
10259SOL    HW131676   0.385   3.961   2.841
10259SOL    HW231677   0.273   3.912   2.948
10260SOL     OW31678   0.861   1.342   3.380
10260SOL    HW131679   0.856   1.272   3.308
10260SOL    HW231680   0.892   1.300   3.465
10261SOL     OW31681   6.896   5.100   1.377
10261SOL    HW131682   6.922   5.193   1.351
10261SOL    HW231683   6.977   5.041   1.376
10262SOL     OW31684   2.933   0.153   5.805
10262SOL    HW131685   2.955   0.231   5.863
10262SOL    HW231686   2.907   0.185   5.714
10263SOL     OW31687   5.901   6.847   0.952
10263SOL    HW131688   5.954   6.914   0.900
10263SOL    HW231689   5.827   6.894   1.000
10264SOL     OW31690   0.135   6.331   6.681
10264SOL    HW131691   0.104   6.276   6.603
10264SOL    HW231692   0.178   6.415   6.648
10265SOL     OW31693   3.220   2.478   1.058
10265SOL    HW131694   3.200   2.403   1.121
10265SOL    HW231695   3.141   2.493   0.999
10266SOL     OW31696   3.579   2.847   3.752
10266SOL    HW131697   3.528   2.932   3.765
10266SOL    HW231698   3.608   2.811   3.840
10267SOL     OW31699   5.327   1.816   0.482
10267SOL    HW131700   5.309   1.797   0.579
10267SOL    HW231701   5.285   1.903   0.458
10268SOL     OW31702   6.140   6.664   2.152
10268SOL    HW131703   6.215   6.682   2.087
10268SOL    HW231704   6.178   6.629   2.237
10269SOL     OW31705   0.883   3.505   5.889
10269SOL    HW131706   0.973   3.461   5.879
10269SOL    HW231707   0.822   3.470   5.818
10270SOL     OW31708   3.277   5.042   2.323
10270SOL    HW131709   3.229   5.080   2.401
10270SOL    HW231710   3.369   5.012   2.350
10271SOL     OW31711   3.868   2.821   0.091
10271SOL    HW131712   3.815   2.861   0.166
10271SOL    HW231713   3.959   2.798   0.123
10272SOL     OW31714   1.295   1.040   5.593
10272SOL    HW131715   1.330   0.947   5.576
10272SOL    HW231716   1.255   1.044   5.685
10273SOL     OW31717   2.939   5.645   2.885
10273SOL    HW131718   2.872   5.711   2.919
10273SOL    HW231719   3.007   5.693   2.829
10274SOL     OW31720   0.484   4.631   6.040
10274SOL    HW131721   0.576   4.654   6.010
10274SOL    HW231722   0.426   4.712   6.036
10275SOL     OW31723   0.615   6.944   1.941
10275SOL    HW131724   0.662   6.878   2.000
10275SOL    HW231725   0.658   0.011   1.953
10276SOL     OW31726   5.462   6.093   5.261
10276SOL    HW131727   5.558   6.080   5.287
10276SOL    HW231728   5.413   6.007   5.272
10277SOL     OW31729   1.981   5.802   5.077
10277SOL    HW131730   2.070   5.845   5.063
10277SOL    HW231731   1.964   5.791   5.175
10278SOL     OW31732   1.742   1.472   3.464
10278SOL    HW131733   1.763   1.375   3.456
10278SOL    HW231734   1.697   1.490   3.551
10279SOL     OW31735   1.372   4.711   4.315
10279SOL    HW131736   1.349   4.703   4.412
10279SOL    HW231737   1.416   4.627   4.284
10280SOL     OW31738   6.429   2.466   6.231
10280SOL    HW131739   6.436   2.371   6.202
10280SOL    HW231740   6.390   2.521   6.157
10281SOL     OW31741   5.959   1.859   3.377
10281SOL    HW131742   6.042   1.881   3.326
10281SOL    HW231743   5.880   1.901   3.332
10282SOL     OW31744   5.607   3.503   4.146
10282SOL    HW131745   5.679   3.474   4.082
10282SOL    HW231746   5.647   3.559   4.218
10283SOL     OW31747   1.481   3.148   0.999
10283SOL    HW131748   1.562   3.137   1.058
10283SOL    HW231749   1.412   3.202   1.048
10284SOL     OW31750   5.344   2.020   5.599
10284SOL    HW131751   5.289   2.032   5.516
10284SOL    HW231752   5.425   2.079   5.595
10285SOL     OW31753   5.132   6.506   3.291
10285SOL    HW131754   5.173   6.521   3.202
10285SOL    HW231755   5.043   6.463   3.280
10286SOL     OW31756   3.770   1.051   3.739
10286SOL    HW131757   3.859   1.016   3.765
10286SOL    HW231758   3.776   1.149   3.722
10287SOL     OW31759   3.146   5.519   1.881
10287SOL    HW131760   3.131   5.433   1.930
10287SOL    HW231761   3.067   5.539   1.824
10288SOL     OW31762   4.459   6.226   3.113
10288SOL    HW131763   4.471   6.224   3.013
10288SOL    HW231764   4.426   6.316   3.141
10289SOL     OW31765   2.927   6.421   6.761
10289SOL    HW131766   2.945   6.450   6.667
10289SOL    HW231767   2.855   6.478   6.800
10290SOL     OW31768   2.984   3.508   3.046
10290SOL    HW131769   2.957   3.546   2.958
10290SOL    HW231770   3.083   3.492   3.047
10291SOL     OW31771   3.652   1.564   2.602
10291SOL    HW131772   3.661   1.663   2.591
10291SOL    HW231773   3.564   1.543   2.647
10292SOL     OW31774   1.526   2.003   5.061
10292SOL    HW131775   1.544   1.911   5.026
10292SOL    HW231776   1.612   2.054   5.066
10293SOL     OW31777   1.389   3.769   2.281
10293SOL    HW131778   1.484   3.739   2.272
10293SOL    HW231779   1.353   3.794   2.192
10294SOL     OW31780   4.355   1.697   3.498
10294SOL    HW131781   4.442   1.649   3.493
10294SOL    HW231782   4.288   1.651   3.439
10295SOL     OW31783   0.408   3.414   5.881
10295SOL    HW131784   0.447   3.383   5.794
10295SOL    HW231785   0.476   3.467   5.932
10296SOL     OW31786   5.142   1.070   0.033
10296SOL    HW131787   5.183   1.097   0.120
10296SOL    HW231788   5.042   1.070   0.041
10297SOL     OW31789   1.957   1.170   5.785
10297SOL    HW131790   2.035   1.227   5.762
10297SOL    HW231791   1.890   1.174   5.711
10298SOL     OW31792   3.007   4.326   1.186
10298SOL    HW131793   2.978   4.330   1.090
10298SOL    HW231794   2.938   4.279   1.240
10299SOL     OW31795   3.953   4.876   3.130
10299SOL    HW131796   4.041   4.840   3.099
10299SOL    HW231797   3.880   4.836   3.075
10300SOL     OW31798   1.487   4.373   2.136
10300SOL    HW131799   1.530   4.323   2.061
10300SOL    HW231800   1.439   4.309   2.195
10301SOL     OW31801   4.926   2.319   5.206
10301SOL    HW131802   4.921   2.329   5.306
10301SOL    HW231803   4.927   2.222   5.183
10302SOL     OW31804   2.672   6.565   4.577
10302SOL    HW131805   2.581   6.606   4.582
10302SOL    HW231806   2.740   6.629   4.611
10303SOL     OW31807   1.489   5.556   3.055
10303SOL    HW131808   1.415   5.513   3.106
10303SOL    HW231809   1.574   5.549   3.107
10304SOL     OW31810   5.716   6.931   1.732
10304SOL    HW131811   5.628   6.978   1.739
10304SOL    HW231812   5.780   6.969   1.798
10305SOL     OW31813   1.190   4.093   5.920
10305SOL    HW131814   1.205   4.186   5.953
10305SOL    HW231815   1.198   4.091   5.821
10306SOL     OW31816   5.296   5.916   7.023
10306SOL    HW131817   5.261   5.921   6.929
10306SOL    HW231818   5.366   5.986   0.014
10307SOL     OW31819   3.213   2.143   5.298
10307SOL    HW131820   3.196   2.216   5.232
10307SOL    HW231821   3.143   2.072   5.289
10308SOL     OW31822   1.954   3.838   2.858
10308SOL    HW131823   1.863   3.814   2.825
10308SOL    HW231824   1.975   3.932   2.832
10309SOL     OW31825   6.721   2.380   0.189
10309SOL    HW131826   6.700   2.416   0.098
10309SOL    HW231827   6.790   2.438   0.233
10310SOL     OW31828   3.633   3.763   0.813
10310SOL    HW131829   3.633   3.826   0.736
10310SOL    HW231830   3.709   3.784   0.874
10311SOL     OW31831   6.600   5.818   0.724
10311SOL    HW131832   6.580   5.883   0.651
10311SOL    HW231833   6.609   5.727   0.686
10312SOL     OW31834   4.104   6.165   2.270
10312SOL    HW131835   4.151   6.253   2.258
10312SOL    HW231836   4.015   6.168   2.224
10313SOL     OW31837   4.328   5.880   1.676
10313SOL    HW131838   4.374   5.848   1.759
10313SOL    HW231839   4.248   5.822   1.658
10314SOL     OW31840   6.519   0.387   1.434
10314SOL    HW131841   6.581   0.313   1.460
10314SOL    HW231842   6.425   0.362   1.457
10315SOL     OW31843   5.665   5.597   4.775
10315SOL    HW131844   5.699   5.687   4.747
10315SOL    HW231845   5.614   5.607   4.861
10316SOL     OW31846   6.204   2.022   5.391
10316SOL    HW131847   6.178   2.048   5.298
10316SOL    HW231848   6.303   2.024   5.401
10317SOL     OW31849   4.979   6.323   6.265
10317SOL    HW131850   5.030   6.341   6.349
10317SOL    HW231851   4.928   6.238   6.275
10318SOL     OW31852   4.981   0.391   6.846
10318SOL    HW131853   5.061   0.385   6.786
10318SOL    HW231854   4.898   0.395   6.790
10319SOL     OW31855   0.338   3.011   5.435
10319SOL    HW131856   0.306   3.014   5.530
10319SOL    HW231857   0.420   2.954   5.430
10320SOL     OW31858   1.036   6.778   2.460
10320SOL    HW131859   0.958   6.718   2.478
10320SOL    HW231860   1.050   6.786   2.362
10321SOL     OW31861   4.257   2.064   2.116
10321SOL    HW131862   4.163   2.097   2.115
10321SOL    HW231863   4.317   2.136   2.150
10322SOL     OW31864   5.830   5.433   5.069
10322SOL    HW131865   5.783   5.359   5.117
10322SOL    HW231866   5.783   5.519   5.088
10323SOL     OW31867   6.050   3.910   4.888
10323SOL    HW131868   6.040   3.919   4.789
10323SOL    HW231869   5.962   3.927   4.932
10324SOL     OW31870   3.293   2.952   2.288
10324SOL    HW131871   3.196   2.967   2.307
10324SOL    HW231872   3.318   3.003   2.205
10325SOL     OW31873   6.742   4.072   2.287
10325SOL    HW131874   6.772   4.034   2.200
10325SOL    HW231875   6.816   4.125   2.327
10326SOL     OW31876   3.630   4.758   0.094
10326SOL    HW131877   3.595   4.840   0.138
10326SOL    HW231878   3.729   4.752   0.106
10327SOL     OW31879   2.157   1.990   0.639
10327SOL    HW131880   2.144   2.088   0.649
10327SOL    HW231881   2.076   1.941   0.672
10328SOL     OW31882   6.463   2.418   0.969
10328SOL    HW131883   6.527   2.342   0.966
10328SOL    HW231884   6.492   2.485   1.037
10329SOL     OW31885   3.110   1.148   3.733
10329SOL    HW131886   3.071   1.102   3.813
10329SOL    HW231887   3.044   1.146   3.658
10330SOL     OW31888   4.178   1.294   2.452
10330SOL    HW131889   4.087   1.258   2.468
10330SOL    HW231890   4.225   1.308   2.539
10331SOL     OW31891   6.415   0.803   6.165
10331SOL    HW131892   6.388   0.895   6.192
10331SOL    HW231893   6.378   0.782   6.074
10332SOL     OW31894   0.198   0.403   1.228
10332SOL    HW131895   0.118   0.429   1.174
10332SOL    HW231896   0.169   0.379   1.320
10333SOL     OW31897   0.667   4.446   4.857
10333SOL    HW131898   0.635   4.412   4.945
10333SOL    HW231899   0.748   4.504   4.871
10334SOL     OW31900   3.633   0.415   3.603
10334SOL    HW131901   3.536   0.432   3.621
10334SOL    HW231902   3.652   0.317   3.609
10335SOL     OW31903   3.064   4.432   6.275
10335SOL    HW131904   2.976   4.478   6.257
10335SOL    HW231905   3.061   4.339   6.238
10336SOL     OW31906   6.906   0.150   1.740
10336SOL    HW131907   6.943   0.073   1.689
10336SOL    HW231908   6.946   0.151   1.832
10337SOL     OW31909   0.172   5.994   6.118
10337SOL    HW131910   0.096   5.965   6.060
10337SOL    HW231911   0.224   5.913   6.148
10338SOL     OW31912   1.907   5.947   2.440
10338SOL    HW131913   1.976   6.014   2.469
10338SOL    HW231914   1.825   5.957   2.497
10339SOL     OW31915   4.572   3.704   6.346
10339SOL    HW131916   4.484   3.718   6.301
10339SOL    HW231917   4.558   3.689   6.443
10340SOL     OW31918   1.058   3.886   1.169
10340SOL    HW131919   0.976   3.871   1.224
10340SOL    HW231920   1.137   3.898   1.229
10341SOL     OW31921   2.090   3.643   2.447
10341SOL    HW131922   2.093   3.733   2.404
10341SOL    HW231923   2.096   3.653   2.546
10342SOL     OW31924   1.798   0.271   5.009
10342SOL    HW131925   1.820   0.317   4.923
10342SOL    HW231926   1.798   0.172   4.994
10343SOL     OW31927   3.703   5.452   6.911
10343SOL    HW131928   3.737   5.510   6.837
10343SOL    HW231929   3.700   5.506   6.996
10344SOL     OW31930   4.571   3.151   1.020
10344SOL    HW131931   4.478   3.189   1.021
10344SOL    HW231932   4.599   3.130   1.113
10345SOL     OW31933   1.561   1.621   6.409
10345SOL    HW131934   1.496   1.579   6.472
10345SOL    HW231935   1.645   1.568   6.407
10346SOL     OW31936   0.476   5.167   1.577
10346SOL    HW131937   0.425   5.242   1.619
10346SOL    HW231938   0.507   5.196   1.486
10347SOL     OW31939   4.081   1.920   3.819
10347SOL    HW131940   3.988   1.897   3.847
10347SOL    HW231941   4.079   1.993   3.750
10348SOL     OW31942   6.706   1.997   0.478
10348SOL    HW131943   6.721   2.087   0.518
10348SOL    HW231944   6.609   1.983   0.462
10349SOL     OW31945   1.235   0.834   0.359
10349SOL    HW131946   1.304   0.812   0.428
10349SOL    HW231947   1.179   0.753   0.342
10350SOL     OW31948   2.380   6.663   5.263
10350SOL    HW131949   2.425   6.734   5.209
10350SOL    HW231950   2.427   6.653   5.351
10351SOL     OW31951   4.266   4.599   5.780
10351SOL    HW131952   4.354   4.617   5.735
10351SOL    HW231953   4.242   4.503   5.770
10352SOL     OW31954   3.782   1.422   5.877
10352SOL    HW131955   3.828   1.334   5.863
10352SOL    HW231956   3.750   1.456   5.789
10353SOL     OW31957   6.481   2.857   5.344
10353SOL    HW131958   6.474   2.776   5.403
10353SOL    HW231959   6.483   2.828   5.248
10354SOL     OW31960   5.708   2.743   2.354
10354SOL    HW131961   5.753   2.735   2.443
10354SOL    HW231962   5.695   2.652   2.315
10355SOL     OW31963   1.946   6.642   1.837
10355SOL    HW131964   1.961   6.740   1.838
10355SOL    HW231965   1.898   6.615   1.754
10356SOL     OW31966   1.272   4.699   4.966
10356SOL    HW131967   1.292   4.797   4.960
10356SOL    HW231968   1.358   4.648   4.963
10357SOL     OW31969   1.727   2.991   6.517
10357SOL    HW131970   1.825   3.004   6.507
10357SOL    HW231971   1.681   3.020   6.433
10358SOL     OW31972   6.765   3.164   3.228
10358SOL    HW131973   6.786   3.152   3.130
10358SOL    HW231974   6.679   3.118   3.249
10359SOL     OW31975   1.102   1.463   1.786
10359SOL    HW131976   1.131   1.372   1.757
10359SOL    HW231977   1.079   1.461   1.883
10360SOL     OW31978   5.576   4.985   2.984
10360SOL    HW131979   5.485   5.013   3.016
10360SOL    HW231980   5.567   4.937   2.897
10361SOL     OW31981   2.914   6.983   3.458
10361SOL    HW131982   2.882   6.949   3.370
10361SOL    HW231983   2.957   6.909   3.510
10362SOL     OW31984   0.806   5.035   4.793
10362SOL    HW131985   0.799   4.938   4.815
10362SOL    HW231986   0.831   5.046   4.697
10363SOL     OW31987   4.709   1.217   1.744
10363SOL    HW131988   4.634   1.272   1.707
10363SOL    HW231989   4.681   1.121   1.748
10364SOL     OW31990   3.002   3.424   1.316
10364SOL    HW131991   3.001   3.351   1.384
10364SOL    HW231992   2.967   3.389   1.230
10365SOL     OW31993   4.609   4.460   6.287
10365SOL    HW131994   4.675   4.426   6.354
10365SOL    HW231995   4.516   4.440   6.320
10366SOL     OW31996   2.990   0.667   4.124
10366SOL    HW131997   3.040   0.623   4.049
10366SOL    HW231998   2.961   0.597   4.190
10367SOL     OW31999   6.614   2.031   2.626
10367SOL    HW132000   6.654   2.108   2.576
10367SOL    HW232001   6.626   1.948   2.572
10368SOL     OW32002   1.972   1.287   1.432
10368SOL    HW132003   1.933   1.373   1.466
10368SOL    HW232004   2.052   1.263   1.486
10369SOL     OW32005   3.870   0.505   5.544
10369SOL    HW132006   3.899   0.541   5.632
10369SOL    HW232007   3.950   0.488   5.486
10370SOL     OW32008   5.455   1.116   4.768
10370SOL    HW132009   5.414   1.202   4.736
10370SOL    HW232010   5.384   1.055   4.801
10371SOL     OW32011   2.999   6.047   4.875
10371SOL    HW132012   2.989   6.035   4.777
10371SOL    HW232013   2.915   6.017   4.921
10372SOL     OW32014   0.899   1.766   6.181
10372SOL    HW132015   0.986   1.770   6.231
10372SOL    HW232016   0.909   1.711   6.099
10373SOL     OW32017   2.213   6.011   4.721
10373SOL    HW132018   2.115   5.999   4.734
10373SOL    HW232019   2.242   6.098   4.762
10374SOL     OW32020   3.908   1.114   2.512
10374SOL    HW132021   3.838   1.159   2.567
10374SOL    HW232022   3.871   1.029   2.474
10375SOL     OW32023   3.724   1.720   6.269
10375SOL    HW132024   3.758   1.716   6.363
10375SOL    HW232025   3.632   1.683   6.264
10376SOL     OW32026   0.895   6.393   3.913
10376SOL    HW132027   0.839   6.436   3.984
10376SOL    HW232028   0.841   6.382   3.830
10377SOL     OW32029   6.606   0.536   4.223
10377SOL    HW132030   6.595   0.556   4.126
10377SOL    HW232031   6.538   0.588   4.275
10378SOL     OW32032   6.768   0.556   5.707
10378SOL    HW132033   6.730   0.560   5.799
10378SOL    HW232034   6.750   0.642   5.659
10379SOL     OW32035   3.876   6.818   4.790
10379SOL    HW132036   3.900   6.880   4.715
10379SOL    HW232037   3.786   6.841   4.825
10380SOL     OW32038   6.617   1.264   3.387
10380SOL    HW132039   6.639   1.167   3.400
10380SOL    HW232040   6.559   1.295   3.462
10381SOL     OW32041   4.333   5.580   6.312
10381SOL    HW132042   4.269   5.627   6.252
10381SOL    HW232043   4.287   5.504   6.359
10382SOL     OW32044   2.295   4.518   6.575
10382SOL    HW132045   2.296   4.548   6.479
10382SOL    HW232046   2.330   4.591   6.633
10383SOL     OW32047   0.335   3.120   0.811
10383SOL    HW132048   0.410   3.066   0.850
10383SOL    HW232049   0.343   3.121   0.712
10384SOL     OW32050   0.600   0.209   0.762
10384SOL    HW132051   0.587   0.147   0.685
10384SOL    HW232052   0.649   0.162   0.836
10385SOL     OW32053   4.640   0.218   6.759
10385SOL    HW132054   4.684   0.238   6.671
10385SOL    HW232055   4.683   0.136   6.799
10386SOL     OW32056   6.619   3.513   4.762
10386SOL    HW132057   6.615   3.413   4.762
10386SOL    HW232058   6.601   3.547   4.854
10387SOL     OW32059   3.792   2.043   2.413
10387SOL    HW132060   3.861   2.115   2.421
10387SOL    HW232061   3.834   1.961   2.375
10388SOL     OW32062   0.934   5.742   3.553
10388SOL    HW132063   0.860   5.736   3.486
10388SOL    HW232064   0.932   5.662   3.613
10389SOL     OW32065   0.442   6.011   2.014
10389SOL    HW132066   0.502   6.007   1.934
10389SOL    HW232067   0.497   6.031   2.096
10390SOL     OW32068   1.725   3.956   1.548
10390SOL    HW132069   1.737   3.857   1.557
10390SOL    HW232070   1.675   3.991   1.626
10391SOL     OW32071   1.375   5.623   5.247
10391SOL    HW132072   1.292   5.574   5.220
10391SOL    HW232073   1.423   5.571   5.318
10392SOL     OW32074   6.600   4.079   0.351
10392SOL    HW132075   6.641   4.079   0.260
10392SOL    HW232076   6.563   4.169   0.372
10393SOL     OW32077   1.314   1.629   3.033
10393SOL    HW132078   1.255   1.552   3.060
10393SOL    HW232079   1.288   1.661   2.942
10394SOL     OW32080   2.328   6.804   6.142
10394SOL    HW132081   2.333   6.719   6.089
10394SOL    HW232082   2.334   6.783   6.240
10395SOL     OW32083   6.293   0.763   4.818
10395SOL    HW132084   6.202   0.780   4.854
10395SOL    HW232085   6.287   0.741   4.721
10396SOL     OW32086   1.363   0.174   3.956
10396SOL    HW132087   1.445   0.172   3.900
10396SOL    HW232088   1.337   0.080   3.980
10397SOL     OW32089   3.833   1.699   3.698
10397SOL    HW132090   3.776   1.693   3.616
10397SOL    HW232091   3.911   1.637   3.689
10398SOL     OW32092   6.164   2.227   0.274
10398SOL    HW132093   6.147   2.177   0.189
10398SOL    HW232094   6.262   2.233   0.290
10399SOL     OW32095   4.445   1.471   5.341
10399SOL    HW132096   4.352   1.470   5.378
10399SOL    HW232097   4.441   1.497   5.244
10400SOL     OW32098   3.508   5.630   1.747
10400SOL    HW132099   3.455   5.677   1.818
10400SOL    HW232100   3.583   5.689   1.718
10401SOL     OW32101   6.893   0.305   2.385
10401SOL    HW132102   6.967   0.280   2.322
10401SOL    HW232103   6.810   0.255   2.361
10402SOL     OW32104   0.298   3.019   5.704
10402SOL    HW132105   0.318   2.932   5.750
10402SOL    HW232106   0.206   3.048   5.727
10403SOL     OW32107   5.546   1.778   2.623
10403SOL    HW132108   5.561   1.766   2.525
10403SOL    HW232109   5.463   1.833   2.637
10404SOL     OW32110   0.686   6.568   3.849
10404SOL    HW132111   0.631   6.485   3.839
10404SOL    HW232112   0.631   6.648   3.826
10405SOL     OW32113   1.647   5.291   5.245
10405SOL    HW132114   1.554   5.260   5.267
10405SOL    HW232115   1.641   5.378   5.196
10406SOL     OW32116   2.065   4.325   4.919
10406SOL    HW132117   2.113   4.380   4.987
10406SOL    HW232118   2.128   4.258   4.880
10407SOL     OW32119   1.330   1.008   6.577
10407SOL    HW132120   1.258   0.939   6.569
10407SOL    HW232121   1.416   0.970   6.544
10408SOL     OW32122   4.060   6.151   2.963
10408SOL    HW132123   4.084   6.246   2.943
10408SOL    HW232124   3.983   6.149   3.026
10409SOL     OW32125   0.558   5.030   1.315
10409SOL    HW132126   0.637   5.028   1.376
10409SOL    HW232127   0.574   4.967   1.238
10410SOL     OW32128   5.344   1.042   1.320
10410SOL    HW132129   5.316   0.967   1.380
10410SOL    HW232130   5.424   1.088   1.358
10411SOL     OW32131   2.261   4.905   4.214
10411SOL    HW132132   2.220   4.994   4.230
10411SOL    HW232133   2.196   4.846   4.166
10412SOL     OW32134   0.666   1.510   0.827
10412SOL    HW132135   0.636   1.570   0.752
10412SOL    HW232136   0.737   1.448   0.794
10413SOL     OW32137   1.109   2.253   0.807
10413SOL    HW132138   1.182   2.185   0.803
10413SOL    HW232139   1.147   2.342   0.831
10414SOL     OW32140   4.872   6.597   6.279
10414SOL    HW132141   4.806   6.522   6.276
10414SOL    HW232142   4.959   6.563   6.313
10415SOL     OW32143   1.956   4.836   3.815
10415SOL    HW132144   1.990   4.837   3.721
10415SOL    HW232145   1.861   4.805   3.815
10416SOL     OW32146   6.506   1.757   5.941
10416SOL    HW132147   6.496   1.783   5.844
10416SOL    HW232148   6.604   1.747   5.962
10417SOL     OW32149   4.274   4.695   3.278
10417SOL    HW132150   4.354   4.754   3.291
10417SOL    HW232151   4.275   4.657   3.186
10418SOL     OW32152   6.501   4.422   5.060
10418SOL    HW132153   6.521   4.387   5.152
10418SOL    HW232154   6.407   4.457   5.058
10419SOL     OW32155   2.907   1.456   5.143
10419SOL    HW132156   2.890   1.518   5.220
10419SOL    HW232157   2.854   1.372   5.156
10420SOL     OW32158   6.933   3.865   2.542
10420SOL    HW132159   6.852   3.899   2.589
10420SOL    HW232160   6.941   3.908   2.453
10421SOL     OW32161   1.423   3.918   3.940
10421SOL    HW132162   1.434   4.013   3.908
10421SOL    HW232163   1.372   3.918   4.026
10422SOL     OW32164   6.715   4.222   4.942
10422SOL    HW132165   6.806   4.192   4.972
10422SOL    HW232166   6.700   4.316   4.974
10423SOL     OW32167   3.952   4.922   4.404
10423SOL    HW132168   3.858   4.934   4.371
10423SOL    HW232169   3.959   4.956   4.498
10424SOL     OW32170   4.568   1.395   0.306
10424SOL    HW132171   4.563   1.460   0.231
10424SOL    HW232172   4.542   1.440   0.392
10425SOL     OW32173   1.276   6.499   1.649
10425SOL    HW132174   1.191   6.541   1.681
10425SOL    HW232175   1.312   6.550   1.571
10426SOL     OW32176   4.667   3.230   5.479
10426SOL    HW132177   4.667   3.149   5.421
10426SOL    HW232178   4.695   3.310   5.425
10427SOL     OW32179   5.664   5.403   5.824
10427SOL    HW132180   5.686   5.476   5.888
10427SOL    HW232181   5.704   5.424   5.734
10428SOL     OW32182   1.427   1.588   3.606
10428SOL    HW132183   1.444   1.590   3.705
10428SOL    HW232184   1.329   1.579   3.590
10429SOL     OW32185   1.143   3.706   2.379
10429SOL    HW132186   1.113   3.647   2.304
10429SOL    HW232187   1.243   3.717   2.375
10430SOL     OW32188   3.606   5.982   4.347
10430SOL    HW132189   3.697   5.940   4.346
10430SOL    HW232190   3.574   5.995   4.253
10431SOL     OW32191   2.885   1.551   4.658
10431SOL    HW132192   2.875   1.570   4.561
10431SOL    HW232193   2.862   1.633   4.711
10432SOL     OW32194   0.826   0.557   5.326
10432SOL    HW132195   0.816   0.622   5.401
10432SOL    HW232196   0.747   0.564   5.265
10433SOL     OW32197   1.618   6.236   1.946
10433SOL    HW132198   1.686   6.165   1.961
10433SOL    HW232199   1.650   6.323   1.984
10434SOL     OW32200   5.086   6.726   5.049
10434SOL    HW132201   5.066   6.628   5.050
10434SOL    HW232202   5.064   6.763   4.959
10435SOL     OW32203   0.922   2.359   6.241
10435SOL    HW132204   0.956   2.380   6.333
10435SOL    HW232205   0.933   2.439   6.183
10436SOL     OW32206   6.387   3.725   4.687
10436SOL    HW132207   6.310   3.716   4.624
10436SOL    HW232208   6.466   3.761   4.637
10437SOL     OW32209   4.986   4.946   5.386
10437SOL    HW132210   5.008   4.872   5.450
10437SOL    HW232211   5.070   4.986   5.351
10438SOL     OW32212   6.756   6.798   5.426
10438SOL    HW132213   6.828   6.860   5.457
10438SOL    HW232214   6.776   6.768   5.332
10439SOL     OW32215   6.532   0.950   5.008
10439SOL    HW132216   6.562   1.023   4.947
10439SOL    HW232217   6.561   0.862   4.971
10440SOL     OW32218   6.774   1.399   0.094
10440SOL    HW132219   6.777   1.356   0.004
10440SOL    HW232220   6.681   1.396   0.130
10441SOL     OW32221   3.781   1.537   1.086
10441SOL    HW132222   3.739   1.624   1.062
10441SOL    HW232223   3.761   1.516   1.182
10442SOL     OW32224   3.288   0.687   5.440
10442SOL    HW132225   3.189   0.700   5.444
10442SOL    HW232226   3.310   0.591   5.453
10443SOL     OW32227   0.091   1.992   2.833
10443SOL    HW132228   0.045   1.972   2.920
10443SOL    HW232229   0.023   1.991   2.759
10444SOL     OW32230   3.634   4.910   3.824
10444SOL    HW132231   3.565   4.937   3.890
10444SOL    HW232232   3.592   4.899   3.734
10445SOL     OW32233   0.079   3.678   2.171
10445SOL    HW132234   0.166   3.639   2.141
10445SOL    HW232235   0.065   3.656   2.268
10446SOL     OW32236   1.750   4.286   5.304
10446SOL    HW132237   1.706   4.220   5.243
10446SOL    HW232238   1.848   4.267   5.308
10447SOL     OW32239   6.182   2.123   2.670
10447SOL    HW132240   6.261   2.071   2.702
10447SOL    HW232241   6.198   2.152   2.576
10448SOL     OW32242   2.948   0.786   3.711
10448SOL    HW132243   3.031   0.733   3.731
10448SOL    HW232244   2.914   0.827   3.796
10449SOL     OW32245   3.539   5.200   6.885
10449SOL    HW132246   3.571   5.295   6.877
10449SOL    HW232247   3.517   5.165   6.794
10450SOL     OW32248   6.365   0.827   6.565
10450SOL    HW132249   6.285   0.875   6.601
10450SOL    HW232250   6.398   0.761   6.633
10451SOL     OW32251   2.682   0.528   3.750
10451SOL    HW132252   2.747   0.527   3.825
10451SOL    HW232253   2.669   0.621   3.717
10452SOL     OW32254   6.990   2.551   2.821
10452SOL    HW132255   0.030   2.534   2.746
10452SOL    HW232256   0.015   2.593   2.897
10453SOL     OW32257   4.457   6.240   2.548
10453SOL    HW132258   4.489   6.199   2.633
10453SOL    HW232259   4.385   6.181   2.508
10454SOL     OW32260   6.345   1.085   6.936
10454SOL    HW132261   6.322   0.987   6.937
10454SOL    HW232262   6.261   1.139   6.934
10455SOL     OW32263   6.192   6.169   4.197
10455SOL    HW132264   6.286   6.192   4.171
10455SOL    HW232265   6.157   6.238   4.260
10456SOL     OW32266   0.058   5.421   0.249
10456SOL    HW132267   6.989   5.431   0.211
10456SOL    HW232268   0.101   5.339   0.212
10457SOL     OW32269   4.748   3.610   6.879
10457SOL    HW132270   4.840   3.641   6.853
10457SOL    HW232271   4.730   3.521   6.836
10458SOL     OW32272   6.693   0.285   5.913
10458SOL    HW132273   6.594   0.280   5.900
10458SOL    HW232274   6.719   0.381   5.927
10459SOL     OW32275   6.436   5.157   0.813
10459SOL    HW132276   6.357   5.156   0.752
10459SOL    HW232277   6.481   5.068   0.809
10460SOL     OW32278   6.707   4.138   1.913
10460SOL    HW132279   6.787   4.197   1.902
10460SOL    HW232280   6.645   4.178   1.980
10461SOL     OW32281   6.344   4.623   5.338
10461SOL    HW132282   6.360   4.581   5.427
10461SOL    HW232283   6.424   4.679   5.313
10462SOL     OW32284   4.529   1.610   1.914
10462SOL    HW132285   4.475   1.528   1.930
10462SOL    HW232286   4.535   1.664   1.998
10463SOL     OW32287   4.597   1.411   6.180
10463SOL    HW132288   4.622   1.386   6.274
10463SOL    HW232289   4.612   1.509   6.168
10464SOL     OW32290   5.747   5.783   2.353
10464SOL    HW132291   5.731   5.738   2.265
10464SOL    HW232292   5.681   5.856   2.366
10465SOL     OW32293   5.102   4.282   3.095
10465SOL    HW132294   5.024   4.289   3.157
10465SOL    HW232295   5.076   4.229   3.014
10466SOL     OW32296   5.306   4.528   6.138
10466SOL    HW132297   5.370   4.546   6.063
10466SOL    HW232298   5.216   4.565   6.114
10467SOL     OW32299   1.911   2.705   6.571
10467SOL    HW132300   1.849   2.650   6.626
10467SOL    HW232301   1.975   2.753   6.632
10468SOL     OW32302   3.591   5.232   3.857
10468SOL    HW132303   3.593   5.202   3.761
10468SOL    HW232304   3.685   5.235   3.892
10469SOL     OW32305   5.153   3.959   5.851
10469SOL    HW132306   5.091   3.886   5.880
10469SOL    HW232307   5.244   3.920   5.835
10470SOL     OW32308   2.457   1.722   3.617
10470SOL    HW132309   2.548   1.718   3.576
10470SOL    HW232310   2.394   1.663   3.565
10471SOL     OW32311   2.828   0.781   6.912
10471SOL    HW132312   2.752   0.717   6.898
10471SOL    HW232313   2.791   0.872   6.931
10472SOL     OW32314   2.726   5.164   0.807
10472SOL    HW132315   2.632   5.189   0.783
10472SOL    HW232316   2.751   5.080   0.758
10473SOL     OW32317   5.605   5.812   6.368
10473SOL    HW132318   5.545   5.770   6.435
10473SOL    HW232319   5.619   5.908   6.391
10474SOL     OW32320   5.136   0.796   4.038
10474SOL    HW132321   5.118   0.803   4.136
10474SOL    HW232322   5.106   0.707   4.005
10475SOL     OW32323   2.522   6.098   1.407
10475SOL    HW132324   2.583   6.166   1.447
10475SOL    HW232325   2.463   6.060   1.479
10476SOL     OW32326   4.957   6.392   6.004
10476SOL    HW132327   4.954   6.308   5.949
10476SOL    HW232328   4.962   6.368   6.101
10477SOL     OW32329   6.935   6.847   4.289
10477SOL    HW132330   6.943   6.928   4.231
10477SOL    HW232331   0.003   6.818   4.319
10478SOL     OW32332   6.782   6.757   0.162
10478SOL    HW132333   6.686   6.773   0.186
10478SOL    HW232334   6.836   6.748   0.245
10479SOL     OW32335   6.770   2.018   2.208
10479SOL    HW132336   6.693   1.968   2.170
10479SOL    HW232337   6.823   2.059   2.133
10480SOL     OW32338   1.750   0.215   1.975
10480SOL    HW132339   1.790   0.304   1.995
10480SOL    HW232340   1.659   0.227   1.936
10481SOL     OW32341   0.936   6.220   3.088
10481SOL    HW132342   0.889   6.306   3.068
10481SOL    HW232343   1.021   6.240   3.137
10482SOL     OW32344   5.949   4.792   4.482
10482SOL    HW132345   5.961   4.813   4.579
10482SOL    HW232346   5.888   4.859   4.441
10483SOL     OW32347   5.254   5.687   0.445
10483SOL    HW132348   5.234   5.707   0.541
10483SOL    HW232349   5.254   5.588   0.431
10484SOL     OW32350   4.755   1.322   1.281
10484SOL    HW132351   4.838   1.331   1.227
10484SOL    HW232352   4.687   1.387   1.248
10485SOL     OW32353   3.514   4.171   6.851
10485SOL    HW132354   3.414   4.168   6.842
10485SOL    HW232355   3.544   4.105   6.919
10486SOL     OW32356   6.941   1.389   1.036
10486SOL    HW132357   6.984   1.475   1.011
10486SOL    HW232358   6.882   1.359   0.961
10487SOL     OW32359   5.035   6.490   2.150
10487SOL    HW132360   5.113   6.461   2.206
10487SOL    HW232361   4.980   6.556   2.200
10488SOL     OW32362   2.872   2.827   6.301
10488SOL    HW132363   2.819   2.750   6.267
10488SOL    HW232364   2.845   2.910   6.251
10489SOL     OW32365   0.554   0.111   5.745
10489SOL    HW132366   0.629   0.044   5.740
10489SOL    HW232367   0.592   0.203   5.754
10490SOL     OW32368   6.275   1.995   2.276
10490SOL    HW132369   6.279   2.018   2.178
10490SOL    HW232370   6.277   2.080   2.330
10491SOL     OW32371   1.628   3.712   6.861
10491SOL    HW132372   1.659   3.669   6.776
10491SOL    HW232373   1.646   3.650   6.938
10492SOL     OW32374   5.844   3.590   5.398
10492SOL    HW132375   5.859   3.510   5.456
10492SOL    HW232376   5.778   3.651   5.442
10493SOL     OW32377   3.028   0.983   1.621
10493SOL    HW132378   3.028   1.034   1.535
10493SOL    HW232379   3.094   0.908   1.616
10494SOL     OW32380   5.093   2.610   5.228
10494SOL    HW132381   5.105   2.626   5.325
10494SOL    HW232382   5.102   2.512   5.209
10495SOL     OW32383   2.282   7.021   0.267
10495SOL    HW132384   2.183   7.013   0.253
10495SOL    HW232385   2.306   6.985   0.357
10496SOL     OW32386   0.806   6.692   1.034
10496SOL    HW132387   0.760   6.607   1.007
10496SOL    HW232388   0.848   6.733   0.953
10497SOL     OW32389   2.341   6.759   2.266
10497SOL    HW132390   2.418   6.769   2.203
10497SOL    HW232391   2.277   6.834   2.252
10498SOL     OW32392   2.933   6.129   1.634
10498SOL    HW132393   2.938   6.196   1.559
10498SOL    HW232394   2.955   6.038   1.599
10499SOL     OW32395   3.089   6.109   2.552
10499SOL    HW132396   3.087   6.194   2.499
10499SOL    HW232397   3.040   6.122   2.638
10500SOL     OW32398   0.258   1.262   5.760
10500SOL    HW132399   0.199   1.249   5.839
10500SOL    HW232400   0.322   1.186   5.753
10501SOL     OW32401   1.689   5.507   3.240
10501SOL    HW132402   1.607   5.504   3.298
10501SOL    HW232403   1.767   5.539   3.295
10502SOL     OW32404   3.521   0.383   0.544
10502SOL    HW132405   3.500   0.425   0.632
10502SOL    HW232406   3.542   0.286   0.557
10503SOL     OW32407   4.148   2.712   0.205
10503SOL    HW132408   4.131   2.631   0.262
10503SOL    HW232409   4.139   2.794   0.262
10504SOL     OW32410   1.781   2.353   0.044
10504SOL    HW132411   1.861   2.403   0.010
10504SOL    HW232412   1.698   2.401   0.018
10505SOL     OW32413   6.154   5.545   0.613
10505SOL    HW132414   6.115   5.492   0.688
10505SOL    HW232415   6.136   5.498   0.527
10506SOL     OW32416   0.610   5.403   6.028
10506SOL    HW132417   0.625   5.307   6.051
10506SOL    HW232418   0.664   5.427   5.947
10507SOL     OW32419   2.571   6.441   0.125
10507SOL    HW132420   2.536   6.389   0.203
10507SOL    HW232421   2.541   6.536   0.132
10508SOL     OW32422   5.580   5.878   4.530
10508SOL    HW132423   5.512   5.846   4.464
10508SOL    HW232424   5.537   5.945   4.592
10509SOL     OW32425   0.334   6.550   6.293
10509SOL    HW132426   0.257   6.544   6.229
10509SOL    HW232427   0.328   6.635   6.345
10510SOL     OW32428   5.578   5.172   5.966
10510SOL    HW132429   5.601   5.255   5.916
10510SOL    HW232430   5.536   5.196   6.054
10511SOL     OW32431   4.439   2.729   1.044
10511SOL    HW132432   4.481   2.639   1.047
10511SOL    HW232433   4.339   2.719   1.040
10512SOL     OW32434   3.652   0.753   6.148
10512SOL    HW132435   3.556   0.732   6.127
10512SOL    HW232436   3.660   0.780   6.244
10513SOL     OW32437   0.039   3.026   5.536
10513SOL    HW132438   7.018   3.024   5.446
10513SOL    HW232439   0.097   3.107   5.542
10514SOL     OW32440   0.393   3.773   6.954
10514SOL    HW132441   0.348   3.843   6.899
10514SOL    HW232442   0.370   3.683   6.919
10515SOL     OW32443   6.244   2.772   2.889
10515SOL    HW132444   6.305   2.711   2.838
10515SOL    HW232445   6.156   2.725   2.903
10516SOL     OW32446   4.828   0.979   6.763
10516SOL    HW132447   4.744   1.017   6.724
10516SOL    HW232448   4.853   1.030   6.845
10517SOL     OW32449   0.599   2.123   2.816
10517SOL    HW132450   0.603   2.024   2.811
10517SOL    HW232451   0.589   2.152   2.911
10518SOL     OW32452   0.929   4.783   6.824
10518SOL    HW132453   0.996   4.852   6.794
10518SOL    HW232454   0.842   4.799   6.777
10519SOL     OW32455   2.799   2.527   6.479
10519SOL    HW132456   2.746   2.513   6.395
10519SOL    HW232457   2.802   2.624   6.502
10520SOL     OW32458   1.970   2.458   6.389
10520SOL    HW132459   1.901   2.482   6.321
10520SOL    HW232460   1.985   2.535   6.450
10521SOL     OW32461   6.114   5.003   1.612
10521SOL    HW132462   6.153   4.959   1.692
10521SOL    HW232463   6.060   4.937   1.559
10522SOL     OW32464   6.430   0.533   0.691
10522SOL    HW132465   6.400   0.628   0.688
10522SOL    HW232466   6.520   0.525   0.649
10523SOL     OW32467   0.391   6.701   5.152
10523SOL    HW132468   0.308   6.708   5.208
10523SOL    HW232469   0.365   6.686   5.056
10524SOL     OW32470   1.999   2.051   5.065
10524SOL    HW132471   2.044   2.137   5.088
10524SOL    HW232472   2.003   1.989   5.144
10525SOL     OW32473   3.088   6.944   5.783
10525SOL    HW132474   3.118   6.935   5.878
10525SOL    HW232475   3.041   0.009   5.772
10526SOL     OW32476   0.149   0.018   3.181
10526SOL    HW132477   0.096   7.004   3.257
10526SOL    HW232478   0.239   0.047   3.214
10527SOL     OW32479   0.192   2.548   4.346
10527SOL    HW132480   0.236   2.596   4.422
10527SOL    HW232481   0.108   2.595   4.321
10528SOL     OW32482   0.477   3.769   5.181
10528SOL    HW132483   0.568   3.727   5.169
10528SOL    HW232484   0.488   3.865   5.206
10529SOL     OW32485   1.572   6.168   3.671
10529SOL    HW132486   1.550   6.215   3.757
10529SOL    HW232487   1.621   6.231   3.611
10530SOL     OW32488   1.760   1.323   6.212
10530SOL    HW132489   1.807   1.323   6.300
10530SOL    HW232490   1.692   1.249   6.210
10531SOL     OW32491   1.128   3.187   4.829
10531SOL    HW132492   1.053   3.251   4.842
10531SOL    HW232493   1.098   3.095   4.853
10532SOL     OW32494   2.284   3.885   0.091
10532SOL    HW132495   2.367   3.855   0.138
10532SOL    HW232496   2.208   3.824   0.114
10533SOL     OW32497   3.252   1.675   4.065
10533SOL    HW132498   3.218   1.613   3.994
10533SOL    HW232499   3.247   1.769   4.031
10534SOL     OW32500   6.387   5.615   0.957
10534SOL    HW132501   6.443   5.532   0.953
10534SOL    HW232502   6.308   5.599   1.016
10535SOL     OW32503   0.434   2.403   1.694
10535SOL    HW132504   0.477   2.324   1.736
10535SOL    HW232505   0.459   2.486   1.743
10536SOL     OW32506   3.674   0.831   2.966
10536SOL    HW132507   3.618   0.900   2.920
10536SOL    HW232508   3.770   0.846   2.946
10537SOL     OW32509   3.423   5.932   3.136
10537SOL    HW132510   3.483   5.853   3.145
10537SOL    HW232511   3.332   5.909   3.170
10538SOL     OW32512   4.683   3.130   6.637
10538SOL    HW132513   4.730   3.057   6.588
10538SOL    HW232514   4.633   3.091   6.715
10539SOL     OW32515   0.631   3.880   6.306
10539SOL    HW132516   0.602   3.903   6.399
10539SOL    HW232517   0.594   3.948   6.242
10540SOL     OW32518   1.683   1.596   5.422
10540SOL    HW132519   1.768   1.638   5.392
10540SOL    HW232520   1.654   1.638   5.508
10541SOL     OW32521   3.591   3.554   1.991
10541SOL    HW132522   3.495   3.567   1.969
10541SOL    HW232523   3.632   3.642   2.015
10542SOL     OW32524   6.801   2.084   0.216
10542SOL    HW132525   6.776   2.021   0.290
10542SOL    HW232526   6.771   2.176   0.238
10543SOL     OW32527   0.813   1.304   4.897
10543SOL    HW132528   0.783   1.345   4.810
10543SOL    HW232529   0.865   1.371   4.949
10544SOL     OW32530   1.039   6.971   2.825
10544SOL    HW132531   0.969   0.012   2.796
10544SOL    HW232532   1.051   6.902   2.753
10545SOL     OW32533   5.919   1.154   2.859
10545SOL    HW132534   5.897   1.063   2.895
10545SOL    HW232535   5.987   1.146   2.787
10546SOL     OW32536   0.477   1.075   6.105
10546SOL    HW132537   0.505   1.169   6.123
10546SOL    HW232538   0.552   1.026   6.060
10547SOL     OW32539   4.580   2.023   1.236
10547SOL    HW132540   4.488   2.030   1.276
10547SOL    HW232541   4.589   2.090   1.162
10548SOL     OW32542   5.059   3.502   5.064
10548SOL    HW132543   4.962   3.498   5.088
10548SOL    HW232544   5.077   3.437   4.990
10549SOL     OW32545   6.568   0.526   2.123
10549SOL    HW132546   6.587   0.537   2.026
10549SOL    HW232547   6.523   0.608   2.158
10550SOL     OW32548   4.362   6.656   4.946
10550SOL    HW132549   4.289   6.588   4.939
10550SOL    HW232550   4.449   6.614   4.920
10551SOL     OW32551   1.743   2.547   5.500
10551SOL    HW132552   1.675   2.478   5.476
10551SOL    HW232553   1.755   2.609   5.422
10552SOL     OW32554   4.189   2.032   5.921
10552SOL    HW132555   4.122   2.054   5.992
10552SOL    HW232556   4.248   2.111   5.906
10553SOL     OW32557   1.422   4.743   1.901
10553SOL    HW132558   1.485   4.671   1.870
10553SOL    HW232559   1.356   4.763   1.828
10554SOL     OW32560   5.067   4.932   6.467
10554SOL    HW132561   4.969   4.923   6.448
10554SOL    HW232562   5.103   4.843   6.494
10555SOL     OW32563   2.918   2.963   1.079
10555SOL    HW132564   2.844   2.903   1.049
10555SOL    HW232565   2.960   3.006   0.999
10556SOL     OW32566   1.766   2.901   5.094
10556SOL    HW132567   1.778   3.001   5.090
10556SOL    HW232568   1.855   2.857   5.087
10557SOL     OW32569   1.137   2.617   2.961
10557SOL    HW132570   1.178   2.705   2.985
10557SOL    HW232571   1.203   2.562   2.910
10558SOL     OW32572   3.830   6.884   4.224
10558SOL    HW132573   3.833   6.935   4.138
10558SOL    HW232574   3.753   6.917   4.280
10559SOL     OW32575   3.847   0.916   1.122
10559SOL    HW132576   3.794   0.963   1.192
10559SOL    HW232577   3.792   0.907   1.039
10560SOL     OW32578   2.342   5.831   4.340
10560SOL    HW132579   2.410   5.836   4.267
10560SOL    HW232580   2.278   5.756   4.321
10561SOL     OW32581   2.562   4.691   0.476
10561SOL    HW132582   2.611   4.706   0.391
10561SOL    HW232583   2.583   4.601   0.513
10562SOL     OW32584   5.521   6.477   0.589
10562SOL    HW132585   5.507   6.439   0.681
10562SOL    HW232586   5.496   6.574   0.590
10563SOL     OW32587   1.523   0.594   4.099
10563SOL    HW132588   1.509   0.657   4.023
10563SOL    HW232589   1.589   0.632   4.163
10564SOL     OW32590   5.758   6.522   2.215
10564SOL    HW132591   5.780   6.537   2.311
10564SOL    HW232592   5.797   6.595   2.159
10565SOL     OW32593   0.348   0.809   5.777
10565SOL    HW132594   0.447   0.812   5.761
10565SOL    HW232595   0.300   0.805   5.690
10566SOL     OW32596   4.165   3.118   7.000
10566SOL    HW132597   4.198   3.043   0.033
10566SOL    HW232598   4.151   3.199   0.034
10567SOL     OW32599   2.368   2.755   3.762
10567SOL    HW132600   2.383   2.754   3.664
10567SOL    HW232601   2.280   2.799   3.783
10568SOL     OW32602   5.644   1.291   1.720
10568SOL    HW132603   5.678   1.210   1.766
10568SOL    HW232604   5.611   1.356   1.788
10569SOL     OW32605   6.679   2.524   1.452
10569SOL    HW132606   6.707   2.613   1.487
10569SOL    HW232607   6.738   2.497   1.376
10570SOL     OW32608   1.768   4.866   2.939
10570SOL    HW132609   1.730   4.810   3.012
10570SOL    HW232610   1.863   4.839   2.922
10571SOL     OW32611   0.424   4.972   4.362
10571SOL    HW132612   0.469   5.008   4.281
10571SOL    HW232613   0.411   5.045   4.429
10572SOL     OW32614   6.568   3.490   3.402
10572SOL    HW132615   6.653   3.465   3.355
10572SOL    HW232616   6.590   3.544   3.484
10573SOL     OW32617   5.537   6.092   4.282
10573SOL    HW132618   5.511   6.002   4.249
10573SOL    HW232619   5.614   6.126   4.228
10574SOL     OW32620   2.170   1.800   4.563
10574SOL    HW132621   2.259   1.765   4.534
10574SOL    HW232622   2.112   1.812   4.483
10575SOL     OW32623   0.094   0.785   3.607
10575SOL    HW132624   0.177   0.731   3.626
10575SOL    HW232625   0.117   0.882   3.610
10576SOL     OW32626   0.181   6.480   5.391
10576SOL    HW132627   0.103   6.439   5.438
10576SOL    HW232628   0.148   6.548   5.326
10577SOL     OW32629   1.355   2.661   6.345
10577SOL    HW132630   1.391   2.746   6.383
10577SOL    HW232631   1.262   2.676   6.311
10578SOL     OW32632   6.407   0.467   3.784
10578SOL    HW132633   6.458   0.467   3.698
10578SOL    HW232634   6.415   0.378   3.828
10579SOL     OW32635   3.543   2.055   0.231
10579SOL    HW132636   3.601   2.108   0.293
10579SOL    HW232637   3.477   2.115   0.187
10580SOL     OW32638   6.753   0.601   0.225
10580SOL    HW132639   6.853   0.606   0.228
10580SOL    HW232640   6.714   0.676   0.278
10581SOL     OW32641   5.882   7.012   2.715
10581SOL    HW132642   5.882   0.080   2.755
10581SOL    HW232643   5.974   6.973   2.720
10582SOL     OW32644   4.206   5.080   6.624
10582SOL    HW132645   4.272   5.072   6.698
10582SOL    HW232646   4.174   4.989   6.597
10583SOL     OW32647   4.062   0.934   5.825
10583SOL    HW132648   4.096   0.950   5.732
10583SOL    HW232649   4.128   0.878   5.876
10584SOL     OW32650   6.366   6.896   0.846
10584SOL    HW132651   6.277   6.887   0.891
10584SOL    HW232652   6.365   6.846   0.760
10585SOL     OW32653   1.570   3.363   5.392
10585SOL    HW132654   1.600   3.333   5.483
10585SOL    HW232655   1.523   3.288   5.346
10586SOL     OW32656   1.745   5.842   5.610
10586SOL    HW132657   1.740   5.921   5.671
10586SOL    HW232658   1.733   5.758   5.662
10587SOL     OW32659   5.819   4.519   6.889
10587SOL    HW132660   5.756   4.487   6.958
10587SOL    HW232661   5.781   4.600   6.844
10588SOL     OW32662   0.943   4.350   1.647
10588SOL    HW132663   1.023   4.315   1.696
10588SOL    HW232664   0.901   4.275   1.595
10589SOL     OW32665   5.343   1.311   4.608
10589SOL    HW132666   5.414   1.360   4.558
10589SOL    HW232667   5.298   1.245   4.548
10590SOL     OW32668   1.101   0.326   1.735
10590SOL    HW132669   1.150   0.377   1.665
10590SOL    HW232670   1.026   0.275   1.693
10591SOL     OW32671   1.230   1.618   5.990
10591SOL    HW132672   1.225   1.577   6.081
10591SOL    HW232673   1.325   1.641   5.970
10592SOL     OW32674   5.680   2.371   0.451
10592SOL    HW132675   5.766   2.333   0.483
10592SOL    HW232676   5.686   2.387   0.352
10593SOL     OW32677   2.895   5.235   0.287
10593SOL    HW132678   2.883   5.138   0.263
10593SOL    HW232679   2.843   5.291   0.223
10594SOL     OW32680   5.317   1.366   3.660
10594SOL    HW132681   5.330   1.408   3.750
10594SOL    HW232682   5.278   1.275   3.671
10595SOL     OW32683   3.478   0.303   6.513
10595SOL    HW132684   3.540   0.225   6.526
10595SOL    HW232685   3.525   0.374   6.460
10596SOL     OW32686   4.165   0.125   1.575
10596SOL    HW132687   4.255   0.164   1.594
10596SOL    HW232688   4.157   0.036   1.621
10597SOL     OW32689   2.618   1.065   4.744
10597SOL    HW132690   2.669   1.147   4.719
10597SOL    HW232691   2.633   0.994   4.676
10598SOL     OW32692   2.791   2.368   0.014
10598SOL    HW132693   2.818   2.462   7.015
10598SOL    HW232694   2.782   2.359   0.113
10599SOL     OW32695   5.519   1.833   0.172
10599SOL    HW132696   5.430   1.863   0.139
10599SOL    HW232697   5.551   1.895   0.244
10600SOL     OW32698   1.942   3.455   0.354
10600SOL    HW132699   1.935   3.362   0.391
10600SOL    HW232700   1.949   3.452   0.255
10601SOL     OW32701   2.056   5.045   5.962
10601SOL    HW132702   2.114   4.964   5.961
10601SOL    HW232703   1.975   5.028   6.019
10602SOL     OW32704   5.177   1.503   3.186
10602SOL    HW132705   5.171   1.501   3.286
10602SOL    HW232706   5.248   1.567   3.158
10603SOL     OW32707   2.510   5.906   3.307
10603SOL    HW132708   2.465   5.992   3.329
10603SOL    HW232709   2.496   5.885   3.210
10604SOL     OW32710   5.774   4.054   4.610
10604SOL    HW132711   5.729   4.077   4.696
10604SOL    HW232712   5.705   4.022   4.544
10605SOL     OW32713   1.432   5.116   0.723
10605SOL    HW132714   1.343   5.143   0.760
10605SOL    HW232715   1.443   5.017   0.735
10606SOL     OW32716   5.873   0.574   2.430
10606SOL    HW132717   5.786   0.527   2.444
10606SOL    HW232718   5.898   0.623   2.513
10607SOL     OW32719   4.348   3.721   5.631
10607SOL    HW132720   4.261   3.755   5.595
10607SOL    HW232721   4.350   3.734   5.730
10608SOL     OW32722   6.103   2.001   4.989
10608SOL    HW132723   6.167   2.026   4.916
10608SOL    HW232724   6.039   2.075   5.003
10609SOL     OW32725   3.060   6.084   1.871
10609SOL    HW132726   3.147   6.057   1.830
10609SOL    HW232727   2.996   6.111   1.799
10610SOL     OW32728   0.236   4.133   6.329
10610SOL    HW132729   0.151   4.096   6.368
10610SOL    HW232730   0.290   4.058   6.289
10611SOL     OW32731   5.178   3.285   6.680
10611SOL    HW132732   5.187   3.202   6.624
10611SOL    HW232733   5.143   3.359   6.623
10612SOL     OW32734   2.334   0.229   5.708
10612SOL    HW132735   2.424   0.261   5.738
10612SOL    HW232736   2.276   0.309   5.689
10613SOL     OW32737   0.205   6.684   5.862
10613SOL    HW132738   0.125   6.744   5.871
10613SOL    HW232739   0.287   6.740   5.853
10614SOL     OW32740   0.050   1.849   4.385
10614SOL    HW132741   0.056   1.763   4.334
10614SOL    HW232742   6.987   1.853   4.435
10615SOL     OW32743   4.174   5.532   5.571
10615SOL    HW132744   4.269   5.561   5.562
10615SOL    HW232745   4.114   5.612   5.567
10616SOL     OW32746   3.507   6.227   0.611
10616SOL    HW132747   3.470   6.300   0.668
10616SOL    HW232748   3.440   6.201   0.542
10617SOL     OW32749   2.465   2.592   0.623
10617SOL    HW132750   2.506   2.681   0.636
10617SOL    HW232751   2.386   2.582   0.684
10618SOL     OW32752   5.710   3.439   6.946
10618SOL    HW132753   5.646   3.515   6.934
10618SOL    HW232754   5.691   3.369   6.876
10619SOL     OW32755   0.312   3.574   1.741
10619SOL    HW132756   0.301   3.651   1.678
10619SOL    HW232757   0.226   3.560   1.792
10620SOL     OW32758   1.127   6.125   5.413
10620SOL    HW132759   1.103   6.028   5.416
10620SOL    HW232760   1.060   6.179   5.464
10621SOL     OW32761   1.693   5.739   0.969
10621SOL    HW132762   1.744   5.741   0.883
10621SOL    HW232763   1.625   5.812   0.969
10622SOL     OW32764   4.634   1.046   1.231
10622SOL    HW132765   4.671   1.132   1.266
10622SOL    HW232766   4.662   1.035   1.135
10623SOL     OW32767   5.752   3.604   3.414
10623SOL    HW132768   5.804   3.598   3.329
10623SOL    HW232769   5.744   3.700   3.441
10624SOL     OW32770   0.968   1.087   4.551
10624SOL    HW132771   0.968   1.002   4.498
10624SOL    HW232772   0.996   1.163   4.491
10625SOL     OW32773   0.812   4.180   0.093
10625SOL    HW132774   0.726   4.218   0.127
10625SOL    HW232775   0.797   4.141   0.002
10626SOL     OW32776   0.815   2.697   1.607
10626SOL    HW132777   0.813   2.712   1.508
10626SOL    HW232778   0.733   2.649   1.636
10627SOL     OW32779   5.431   6.144   2.209
10627SOL    HW132780   5.509   6.203   2.186
10627SOL    HW232781   5.458   6.081   2.282
10628SOL     OW32782   5.569   4.896   5.965
10628SOL    HW132783   5.548   4.990   5.940
10628SOL    HW232784   5.488   4.838   5.949
10629SOL     OW32785   2.688   4.663   5.326
10629SOL    HW132786   2.757   4.603   5.286
10629SOL    HW232787   2.649   4.720   5.254
10630SOL     OW32788   6.291   0.901   3.604
10630SOL    HW132789   6.253   0.941   3.687
10630SOL    HW232790   6.268   0.804   3.600
10631SOL     OW32791   1.562   5.589   4.212
10631SOL    HW132792   1.512   5.502   4.210
10631SOL    HW232793   1.642   5.582   4.153
10632SOL     OW32794   5.526   2.323   4.066
10632SOL    HW132795   5.453   2.316   4.134
10632SOL    HW232796   5.531   2.237   4.015
10633SOL     OW32797   3.155   4.095   1.479
10633SOL    HW132798   3.133   4.000   1.502
10633SOL    HW232799   3.090   4.156   1.525
10634SOL     OW32800   3.399   5.340   0.912
10634SOL    HW132801   3.428   5.245   0.913
10634SOL    HW232802   3.476   5.399   0.887
10635SOL     OW32803   2.801   1.334   1.741
10635SOL    HW132804   2.883   1.366   1.694
10635SOL    HW232805   2.827   1.284   1.824
10636SOL     OW32806   1.514   2.406   2.008
10636SOL    HW132807   1.492   2.317   2.049
10636SOL    HW232808   1.602   2.438   2.044
10637SOL     OW32809   3.666   4.073   5.757
10637SOL    HW132810   3.614   4.022   5.688
10637SOL    HW232811   3.669   4.169   5.732
10638SOL     OW32812   6.828   5.804   2.849
10638SOL    HW132813   6.857   5.793   2.754
10638SOL    HW232814   6.733   5.775   2.859
10639SOL     OW32815   0.687   1.711   3.416
10639SOL    HW132816   0.736   1.796   3.433
10639SOL    HW232817   0.590   1.730   3.403
10640SOL     OW32818   4.236   0.045   6.824
10640SOL    HW132819   4.229   0.010   6.730
10640SOL    HW232820   4.151   0.027   6.873
10641SOL     OW32821   3.668   2.262   6.941
10641SOL    HW132822   3.697   2.167   6.953
10641SOL    HW232823   3.738   2.323   6.978
10642SOL     OW32824   0.305   2.884   1.662
10642SOL    HW132825   0.249   2.846   1.589
10642SOL    HW232826   0.246   2.913   1.737
10643SOL     OW32827   1.748   4.563   6.154
10643SOL    HW132828   1.664   4.509   6.158
10643SOL    HW232829   1.735   4.639   6.090
10644SOL     OW32830   4.661   2.272   3.938
10644SOL    HW132831   4.565   2.244   3.939
10644SOL    HW232832   4.716   2.206   3.991
10645SOL     OW32833   0.627   0.996   4.180
10645SOL    HW132834   0.657   1.087   4.155
10645SOL    HW232835   0.640   0.933   4.103
10646SOL     OW32836   0.764   1.792   5.013
10646SOL    HW132837   0.850   1.781   4.962
10646SOL    HW232838   0.694   1.828   4.953
10647SOL     OW32839   5.178   5.907   6.773
10647SOL    HW132840   5.102   5.945   6.721
10647SOL    HW232841   5.192   5.812   6.747
10648SOL     OW32842   5.318   3.023   6.279
10648SOL    HW132843   5.333   2.955   6.350
10648SOL    HW232844   5.397   3.026   6.218
10649SOL     OW32845   0.232   4.655   3.493
10649SOL    HW132846   0.274   4.622   3.408
10649SOL    HW232847   0.296   4.718   3.539
10650SOL     OW32848   1.421   6.308   3.365
10650SOL    HW132849   1.498   6.245   3.368
10650SOL    HW232850   1.363   6.294   3.444
10651SOL     OW32851   4.998   6.839   5.720
10651SOL    HW132852   5.013   6.765   5.787
10651SOL    HW232853   4.908   6.879   5.734
10652SOL     OW32854   3.643   0.416   7.018
10652SOL    HW132855   3.566   0.398   6.956
10652SOL    HW232856   3.711   0.343   7.008
10653SOL     OW32857   5.240   4.857   4.032
10653SOL    HW132858   5.221   4.888   4.125
10653SOL    HW232859   5.226   4.933   3.968
10654SOL     OW32860   4.105   0.493   1.443
10654SOL    HW132861   4.168   0.444   1.382
10654SOL    HW232862   4.145   0.498   1.535
10655SOL     OW32863   3.385   5.430   1.443
10655SOL    HW132864   3.472   5.388   1.419
10655SOL    HW232865   3.369   5.421   1.542
10656SOL     OW32866   6.187   1.941   0.663
10656SOL    HW132867   6.121   1.997   0.713
10656SOL    HW232868   6.226   1.873   0.725
10657SOL     OW32869   6.557   6.859   0.232
10657SOL    HW132870   6.559   6.956   0.257
10657SOL    HW232871   6.494   6.845   0.156
10658SOL     OW32872   0.337   4.208   4.857
10658SOL    HW132873   0.344   4.283   4.792
10658SOL    HW232874   0.243   4.175   4.861
10659SOL     OW32875   0.169   6.716   1.200
10659SOL    HW132876   0.172   6.816   1.199
10659SOL    HW232877   0.131   6.683   1.114
10660SOL     OW32878   5.436   4.213   6.462
10660SOL    HW132879   5.518   4.268   6.478
10660SOL    HW232880   5.457   4.116   6.473
10661SOL     OW32881   6.821   6.333   2.900
10661SOL    HW132882   6.787   6.362   2.989
10661SOL    HW232883   6.894   6.266   2.911
10662SOL     OW32884   6.032   0.946   2.201
10662SOL    HW132885   5.973   1.015   2.158
10662SOL    HW232886   6.124   0.984   2.212
10663SOL     OW32887   0.861   6.949   1.140
10663SOL    HW132888   0.827   6.856   1.126
10663SOL    HW232889   0.891   6.959   1.235
10664SOL     OW32890   1.963   4.191   6.182
10664SOL    HW132891   1.978   4.288   6.162
10664SOL    HW232892   2.035   4.158   6.244
10665SOL     OW32893   0.977   0.754   6.751
10665SOL    HW132894   1.049   0.735   6.818
10665SOL    HW232895   0.894   0.704   6.776
10666SOL     OW32896   4.097   4.191   0.300
10666SOL    HW132897   4.115   4.221   0.206
10666SOL    HW232898   4.013   4.137   0.302
10667SOL     OW32899   3.812   1.546   5.376
10667SOL    HW132900   3.805   1.449   5.353
10667SOL    HW232901   3.778   1.601   5.299
10668SOL     OW32902   1.199   1.700   5.698
10668SOL    HW132903   1.202   1.608   5.736
10668SOL    HW232904   1.152   1.761   5.761
10669SOL     OW32905   6.965   6.762   0.649
10669SOL    HW132906   7.013   6.843   0.617
10669SOL    HW232907   7.019   6.716   0.719
10670SOL     OW32908   4.988   4.719   5.719
10670SOL    HW132909   5.023   4.782   5.788
10670SOL    HW232910   4.889   4.729   5.712
10671SOL     OW32911   2.131   3.665   2.715
10671SOL    HW132912   2.224   3.691   2.741
10671SOL    HW232913   2.066   3.716   2.771
10672SOL     OW32914   6.827   2.928   0.600
10672SOL    HW132915   6.818   2.912   0.698
10672SOL    HW232916   6.814   3.025   0.580
10673SOL     OW32917   2.409   2.392   5.757
10673SOL    HW132918   2.467   2.385   5.675
10673SOL    HW232919   2.467   2.395   5.838
10674SOL     OW32920   4.124   3.210   0.736
10674SOL    HW132921   4.092   3.224   0.829
10674SOL    HW232922   4.132   3.298   0.689
10675SOL     OW32923   0.918   0.579   5.791
10675SOL    HW132924   0.912   0.568   5.890
10675SOL    HW232925   0.971   0.661   5.770
10676SOL     OW32926   6.109   0.169   6.260
10676SOL    HW132927   6.024   0.168   6.208
10676SOL    HW232928   6.183   0.135   6.203
10677SOL     OW32929   0.964   0.916   2.218
10677SOL    HW132930   0.866   0.914   2.199
10677SOL    HW232931   1.007   0.987   2.163
10678SOL     OW32932   3.688   5.258   2.889
10678SOL    HW132933   3.726   5.218   2.972
10678SOL    HW232934   3.665   5.354   2.905
10679SOL     OW32935   5.596   5.285   5.207
10679SOL    HW132936   5.555   5.202   5.170
10679SOL    HW232937   5.638   5.266   5.295
10680SOL     OW32938   1.646   3.216   3.162
10680SOL    HW132939   1.673   3.312   3.160
10680SOL    HW232940   1.711   3.164   3.219
10681SOL     OW32941   6.714   4.178   6.659
10681SOL    HW132942   6.759   4.089   6.663
10681SOL    HW232943   6.694   4.209   6.752
10682SOL     OW32944   1.826   1.880   2.860
10682SOL    HW132945   1.825   1.805   2.926
10682SOL    HW232946   1.739   1.929   2.862
10683SOL     OW32947   2.714   2.302   3.738
10683SOL    HW132948   2.812   2.294   3.757
10683SOL    HW232949   2.662   2.265   3.815
10684SOL     OW32950   5.115   3.767   0.352
10684SOL    HW132951   5.033   3.711   0.360
10684SOL    HW232952   5.153   3.758   0.260
10685SOL     OW32953   0.720   3.814   3.136
10685SOL    HW132954   0.748   3.905   3.104
10685SOL    HW232955   0.624   3.798   3.111
10686SOL     OW32956   4.064   6.007   6.733
10686SOL    HW132957   4.007   5.928   6.756
10686SOL    HW232958   4.131   5.980   6.664
10687SOL     OW32959   0.000   5.390   2.132
10687SOL    HW132960   6.998   5.337   2.051
10687SOL    HW232961   6.985   5.346   2.213
10688SOL     OW32962   6.164   4.352   2.305
10688SOL    HW132963   6.183   4.281   2.237
10688SOL    HW232964   6.129   4.433   2.259
10689SOL     OW32965   6.974   0.129   3.021
10689SOL    HW132966   0.011   0.080   3.085
10689SOL    HW232967   7.017   0.131   2.931
10690SOL     OW32968   4.703   5.625   3.061
10690SOL    HW132969   4.609   5.657   3.051
10690SOL    HW232970   4.704   5.531   3.095
10691SOL     OW32971   6.338   1.501   1.413
10691SOL    HW132972   6.283   1.573   1.455
10691SOL    HW232973   6.434   1.515   1.437
10692SOL     OW32974   3.031   6.034   3.629
10692SOL    HW132975   3.060   6.128   3.612
10692SOL    HW232976   2.936   6.034   3.660
10693SOL     OW32977   1.688   1.229   1.357
10693SOL    HW132978   1.687   1.250   1.259
10693SOL    HW232979   1.771   1.268   1.398
10694SOL     OW32980   3.361   6.241   1.403
10694SOL    HW132981   3.425   6.259   1.329
10694SOL    HW232982   3.278   6.296   1.389
10695SOL     OW32983   6.483   2.312   3.879
10695SOL    HW132984   6.556   2.300   3.812
10695SOL    HW232985   6.431   2.395   3.857
10696SOL     OW32986   7.022   5.406   1.554
10696SOL    HW132987   6.969   5.458   1.487
10696SOL    HW232988   6.959   5.361   1.618
10697SOL     OW32989   0.114   6.317   3.272
10697SOL    HW132990   0.021   6.282   3.255
10697SOL    HW232991   0.169   6.245   3.315
10698SOL     OW32992   2.809   0.236   3.748
10698SOL    HW132993   2.864   0.280   3.677
10698SOL    HW232994   2.802   0.296   3.827
10699SOL     OW32995   4.406   1.487   3.071
10699SOL    HW132996   4.354   1.450   2.994
10699SOL    HW232997   4.443   1.576   3.045
10700SOL     OW32998   0.844   0.202   0.299
10700SOL    HW132999   0.867   0.153   0.214
10700SOL    HW233000   0.803   0.291   0.276
10701SOL     OW33001   4.403   6.082   6.845
10701SOL    HW133002   4.352   6.138   6.780
10701SOL    HW233003   4.360   5.992   6.851
10702SOL     OW33004   5.802   2.042   1.573
10702SOL    HW133005   5.898   2.024   1.593
10702SOL    HW233006   5.765   2.107   1.638
10703SOL     OW33007   3.467   3.889   2.888
10703SOL    HW133008   3.484   3.913   2.984
10703SOL    HW233009   3.434   3.795   2.882
10704SOL     OW33010   4.932   6.432   1.909
10704SOL    HW133011   4.981   6.463   1.991
10704SOL    HW233012   4.995   6.423   1.833
10705SOL     OW33013   1.366   3.604   6.826
10705SOL    HW133014   1.311   3.655   6.760
10705SOL    HW233015   1.459   3.641   6.826
10706SOL     OW33016   4.472   0.340   2.441
10706SOL    HW133017   4.393   0.384   2.399
10706SOL    HW233018   4.485   0.249   2.402
10707SOL     OW33019   0.170   6.506   6.075
10707SOL    HW133020   0.179   6.574   6.002
10707SOL    HW233021   0.178   6.415   6.035
10708SOL     OW33022   4.923   0.769   1.370
10708SOL    HW133023   4.879   0.712   1.440
10708SOL    HW233024   5.022   0.771   1.386
10709SOL     OW33025   6.284   0.433   5.697
10709SOL    HW133026   6.294   0.382   5.611
10709SOL    HW233027   6.292   0.531   5.678
10710SOL     OW33028   6.655   6.001   4.189
10710SOL    HW133029   6.627   6.097   4.193
10710SOL    HW233030   6.720   5.983   4.263
10711SOL     OW33031   2.127   0.371   4.012
10711SOL    HW133032   2.115   0.463   4.048
10711SOL    HW233033   2.191   0.320   4.070
10712SOL     OW33034   3.567   1.000   4.468
10712SOL    HW133035   3.650   1.038   4.426
10712SOL    HW233036   3.566   1.024   4.565
10713SOL     OW33037   1.979   5.492   1.874
10713SOL    HW133038   2.066   5.444   1.862
10713SOL    HW233039   1.988   5.560   1.946
10714SOL     OW33040   0.271   4.995   4.701
10714SOL    HW133041   0.225   4.908   4.681
10714SOL    HW233042   0.343   4.979   4.769
10715SOL     OW33043   5.128   1.905   4.267
10715SOL    HW133044   5.156   1.991   4.310
10715SOL    HW233045   5.080   1.848   4.334
10716SOL     OW33046   6.396   1.190   4.092
10716SOL    HW133047   6.458   1.135   4.036
10716SOL    HW233048   6.305   1.147   4.092
10717SOL     OW33049   0.608   1.496   1.333
10717SOL    HW133050   0.509   1.485   1.339
10717SOL    HW233051   0.640   1.459   1.246
10718SOL     OW33052   6.570   5.542   0.639
10718SOL    HW133053   6.628   5.474   0.593
10718SOL    HW233054   6.539   5.505   0.727
10719SOL     OW33055   5.001   0.394   2.857
10719SOL    HW133056   5.004   0.299   2.827
10719SOL    HW233057   5.065   0.408   2.932
10720SOL     OW33058   6.720   3.515   5.779
10720SOL    HW133059   6.730   3.611   5.755
10720SOL    HW233060   6.806   3.480   5.816
10721SOL     OW33061   6.133   2.309   4.521
10721SOL    HW133062   6.208   2.373   4.533
10721SOL    HW233063   6.148   2.254   4.439
10722SOL     OW33064   6.638   3.641   0.038
10722SOL    HW133065   6.727   3.619   7.022
10722SOL    HW233066   6.649   3.714   0.106
10723SOL     OW33067   5.210   3.956   6.933
10723SOL    HW133068   5.259   4.042   6.923
10723SOL    HW233069   5.242   3.891   6.864
10724SOL     OW33070   4.519   6.686   5.995
10724SOL    HW133071   4.431   6.656   6.031
10724SOL    HW233072   4.561   6.612   5.942
10725SOL     OW33073   0.525   6.067   4.411
10725SOL    HW133074   0.506   6.164   4.401
10725SOL    HW233075   0.606   6.054   4.469
10726SOL     OW33076   5.482   0.726   5.144
10726SOL    HW133077   5.390   0.710   5.109
10726SOL    HW233078   5.478   0.782   5.227
10727SOL     OW33079   2.126   4.858   5.009
10727SOL    HW133080   2.066   4.778   5.003
10727SOL    HW233081   2.140   4.882   5.105
10728SOL     OW33082   4.842   6.817   2.572
10728SOL    HW133083   4.925   6.872   2.559
10728SOL    HW233084   4.772   6.848   2.508
10729SOL     OW33085   6.143   2.182   2.949
10729SOL    HW133086   6.135   2.162   2.851
10729SOL    HW233087   6.137   2.281   2.963
10730SOL     OW33088   2.384   5.884   2.348
10730SOL    HW133089   2.434   5.852   2.268
10730SOL    HW233090   2.308   5.943   2.320
10731SOL     OW33091   3.244   5.455   0.016
10731SOL    HW133092   3.308   5.533   0.021
10731SOL    HW233093   3.245   5.407   0.104
10732SOL     OW33094   5.430   6.588   2.993
10732SOL    HW133095   5.349   6.533   3.015
10732SOL    HW233096   5.507   6.528   2.974
10733SOL     OW33097   5.494   1.152   0.483
10733SOL    HW133098   5.557   1.089   0.438
10733SOL    HW233099   5.540   1.239   0.500
10734SOL     OW33100   0.381   0.317   6.402
10734SOL    HW133101   0.460   0.257   6.391
10734SOL    HW233102   0.352   0.317   6.498
10735SOL     OW33103   0.763   5.316   2.599
10735SOL    HW133104   0.677   5.347   2.640
10735SOL    HW233105   0.840   5.340   2.657
10736SOL     OW33106   6.940   1.024   4.055
10736SOL    HW133107   6.888   0.943   4.082
10736SOL    HW233108   7.021   1.033   4.112
10737SOL     OW33109   0.517   1.931   1.348
10737SOL    HW133110   0.582   1.889   1.285
10737SOL    HW233111   0.424   1.917   1.314
10738SOL     OW33112   2.586   1.031   2.318
10738SOL    HW133113   2.596   1.130   2.308
10738SOL    HW233114   2.573   1.008   2.414
10739SOL     OW33115   6.043   1.886   2.783
10739SOL    HW133116   5.952   1.884   2.740
10739SOL    HW233117   6.096   1.962   2.746
10740SOL     OW33118   1.463   6.495   5.573
10740SOL    HW133119   1.533   6.565   5.591
10740SOL    HW233120   1.492   6.409   5.614
10741SOL     OW33121   1.456   2.868   3.173
10741SOL    HW133122   1.510   2.873   3.256
10741SOL    HW233123   1.359   2.877   3.196
10742SOL     OW33124   6.453   5.848   1.696
10742SOL    HW133125   6.513   5.914   1.651
10742SOL    HW233126   6.360   5.858   1.660
10743SOL     OW33127   3.589   1.132   5.276
10743SOL    HW133128   3.539   1.213   5.245
10743SOL    HW233129   3.526   1.070   5.324
10744SOL     OW33130   3.139   0.492   1.486
10744SOL    HW133131   3.116   0.473   1.391
10744SOL    HW233132   3.212   0.430   1.516
10745SOL     OW33133   2.409   4.574   1.334
10745SOL    HW133134   2.326   4.609   1.291
10745SOL    HW233135   2.489   4.605   1.282
10746SOL     OW33136   2.663   5.702   0.664
10746SOL    HW133137   2.627   5.731   0.753
10746SOL    HW233138   2.759   5.732   0.656
10747SOL     OW33139   5.773   2.421   4.090
10747SOL    HW133140   5.809   2.389   4.177
10747SOL    HW233141   5.675   2.398   4.084
10748SOL     OW33142   4.703   5.563   1.263
10748SOL    HW133143   4.624   5.572   1.324
10748SOL    HW233144   4.786   5.553   1.317
10749SOL     OW33145   5.976   4.958   3.696
10749SOL    HW133146   6.051   4.963   3.763
10749SOL    HW233147   5.937   5.049   3.683
10750SOL     OW33148   4.879   3.851   3.767
10750SOL    HW133149   4.788   3.816   3.747
10750SOL    HW233150   4.895   3.935   3.716
10751SOL     OW33151   1.395   3.450   4.997
10751SOL    HW133152   1.468   3.467   5.063
10751SOL    HW233153   1.307   3.452   5.043
10752SOL     OW33154   6.392   5.096   6.887
10752SOL    HW133155   6.336   5.178   6.882
10752SOL    HW233156   6.341   5.019   6.848
10753SOL     OW33157   4.328   6.393   4.436
10753SOL    HW133158   4.289   6.326   4.372
10753SOL    HW233159   4.283   6.482   4.422
10754SOL     OW33160   0.503   3.011   2.186
10754SOL    HW133161   0.419   3.031   2.237
10754SOL    HW233162   0.582   3.041   2.240
10755SOL     OW33163   6.887   1.983   1.826
10755SOL    HW133164   6.971   1.931   1.835
10755SOL    HW233165   6.875   2.042   1.906
10756SOL     OW33166   5.985   2.555   0.247
10756SOL    HW133167   5.987   2.494   0.167
10756SOL    HW233168   6.069   2.543   0.300
10757SOL     OW33169   6.915   3.821   0.474
10757SOL    HW133170   6.954   3.865   0.554
10757SOL    HW233171   6.946   3.726   0.470
10758SOL     OW33172   1.341   5.580   6.622
10758SOL    HW133173   1.271   5.621   6.564
10758SOL    HW233174   1.340   5.481   6.612
10759SOL     OW33175   1.175   2.480   5.997
10759SOL    HW133176   1.202   2.543   5.924
10759SOL    HW233177   1.088   2.437   5.974
10760SOL     OW33178   1.129   6.059   0.455
10760SOL    HW133179   1.224   6.054   0.486
10760SOL    HW233180   1.126   6.045   0.356
10761SOL     OW33181   0.701   2.200   6.587
10761SOL    HW133182   0.694   2.123   6.651
10761SOL    HW233183   0.737   2.168   6.500
10762SOL     OW33184   3.800   0.593   6.007
10762SOL    HW133185   3.815   0.501   6.043
10762SOL    HW233186   3.764   0.652   6.079
10763SOL     OW33187   5.708   0.884   2.547
10763SOL    HW133188   5.800   0.922   2.537
10763SOL    HW233189   5.655   0.901   2.464
10764SOL     OW33190   4.160   0.696   4.979
10764SOL    HW133191   4.135   0.681   5.074
10764SOL    HW233192   4.249   0.654   4.961
10765SOL     OW33193   5.564   1.598   2.830
10765SOL    HW133194   5.527   1.627   2.742
10765SOL    HW233195   5.620   1.672   2.869
10766SOL     OW33196   1.874   5.222   0.033
10766SOL    HW133197   1.796   5.220   6.994
10766SOL    HW233198   1.848   5.183   0.121
10767SOL     OW33199   1.953   6.627   0.374
10767SOL    HW133200   1.948   6.531   0.401
10767SOL    HW233201   1.861   6.659   0.350
10768SOL     OW33202   5.242   5.392   0.529
10768SOL    HW133203   5.198   5.366   0.442
10768SOL    HW233204   5.339   5.370   0.525
10769SOL     OW33205   2.826   4.144   5.485
10769SOL    HW133206   2.901   4.198   5.447
10769SOL    HW233207   2.741   4.195   5.479
10770SOL     OW33208   5.584   6.753   4.305
10770SOL    HW133209   5.630   6.675   4.349
10770SOL    HW233210   5.513   6.719   4.244
10771SOL     OW33211   4.422   0.518   5.227
10771SOL    HW133212   4.470   0.438   5.264
10771SOL    HW233213   4.329   0.520   5.262
10772SOL     OW33214   5.784   6.532   4.018
10772SOL    HW133215   5.796   6.478   3.935
10772SOL    HW233216   5.698   6.583   4.013
10773SOL     OW33217   6.866   4.623   0.044
10773SOL    HW133218   6.952   4.673   0.057
10773SOL    HW233219   6.876   4.557   6.994
10774SOL     OW33220   1.256   2.456   0.944
10774SOL    HW133221   1.294   2.548   0.936
10774SOL    HW233222   1.328   2.393   0.975
10775SOL     OW33223   1.582   4.387   1.051
10775SOL    HW133224   1.622   4.336   1.126
10775SOL    HW233225   1.501   4.339   1.016
10776SOL     OW33226   6.113   0.537   2.979
10776SOL    HW133227   6.095   0.538   3.077
10776SOL    HW233228   6.210   0.521   2.963
10777SOL     OW33229   2.907   1.050   3.907
10777SOL    HW133230   2.809   1.061   3.895
10777SOL    HW233231   2.925   1.011   3.998
10778SOL     OW33232   6.727   6.335   5.112
10778SOL    HW133233   6.633   6.366   5.094
10778SOL    HW233234   6.736   6.239   5.087
10779SOL     OW33235   5.516   4.636   3.218
10779SOL    HW133236   5.454   4.693   3.165
10779SOL    HW233237   5.559   4.569   3.158
10780SOL     OW33238   0.703   6.014   4.689
10780SOL    HW133239   0.621   6.038   4.741
10780SOL    HW233240   0.717   5.915   4.692
10781SOL     OW33241   6.088   1.475   5.094
10781SOL    HW133242   6.097   1.376   5.078
10781SOL    HW233243   6.098   1.524   5.008
10782SOL     OW33244   6.818   3.457   5.066
10782SOL    HW133245   6.765   3.382   5.027
10782SOL    HW233246   6.801   3.462   5.165
10783SOL     OW33247   1.725   2.517   2.133
10783SOL    HW133248   1.729   2.604   2.182
10783SOL    HW233249   1.768   2.446   2.189
10784SOL     OW33250   2.993   5.987   2.121
10784SOL    HW133251   3.026   6.052   2.189
10784SOL    HW233252   3.022   6.018   2.030
10785SOL     OW33253   1.372   5.442   1.803
10785SOL    HW133254   1.450   5.505   1.814
10785SOL    HW233255   1.381   5.367   1.868
10786SOL     OW33256   4.300   2.374   2.743
10786SOL    HW133257   4.296   2.401   2.647
10786SOL    HW233258   4.366   2.432   2.791
10787SOL     OW33259   3.118   1.577   4.320
10787SOL    HW133260   3.157   1.642   4.255
10787SOL    HW233261   3.192   1.535   4.373
10788SOL     OW33262   0.900   4.453   0.358
10788SOL    HW133263   0.998   4.473   0.362
10788SOL    HW233264   0.882   4.369   0.409
10789SOL     OW33265   6.483   0.982   0.580
10789SOL    HW133266   6.413   1.049   0.553
10789SOL    HW233267   6.547   0.968   0.505
10790SOL     OW33268   0.665   2.224   5.317
10790SOL    HW133269   0.737   2.156   5.304
10790SOL    HW233270   0.595   2.213   5.246
10791SOL     OW33271   2.519   1.927   2.256
10791SOL    HW133272   2.522   1.946   2.354
10791SOL    HW233273   2.612   1.923   2.220
10792SOL     OW33274   3.419   2.287   1.440
10792SOL    HW133275   3.453   2.308   1.532
10792SOL    HW233276   3.345   2.220   1.445
10793SOL     OW33277   5.259   1.793   4.890
10793SOL    HW133278   5.339   1.741   4.919
10793SOL    HW233279   5.284   1.854   4.815
10794SOL     OW33280   4.428   3.111   1.700
10794SOL    HW133281   4.505   3.116   1.764
10794SOL    HW233282   4.438   3.030   1.642
10795SOL     OW33283   0.205   3.878   2.519
10795SOL    HW133284   0.132   3.837   2.573
10795SOL    HW233285   0.171   3.902   2.428
10796SOL     OW33286   5.855   6.804   6.556
10796SOL    HW133287   5.815   6.839   6.641
10796SOL    HW233288   5.878   6.880   6.495
10797SOL     OW33289   3.681   2.828   0.507
10797SOL    HW133290   3.737   2.902   0.543
10797SOL    HW233291   3.590   2.831   0.549
10798SOL     OW33292   2.662   7.005   6.306
10798SOL    HW133293   2.563   6.994   6.316
10798SOL    HW233294   2.688   6.993   6.211
10799SOL     OW33295   3.177   1.678   2.629
10799SOL    HW133296   3.236   1.671   2.549
10799SOL    HW233297   3.215   1.746   2.693
10800SOL     OW33298   1.525   0.133   0.583
10800SOL    HW133299   1.547   0.079   0.664
10800SOL    HW233300   1.482   0.218   0.610
10801SOL     OW33301   2.251   6.117   5.623
10801SOL    HW133302   2.170   6.132   5.679
10801SOL    HW233303   2.329   6.166   5.663
10802SOL     OW33304   1.408   3.630   3.968
10802SOL    HW133305   1.437   3.721   3.940
10802SOL    HW233306   1.425   3.617   4.066
10803SOL     OW33307   5.222   4.633   5.218
10803SOL    HW133308   5.195   4.718   5.173
10803SOL    HW233309   5.230   4.650   5.317
10804SOL     OW33310   5.988   3.919   1.841
10804SOL    HW133311   6.008   3.962   1.928
10804SOL    HW233312   5.982   3.820   1.853
10805SOL     OW33313   4.126   6.554   0.723
10805SOL    HW133314   4.123   6.533   0.821
10805SOL    HW233315   4.040   6.525   0.680
10806SOL     OW33316   5.597   3.275   0.409
10806SOL    HW133317   5.534   3.221   0.354
10806SOL    HW233318   5.562   3.281   0.503
10807SOL     OW33319   3.473   6.224   3.847
10807SOL    HW133320   3.403   6.243   3.778
10807SOL    HW233321   3.528   6.145   3.818
10808SOL     OW33322   0.936   3.162   6.543
10808SOL    HW133323   0.940   3.244   6.602
10808SOL    HW233324   0.961   3.082   6.597
10809SOL     OW33325   2.870   1.589   4.391
10809SOL    HW133326   2.837   1.682   4.402
10809SOL    HW233327   2.962   1.591   4.351
10810SOL     OW33328   0.266   1.473   5.409
10810SOL    HW133329   0.192   1.420   5.452
10810SOL    HW233330   0.242   1.570   5.411
10811SOL     OW33331   4.345   5.232   5.237
10811SOL    HW133332   4.271   5.288   5.275
10811SOL    HW233333   4.363   5.262   5.143
10812SOL     OW33334   6.812   3.201   2.956
10812SOL    HW133335   6.894   3.145   2.965
10812SOL    HW233336   6.770   3.186   2.867
10813SOL     OW33337   2.627   5.787   1.731
10813SOL    HW133338   2.575   5.741   1.803
10813SOL    HW233339   2.724   5.768   1.742
10814SOL     OW33340   2.350   0.444   5.202
10814SOL    HW133341   2.260   0.417   5.169
10814SOL    HW233342   2.343   0.465   5.300
10815SOL     OW33343   5.180   4.045   2.870
10815SOL    HW133344   5.233   4.028   2.787
10815SOL    HW233345   5.202   3.976   2.939
10816SOL     OW33346   1.707   1.120   2.305
10816SOL    HW133347   1.804   1.142   2.294
10816SOL    HW233348   1.666   1.182   2.372
10817SOL     OW33349   5.197   0.473   2.526
10817SOL    HW133350   5.285   0.486   2.481
10817SOL    HW233351   5.210   0.474   2.626
10818SOL     OW33352   5.535   3.043   6.845
10818SOL    HW133353   5.580   2.990   6.773
10818SOL    HW233354   5.512   2.983   6.921
10819SOL     OW33355   0.465   4.383   6.220
10819SOL    HW133356   0.399   4.407   6.291
10819SOL    HW233357   0.471   4.458   6.153
10820SOL     OW33358   0.413   0.052   3.761
10820SOL    HW133359   0.384   0.012   3.848
10820SOL    HW233360   0.335   0.095   3.716
10821SOL     OW33361   0.145   0.036   1.699
10821SOL    HW133362   0.065   7.003   1.680
10821SOL    HW233363   0.210   7.007   1.754
10822SOL     OW33364   1.134   3.299   2.418
10822SOL    HW133365   1.066   3.371   2.434
10822SOL    HW233366   1.214   3.338   2.374
10823SOL     OW33367   2.703   5.816   1.464
10823SOL    HW133368   2.680   5.845   1.557
10823SOL    HW233369   2.632   5.753   1.430
10824SOL     OW33370   5.195   0.456   3.577
10824SOL    HW133371   5.230   0.416   3.492
10824SOL    HW233372   5.155   0.546   3.557
10825SOL     OW33373   2.939   1.352   1.277
10825SOL    HW133374   2.933   1.450   1.296
10825SOL    HW233375   2.936   1.336   1.179
10826SOL     OW33376   6.827   3.728   1.646
10826SOL    HW133377   6.821   3.674   1.730
10826SOL    HW233378   6.743   3.716   1.592
10827SOL     OW33379   6.842   3.608   4.339
10827SOL    HW133380   6.852   3.605   4.439
10827SOL    HW233381   6.821   3.701   4.310
10828SOL     OW33382   1.138   5.711   1.349
10828SOL    HW133383   1.219   5.677   1.303
10828SOL    HW233384   1.096   5.638   1.402
10829SOL     OW33385   2.973   3.683   1.749
10829SOL    HW133386   3.033   3.733   1.686
10829SOL    HW233387   3.008   3.690   1.842
10830SOL     OW33388   6.117   3.347   4.410
10830SOL    HW133389   6.092   3.444   4.401
10830SOL    HW233390   6.050   3.301   4.468
10831SOL     OW33391   4.992   0.794   2.726
10831SOL    HW133392   5.029   0.848   2.650
10831SOL    HW233393   5.067   0.764   2.785
10832SOL     OW33394   0.973   2.031   0.015
10832SOL    HW133395   0.892   2.090   0.011
10832SOL    HW233396   0.952   1.950   0.070
10833SOL     OW33397   2.444   0.909   4.174
10833SOL    HW133398   2.386   0.978   4.132
10833SOL    HW233399   2.425   0.905   4.273
10834SOL     OW33400   0.727   0.995   5.589
10834SOL    HW133401   0.796   1.066   5.607
10834SOL    HW233402   0.636   1.032   5.606
10835SOL     OW33403   6.111   1.828   2.403
10835SOL    HW133404   6.146   1.787   2.487
10835SOL    HW233405   6.180   1.889   2.364
10836SOL     OW33406   0.500   1.359   5.463
10836SOL    HW133407   0.408   1.397   5.455
10836SOL    HW233408   0.567   1.434   5.461
10837SOL     OW33409   6.668   4.787   0.136
10837SOL    HW133410   6.757   4.749   0.110
10837SOL    HW233411   6.668   4.885   0.120
10838SOL     OW33412   5.993   0.042   6.480
10838SOL    HW133413   6.041   0.094   6.409
10838SOL    HW233414   5.941   0.104   6.538
10839SOL     OW33415   2.701   1.655   0.155
10839SOL    HW133416   2.714   1.595   0.076
10839SOL    HW233417   2.711   1.750   0.126
10840SOL     OW33418   3.162   5.948   1.255
10840SOL    HW133419   3.089   5.943   1.188
10840SOL    HW233420   3.250   5.928   1.211
10841SOL     OW33421   4.074   6.298   6.159
10841SOL    HW133422   4.135   6.280   6.236
10841SOL    HW233423   4.117   6.366   6.099
10842SOL     OW33424   6.388   2.924   1.031
10842SOL    HW133425   6.364   2.851   0.967
10842SOL    HW233426   6.358   3.012   0.993
10843SOL     OW33427   1.266   1.923   2.251
10843SOL    HW133428   1.234   1.856   2.317
10843SOL    HW233429   1.355   1.895   2.216
10844SOL     OW33430   6.693   6.442   4.397
10844SOL    HW133431   6.753   6.490   4.333
10844SOL    HW233432   6.740   6.361   4.432
10845SOL     OW33433   1.169   1.062   1.810
10845SOL    HW133434   1.159   0.991   1.741
10845SOL    HW233435   1.258   1.107   1.799
10846SOL     OW33436   4.391   2.140   1.037
10846SOL    HW133437   4.322   2.122   1.107
10846SOL    HW233438   4.347   2.172   0.953
10847SOL     OW33439   2.994   1.851   5.931
10847SOL    HW133440   3.034   1.762   5.953
10847SOL    HW233441   3.066   1.919   5.919
10848SOL     OW33442   2.237   1.142   0.033
10848SOL    HW133443   2.215   1.234   0.002
10848SOL    HW233444   2.199   1.128   0.124
10849SOL     OW33445   3.140   4.937   3.993
10849SOL    HW133446   3.163   4.944   4.090
10849SOL    HW233447   3.068   4.868   3.981
10850SOL     OW33448   5.024   6.664   6.956
10850SOL    HW133449   5.004   6.599   0.006
10850SOL    HW233450   5.114   6.644   6.917
10851SOL     OW33451   2.425   2.822   6.305
10851SOL    HW133452   2.338   2.830   6.354
10851SOL    HW233453   2.412   2.850   6.210
10852SOL     OW33454   0.219   1.156   6.297
10852SOL    HW133455   0.301   1.113   6.261
10852SOL    HW233456   0.141   1.093   6.289
10853SOL     OW33457   3.043   1.962   4.674
10853SOL    HW133458   2.991   2.046   4.691
10853SOL    HW233459   3.082   1.965   4.582
10854SOL     OW33460   5.486   0.094   6.771
10854SOL    HW133461   5.507   0.160   6.843
10854SOL    HW233462   5.507   0.001   6.804
10855SOL     OW33463   2.095   6.094   2.668
10855SOL    HW133464   2.031   6.128   2.737
10855SOL    HW233465   2.148   6.171   2.631
10856SOL     OW33466   6.071   6.439   0.184
10856SOL    HW133467   6.093   6.426   0.280
10856SOL    HW233468   5.976   6.413   0.167
10857SOL     OW33469   6.015   2.514   3.621
10857SOL    HW133470   5.983   2.577   3.550
10857SOL    HW233471   6.081   2.562   3.680
10858SOL     OW33472   1.706   3.554   0.038
10858SOL    HW133473   1.801   3.586   0.045
10858SOL    HW233474   1.665   3.552   0.129
10859SOL     OW33475   0.763   4.196   3.136
10859SOL    HW133476   0.812   4.137   3.072
10859SOL    HW233477   0.669   4.208   3.104
10860SOL     OW33478   0.047   1.311   0.677
10860SOL    HW133479   0.131   1.294   0.625
10860SOL    HW233480   0.004   1.224   0.701
10861SOL     OW33481   3.012   2.656   1.690
10861SOL    HW133482   3.056   2.726   1.746
10861SOL    HW233483   2.982   2.580   1.748
10862SOL     OW33484   2.756   2.648   6.067
10862SOL    HW133485   2.832   2.617   6.009
10862SOL    HW233486   2.717   2.731   6.028
10863SOL     OW33487   2.342   0.363   3.199
10863SOL    HW133488   2.382   0.276   3.229
10863SOL    HW233489   2.304   0.351   3.107
10864SOL     OW33490   2.839   4.515   1.404
10864SOL    HW133491   2.847   4.550   1.497
10864SOL    HW233492   2.763   4.449   1.400
10865SOL     OW33493   5.529   3.027   3.795
10865SOL    HW133494   5.616   3.070   3.771
10865SOL    HW233495   5.455   3.093   3.781
10866SOL     OW33496   6.656   2.403   0.713
10866SOL    HW133497   6.629   2.353   0.630
10866SOL    HW233498   6.575   2.447   0.752
10867SOL     OW33499   2.710   2.882   0.424
10867SOL    HW133500   2.747   2.813   0.361
10867SOL    HW233501   2.611   2.879   0.424
10868SOL     OW33502   0.413   1.721   3.395
10868SOL    HW133503   0.358   1.669   3.460
10868SOL    HW233504   0.367   1.808   3.375
10869NA      NA33505   0.120   1.994   6.003
10870NA      NA33506   4.472   4.629   5.183
10871NA      NA33507   1.590   5.295   2.809
10872NA      NA33508   5.191   4.337   3.766
10873NA      NA33509   4.235   2.422   5.329
10874NA      NA33510   2.913   5.158   1.279
10875NA      NA33511   1.192   5.310   0.522
10876NA      NA33512   3.701   4.222   1.313
10877NA      NA33513   4.722   4.414   0.470
10878NA      NA33514   3.607   1.216   6.267
10879NA      NA33515   5.274   6.036   2.061
10880NA      NA33516   1.477   0.345   5.262
10881NA      NA33517   4.810   5.036   1.884
10882NA      NA33518   3.282   3.442   0.153
   7.02342   7.02342   7.02342
